Membrane in water
40155
    1TCq1    O1    1   0.054   3.846  11.094 -0.6163 -0.1472  0.5797
    1TCq1    C1    2   0.090   3.728  11.159  0.0694  0.4888 -0.2931
    1TCq1    O2    3   0.107   3.622  11.101 -0.2028 -0.1031 -0.1620
    1TCq1    C2    4   0.039   3.744  11.298 -0.0008 -0.2787  0.3202
    1TCq1    C3    5   0.025   3.867  11.361  0.0624  0.0888 -0.2567
    1TCq1    C4    6   4.664   3.884  11.461 -0.9929  0.6643  0.0018
    1TCq1    C5    7   4.571   3.790  11.493  0.4811 -0.9168 -0.8717
    1TCq1    C6    8   4.580   3.670  11.427  0.0302  0.1151  0.0552
    1TCq1    C7    9   4.678   3.642  11.341  0.7617  0.4666 -0.0623
    1TCq1    C8   10   4.504   3.563  11.487 -1.0832 -0.3982  0.4480
    1TCq1    O4   11   4.417   3.607  11.562 -0.2749  0.4249 -1.0652
    1TCq1    C9   12   4.656   4.011  11.527 -0.3780  0.2400 -1.3347
    1TCq1    O5   13   4.574   4.027  11.623 -0.1229 -0.2866 -0.3173
    1TCq1    O6   14   4.719   4.105  11.462  0.2051 -0.5423  0.2922
    1TCq1    H1   15   0.031   3.916  11.159 -1.8772  0.1330 -0.1610
    1TCq1    H2   16   0.099   3.939  11.326 -0.1645 -0.2096 -1.3658
    1TCq1    H3   17   4.500   3.806  11.573  0.5009 -1.3971 -0.7560
    1TCq1    H4   18   4.674   3.546  11.290  1.5533  1.4775 -2.0186
    2MPD2     C   19   4.420   3.079  11.633 -0.6886  0.3166  0.2608
    2MPD2    C1   20   4.357   3.201  11.672 -1.5606  0.0825  0.2912
    2MPD2    C2   21   4.395   3.322  11.615  0.3650  0.2021  0.5319
    2MPD2    C3   22   4.495   3.319  11.522 -0.1624  0.3968 -0.4083
    2MPD2    C4   23   4.553   3.202  11.481  0.1568 -0.4601 -0.0800
    2MPD2    C5   24   4.517   3.085  11.538 -0.4031  0.5186  0.6751
    2MPD2     H   25   4.333   3.409  11.631  2.7068  1.7259  1.2027
    2MPD2    H1   26   4.636   3.200  11.411 -0.9940  1.2672 -1.5112
    2MPD2    H2   27   4.395   2.980  11.668 -1.9724  0.6906  0.4244
    2MPD2    H3   28   4.559   2.992  11.501  0.8214  0.6096  1.8122
    2MPD2     N   29   4.541   3.437  11.454 -0.2611 -0.5934  0.0396
    2MPD2    H5   30   4.611   3.424  11.382 -1.5184  0.6213 -1.4252
    2MPD2    N1   31   4.244   3.208  11.754  0.1178 -0.0434  0.1124
    2MPD2    H7   32   4.205   3.298  11.778  1.7398  0.8949 -0.7986
    3TCq1    O1   33   3.414   0.561  10.331 -0.4455  0.6381  0.4700
    3TCq1    C1   34   3.528   0.494  10.323  0.3429  0.0490  0.3079
    3TCq1    O2   35   3.634   0.547  10.356 -0.0102  0.0608 -0.1925
    3TCq1    C2   36   3.508   0.347  10.332 -0.5175 -0.2360  0.2929
    3TCq1    C3   37   3.571   0.263  10.243 -0.9071 -0.0549  0.7786
    3TCq1    C4   38   3.542   0.128  10.253 -0.2541 -0.1419 -0.0831
    3TCq1    C5   39   3.452   0.080  10.342  0.4343 -0.1562 -0.3858
    3TCq1    C6   40   3.381   0.170  10.420  0.5999  0.0745  0.4357
    3TCq1    C7   41   3.408   0.303  10.413  0.9315  0.4462  0.5543
    3TCq1    C8   42   3.288   0.108  10.521  1.0608  0.6056  0.2461
    3TCq1    O4   43   3.288   4.711  10.537  0.3349  0.0259  0.2202
    3TCq1    C9   44   3.607   0.035  10.162  0.4285 -0.4902  0.1757
    3TCq1    O5   45   3.603   4.636  10.183  0.0983 -0.1668  0.7305
    3TCq1    O6   46   3.682   0.088  10.076 -1.0077  0.0424  0.3836
    3TCq1    H1   47   3.345   0.504  10.290  1.2529 -0.9809 -0.1533
    3TCq1    H2   48   3.652   0.305  10.185 -1.3263 -1.3015 -0.6814
    3TCq1    H3   49   3.438   4.695  10.341  1.2855 -0.2707 -0.1660
    3TCq1    H4   50   3.370   0.375  10.484 -0.1078  0.6931 -0.2363
    4MPD2     C   51   3.028   0.119  10.946  0.3829  0.3718  0.8097
    4MPD2    C1   52   3.074   0.246  10.927  0.1642  0.0783  0.0621
    4MPD2    C2   53   3.133   0.271  10.809  0.6767 -0.2823 -0.4637
    4MPD2    C3   54   3.167   0.174  10.716 -0.5727 -0.1592 -0.0216
    4MPD2    C4   55   3.113   0.044  10.735 -0.5569 -0.5087  0.6902
    4MPD2    C5   56   3.047   0.017  10.848 -0.1921  0.5793  0.2515
    4MPD2     H   57   3.182   0.367  10.795  1.9176 -0.8977 -0.3602
    4MPD2    H1   58   3.127   4.678  10.677 -3.0465 -2.4031  3.0133
    4MPD2    H2   59   2.973   0.094  11.036 -2.9204  0.7286 -1.1190
    4MPD2    H3   60   3.027   4.636  10.867 -0.2666  0.5385 -0.0438
    4MPD2     N   61   3.241   0.206  10.608  0.0909 -0.4829  0.5094
    4MPD2    H5   62   3.257   0.305  10.594  0.6875 -0.4234  1.6195
    4MPD2    N1   63   3.076   0.350  11.027 -0.2144 -0.3821 -0.2058
    4MPD2    H7   64   3.124   0.439  11.014  0.0998 -0.7752 -1.6988
    5TCq1    O1   65   3.504   2.372  10.627  0.1373  0.3064 -0.4748
    5TCq1    C1   66   3.407   2.303  10.562 -0.0058 -0.1358 -0.1092
    5TCq1    O2   67   3.368   2.196  10.611  0.4149 -0.0237  0.3774
    5TCq1    C2   68   3.447   2.318  10.423  0.4629  0.3489  0.1144
    5TCq1    C3   69   3.451   2.450  10.382  0.4089 -0.4849 -0.1136
    5TCq1    C4   70   3.516   2.472  10.262  0.5126 -0.3136  0.6880
    5TCq1    C5   71   3.573   2.370  10.193  0.6872 -0.2279  0.0104
    5TCq1    C6   72   3.568   2.239  10.242 -0.4791 -0.3850  0.3471
    5TCq1    C7   73   3.500   2.211  10.358  0.1721 -1.0199  0.8629
    5TCq1    C8   74   3.674   2.149  10.211  0.4770 -0.3640  0.2895
    5TCq1    O4   75   3.658   2.028  10.219 -0.6620 -0.2624 -0.0485
    5TCq1    C9   76   3.522   2.606  10.222 -0.5261 -1.0876  0.1684
    5TCq1    O5   77   3.453   2.697  10.272  0.0352  0.2328 -0.3103
    5TCq1    O6   78   3.604   2.637  10.134 -0.2251 -0.4777  0.3572
    5TCq1    H1   79   3.542   2.435  10.562  0.7610  0.7886  0.3548
    5TCq1    H2   80   3.403   2.538  10.423  1.3721  0.1611 -0.3746
    5TCq1    H3   81   3.607   2.396  10.093  0.1754 -0.3352 -0.1878
    5TCq1    H4   82   3.510   2.114  10.405  1.0738 -1.3272  0.0425
    6MPD2     C   83   4.005   2.251  10.081  0.9443 -0.0880  0.1532
    6MPD2    C1   84   3.904   2.162  10.117  1.6675  0.2216 -1.2468
    6MPD2    C2   85   3.931   2.026  10.106  0.2055 -0.6871  0.2500
    6MPD2    C3   86   4.051   1.974  10.055 -0.0676 -0.5860 -0.7953
    6MPD2    C4   87   4.147   2.063  10.012  0.3015  0.5567 -0.1633
    6MPD2    C5   88   4.120   2.203  10.019  0.5444 -0.0460  0.3921
    6MPD2     H   89   3.856   1.958  10.144 -1.5220  1.1015  0.0058
    6MPD2    H1   90   4.232   2.025   9.956  0.9516  0.7425  0.6933
    6MPD2    H2   91   3.985   2.358  10.084 -0.8595 -0.3845 -1.1637
    6MPD2    H3   92   4.197   2.275   9.992 -1.1892  0.6112 -2.7852
    6MPD2     N   93   4.072   1.837  10.050  0.6937 -0.2338  0.0954
    6MPD2    H5   94   4.169   1.809  10.045  0.1313 -2.3132  0.6607
    6MPD2    N1   95   3.783   2.217  10.160  0.5051  0.1189 -0.3144
    6MPD2    H7   96   3.773   2.318  10.165 -1.8493  0.1116 -4.4411
    7TCq1    O1   97   1.844   1.738  12.652  0.2967 -0.2497  0.4242
    7TCq1    C1   98   1.831   1.710  12.781  0.2833  0.5555  0.0921
    7TCq1    O2   99   1.772   1.787  12.855 -0.2342  0.4480  0.3238
    7TCq1    C2  100   1.851   1.570  12.808 -0.1080 -0.6252  0.1740
    7TCq1    C3  101   1.844   1.472  12.710  0.0024  0.0603 -0.5902
    7TCq1    C4  102   1.866   1.343  12.751 -0.1273 -0.2169 -0.2346
    7TCq1    C5  103   1.872   1.309  12.880 -0.6997  0.8994 -1.3411
    7TCq1    C6  104   1.869   1.405  12.978 -0.0429 -0.2578  0.2015
    7TCq1    C7  105   1.875   1.539  12.944 -0.2939 -0.4920 -0.2445
    7TCq1    C8  106   1.936   1.383  13.110  0.2868 -0.0984  0.5853
    7TCq1    O4  107   1.967   1.481  13.179 -0.2621 -0.0099  0.2682
    7TCq1    C9  108   1.866   1.233  12.651  0.4243  0.2072 -0.2257
    7TCq1    O5  109   1.855   1.114  12.682  0.6454  0.0119  0.0309
    7TCq1    O6  110   1.888   1.274  12.538  0.4378 -0.0127 -0.2025
    7TCq1    H1  111   1.915   1.684  12.611 -0.5978 -1.2387  0.1722
    7TCq1    H2  112   1.833   1.500  12.606  1.4992  0.8896 -0.5254
    7TCq1    H3  113   1.888   1.203  12.896 -0.2804  1.0297 -0.9040
    7TCq1    H4  114   1.900   1.617  13.015 -0.5021 -0.6636  0.0137
    8MPD2     C  115   2.134   1.083  13.478 -0.0751 -0.3711  0.4430
    8MPD2    C1  116   2.048   1.008  13.402 -0.0327  0.1453 -0.0722
    8MPD2    C2  117   1.989   1.068  13.295  0.2872 -0.2872  0.1576
    8MPD2    C3  118   2.013   1.197  13.251 -0.0513 -0.2568 -0.3896
    8MPD2    C4  119   2.096   1.270  13.335 -0.5270 -0.2561  0.0800
    8MPD2    C5  120   2.153   1.220  13.443 -0.1865  0.2296  0.3154
    8MPD2     H  121   1.929   1.001  13.235  2.2452 -1.3840 -0.5605
    8MPD2    H1  122   2.132   1.370  13.311  0.8100 -1.0867 -1.4728
    8MPD2    H2  123   2.183   1.046  13.567  2.6870 -0.9702 -1.2966
    8MPD2    H3  124   2.214   1.287  13.502 -0.4330  1.6731 -1.0595
    8MPD2     N  125   1.944   1.249  13.141 -0.2596 -0.0340 -0.6279
    8MPD2    H5  126   1.889   1.190  13.079  1.5682 -0.3679 -1.9386
    8MPD2    N1  127   2.025   0.877  13.451 -0.1898 -0.1860 -0.1402
    8MPD2    H7  128   2.066   0.851  13.541  0.4956  2.3426  0.2903
    9TCq1    O1  129   3.718   3.929  10.829 -0.3770  0.0194 -0.0474
    9TCq1    C1  130   3.755   3.960  10.701  0.4944 -0.2516  0.1217
    9TCq1    O2  131   3.740   3.882  10.605 -0.4310 -0.1085  0.3891
    9TCq1    C2  132   3.736   4.108  10.697  0.5868 -0.4814  0.2343
    9TCq1    C3  133   3.663   4.151  10.594 -0.6479  0.3101 -0.2480
    9TCq1    C4  134   3.616   4.283  10.602  0.2488  0.0040  0.0222
    9TCq1    C5  135   3.632   4.365  10.703  0.6532 -0.8981 -0.3530
    9TCq1    C6  136   3.694   4.313  10.813  0.1144 -0.9378  0.0733
    9TCq1    C7  137   3.739   4.184  10.812  0.0194 -0.2846  0.3015
    9TCq1    C8  138   3.689   4.397  10.931  0.5499  0.1497 -0.0651
    9TCq1    O4  139   3.700   4.519  10.912 -0.1005 -0.3805 -0.3043
    9TCq1    C9  140   3.551   4.331  10.483 -0.7429  0.6649 -0.5334
    9TCq1    O5  141   3.492   4.445  10.493  0.0321  0.6691  0.2054
    9TCq1    O6  142   3.570   4.272  10.371  0.3575  0.1757 -0.2263
    9TCq1    H1  143   3.694   4.010  10.879  1.4655 -0.3641  1.4490
    9TCq1    H2  144   3.647   4.094  10.503 -0.1185 -0.4827  0.1578
    9TCq1    H3  145   3.609   4.468  10.681  1.9904 -0.2457  1.3501
    9TCq1    H4  146   3.810   4.163  10.891 -0.7213  1.2653  1.3873
   10MPD2     C  147   3.696   4.523  11.193  0.5657 -0.2036  0.0618
   10MPD2    C1  148   3.692   4.387  11.174  0.2065 -0.1044  0.7132
   10MPD2    C2  149   3.695   4.308  11.287 -0.9056 -0.3599 -0.0039
   10MPD2    C3  150   3.696   4.358  11.414  0.1083 -0.0665  0.5302
   10MPD2    C4  151   3.685   4.497  11.422  0.5263 -0.2304 -0.0787
   10MPD2    C5  152   3.685   4.580  11.316  0.1132 -0.0954 -0.0034
   10MPD2     H  153   3.724   4.204  11.274 -0.5278 -0.3531  0.7782
   10MPD2    H1  154   3.672   4.555  11.514 -1.5637 -1.5279  0.4459
   10MPD2    H2  155   3.689   4.598  11.115  1.1899  1.2294  1.3904
   10MPD2    H3  156   3.679   4.686  11.342 -0.6742 -0.3707  0.9681
   10MPD2     N  157   3.704   4.276  11.529  0.8565  0.8199 -0.6744
   10MPD2    H5  158   3.716   4.317  11.621 -1.1833  0.3952 -0.2138
   10MPD2    N1  159   3.683   4.325  11.046 -0.0427  0.3824 -0.3466
   10MPD2    H7  160   3.681   4.224  11.053  0.5297  0.4396  0.6785
   11TCq1    O1  161   0.688   4.346  14.265  0.5320  0.1241 -0.6377
   11TCq1    C1  162   0.651   4.223  14.252 -0.1216 -0.5029  1.0294
   11TCq1    O2  163   0.720   4.128  14.219  0.1062  0.5442  0.2706
   11TCq1    C2  164   0.552   4.212  14.356  0.0800  0.4670 -0.2652
   11TCq1    C3  165   0.558   4.305  14.456 -0.2394  1.1059  0.0199
   11TCq1    C4  166   0.448   4.335  14.531 -0.0915 -0.2271 -0.2268
   11TCq1    C5  167   0.334   4.268  14.511 -0.8058 -0.3357 -0.5120
   11TCq1    C6  168   0.339   4.168  14.406 -0.3810  0.7112 -0.0738
   11TCq1    C7  169   0.439   4.147  14.326 -0.0217  0.5975 -0.6307
   11TCq1    C8  170   0.225   4.076  14.401  0.7169  0.1932 -0.2952
   11TCq1    O4  171   0.145   4.067  14.495  0.3272 -0.5275  0.1017
   11TCq1    C9  172   0.454   4.422  14.648  0.3078  0.1157 -0.1995
   11TCq1    O5  173   0.563   4.462  14.686 -0.3150 -0.4675  0.5050
   11TCq1    O6  174   0.343   4.475  14.667  0.3851  0.0354  0.4519
   11TCq1    H1  175   0.611   4.405  14.277 -1.6005 -3.0015  1.2581
   11TCq1    H2  176   0.650   4.356  14.484 -0.5852  1.2698  0.8525
   11TCq1    H3  177   0.247   4.285  14.575  0.0629 -0.3769  0.6786
   11TCq1    H4  178   0.439   4.068  14.252 -0.9580  0.2713 -0.2741
   12MPD2     C  179   4.695   3.944  14.293  0.3284 -0.5303  0.0463
   12MPD2    C1  180   0.088   3.963  14.220  0.3678  0.2287 -0.4486
   12MPD2    C2  181   0.081   3.924  14.088  0.0523 -0.7571  0.4059
   12MPD2    C3  182   4.695   3.865  14.029  0.1507  0.2391  0.0213
   12MPD2    C4  183   4.590   3.834  14.110 -0.1402  0.8419  0.8321
   12MPD2    C5  184   4.592   3.875  14.246  0.3850  0.0810  0.6232
   12MPD2     H  185   0.166   3.941  14.023  0.5636 -2.5565  0.5770
   12MPD2    H1  186   4.503   3.778  14.077  0.7223  0.6786 -1.1478
   12MPD2    H2  187   4.688   3.967  14.399 -2.1040  0.3944 -0.3096
   12MPD2    H3  188   4.514   3.845  14.314  0.2965 -2.8438 -0.7734
   12MPD2     N  189   4.695   3.829  13.890  0.1323 -0.3706 -0.0716
   12MPD2    H5  190   4.604   3.812  13.849  0.5150 -0.1865 -0.9962
   12MPD2    N1  191   0.201   4.038  14.267  0.0664  0.0201  0.7456
   12MPD2    H7  192   0.272   4.064  14.199 -2.5361  0.2325 -1.9458
   13TCq1    O1  193   3.160   4.250   9.660  0.0755  0.3069 -0.1524
   13TCq1    C1  194   3.060   4.338   9.692 -0.5352 -0.0722  0.0167
   13TCq1    O2  195   2.946   4.304   9.708  0.6391  0.1460 -0.6009
   13TCq1    C2  196   3.132   4.439   9.763 -0.2303  0.3103 -0.5440
   13TCq1    C3  197   3.250   4.472   9.711  0.1210 -0.3340 -0.5090
   13TCq1    C4  198   3.345   4.541   9.789 -0.8531  0.4815  0.0476
   13TCq1    C5  199   3.309   4.566   9.915 -0.0010 -0.1254  0.0834
   13TCq1    C6  200   3.193   4.518   9.971  0.2260 -0.3837 -0.1935
   13TCq1    C7  201   3.101   4.449   9.898  0.1812 -0.6573  0.0902
   13TCq1    C8  202   3.192   4.511  10.119 -0.1630  0.2087  0.1680
   13TCq1    O4  203   3.299   4.543  10.173 -0.0750  0.0523  0.3876
   13TCq1    C9  204   3.464   4.604   9.731 -1.0244 -0.2407  0.4000
   13TCq1    O5  205   3.484   4.566   9.616 -0.4073  1.3287 -0.1173
   13TCq1    O6  206   3.541   4.671   9.810 -0.0387  0.3345 -0.2290
   13TCq1    H1  207   3.252   4.282   9.648  0.3373 -0.3682  0.0533
   13TCq1    H2  208   3.272   4.467   9.605  1.3033 -0.5755 -0.2599
   13TCq1    H3  209   3.370   4.640   9.966 -0.8250  0.8998 -0.4316
   13TCq1    H4  210   3.024   4.387   9.943 -1.4412  1.7690  0.6032
   14MPD2     C  211   2.926   4.364  10.348  0.6112  0.4991 -0.3137
   14MPD2    C1  212   3.049   4.422  10.308 -0.3529 -0.1035 -0.0238
   14MPD2    C2  213   3.150   4.438  10.405  0.4577 -0.3650  0.1310
   14MPD2    C3  214   3.127   4.407  10.538 -0.2880 -0.2815 -0.5954
   14MPD2    C4  215   3.001   4.361  10.579  0.5294 -0.5424  0.7634
   14MPD2    C5  216   2.906   4.344  10.482  0.5512  0.0242 -0.5668
   14MPD2     H  217   3.249   4.469  10.374  0.0173 -0.9452 -1.8182
   14MPD2    H1  218   2.978   4.333  10.681 -1.7467 -0.3341  0.3072
   14MPD2    H2  219   2.846   4.331  10.283 -1.4388 -2.6470  3.8682
   14MPD2    H3  220   2.807   4.306  10.504  0.9548 -0.3874  0.5355
   14MPD2     N  221   3.235   4.408  10.630  0.3126 -0.1353 -0.5142
   14MPD2    H5  222   3.323   4.445  10.596  0.7921 -2.5678 -1.9017
   14MPD2    N1  223   3.072   4.455  10.171 -0.0771  0.4227  0.1491
   14MPD2    H7  224   2.995   4.438  10.108  1.5109  2.4192 -2.3757
   15TCq1    O1  225   0.381   2.131   1.659 -0.0903 -0.6190  0.3646
   15TCq1    C1  226   0.484   2.135   1.566  0.2919 -1.2068  0.0806
   15TCq1    O2  227   0.472   2.160   1.446  0.1250  0.6950  0.3942
   15TCq1    C2  228   0.591   2.038   1.609 -0.4540  1.5379 -0.5008
   15TCq1    C3  229   0.581   1.972   1.730  0.1328 -0.2501  0.1551
   15TCq1    C4  230   0.690   1.890   1.767  0.0685 -0.1823 -0.2659
   15TCq1    C5  231   0.801   1.888   1.695 -0.1190  0.0386 -0.3898
   15TCq1    C6  232   0.808   1.961   1.576 -0.7203 -1.0996 -0.4185
   15TCq1    C7  233   0.704   2.032   1.526 -0.5664  0.0853 -0.3788
   15TCq1    C8  234   0.922   1.948   1.488  1.1464  0.5544  0.4183
   15TCq1    O4  235   0.932   2.023   1.391  0.3802  0.8554 -0.1789
   15TCq1    C9  236   0.678   1.809   1.889 -0.3028 -0.2563 -0.4261
   15TCq1    O5  237   0.565   1.802   1.944  0.1063 -0.5233 -0.0593
   15TCq1    O6  238   0.784   1.769   1.938  0.4378  0.0238 -0.1648
   15TCq1    H1  239   0.416   2.114   1.749  0.3706 -0.8437  0.1398
   15TCq1    H2  240   0.488   1.950   1.782 -0.3616  0.2931 -0.5054
   15TCq1    H3  241   0.884   1.831   1.735 -1.0027 -0.8508  0.1618
   15TCq1    H4  242   0.711   2.101   1.443 -0.4794 -0.2095 -0.6130
   16MPD2     C  243   1.117   1.651   1.459  0.1499  0.0037  0.5217
   16MPD2    C1  244   1.090   1.780   1.427 -0.5483 -1.4084  0.6030
   16MPD2    C2  245   1.163   1.846   1.337 -0.1942 -0.0966  0.4687
   16MPD2    C3  246   1.270   1.787   1.277  0.3471  0.0131 -0.0792
   16MPD2    C4  247   1.309   1.662   1.320 -0.6852  0.0823  0.8099
   16MPD2    C5  248   1.234   1.597   1.412 -0.5737 -0.1043  0.2408
   16MPD2     H  249   1.132   1.946   1.311  2.9330  0.6208 -0.5284
   16MPD2    H1  250   1.402   1.617   1.288 -1.5845 -1.5228  0.4502
   16MPD2    H2  251   1.051   1.595   1.525  0.5835 -2.3706 -1.0712
   16MPD2    H3  252   1.267   1.503   1.454  2.6384  1.5483  1.3926
   16MPD2     N  253   1.343   1.864   1.183 -0.0556  0.2308 -0.0392
   16MPD2    H5  254   1.326   1.964   1.173  2.4916  0.7579  0.7363
   16MPD2    N1  255   0.989   1.830   1.503 -0.3884  0.2025  0.5181
   16MPD2    H7  256   0.958   1.777   1.584 -0.5723 -0.5713 -0.0589
   17TCq1    O1  257   3.935   2.515  11.087 -0.2118 -0.3710 -0.0392
   17TCq1    C1  258   4.056   2.485  11.033 -0.0899 -0.2068 -0.1046
   17TCq1    O2  259   4.080   2.376  10.989 -0.1437  0.5833 -0.6889
   17TCq1    C2  260   4.111   2.605  10.978 -0.6163  0.3325  0.1773
   17TCq1    C3  261   4.083   2.732  11.035  0.9505 -0.8288 -0.0906
   17TCq1    C4  262   4.150   2.846  10.997  0.7896  0.9158  0.7553
   17TCq1    C5  263   4.231   2.840  10.887 -0.2867 -0.0927 -0.3637
   17TCq1    C6  264   4.256   2.711  10.831  0.2900 -0.3524  0.0844
   17TCq1    C7  265   4.202   2.600  10.872 -0.4108 -0.3602  0.5968
   17TCq1    C8  266   4.309   2.699  10.699  0.3533 -0.1562 -0.6450
   17TCq1    O4  267   4.369   2.596  10.666  0.1992  0.0996  0.1173
   17TCq1    C9  268   4.130   2.971  11.071 -0.3066  0.4042 -0.3324
   17TCq1    O5  269   4.060   2.962  11.172  0.3719 -0.1289 -0.1488
   17TCq1    O6  270   4.169   3.072  11.010  0.0078  0.6962  0.7838
   17TCq1    H1  271   3.904   2.608  11.093 -0.7856 -0.6038  0.5859
   17TCq1    H2  272   4.017   2.744  11.120  1.9434 -1.9643  0.8435
   17TCq1    H3  273   4.282   2.931  10.858  0.3522 -1.6332 -4.1101
   17TCq1    H4  274   4.229   2.505  10.828  0.3902  0.4235 -0.6024
   18MPD2     C  275   4.403   2.756  10.429  0.1982 -0.1195 -0.0933
   18MPD2    C1  276   4.372   2.848  10.520  0.8109  0.0677  0.2029
   18MPD2    C2  277   4.396   2.978  10.483 -0.0618  0.7969 -0.4299
   18MPD2    C3  278   4.459   3.017  10.367  0.3575  1.0278 -0.3331
   18MPD2    C4  279   4.501   2.917  10.288 -0.6726  0.4321 -0.0851
   18MPD2    C5  280   4.468   2.789  10.316  0.2270 -0.1148 -0.4524
   18MPD2     H  281   4.347   3.059  10.537  0.6728  0.2210  1.1217
   18MPD2    H1  282   4.551   2.931  10.193 -0.0515 -0.3353  0.1257
   18MPD2    H2  283   4.387   2.650  10.446  1.3716 -0.1748  0.6750
   18MPD2    H3  284   4.491   2.708  10.248 -0.8523 -2.7689  2.3516
   18MPD2     N  285   4.475   3.149  10.324 -0.3410 -0.3768 -0.1490
   18MPD2    H5  286   4.522   3.151  10.234  0.0807  2.4788  0.1386
   18MPD2    N1  287   4.309   2.821  10.641 -0.2526 -0.6069  0.0819
   18MPD2    H7  288   4.255   2.896  10.683 -0.2069 -0.8682  0.5956
   19TMC2    C1  289   1.002   3.625  13.851 -0.3495  0.2921  0.4631
   19TMC2    C2  290   0.962   3.755  13.846 -0.6894 -0.1671  0.6023
   19TMC2    C3  291   0.843   3.784  13.904 -0.4271  0.2233  0.4682
   19TMC2    C4  292   0.921   3.525  13.904 -0.4739 -0.5184 -0.2475
   19TMC2    C5  293   0.792   3.552  13.942 -0.0872 -0.4513  0.0081
   19TMC2    C6  294   0.751   3.685  13.941  0.1843 -0.0662 -0.1751
   19TMC2     C  295   1.134   3.598  13.784  0.7413  0.1223 -0.2807
   19TMC2     O  296   1.182   3.692  13.718  0.6273  0.0962  0.0705
   19TMC2     H  297   1.026   3.832  13.805  1.0539 -1.1797  1.4313
   19TMC2    H1  298   0.958   3.424  13.895 -2.3849 -1.1167 -1.3643
   19TMC2    H2  299   0.667   3.725  13.997  0.7352  0.1088  0.5158
   19TMC2    C7  300   0.696   3.443  13.953 -0.3292  0.4877  0.8121
   19TMC2    C8  301   0.806   3.926  13.911 -0.0506  0.3685 -0.4005
   19TMC2    O1  302   0.735   3.333  13.913  0.7448  0.4206 -0.1081
   19TMC2    O2  303   0.689   3.954  13.881 -0.3930  0.3905  0.0507
   19TMC2    O5  304   0.909   4.010  13.945  0.1649  0.3391  0.1798
   19TMC2    H5  305   0.989   3.958  13.963  0.4412  0.3992 -0.8982
   20MPD2     C  306   1.408   3.527  13.731 -0.0050 -0.4896  0.3118
   20MPD2    C1  307   1.340   3.483  13.842 -0.7935 -0.0229  0.7787
   20MPD2    C2  308   1.405   3.407  13.932 -0.2920 -0.1936  0.6660
   20MPD2    C3  309   1.542   3.413  13.945 -0.1871 -0.0898 -0.3855
   20MPD2    C4  310   1.614   3.469  13.839 -0.4744 -0.2485 -0.0391
   20MPD2    C5  311   1.546   3.512  13.734  0.3096  0.4072  0.4663
   20MPD2     H  312   1.343   3.362  14.009 -0.5413  1.2700  1.3222
   20MPD2    H1  313   1.722   3.476  13.835 -0.6185 -0.6445 -4.0497
   20MPD2    H2  314   1.362   3.569  13.642 -0.8091 -0.8479  0.5545
   20MPD2    H3  315   1.599   3.550  13.647  0.1608 -0.0013  0.1978
   20MPD2     N  316   1.619   3.358  14.054 -0.5706  0.7708  0.2621
   20MPD2    H5  317   1.719   3.375  14.057 -0.4404 -0.1484  1.5459
   20MPD2    N1  318   1.198   3.495  13.844 -0.0701 -0.3689 -0.1189
   20MPD2    H7  319   1.152   3.451  13.923 -0.6692 -0.5188 -0.5542
   21MPD2     C  320   3.253   4.322  14.228 -0.3828 -0.7081  0.7847
   21MPD2    C1  321   3.315   4.197  14.251 -0.1333 -0.0505 -1.0504
   21MPD2    C2  322   3.250   4.093  14.326 -0.2222 -0.7390  0.2164
   21MPD2    C3  323   3.126   4.119  14.379 -0.3264  0.4742  0.6060
   21MPD2    C4  324   3.061   4.234  14.346  0.2532  0.0987 -0.3096
   21MPD2    C5  325   3.127   4.336  14.274  0.2117 -0.3927  0.2384
   21MPD2     H  326   3.297   3.996  14.334  3.0149  0.9311  1.4561
   21MPD2    H1  327   2.960   4.256  14.379  0.3461 -0.4094  0.3292
   21MPD2    H2  328   3.300   4.399  14.168  1.4861 -1.4490  1.3045
   21MPD2    H3  329   3.079   4.432  14.263 -0.4006 -0.9015 -1.4051
   21MPD2     N  330   3.060   4.032  14.468  0.0064 -0.1448 -0.1975
   21MPD2    H5  331   2.968   4.056  14.503  1.6583  1.6590  2.8833
   21MPD2    N1  332   3.443   4.163  14.207 -0.2080  0.1884  0.3021
   21MPD2    H7  333   3.476   4.068  14.221 -1.4964 -0.2773  0.1056
   22TCq2    C1  334   3.122   3.918  14.520  0.0018 -0.2882  0.1120
   22TCq2    O2  335   3.243   3.891  14.523 -0.6771 -0.5776  0.1119
   22TCq2    C2  336   3.023   3.839  14.593  0.1942  0.0843 -0.0470
   22TCq2    C3  337   3.079   3.766  14.693  0.5478 -0.7193  0.4107
   22TCq2    C4  338   2.991   3.710  14.788 -0.0455  0.9569 -1.2022
   22TCq2    C5  339   2.860   3.728  14.779  0.0187  0.5668 -0.2155
   22TCq2    C6  340   2.813   3.812  14.677  1.0839 -0.2854  0.1495
   22TCq2    C7  341   2.890   3.873  14.584  0.2106 -0.4217 -0.4457
   22TCq2    C8  342   2.664   3.821  14.671  0.2293 -0.3079 -0.1607
   22TCq2    O4  343   2.598   3.733  14.728 -0.0926 -0.0304  0.1060
   22TCq2    C9  344   3.047   3.635  14.894 -0.3079  0.0803 -0.2274
   22TCq2    O5  345   2.972   3.591  14.986 -0.3145  0.5482 -0.0993
   22TCq2    O6  346   3.174   3.619  14.896  0.3133  0.1108  0.4716
   22TCq2    H2  347   3.187   3.768  14.706  0.5284  0.4466  0.4106
   22TCq2    H3  348   2.792   3.674  14.844  3.1980 -1.6759  1.2449
   22TCq2    H4  349   2.847   3.921  14.497 -1.4528  0.3692  0.8129
   23MPD2     C  350   0.388   0.743  15.097 -0.0690 -0.5412 -0.7825
   23MPD2    C1  351   0.294   0.729  15.193  0.1894  0.1935 -0.2796
   23MPD2    C2  352   0.178   0.809  15.195 -0.2090  0.0341 -0.5440
   23MPD2    C3  353   0.159   0.904  15.087  0.6810  0.3695 -0.8269
   23MPD2    C4  354   0.266   0.930  14.995 -0.7667 -0.3257  0.0020
   23MPD2    C5  355   0.380   0.856  15.012 -0.0623 -0.2503 -0.8776
   23MPD2     H  356   0.100   0.790  15.268  0.2265  0.3975  0.0153
   23MPD2    H1  357   0.270   1.007  14.919  1.8891  0.1684  0.6550
   23MPD2    H2  358   0.476   0.682  15.080 -0.5141 -1.0107 -1.4086
   23MPD2    H3  359   0.451   0.880  14.934  1.3098  1.7947  1.0129
   23MPD2     N  360   0.033   0.968  15.055  0.4192 -0.0018  0.2953
   23MPD2    H5  361   0.024   1.020  14.968  1.2002 -1.4797 -0.6781
   23MPD2    N1  362   0.307   0.622  15.283  0.2874  0.2507  0.2597
   23MPD2    H7  363   0.230   0.598  15.344  0.8152 -0.8249  0.5105
   24TCq2    C1  364   4.639   0.947  15.116 -0.3466  0.7665 -0.6634
   24TCq2    O2  365   4.615   0.875  15.213 -0.2089 -0.1562  0.2217
   24TCq2    C2  366   4.530   1.004  15.049 -0.1044  0.3870  0.3526
   24TCq2    C3  367   4.564   1.120  14.985 -1.3647 -0.0381 -0.1044
   24TCq2    C4  368   4.492   1.156  14.875  0.4468  0.1808 -0.1808
   24TCq2    C5  369   4.383   1.080  14.833  1.3663  0.2141 -0.9541
   24TCq2    C6  370   4.360   0.957  14.902  0.3292 -0.0777  0.6310
   24TCq2    C7  371   4.439   0.922  15.003  0.0900  0.1628  0.4024
   24TCq2    C8  372   4.298   0.842  14.843 -0.4308 -0.8449 -0.3499
   24TCq2    O4  373   4.333   0.732  14.872  0.1026 -0.1935 -0.0963
   24TCq2    C9  374   4.525   1.272  14.794  0.0184  0.1015  0.1662
   24TCq2    O5  375   4.447   1.290  14.697 -0.0208 -0.9866  0.1007
   24TCq2    O6  376   4.642   1.314  14.802 -0.2814 -0.0991 -0.0408
   24TCq2    H2  377   4.648   1.180  15.019 -1.3932 -0.4602  0.7135
   24TCq2    H3  378   4.344   1.094  14.733  0.3229 -0.1872 -0.6059
   24TCq2    H4  379   4.416   0.826  15.049  0.6008 -0.0605  0.1855
   25TMC2    C1  380   3.729   2.814  11.348  0.1552 -0.0528 -0.5264
   25TMC2    C2  381   3.856   2.850  11.374  0.0972 -0.8885 -0.3796
   25TMC2    C3  382   3.893   2.942  11.463 -0.0451  0.6435  0.3567
   25TMC2    C4  383   3.631   2.873  11.421  0.3942 -0.0815  0.2067
   25TMC2    C5  384   3.671   2.957  11.523 -0.2463  0.2359 -0.2287
   25TMC2    C6  385   3.798   2.992  11.543  0.6810 -0.3144  0.6582
   25TMC2     C  386   3.701   2.734  11.229  0.2272  0.1710 -0.1137
   25TMC2     O  387   3.790   2.732  11.145  0.6227 -0.2256  0.2008
   25TMC2     H  388   3.929   2.785  11.327  1.5616 -0.6116  1.5489
   25TMC2    H1  389   3.525   2.850  11.420  0.3246  0.2606 -0.2351
   25TMC2    H2  390   3.829   3.064  11.617 -1.8737 -0.4640  1.8707
   25TMC2    C7  391   3.575   3.002  11.618  0.8319 -1.1308  0.5809
   25TMC2    C8  392   4.031   2.930  11.506 -0.5260  0.1258 -0.2505
   25TMC2    O1  393   3.610   3.030  11.732  0.0132 -0.0830 -0.0186
   25TMC2    O2  394   4.058   2.922  11.623  0.0660 -0.0540 -0.1396
   25TMC2    O5  395   4.109   2.886  11.409  0.2068 -0.1275 -0.5188
   25TMC2    H5  396   4.075   2.923  11.325 -1.9669 -0.6125  0.1220
   26MPD2     C  397   3.430   2.386  10.966  0.1685  0.5879  0.0660
   26MPD2    C1  398   3.354   2.428  11.073  0.6419 -0.0894  0.1485
   26MPD2    C2  399   3.411   2.517  11.166 -0.5564 -0.0764 -0.1883
   26MPD2    C3  400   3.538   2.566  11.142 -0.1068  0.2741 -0.2593
   26MPD2    C4  401   3.610   2.523  11.034  0.1212  0.5905 -0.0845
   26MPD2    C5  402   3.561   2.429  10.948 -1.3245 -0.2177  0.6128
   26MPD2     H  403   3.347   2.574  11.232 -1.1122 -0.1149 -0.7007
   26MPD2    H1  404   3.707   2.567  11.014 -0.0433 -0.2103 -2.6009
   26MPD2    H2  405   3.405   2.307  10.896  2.0016 -0.0772  0.1449
   26MPD2    H3  406   3.623   2.386  10.871  1.5968 -0.5581  3.1366
   26MPD2     N  407   3.585   2.663  11.232 -0.1641  0.5428 -0.3327
   26MPD2    H5  408   3.523   2.678  11.311 -2.1178  1.5576 -2.0488
   26MPD2    N1  409   3.228   2.372  11.085 -0.0571  0.2710 -0.1004
   26MPD2    H7  410   3.193   2.320  11.005 -1.1726  0.5036  0.2385
   27TMC2    C1  411   2.594   0.422  11.917 -0.0964 -0.7920  0.6690
   27TMC2    C2  412   2.585   0.531  11.838  0.2857 -0.2275 -0.4286
   27TMC2    C3  413   2.597   0.655  11.887 -0.1021  0.4260  0.4502
   27TMC2    C4  414   2.604   0.442  12.053  0.6578 -0.3494  0.3460
   27TMC2    C5  415   2.625   0.571  12.107 -0.2668  0.1930 -0.7271
   27TMC2    C6  416   2.616   0.676  12.019  0.6948 -0.0717  0.2230
   27TMC2     C  417   2.496   0.315  11.895  0.2077  0.2855 -0.0510
   27TMC2     O  418   2.505   0.233  11.801  0.0553  0.1748  0.0750
   27TMC2     H  419   2.546   0.521  11.737  0.5977 -2.7879 -0.2943
   27TMC2    H1  420   2.596   0.353  12.114  1.2404 -0.7130 -0.1008
   27TMC2    H2  421   2.608   0.770  12.072  0.0519 -0.4252  0.7563
   27TMC2    C7  422   2.557   0.594  12.234 -0.5116 -0.0815  0.3650
   27TMC2    C8  423   2.526   0.757  11.815 -0.1099  0.2349  0.0016
   27TMC2    O1  424   2.491   0.694  12.247  0.2586 -0.2130 -0.0437
   27TMC2    O2  425   2.412   0.739  11.777 -0.2209  0.0939 -0.8373
   27TMC2    O5  426   2.584   0.877  11.817 -0.1664 -0.3751  0.1500
   27TMC2    H5  427   2.681   0.869  11.832 -0.3829  0.5971  2.1417
   28MPD2     C  428   2.028   0.140  12.014  0.2148 -0.5378  0.2738
   28MPD2    C1  429   2.052   0.257  12.089 -0.0504 -0.0167 -0.4316
   28MPD2    C2  430   2.169   0.330  12.063  0.6177 -0.3929  0.3535
   28MPD2    C3  431   2.265   0.273  11.976 -0.0051 -0.3656  0.3808
   28MPD2    C4  432   2.249   0.152  11.916 -0.1967  0.2919 -0.6773
   28MPD2    C5  433   2.128   0.091  11.936 -0.6539 -0.1824 -0.3520
   28MPD2     H  434   2.192   0.419  12.119 -0.1169  1.3443 -2.1045
   28MPD2    H1  435   2.318   0.112  11.842 -1.6693 -0.7254 -1.5230
   28MPD2    H2  436   1.938   0.082  12.034  0.7537 -1.0954  1.0713
   28MPD2    H3  437   2.107   4.720  11.887 -1.2399 -0.5516  0.6243
   28MPD2     N  438   2.385   0.346  11.967 -0.0953 -0.4290  0.1665
   28MPD2    H5  439   2.396   0.431  12.020  2.0107 -1.7886  1.9075
   28MPD2    N1  440   1.955   0.289  12.188 -0.1712  0.1596 -0.1008
   28MPD2    H7  441   1.869   0.238  12.204 -0.0228 -0.3959 -1.1222
   29MPD2     C  442   1.757   1.918  13.959  0.6555  0.3626  0.2193
   29MPD2    C1  443   1.860   1.886  14.045  0.2196 -0.4105 -0.3612
   29MPD2    C2  444   1.918   1.997  14.111 -0.9227 -0.4543 -0.3093
   29MPD2    C3  445   1.867   2.126  14.101 -0.0113  0.6156  0.6533
   29MPD2    C4  446   1.769   2.152  14.011 -1.2058  0.6488  0.8303
   29MPD2    C5  447   1.716   2.049  13.932 -0.3166 -0.3648 -0.0179
   29MPD2     H  448   2.011   1.986  14.166 -0.5353 -0.4290 -0.9509
   29MPD2    H1  449   1.733   2.252  13.988  0.4645  1.5519  2.1287
   29MPD2    H2  450   1.712   1.845  13.894 -0.3825  0.3640  0.9411
   29MPD2    H3  451   1.641   2.081  13.861 -0.3373 -0.4594 -0.0391
   29MPD2     N  452   1.921   2.230  14.182 -0.2017  0.3104 -0.1376
   29MPD2    H5  453   1.889   2.326  14.170  1.9616  0.7577 -2.3862
   29MPD2    N1  454   1.905   1.758  14.074  0.0627  0.4464  1.0873
   29MPD2    H7  455   1.991   1.748  14.126  0.2690 -1.1846  0.4344
   30TCq2    C1  456   2.001   2.217  14.293  0.2820 -0.1108  0.3101
   30TCq2    O2  457   2.028   2.113  14.352  0.6952  0.1184  0.7844
   30TCq2    C2  458   2.026   2.344  14.350  0.6532 -0.5853  0.2908
   30TCq2    C3  459   2.008   2.353  14.485 -0.0390  0.5873  1.0518
   30TCq2    C4  460   1.974   2.476  14.541  0.2373  0.1832 -0.0603
   30TCq2    C5  461   1.970   2.585  14.464 -0.1801 -0.3042  0.4299
   30TCq2    C6  462   2.001   2.581  14.326  1.0830  0.2024 -0.4962
   30TCq2    C7  463   2.017   2.461  14.269 -0.4056 -0.4257 -0.5429
   30TCq2    C8  464   2.014   2.702  14.246 -0.1529 -0.2812  0.6309
   30TCq2    O4  465   1.967   2.709  14.134 -0.2045 -0.2310  0.0103
   30TCq2    C9  466   1.959   2.495  14.684 -0.4486 -0.1740 -0.0229
   30TCq2    O5  467   1.970   2.392  14.755 -0.4322 -0.4886 -0.2533
   30TCq2    O6  468   1.992   2.611  14.725  0.4504  0.2707 -0.2499
   30TCq2    H2  469   2.013   2.267  14.550  0.3673 -0.8877 -0.9344
   30TCq2    H3  470   1.929   2.673  14.512 -1.7683 -1.1287  0.6032
   30TCq2    H4  471   2.044   2.453  14.164 -1.5792 -1.8881 -0.7425
   31MPD2     C  472   0.046   1.301  15.220 -0.2682  0.1693  0.3983
   31MPD2    C1  473   4.646   1.363  15.208  0.7060  0.5774 -0.3393
   31MPD2    C2  474   4.538   1.336  15.291 -0.1217  0.1322 -0.2235
   31MPD2    C3  475   4.554   1.226  15.380  0.1381  0.1882  0.3775
   31MPD2    C4  476   4.684   1.174  15.401  0.2291  0.8658 -0.2879
   31MPD2    C5  477   0.063   1.209  15.323 -0.3544  0.0397  0.0156
   31MPD2     H  478   4.445   1.392  15.288 -0.7372 -0.8727  0.0557
   31MPD2    H1  479   4.696   1.086  15.463  0.8623  0.0002 -1.6541
   31MPD2    H2  480   0.125   1.309  15.147  0.8448  2.9739  1.9017
   31MPD2    H3  481   0.149   1.147  15.346 -3.3726 -3.2122  2.6063
   31MPD2     N  482   4.450   1.165  15.452  0.1792  0.6931 -0.1800
   31MPD2    H5  483   4.484   1.101  15.523 -0.8563 -3.3473 -3.3487
   31MPD2    N1  484   4.652   1.469  15.120  0.3688  0.0062  0.2187
   31MPD2    H7  485   0.022   1.506  15.109 -0.2130  1.7810  1.1929
   32TCq2    C1  486   4.316   1.179  15.423  0.4295  0.1814 -0.1839
   32TCq2    O2  487   4.260   1.246  15.339 -0.0900 -0.5027 -0.5353
   32TCq2    C2  488   4.218   1.098  15.507  0.1385  0.3222  0.3995
   32TCq2    C3  489   4.087   1.089  15.461  0.7356  0.0543  0.2692
   32TCq2    C4  490   4.002   1.013  15.535 -0.2121  0.1109 -0.3854
   32TCq2    C5  491   4.048   0.933  15.633  0.1199  0.7586 -0.3039
   32TCq2    C6  492   4.175   0.933  15.677  0.5616 -0.6212  0.0947
   32TCq2    C7  493   4.262   1.017  15.612  0.4495  0.2105 -0.0587
   32TCq2    C8  494   4.229   0.857  15.797  0.2506  0.4607 -0.0326
   32TCq2    O4  495   4.350   0.845  15.814 -0.1191  0.3279  0.3348
   32TCq2    C9  496   3.865   1.017  15.505 -0.1895  0.1447  0.2013
   32TCq2    O5  497   3.827   1.075  15.400 -0.1723  0.3770  0.1050
   32TCq2    O6  498   3.794   1.017  15.610  0.4337 -0.4432  0.3254
   32TCq2    H2  499   4.046   1.156  15.386  0.1491 -2.1776 -1.4125
   32TCq2    H3  500   3.973   0.869  15.679  0.3883 -0.4384 -1.5353
   32TCq2    H4  501   4.360   1.019  15.658 -0.2537 -0.3149  1.4833
   33MPD2     C  502   4.553   4.038  10.524 -0.0955  0.0995 -0.1060
   33MPD2    C1  503   4.479   3.982  10.428 -0.2849 -0.1479 -0.0522
   33MPD2    C2  504   4.400   4.058  10.341 -0.2523  0.2220 -0.2258
   33MPD2    C3  505   4.402   4.196  10.356 -0.2338  0.1424 -0.3331
   33MPD2    C4  506   4.489   4.251  10.456 -0.5067 -0.1368  0.3871
   33MPD2    C5  507   4.564   4.173  10.537  0.3903 -0.1446 -0.0371
   33MPD2     H  508   4.353   4.019  10.252  1.0046  1.3622 -1.3915
   33MPD2    H1  509   4.488   4.359  10.468  0.5237  0.0546 -1.3654
   33MPD2    H2  510   4.619   3.977  10.584 -1.5719 -1.5754 -0.1966
   33MPD2    H3  511   4.620   4.219  10.618 -2.3827  1.2816  1.1036
   33MPD2     N  512   4.333   4.292  10.280 -0.2889  0.2540 -0.6848
   33MPD2    H5  513   4.358   4.389  10.298 -0.0381 -0.0502  0.6422
   33MPD2    N1  514   4.493   3.842  10.413  0.5254  0.1380 -0.2896
   33MPD2    H7  515   4.566   3.791  10.462 -1.3371 -1.9529  0.2724
   34TCq2    C1  516   4.232   4.262  10.194 -0.3364 -0.2048 -0.0470
   34TCq2    O2  517   4.163   4.160  10.202 -0.6322  0.0775 -0.0971
   34TCq2    C2  518   4.184   4.372  10.118  0.2661 -0.1755 -0.0253
   34TCq2    C3  519   4.055   4.370  10.075  0.5239  0.4198  0.7982
   34TCq2    C4  520   3.998   4.480  10.024  0.1213 -0.3732  0.2666
   34TCq2    C5  521   4.065   4.598  10.015  0.2194 -0.1365 -0.1989
   34TCq2    C6  522   4.193   4.601  10.062  0.8961  0.2851 -0.0278
   34TCq2    C7  523   4.255   4.492  10.110  0.0299  0.3080  0.3661
   34TCq2    C8  524   4.276   4.718  10.027 -0.2643 -0.5377  0.2169
   34TCq2    O4  525   4.393   4.701  10.043  0.3751  0.6949 -0.3833
   34TCq2    C9  526   3.868   4.477   9.960  0.2126  0.6975 -0.1373
   34TCq2    O5  527   3.827   4.579   9.898 -0.4200 -0.3133  0.4032
   34TCq2    O6  528   3.798   4.378   9.993  0.6782  0.7289 -0.1137
   34TCq2    H2  529   3.998   4.277  10.074  1.2410 -0.0144  0.3512
   34TCq2    H3  530   4.008   4.680   9.972  0.9340  0.7329  0.4887
   34TCq2    H4  531   4.361   4.488  10.132  0.4610  0.8894 -1.6874
   35MPD2     C  532   1.469   0.871  11.336  0.4529 -0.0044 -0.0895
   35MPD2    C1  533   1.413   0.771  11.414 -0.4912  0.6286 -0.5379
   35MPD2    C2  534   1.323   0.677  11.354  0.3394 -0.2223  0.3337
   35MPD2    C3  535   1.303   0.673  11.225  0.0708 -0.2636  0.2727
   35MPD2    C4  536   1.368   0.764  11.144 -0.3866 -0.3179  0.7357
   35MPD2    C5  537   1.446   0.867  11.197  0.2594  0.0734 -0.4160
   35MPD2     H  538   1.267   0.606  11.413  0.2322 -1.7767 -1.6380
   35MPD2    H1  539   1.373   0.759  11.036 -2.6214 -0.8410  0.6654
   35MPD2    H2  540   1.534   0.947  11.376 -1.6472  2.9091 -2.2123
   35MPD2    H3  541   1.488   0.944  11.134 -0.3045 -2.2195 -3.5702
   35MPD2     N  542   1.220   0.575  11.178 -0.0645  0.1410 -0.4916
   35MPD2    H5  543   1.181   0.521  11.254  1.6026  0.1077  0.3531
   35MPD2    N1  544   1.416   0.778  11.553  0.1339  0.1466 -0.6062
   35MPD2    H7  545   1.425   0.865  11.604 -2.2542 -0.5411  0.9866
   36TCq2    C1  546   1.152   0.584  11.063 -0.5181 -0.1140 -0.1829
   36TCq2    O2  547   1.195   0.635  10.964  0.3324  0.0199  0.2332
   36TCq2    C2  548   1.012   0.529  11.051  0.2488  0.2527  0.4650
   36TCq2    C3  549   0.944   0.548  10.926  0.0249 -0.4561  0.5753
   36TCq2    C4  550   0.806   0.523  10.923  0.6821  0.8597  0.0598
   36TCq2    C5  551   0.741   0.487  11.030 -0.5646 -0.0211 -0.1480
   36TCq2    C6  552   0.807   0.481  11.149 -0.0160 -0.4396 -0.0912
   36TCq2    C7  553   0.945   0.504  11.167  0.3423  0.8841 -0.2219
   36TCq2    C8  554   0.742   0.404  11.260  0.3895 -0.2707 -0.0815
   36TCq2    O4  555   0.638   0.338  11.243  0.5075  0.2475 -0.0263
   36TCq2    C9  556   0.727   0.551  10.807  0.0931 -0.2632  0.0836
   36TCq2    O5  557   0.604   0.537  10.821 -0.1890  0.3932 -0.1538
   36TCq2    O6  558   0.785   0.616  10.717  0.1513 -0.4170  0.2225
   36TCq2    H2  559   0.992   0.581  10.836 -0.6956 -1.7065 -0.2736
   36TCq2    H3  560   0.638   0.455  11.020 -0.1723 -0.8551 -1.5720
   36TCq2    H4  561   0.994   0.475  11.260  1.8918  1.9899 -0.6983
   37TMC2    C1  562   3.489   0.250  11.882 -0.5787  0.1812  0.1245
   37TMC2    C2  563   3.456   0.244  11.758 -0.4683 -0.7010  0.2768
   37TMC2    C3  564   3.557   0.258  11.669 -0.5894 -0.7895 -0.4737
   37TMC2    C4  565   3.619   0.250  11.922 -0.1265  0.2960  0.4088
   37TMC2    C5  566   3.719   0.252  11.834  0.7321  0.5753  0.9069
   37TMC2    C6  567   3.693   0.251  11.704  0.8725  0.4796  0.1296
   37TMC2     C  568   3.388   0.288  11.979  0.1114 -0.2711 -0.5336
   37TMC2     O  569   3.288   0.342  11.935 -0.1509 -0.2145 -0.0047
   37TMC2     H  570   3.352   0.250  11.728 -0.6008 -2.6452  0.3607
   37TMC2    H1  571   3.654   0.246  12.025  1.8098  0.2548 -0.2421
   37TMC2    H2  572   3.762   0.287  11.629 -0.4260 -0.3766 -1.4809
   37TMC2    C7  573   3.859   0.238  11.876  1.2691  0.8168 -0.2867
   37TMC2    C8  574   3.541   0.213  11.529  0.4731  0.6502 -0.3060
   37TMC2    O1  575   3.881   0.250  11.996  0.4133  0.4780  0.3398
   37TMC2    O2  576   3.639   0.169  11.470 -0.2028  0.3271  0.1744
   37TMC2    O5  577   3.443   0.286  11.470  0.3033 -0.0547 -0.0684
   37TMC2    H5  578   3.379   0.327  11.532 -1.8836 -0.9230 -1.7337
   38MPD2     C  579   3.268   0.364  12.467  0.2848 -0.7531  0.0249
   38MPD2    C1  580   3.385   0.300  12.462  0.4462 -0.0719  0.3967
   38MPD2    C2  581   3.438   0.268  12.339 -0.0215 -0.6509 -0.4292
   38MPD2    C3  582   3.366   0.291  12.223  0.3958  0.3329  0.1958
   38MPD2    C4  583   3.240   0.353  12.230  0.6451 -0.2660  0.0421
   38MPD2    C5  584   3.197   0.394  12.352  0.2224  0.4929 -0.6970
   38MPD2     H  585   3.535   0.219  12.337  0.2711 -0.0596 -0.7041
   38MPD2    H1  586   3.183   0.384  12.144 -0.2509  1.9020  1.4236
   38MPD2    H2  587   3.231   0.414  12.556 -0.1281 -1.3817  0.2017
   38MPD2    H3  588   3.113   0.461  12.362  0.7807  1.0420  0.2433
   38MPD2     N  589   3.426   0.259  12.103  0.0285  0.2203  0.4936
   38MPD2    H5  590   3.511   0.207  12.122 -0.8896 -1.1170  0.9378
   38MPD2    N1  591   3.474   0.280  12.577  0.0730  0.0375 -0.1753
   38MPD2    H7  592   3.571   0.253  12.563 -0.0258  0.3211 -1.3580
   39MPD2     C  593   1.978   1.633   1.035 -0.5163  0.4047 -0.1680
   39MPD2    C1  594   1.889   1.666   1.138 -0.0201 -0.5157 -0.6526
   39MPD2    C2  595   1.775   1.584   1.158  0.1002  0.1449  0.9524
   39MPD2    C3  596   1.753   1.481   1.063 -0.2087 -0.3805 -0.6560
   39MPD2    C4  597   1.836   1.464   0.951  0.0179  0.6982 -0.6930
   39MPD2    C5  598   1.953   1.533   0.948  0.3214 -0.6264 -0.0451
   39MPD2     H  599   1.710   1.604   1.242  0.0467  1.6105  0.5550
   39MPD2    H1  600   1.827   1.387   0.875  2.9013 -0.5396  0.2301
   39MPD2    H2  601   2.080   1.670   1.037 -0.9785  1.6107  0.9298
   39MPD2    H3  602   2.025   1.513   0.869 -1.5073 -2.8020 -1.1794
   39MPD2     N  603   1.642   1.399   1.063 -0.1601 -0.3539  0.6342
   39MPD2    H5  604   1.628   1.352   0.974  2.2170  1.3440 -0.6243
   39MPD2    N1  605   1.930   1.769   1.220 -1.4152 -0.4277 -0.5385
   39MPD2    H7  606   2.023   1.806   1.203 -1.4484  0.4800  1.2123
   40TCq2    C1  607   1.841   1.839   1.303 -0.6948 -0.7280  0.2819
   40TCq2    O2  608   1.716   1.830   1.310 -0.5792  0.3813 -0.0025
   40TCq2    C2  609   1.908   1.938   1.387  0.1988 -0.4000  0.7157
   40TCq2    C3  610   1.829   2.027   1.457  0.7122 -0.2496  0.7106
   40TCq2    C4  611   1.883   2.110   1.546 -0.2986  0.1242  0.1449
   40TCq2    C5  612   2.016   2.103   1.569 -0.4600 -0.3337 -0.3067
   40TCq2    C6  613   2.093   2.006   1.513  0.0434  0.2238  0.1888
   40TCq2    C7  614   2.035   1.920   1.419  0.4518  0.8430 -0.5173
   40TCq2    C8  615   2.236   2.007   1.515  0.0413  0.2536 -0.3148
   40TCq2    O4  616   2.286   1.911   1.457  0.1192 -0.7453 -0.1754
   40TCq2    C9  617   1.809   2.216   1.614 -0.1460 -0.0518  0.0321
   40TCq2    O5  618   1.685   2.206   1.613 -0.5269 -0.6566  0.3730
   40TCq2    O6  619   1.873   2.297   1.692  0.6426  0.0657  0.0544
   40TCq2    H2  620   1.722   2.022   1.445  0.4027  0.9773  2.9316
   40TCq2    H3  621   2.054   2.170   1.646  0.5203  0.5241 -1.5408
   40TCq2    H4  622   2.100   1.847   1.372  0.1005 -0.6778  1.3451
   41TMC2    C1  623   0.920   0.906  12.948 -0.3577 -0.1579 -0.2724
   41TMC2    C2  624   0.992   0.900  13.064 -0.0386 -0.5744  0.0613
   41TMC2    C3  625   1.124   0.927  13.055 -0.8941  0.0215 -0.0993
   41TMC2    C4  626   0.969   0.962  12.839  0.1551  0.2801  0.0908
   41TMC2    C5  627   1.097   1.002  12.834  0.2427  0.0361 -0.4245
   41TMC2    C6  628   1.178   0.981  12.939  0.8581 -0.0671  0.1414
   41TMC2     C  629   0.781   0.855  12.939  0.5781  0.0437  0.0687
   41TMC2     O  630   0.741   0.841  12.825 -0.1433 -0.0215 -0.5798
   41TMC2     H  631   0.958   0.853  13.155  0.5748 -1.5489 -0.2154
   41TMC2    H1  632   0.905   0.962  12.752  2.2432 -1.3864 -1.4591
   41TMC2    H2  633   1.279   1.020  12.940  0.4908  0.8730  0.5444
   41TMC2    C7  634   1.157   1.064  12.720  0.2013 -1.3356  0.2279
   41TMC2    C8  635   1.198   0.909  13.172 -0.3845 -0.2020 -0.2647
   41TMC2    O1  636   1.270   1.109  12.722  0.9730  0.4759 -0.0771
   41TMC2    O2  637   1.156   0.915  13.285  0.8378  0.7941  0.0174
   41TMC2    O5  638   1.324   0.874  13.142 -0.6182  0.6408 -0.2811
   41TMC2    H5  639   1.334   0.880  13.044  0.9217  1.5816 -0.0670
   42MPD2     C  640   0.535   0.687  12.973 -0.1003  0.6756  0.5843
   42MPD2    C1  641   0.621   0.715  13.077 -0.1832 -0.0561  0.3430
   42MPD2    C2  642   0.604   0.657  13.203  0.4490 -0.1077 -0.1324
   42MPD2    C3  643   0.499   0.570  13.228 -0.3240 -0.2452  0.5811
   42MPD2    C4  644   0.416   0.541  13.119  0.0007 -0.0979  0.3692
   42MPD2    C5  645   0.437   0.600  12.995 -0.7431  0.0279 -1.0278
   42MPD2     H  646   0.675   0.672  13.284  1.8789 -2.0392 -1.0291
   42MPD2    H1  647   0.334   0.471  13.128 -0.0484  0.1636  1.8291
   42MPD2    H2  648   0.540   0.738  12.878 -1.5882 -3.1765 -1.5837
   42MPD2    H3  649   0.359   0.585  12.921 -2.3312 -0.6382  0.7541
   42MPD2     N  650   0.480   0.507  13.356 -0.0118  0.0554  0.5320
   42MPD2    H5  651   0.410   0.434  13.364 -0.0609  0.3584  2.7930
   42MPD2    N1  652   0.740   0.794  13.057  0.1895 -0.2659  0.3609
   42MPD2    H7  653   0.797   0.816  13.138  3.3605 -0.0471 -1.9370
   43MPD2     C  654   1.974   3.003   0.438 -0.1074  0.2173  0.3049
   43MPD2    C1  655   2.067   3.010   0.545  0.5197 -0.1573 -0.0825
   43MPD2    C2  656   2.019   3.046   0.669  0.2971  0.5073 -0.5534
   43MPD2    C3  657   1.886   3.067   0.694  0.8601  0.1355 -0.1142
   43MPD2    C4  658   1.798   3.047   0.592  0.3724  0.6156 -0.1167
   43MPD2    C5  659   1.842   3.006   0.464 -0.2022 -1.0383  0.1619
   43MPD2     H  660   2.096   3.047   0.746  2.8718 -0.4993 -3.1161
   43MPD2    H1  661   1.693   3.074   0.601  0.7231  1.7239  0.6503
   43MPD2    H2  662   2.008   2.985   0.337 -0.8463  1.3851 -0.1522
   43MPD2    H3  663   1.775   2.987   0.381  0.6314  1.8960 -1.1592
   43MPD2     N  664   1.832   3.110   0.820 -0.0161  0.9418 -0.5318
   43MPD2    H5  665   1.732   3.130   0.824 -0.2114 -0.1603  0.1964
   43MPD2    N1  666   2.206   2.985   0.523  0.0566  0.3205  0.1472
   43MPD2    H7  667   2.260   3.007   0.606 -3.0701  0.3051  2.1776
   44TCq2    C1  668   1.935   3.529   1.230 -0.4046 -0.4671  0.6387
   44TCq2    O2  669   2.051   3.543   1.193 -0.0661 -0.4567 -0.0580
   44TCq2    C2  670   1.855   3.431   1.161 -0.4516  0.0667  0.0730
   44TCq2    C3  671   1.735   3.396   1.215 -0.4050  0.1246  0.0691
   44TCq2    C4  672   1.670   3.291   1.157 -0.0796  0.3164  0.5492
   44TCq2    C5  673   1.717   3.216   1.048  0.0496 -0.2484 -0.2061
   44TCq2    C6  674   1.840   3.246   1.000  0.3406  0.2941 -0.0407
   44TCq2    C7  675   1.908   3.353   1.062 -0.9156 -0.3993  0.2116
   44TCq2    C8  676   1.910   3.163   0.914 -0.6624  0.4783  0.8508
   44TCq2    O4  677   2.031   3.160   0.932  0.8982 -1.0624 -0.4793
   44TCq2    C9  678   1.551   3.244   1.233  0.0570  0.5179  0.7722
   44TCq2    O5  679   1.492   3.145   1.193 -0.2142  0.1185 -0.6071
   44TCq2    O6  680   1.520   3.309   1.333  0.1669  0.3631 -0.2607
   44TCq2    H2  681   1.688   3.444   1.299  0.5282  0.9118  0.1402
   44TCq2    H3  682   1.659   3.128   1.020  0.8703  0.2645 -3.5482
   44TCq2    H4  683   2.005   3.383   1.025 -0.9619 -0.4330  0.0644
   45TMC2    C1  684   2.629   1.121   9.146 -0.0126  0.3815 -0.1969
   45TMC2    C2  685   2.767   1.113   9.147  0.0905  0.0269  0.4335
   45TMC2    C3  686   2.824   1.224   9.201  0.4361 -1.0423  0.1031
   45TMC2    C4  687   2.560   1.225   9.208  0.0569 -0.5521 -0.1299
   45TMC2    C5  688   2.631   1.317   9.274  0.3677 -0.0542  0.3377
   45TMC2    C6  689   2.765   1.320   9.276 -0.6287 -0.1030  0.8049
   45TMC2     C  690   2.560   1.031   9.055  0.1774  0.3357 -0.5279
   45TMC2     O  691   2.628   0.957   8.981 -0.4680  0.2649  0.2067
   45TMC2     H  692   2.825   1.046   9.085 -0.7791 -0.1756 -0.1493
   45TMC2    H1  693   2.457   1.217   9.239 -0.4791  2.5697 -1.1776
   45TMC2    H2  694   2.824   1.403   9.311 -0.0892  0.3513 -1.1348
   45TMC2    C7  695   2.567   1.447   9.292  0.0615  0.2956  0.1044
   45TMC2    C8  696   2.961   1.246   9.169  0.2186 -0.3668 -0.3945
   45TMC2    O1  697   2.477   1.477   9.210  0.2621 -0.2402 -0.0487
   45TMC2    O2  698   3.044   1.306   9.239  0.4484  0.6687 -0.4283
   45TMC2    O5  699   2.975   1.226   9.040 -0.0174 -0.7362 -0.5379
   45TMC2    H5  700   2.888   1.220   8.995 -0.0410 -0.6365 -0.5059
   46MPD2     C  701   2.376   0.874   8.893  0.2773  0.0444  0.6939
   46MPD2    C1  702   2.333   0.977   8.973 -0.1330  0.0812  0.0114
   46MPD2    C2  703   2.203   1.021   8.968  0.2586  0.2340 -0.0105
   46MPD2    C3  704   2.102   0.956   8.897 -0.6385 -0.1568  0.2181
   46MPD2    C4  705   2.146   0.843   8.823 -0.5088  0.1188  0.5067
   46MPD2    C5  706   2.279   0.799   8.826 -0.5475  0.5997  0.4952
   46MPD2     H  707   2.175   1.108   9.026 -1.0585  0.1470 -0.5259
   46MPD2    H1  708   2.078   0.796   8.753  0.2305 -0.2275  0.0149
   46MPD2    H2  709   2.473   0.825   8.890  0.5321  0.7254 -1.6955
   46MPD2    H3  710   2.310   0.716   8.764  0.9263  0.0359  1.9887
   46MPD2     N  711   1.969   1.005   8.887  0.0332 -0.3428 -0.4869
   46MPD2    H5  712   1.953   1.087   8.944 -0.2767 -0.0995 -0.9253
   46MPD2    N1  713   2.426   1.046   9.054  0.0758  0.1274 -0.2375
   46MPD2    H7  714   2.396   1.115   9.123  0.8753  1.1533 -0.9068
   47TMC2    C1  715   0.707   1.898   8.963  0.5466 -0.4728 -0.2201
   47TMC2    C2  716   0.683   2.032   8.953 -0.0873 -0.2281  0.8534
   47TMC2    C3  717   0.558   2.081   8.930 -0.3673 -1.5949 -0.0352
   47TMC2    C4  718   0.595   1.811   8.968 -0.3765 -0.3246  1.0308
   47TMC2    C5  719   0.469   1.873   8.947 -0.0558 -0.6200 -0.0579
   47TMC2    C6  720   0.445   2.007   8.931  0.6440  0.3810 -1.1145
   47TMC2     C  721   0.837   1.855   8.989 -0.1047 -0.0693 -0.0471
   47TMC2     O  722   0.911   1.935   9.041 -0.1193 -0.0634 -0.0538
   47TMC2     H  723   0.772   2.092   8.960 -0.4176  0.4152 -0.4654
   47TMC2    H1  724   0.608   1.705   8.986  0.1814 -0.5513 -0.6966
   47TMC2    H2  725   0.360   2.062   8.892 -0.7773  0.8648  2.6281
   47TMC2    C7  726   0.346   1.797   8.956 -0.3960  0.2112  0.3806
   47TMC2    C8  727   0.547   2.226   8.914 -0.8486 -0.0666 -0.1285
   47TMC2    O1  728   0.239   1.855   8.957  0.2118  0.1301  0.1888
   47TMC2    O2  729   0.631   2.299   8.861 -0.1709 -0.4991  0.1451
   47TMC2    O5  730   0.456   2.260   9.007 -0.2096  0.1456  0.1718
   47TMC2    H5  731   0.406   2.187   9.048 -0.5088  0.5683  0.5503
   48MPD2     C  732   1.103   1.717   9.044 -0.2444  0.4376 -0.1757
   48MPD2    C1  733   0.981   1.663   9.016 -0.2040  0.3182 -0.3293
   48MPD2    C2  734   0.975   1.525   9.035 -1.4423  0.0362 -0.1485
   48MPD2    C3  735   1.073   1.450   9.095  0.9861  0.1222  0.2788
   48MPD2    C4  736   1.192   1.511   9.138  0.1519  1.2408 -1.0791
   48MPD2    C5  737   1.200   1.645   9.106 -0.2115  0.7276  0.2880
   48MPD2     H  738   0.881   1.479   9.007 -0.6787 -1.0305 -0.9941
   48MPD2    H1  739   1.285   1.469   9.172 -1.3090 -2.1127 -1.1845
   48MPD2    H2  740   1.113   1.825   9.044 -0.2852  0.4409  2.1681
   48MPD2    H3  741   1.284   1.702   9.143  0.6826  0.0527 -0.6756
   48MPD2     N  742   1.051   1.314   9.121 -0.4381  0.4721  0.3280
   48MPD2    H5  743   0.959   1.277   9.097  0.7568 -0.7431 -2.4038
   48MPD2    N1  744   0.858   1.726   8.977 -0.3430  1.0000 -0.5672
   48MPD2    H7  745   0.783   1.663   8.950 -1.2198  1.7490  0.1147
   49MPD2     C  746   2.845   3.558   9.758  0.8013  0.1795  0.1634
   49MPD2    C1  747   2.977   3.579   9.737 -0.4078  0.6353 -0.3292
   49MPD2    C2  748   3.034   3.702   9.755 -0.2024 -0.3028 -0.6794
   49MPD2    C3  749   2.960   3.810   9.797 -0.1780 -0.2586  0.7150
   49MPD2    C4  750   2.819   3.790   9.819  0.4747 -0.3950 -0.8204
   49MPD2    C5  751   2.763   3.661   9.800  0.5533  1.0036 -0.2102
   49MPD2     H  752   3.142   3.709   9.749 -0.2056  0.1290 -0.1783
   49MPD2    H1  753   2.752   3.867   9.856  1.8386  0.3776  0.0475
   49MPD2    H2  754   2.812   3.454   9.756 -1.2251  0.7735  2.5414
   49MPD2    H3  755   2.658   3.640   9.813  0.7127  1.7619  2.1819
   49MPD2     N  756   3.014   3.935   9.844 -0.1686  0.3350  1.2009
   49MPD2    H5  757   2.951   3.992   9.899 -0.4568 -0.1720  1.4036
   49MPD2    N1  758   3.065   3.476   9.698 -0.0483  0.4009  0.2046
   49MPD2    H7  759   3.166   3.488   9.702  0.1861 -0.7211 -2.0230
   50TCq2    C1  760   3.040   3.353   9.653 -0.7605 -0.1803 -0.2642
   50TCq2    O2  761   2.936   3.294   9.620  0.1272  0.2348 -0.2722
   50TCq2    C2  762   3.159   3.280   9.635 -0.4540 -0.3193  0.6212
   50TCq2    C3  763   3.247   3.322   9.541  0.0416 -0.0047  0.2714
   50TCq2    C4  764   3.329   3.241   9.475  0.6167 -0.3774  0.1979
   50TCq2    C5  765   3.331   3.106   9.504  0.0290 -0.2053 -0.1203
   50TCq2    C6  766   3.225   3.062   9.579 -0.5948  0.0267 -0.4752
   50TCq2    C7  767   3.137   3.146   9.643 -0.1338  0.0876  0.2664
   50TCq2    C8  768   3.204   2.918   9.606 -0.2023 -0.5050  0.4365
   50TCq2    O4  769   3.129   2.893   9.699 -0.4799  0.3129  0.4274
   50TCq2    C9  770   3.439   3.299   9.403 -0.3884  0.6673  0.2687
   50TCq2    O5  771   3.506   3.216   9.329  0.3992 -0.4653 -0.5883
   50TCq2    O6  772   3.444   3.423   9.410 -0.0796 -0.2502 -0.1153
   50TCq2    H2  773   3.260   3.430   9.534  2.2723 -0.2373  0.8767
   50TCq2    H3  774   3.416   3.050   9.467  0.2961 -1.5986  2.5831
   50TCq2    H4  775   3.072   3.116   9.725 -0.4683  0.6873  0.2256
   51MPD2     C  776   3.415   1.694   1.265 -0.3638 -0.4056 -0.0125
   51MPD2    C1  777   3.394   1.561   1.264  0.0765 -0.3464  0.3327
   51MPD2    C2  778   3.429   1.490   1.374  0.3268  0.7546  0.0428
   51MPD2    C3  779   3.477   1.544   1.487 -0.0344 -0.6106  0.8740
   51MPD2    C4  780   3.507   1.680   1.493  0.1817 -0.9679 -0.6038
   51MPD2    C5  781   3.465   1.752   1.382  0.8031 -0.5991 -0.4383
   51MPD2     H  782   3.417   1.383   1.357 -1.8456  1.0618 -0.3373
   51MPD2    H1  783   3.563   1.732   1.569 -1.3623 -0.0905 -0.0559
   51MPD2    H2  784   3.389   1.752   1.178 -3.4974 -1.9644 -0.1492
   51MPD2    H3  785   3.473   1.860   1.381 -2.1003 -0.3671 -0.0009
   51MPD2     N  786   3.507   1.468   1.603 -0.5629 -0.6958  0.8091
   51MPD2    H5  787   3.548   1.524   1.678  0.2012 -0.0654 -0.0809
   51MPD2    N1  788   3.347   1.487   1.150 -0.0831 -0.0937  0.3763
   51MPD2    H7  789   3.313   1.394   1.173 -0.8435  0.1236  0.1280
   52TCq2    C1  790   3.478   1.331   1.626  0.4426  0.0551  0.6331
   52TCq2    O2  791   3.414   1.254   1.557 -0.5525  0.1214  0.0286
   52TCq2    C2  792   3.524   1.280   1.752  0.0617  0.1052  0.4492
   52TCq2    C3  793   3.480   1.151   1.777  0.0392  0.4161 -0.1737
   52TCq2    C4  794   3.520   1.094   1.892  0.6682  0.2680  0.4102
   52TCq2    C5  795   3.598   1.158   1.984  0.3507 -0.1815 -0.2518
   52TCq2    C6  796   3.639   1.287   1.957 -0.8377 -0.5359 -0.3022
   52TCq2    C7  797   3.602   1.348   1.837  0.3998 -0.1277 -0.4306
   52TCq2    C8  798   3.746   1.357   2.033  0.2828 -0.2254 -0.0474
   52TCq2    O4  799   3.788   1.462   1.985  0.3607  0.0427 -0.4732
   52TCq2    C9  800   3.486   0.960   1.912 -0.8235  0.2185 -0.9894
   52TCq2    O5  801   3.518   0.920   2.025  0.0879  0.1501  0.2039
   52TCq2    O6  802   3.442   0.893   1.819 -0.0621  0.0423 -0.6448
   52TCq2    H2  803   3.416   1.094   1.711  0.9858  0.8068 -1.4227
   52TCq2    H3  804   3.650   1.098   2.058  0.7724  2.6130  1.7289
   52TCq2    H4  805   3.626   1.453   1.827 -3.4731  0.6935 -1.0188
   53TMC2    C1  806   4.471   0.182  12.238 -0.0630  0.0887  0.3416
   53TMC2    C2  807   4.584   0.248  12.289 -1.2286 -0.6777  0.0733
   53TMC2    C3  808   4.580   0.296  12.417 -0.2800  0.3432 -0.1147
   53TMC2    C4  809   4.360   0.166  12.310 -0.2261  0.0157 -1.1232
   53TMC2    C5  810   4.353   0.233  12.426 -0.2090  0.3401 -0.4382
   53TMC2    C6  811   4.461   0.288  12.484  0.1070  0.2437  0.1399
   53TMC2     C  812   4.470   0.172  12.095  0.3413 -0.0364  0.5277
   53TMC2     O  813   4.571   0.201  12.032  0.0903 -0.2650  0.3284
   53TMC2     H  814   4.675   0.257  12.231 -2.0881  0.3303 -1.1055
   53TMC2    H1  815   4.269   0.120  12.273 -2.2702  2.3094  1.0162
   53TMC2    H2  816   4.455   0.346  12.575  2.0229  0.2263  0.2785
   53TMC2    C7  817   4.225   0.294  12.438  0.2793 -0.0842  0.0991
   53TMC2    C8  818   4.698   0.361  12.471 -0.8089 -0.3123 -0.4724
   53TMC2    O1  819   4.157   0.302  12.332  0.5149 -0.2125 -0.2525
   53TMC2    O2  820   4.684   0.476  12.510  0.0537  0.2847 -0.5027
   53TMC2    O5  821   0.089   0.298  12.441  0.5370 -0.6458  0.3257
   53TMC2    H5  822   0.066   0.206  12.415 -2.0992  0.1685 -0.1545
   54MPD2     C  823   4.361   0.142  11.822 -0.1148 -0.3911 -0.6025
   54MPD2    C1  824   4.285   0.172  11.934  0.5526  0.9130  0.3014
   54MPD2    C2  825   4.148   0.187  11.923 -0.2619 -0.0891 -0.2296
   54MPD2    C3  826   4.090   0.195  11.801 -0.0208  0.0525 -0.2171
   54MPD2    C4  827   4.167   0.178  11.691  0.4120  0.4838  1.0253
   54MPD2    C5  828   4.299   0.142  11.699 -0.4205  0.1136 -0.7378
   54MPD2     H  829   4.088   0.186  12.013 -0.5792  2.6474 -0.4166
   54MPD2    H1  830   4.113   0.163  11.598  0.6727 -0.1566  0.9729
   54MPD2    H2  831   4.467   0.120  11.822  0.2819  1.5707 -0.8090
   54MPD2    H3  832   4.366   0.126  11.615  0.3503  1.6604 -0.4091
   54MPD2     N  833   3.952   0.219  11.773  0.1472 -0.1321 -0.4987
   54MPD2    H5  834   3.921   0.194  11.680 -2.5941  2.3644 -0.2672
   54MPD2    N1  835   4.332   0.177  12.062  0.2254 -0.1147  0.1666
   54MPD2    H7  836   4.262   0.183  12.135 -0.2098  0.7751 -0.3248
   55MPD2     C  837   0.534   2.707   0.215  0.2738  0.0073  0.1184
   55MPD2    C1  838   0.459   2.659   0.315  0.2205 -0.5147  0.2604
   55MPD2    C2  839   0.340   2.718   0.354  0.7127 -0.8589  0.0427
   55MPD2    C3  840   0.308   2.842   0.304 -0.2927 -0.2837 -1.0642
   55MPD2    C4  841   0.391   2.894   0.202 -0.5296 -0.1414 -0.6534
   55MPD2    C5  842   0.506   2.836   0.158  0.1260  0.3014  0.1067
   55MPD2     H  843   0.283   2.664   0.429  2.8229  0.5264  2.6445
   55MPD2    H1  844   0.365   2.994   0.167 -0.4094 -0.3355 -1.2929
   55MPD2    H2  845   0.624   2.651   0.192  0.2977  0.1287 -0.0862
   55MPD2    H3  846   0.572   2.886   0.088  1.0264  0.9348  1.3976
   55MPD2     N  847   0.187   2.902   0.347 -0.1258 -0.5551  0.0609
   55MPD2    H5  848   0.129   2.848   0.412 -0.9595  1.0019  0.6093
   55MPD2    N1  849   0.506   2.534   0.365 -0.4860  0.3304 -0.8101
   55MPD2    H7  850   0.586   2.487   0.322  1.0362  1.3282  0.9214
   56TCq2    C1  851   0.469   2.477   0.486 -0.1781 -0.2734  0.4821
   56TCq2    O2  852   0.406   2.528   0.578  0.2345 -0.6085  0.1043
   56TCq2    C2  853   0.497   2.335   0.500 -0.3641  0.2947 -0.0581
   56TCq2    C3  854   0.526   2.265   0.390  0.2784  0.3471  0.0587
   56TCq2    C4  855   0.552   2.133   0.407 -0.3638  0.0960 -0.2863
   56TCq2    C5  856   0.575   2.075   0.532 -0.2157  0.3766  0.3796
   56TCq2    C6  857   0.552   2.158   0.644  0.8556 -0.2779 -0.6853
   56TCq2    C7  858   0.517   2.285   0.628 -0.0047 -0.7605  0.4873
   56TCq2    C8  859   0.516   2.096   0.768  1.3430 -0.8350 -0.7817
   56TCq2    O4  860   0.569   1.986   0.787 -0.4055 -0.0454  0.4775
   56TCq2    C9  861   0.543   2.044   0.289 -0.1187 -0.2287  0.4394
   56TCq2    O5  862   0.476   1.939   0.319  0.7347  0.2108  0.2486
   56TCq2    O6  863   0.566   2.083   0.169 -0.1563 -0.5024 -0.1366
   56TCq2    H2  864   0.518   2.302   0.288  3.3592 -1.2963 -0.7966
   56TCq2    H3  865   0.587   1.968   0.544  1.4610  0.7034  1.6337
   56TCq2    H4  866   0.492   2.339   0.718  2.4254  0.5011  0.4198
   57TMC2    C1  867   4.199   4.312  13.752 -0.2311  0.2207 -0.1376
   57TMC2    C2  868   4.233   4.214  13.838 -0.2077  0.7888 -0.4896
   57TMC2    C3  869   4.329   4.125  13.790  0.6184 -0.0251  0.2805
   57TMC2    C4  870   4.256   4.320  13.625  0.1479 -0.4153 -0.2285
   57TMC2    C5  871   4.367   4.247  13.589  0.4453 -0.3145  0.2363
   57TMC2    C6  872   4.398   4.141  13.671 -0.1571 -0.6946 -0.5129
   57TMC2     C  873   4.085   4.395  13.782  0.3752  0.2634  0.0963
   57TMC2     O  874   4.053   4.468  13.690  0.0211 -0.2627 -0.7702
   57TMC2     H  875   4.177   4.193  13.929 -0.3526  1.6358 -0.3812
   57TMC2    H1  876   4.226   4.403  13.562  2.7363  1.0151  0.4240
   57TMC2    H2  877   4.490   4.084  13.665 -0.8233 -1.7021 -1.0700
   57TMC2    C7  878   4.405   4.255  13.448  0.6214 -0.8488 -0.0572
   57TMC2    C8  879   4.376   4.016  13.888  0.0615 -0.3791  0.1577
   57TMC2    O1  880   4.377   4.357  13.387  0.1822 -0.8411 -0.3904
   57TMC2    O2  881   4.432   3.911  13.866 -0.3195  0.3976 -0.2164
   57TMC2    O5  882   4.367   4.068  14.014  0.0969 -0.2508  0.3637
   57TMC2    H5  883   4.374   4.165  14.002 -1.3361 -0.0202  1.3750
   58MPD2     C  884   3.783   4.656  14.116 -0.3403  0.1194 -0.0505
   58MPD2    C1  885   3.765   4.627  13.977 -0.4050  0.4869 -0.2402
   58MPD2    C2  886   3.855   4.530  13.918 -0.4408  0.3650  0.4688
   58MPD2    C3  887   3.964   4.473  13.984 -0.3604  0.7336 -0.5604
   58MPD2    C4  888   3.973   4.512  14.118  0.0326 -0.5514  0.5584
   58MPD2    C5  889   3.878   4.586  14.183 -0.1138  0.1926 -0.1493
   58MPD2     H  890   3.832   4.502  13.815 -3.3458 -1.4910  1.6287
   58MPD2    H1  891   4.054   4.469  14.177  0.1737  0.4189  1.0590
   58MPD2    H2  892   3.726   0.006  14.173 -0.9404  1.2503 -2.1016
   58MPD2    H3  893   3.895   4.619  14.285  0.7709 -0.4066 -0.1041
   58MPD2     N  894   4.064   4.398  13.918  0.6761  0.3558 -1.0109
   58MPD2    H5  895   4.135   4.356  13.978 -0.8103  1.6075  1.6306
   58MPD2    N1  896   3.662   4.683  13.900  0.1178  0.0305  1.3869
   58MPD2    H7  897   3.660   4.656  13.802  0.7156  0.1223  1.3477
   59MPD2     C  898   1.883   0.055  12.573 -0.5629  0.2837  0.3326
   59MPD2    C1  899   1.802   0.041  12.687 -0.6217 -0.2411 -0.7701
   59MPD2    C2  900   1.852   0.074  12.815 -0.4067 -0.2154 -0.1998
   59MPD2    C3  901   1.984   0.121  12.830  0.0870  0.1855  0.2422
   59MPD2    C4  902   2.062   0.128  12.715 -0.2193  0.2539  0.1271
   59MPD2    C5  903   2.014   0.092  12.587  0.1798  0.0629  0.0698
   59MPD2     H  904   1.796   0.063  12.907  2.1066 -2.5317  1.0904
   59MPD2    H1  905   2.164   0.164  12.716 -0.2982  0.4901 -0.5117
   59MPD2    H2  906   1.853   0.038  12.470 -1.2760 -1.8644  0.9019
   59MPD2    H3  907   2.075   0.109  12.499  0.8692 -0.0117  0.5340
   59MPD2     N  908   2.047   0.145  12.952  0.4734 -0.1751  0.1368
   59MPD2    H5  909   2.142   0.181  12.947  0.4932 -0.2808 -0.2662
   59MPD2    N1  910   1.664   0.010  12.677 -0.3798 -0.2054 -0.2870
   59MPD2    H7  911   1.619   0.011  12.768  1.7167  0.8929  0.7452
   60TCq2    C1  912   1.592   4.706  12.562  0.4457  0.4111 -0.6536
   60TCq2    O2  913   1.620   4.715  12.446 -0.2512  0.3882 -0.3401
   60TCq2    C2  914   1.457   4.675  12.603  0.2962  0.1304  0.3015
   60TCq2    C3  915   1.424   4.631  12.727  0.2560 -0.0690 -0.0985
   60TCq2    C4  916   1.295   4.593  12.757 -0.2585 -0.0763 -0.3839
   60TCq2    C5  917   1.198   4.610  12.661  0.1372  0.0093  0.9170
   60TCq2    C6  918   1.235   4.670  12.543  0.0995 -0.6063  0.4345
   60TCq2    C7  919   1.368   4.682  12.502  0.0849  0.0626  0.4441
   60TCq2    C8  920   1.137   4.675  12.435 -0.6069  0.2692 -0.5071
   60TCq2    O4  921   1.041   4.603  12.445  0.3259  0.1437  0.2349
   60TCq2    C9  922   1.264   4.541  12.883 -0.0296  0.1744 -0.0859
   60TCq2    O5  923   1.150   4.486  12.897  0.3728  0.1305 -0.0318
   60TCq2    O6  924   1.354   4.539  12.964 -0.6789  0.3942  0.0665
   60TCq2    H2  925   1.497   4.596  12.799 -1.1026  0.5594  1.5859
   60TCq2    H3  926   1.096   4.582  12.684  0.7276 -2.3926  0.6199
   60TCq2    H4  927   1.397   0.006  12.408  0.8433 -1.3361 -0.0283
   61MPD2     C  928   1.036   0.372  15.057  0.1424  0.0958  0.0127
   61MPD2    C1  929   1.088   0.498  15.060 -0.3579  0.2795  0.0069
   61MPD2    C2  930   1.132   0.558  14.947  0.6659 -0.1378 -0.0892
   61MPD2    C3  931   1.109   0.493  14.825  0.0779 -0.5848  0.7025
   61MPD2    C4  932   1.057   0.360  14.825 -0.6501 -0.9331 -0.2826
   61MPD2    C5  933   1.017   0.301  14.945 -0.1529  0.0014  0.0750
   61MPD2     H  934   1.158   0.663  14.951 -0.9195  0.2950 -1.3111
   61MPD2    H1  935   1.053   0.307  14.731 -1.3806 -0.8514 -0.2994
   61MPD2    H2  936   1.002   0.325  15.149  1.1549 -0.3295  0.1725
   61MPD2    H3  937   0.973   0.203  14.951  0.7594 -0.4065  0.1438
   61MPD2     N  938   1.142   0.559  14.706  0.9100 -0.0974  0.4267
   61MPD2    H5  939   1.099   0.516  14.625 -2.8235  2.0464  1.2291
   61MPD2    N1  940   1.096   0.576  15.179  0.0478  0.1227 -0.7957
   61MPD2    H7  941   1.125   0.673  15.167 -0.0307 -0.0610 -2.4407
   62TCq2    C1  942   1.048   0.534  15.302 -0.7993  0.2261  0.2081
   62TCq2    O2  943   1.025   0.423  15.357  0.8673 -0.0008  0.0496
   62TCq2    C2  944   1.051   0.649  15.392  0.5418  0.1009  0.3566
   62TCq2    C3  945   1.081   0.628  15.518 -0.2681 -0.2200  0.1654
   62TCq2    C4  946   1.080   0.733  15.603 -0.6035  0.3125 -0.3107
   62TCq2    C5  947   1.035   0.853  15.559 -0.8068 -0.4975 -0.0921
   62TCq2    C6  948   0.987   0.862  15.428 -0.0976  0.3287 -0.1475
   62TCq2    C7  949   1.008   0.768  15.338  0.3625 -0.0882 -0.2267
   62TCq2    C8  950   0.942   0.990  15.381 -0.4631  0.4343 -0.4041
   62TCq2    O4  951   0.967   1.089  15.445 -0.0988 -0.4328  0.6639
   62TCq2    C9  952   1.128   0.719  15.732  0.1544  0.0716 -0.2819
   62TCq2    O5  953   1.115   0.814  15.817 -0.0757 -0.0627 -0.1126
   62TCq2    O6  954   1.169   0.607  15.772  0.8748  0.2599 -0.1532
   62TCq2    H2  955   1.114   0.530  15.550  2.5022  0.5564 -0.3118
   62TCq2    H3  956   1.014   0.928  15.635 -0.4859 -0.8970  0.3876
   62TCq2    H4  957   0.961   0.770  15.241  2.0694 -0.8592 -1.0681
   63TMC2    C1  958   0.499   1.655   9.774  0.3907 -0.1684 -0.4279
   63TMC2    C2  959   0.631   1.642   9.807 -0.6712  0.1962  0.1697
   63TMC2    C3  960   0.710   1.744   9.763 -0.2036  0.2104  0.4098
   63TMC2    C4  961   0.449   1.764   9.706  0.1815  0.2973 -0.1487
   63TMC2    C5  962   0.533   1.863   9.661  0.1673 -0.5600  0.1060
   63TMC2    C6  963   0.666   1.849   9.686  0.0489  0.3589 -0.2931
   63TMC2     C  964   0.395   1.568   9.842 -0.3755  0.1162  0.5392
   63TMC2     O  965   0.298   1.631   9.894  0.4386 -0.4269  0.2187
   63TMC2     H  966   0.673   1.551   9.847  0.5412  0.6100 -0.1550
   63TMC2    H1  967   0.341   1.771   9.702  0.1370 -0.1616  0.1873
   63TMC2    H2  968   0.747   1.910   9.647 -0.3992  0.1683 -1.5346
   63TMC2    C7  969   0.482   1.972   9.573  0.2808 -1.0250  0.4647
   63TMC2    C8  970   0.853   1.737   9.769 -0.0109  0.2410 -0.5234
   63TMC2    O1  971   0.361   1.955   9.556 -0.9910  0.0550  0.2765
   63TMC2    O2  972   0.929   1.782   9.686  0.2388 -0.1527  0.7711
   63TMC2    O5  973   0.890   1.652   9.874  0.0412 -0.0762 -0.0236
   63TMC2    H5  974   0.820   1.637   9.941  0.5475 -3.0571 -0.1550
   64MPD2     C  975   0.207   1.131  10.058  0.1171 -0.1352  0.8121
   64MPD2    C1  976   0.326   1.099  10.002 -0.2242 -0.0460  0.1642
   64MPD2    C2  977   0.401   1.206   9.943  0.3624 -0.3106  0.3528
   64MPD2    C3  978   0.353   1.337   9.926 -0.0296 -0.1543 -0.0822
   64MPD2    C4  979   0.227   1.360   9.982 -1.2683 -0.4977  0.2318
   64MPD2    C5  980   0.155   1.255  10.038 -0.1166 -0.2514 -0.6347
   64MPD2     H  981   0.502   1.186   9.908  0.7606 -0.1469  1.3904
   64MPD2    H1  982   0.174   1.455   9.978  1.6907  1.2080  1.5582
   64MPD2    H2  983   0.147   1.059  10.111 -1.8676  0.5077 -0.5662
   64MPD2    H3  984   0.052   1.275  10.068  0.1817  0.4681 -0.0987
   64MPD2     N  985   0.432   1.439   9.862 -0.1613  0.4560 -0.6487
   64MPD2    H5  986   0.522   1.418   9.821 -0.4743  1.7329 -1.9675
   64MPD2    N1  987   0.397   0.973  10.000  0.0711 -0.3078 -0.0330
   64MPD2    H7  988   0.497   0.983   9.985 -0.0160  0.7917  0.1227
   65MPD2     C  989   1.794   4.690  15.877 -0.9893 -0.5794  0.7324
   65MPD2    C1  990   1.864   4.699  15.755 -0.8024  0.0617  1.0970
   65MPD2    C2  991   1.890   4.587  15.684  0.4453  0.1568  0.0045
   65MPD2    C3  992   1.822   4.462  15.722  0.1583 -0.0865  0.0130
   65MPD2    C4  993   1.750   4.455  15.837 -0.5174  0.5329  0.0670
   65MPD2    C5  994   1.738   4.566  15.912 -0.3029 -0.5152  0.0595
   65MPD2     H  995   1.957   4.593  15.599 -1.3884 -2.1267 -1.6300
   65MPD2    H1  996   1.700   4.369  15.879  0.0435  1.0366  1.7507
   65MPD2    H2  997   1.771   0.057  15.932 -0.9756  0.4869 -0.9936
   65MPD2    H3  998   1.682   4.555  16.004  0.4541 -2.9185  0.2315
   65MPD2     N  999   1.802   4.357  15.638 -0.1944  0.3429  0.4708
   65MPD2    H5 1000   1.735   4.288  15.671 -1.2944  0.6224 -1.2152
   65MPD2    N1 1001   1.923   0.100  15.707 -0.2881  0.2954 -0.5005
   65MPD2    H7 1002   1.966   0.098  15.615  0.4723  0.5760 -0.1558
   66TCq2    C1 1003   1.894   0.226  15.757 -0.0008 -0.1927 -1.0337
   66TCq2    O2 1004   1.823   0.262  15.850  0.5394  0.2622  0.0434
   66TCq2    C2 1005   1.962   0.321  15.664  0.2083  0.1732 -0.0379
   66TCq2    C3 1006   2.009   0.286  15.541  0.3794 -0.2651 -0.2811
   66TCq2    C4 1007   2.062   0.388  15.469  0.3605 -0.0701 -0.0865
   66TCq2    C5 1008   2.055   0.516  15.497  0.0457 -0.4639  0.0611
   66TCq2    C6 1009   2.005   0.555  15.611 -0.4969 -0.0275 -0.3234
   66TCq2    C7 1010   1.957   0.458  15.701  0.3115 -0.6587  0.6854
   66TCq2    C8 1011   1.949   0.692  15.601  0.2327  0.0328  0.5757
   66TCq2    O4 1012   1.981   0.743  15.494  0.6687  0.1356  0.3936
   66TCq2    C9 1013   2.122   0.350  15.336 -0.1070 -0.0462 -0.2919
   66TCq2    O5 1014   2.112   0.229  15.300  0.5543 -0.0379  0.0489
   66TCq2    O6 1015   2.136   0.441  15.252 -0.4012 -0.1140 -1.0746
   66TCq2    H2 1016   2.015   0.182  15.509 -0.7290  0.2228 -2.0768
   66TCq2    H3 1017   2.102   0.580  15.424  3.0422 -2.9017 -0.1725
   66TCq2    H4 1018   1.921   0.491  15.797  0.7205  0.2075  0.5330
   67MPD2     C 1019   1.635   4.435  14.278  0.1722 -0.2288 -0.2528
   67MPD2    C1 1020   1.578   4.492  14.386  0.1226  0.1538 -0.3334
   67MPD2    C2 1021   1.441   4.520  14.382  0.6454  0.1727  0.0762
   67MPD2    C3 1022   1.359   4.496  14.268  0.3515  0.1571 -0.0862
   67MPD2    C4 1023   1.428   4.447  14.156 -0.2614  0.3087 -0.1194
   67MPD2    C5 1024   1.560   4.411  14.168  0.0497  0.2427  0.6857
   67MPD2     H 1025   1.385   4.550  14.471 -0.7397  0.1067 -0.7843
   67MPD2    H1 1026   1.377   4.423  14.063  2.5387  1.5159 -1.9777
   67MPD2    H2 1027   1.732   4.387  14.273  0.0147 -0.6692  1.0902
   67MPD2    H3 1028   1.607   4.369  14.079  2.2850  0.8119  1.5986
   67MPD2     N 1029   1.224   4.528  14.252  0.0016  0.0018  0.6283
   67MPD2    H5 1030   1.178   4.504  14.165 -0.3952  1.5641  0.3995
   67MPD2    N1 1031   1.643   4.505  14.510  0.3635 -0.3725  0.6568
   67MPD2    H7 1032   1.584   4.531  14.588 -0.5174 -2.1139  0.5789
   68TCq2    C1 1033   1.773   4.464  14.537 -0.0187  0.3494 -0.2660
   68TCq2    O2 1034   1.866   4.448  14.457 -0.6305  0.0367 -0.3825
   68TCq2    C2 1035   1.810   4.471  14.677  0.0922 -1.2066  1.4490
   68TCq2    C3 1036   1.705   4.503  14.761  0.1630  0.8467  1.0272
   68TCq2    C4 1037   1.743   4.516  14.892  0.1638  0.9055  0.0724
   68TCq2    C5 1038   1.874   4.531  14.939  1.0203  0.6265  0.2996
   68TCq2    C6 1039   1.971   4.506  14.843 -0.1825  0.2308  0.2227
   68TCq2    C7 1040   1.942   4.465  14.712  0.4029 -0.7833 -0.4591
   68TCq2    C8 1041   2.107   4.454  14.895  0.5267  0.4822 -0.3735
   68TCq2    O4 1042   2.199   4.442  14.815 -0.0505  0.3291 -0.2966
   68TCq2    C9 1043   1.636   4.531  14.989 -0.3478  0.3161  0.1337
   68TCq2    O5 1044   1.551   4.441  14.987 -0.1453  0.6090 -0.0912
   68TCq2    O6 1045   1.643   4.627  15.077 -0.0054 -0.0251  0.3788
   68TCq2    H2 1046   1.600   4.483  14.740  0.6238  0.8743 -1.3288
   68TCq2    H3 1047   1.890   4.566  15.040  1.0935 -1.5637  1.0517
   68TCq2    H4 1048   2.024   4.443  14.646  2.2639  2.7466  0.6510
   69TMC2    C1 1049   3.742   0.965  11.777  0.0607 -0.3315 -0.3579
   69TMC2    C2 1050   3.641   1.029  11.715 -0.2045 -0.5694 -0.0880
   69TMC2    C3 1051   3.658   1.083  11.585 -0.1672  0.8090  0.0604
   69TMC2    C4 1052   3.861   0.934  11.711  0.6091  0.4050  0.2992
   69TMC2    C5 1053   3.870   0.969  11.577 -0.4788  0.1151 -1.2886
   69TMC2    C6 1054   3.769   1.035  11.513  0.1800 -0.1220  0.3848
   69TMC2     C 1055   3.738   0.953  11.922  1.2320 -0.1087  0.1283
   69TMC2     O 1056   3.626   0.971  11.972 -0.7825  0.4622  0.2513
   69TMC2     H 1057   3.547   1.057  11.762 -0.2656 -0.5064 -0.2474
   69TMC2    H1 1058   3.924   0.852  11.746  1.1491  0.8881  0.4529
   69TMC2    H2 1059   3.789   1.071  11.413  1.9983 -0.0796  0.7741
   69TMC2    C7 1060   3.987   0.944  11.497  0.5302 -0.1251 -0.2731
   69TMC2    C8 1061   3.534   1.129  11.516  0.1815  0.2321 -0.1914
   69TMC2    O1 1062   3.976   0.958  11.376 -0.4063 -0.2552  0.0871
   69TMC2    O2 1063   3.418   1.104  11.545 -0.7153 -0.3317 -0.6443
   69TMC2    O5 1064   3.570   1.133  11.389  0.1111  0.3160  0.2204
   69TMC2    H5 1065   3.650   1.187  11.373 -0.6931  1.6704  0.7930
   70MPD2     C 1066   3.974   0.788  12.161  0.1897 -1.3809  0.5386
   70MPD2    C1 1067   3.867   0.863  12.118 -0.3325 -0.4446  0.0543
   70MPD2    C2 1068   3.780   0.910  12.213  0.8746  0.0800  0.2241
   70MPD2    C3 1069   3.820   0.914  12.344  0.4071 -0.0864 -0.2771
   70MPD2    C4 1070   3.936   0.850  12.387 -0.2011  0.6591  0.0420
   70MPD2    C5 1071   4.004   0.778  12.292  0.0250 -0.1348 -0.3092
   70MPD2     H 1072   3.692   0.965  12.182  0.2037 -1.0988  0.0271
   70MPD2    H1 1073   3.969   0.844  12.490 -1.0093  1.2783  0.3335
   70MPD2    H2 1074   4.044   0.735  12.096 -1.5749 -1.6621 -1.1531
   70MPD2    H3 1075   4.092   0.723  12.322  0.1359  0.1994 -0.0311
   70MPD2     N 1076   3.740   0.971  12.447 -0.2261  0.0655  0.2100
   70MPD2    H5 1077   3.785   0.955  12.536  1.4151 -2.0578 -0.9854
   70MPD2    N1 1078   3.857   0.896  11.977  0.1185 -0.4509 -0.4266
   70MPD2    H7 1079   3.934   0.883  11.911 -1.1399 -1.3162 -1.7136
   71TMC2    C1 1080   1.159   0.375   1.206 -0.5617  0.0961  0.8851
   71TMC2    C2 1081   1.205   0.261   1.256  0.7275  0.5063 -0.4641
   71TMC2    C3 1082   1.124   0.187   1.338  0.4369 -0.1315 -0.3129
   71TMC2    C4 1083   1.039   0.431   1.248  0.5932  0.1601  0.0360
   71TMC2    C5 1084   0.970   0.355   1.338 -0.0546  0.7290 -0.7236
   71TMC2    C6 1085   1.009   0.237   1.390  0.5916  0.2305  0.2149
   71TMC2     C 1086   1.241   0.457   1.116 -0.1675 -0.2703 -0.1257
   71TMC2     O 1087   1.185   0.542   1.050 -0.7441 -0.2119  0.1901
   71TMC2     H 1088   1.286   0.209   1.205 -0.8019  1.3924 -3.7737
   71TMC2    H1 1089   1.013   0.536   1.238 -0.1082 -0.0484 -0.2951
   71TMC2    H2 1090   0.962   0.182   1.469  1.2640 -0.7288 -0.0547
   71TMC2    C7 1091   0.885   0.434   1.430 -0.0768 -0.0196 -0.2521
   71TMC2    C8 1092   1.201   0.106   1.433  0.2201  0.3281  0.2958
   71TMC2    O1 1093   0.892   0.393   1.548  0.9779 -0.0641  0.0869
   71TMC2    O2 1094   1.314   0.133   1.459 -0.2752  0.2732 -0.1009
   71TMC2    O5 1095   1.148   4.707   1.445  0.4396  0.3160  0.2944
   71TMC2    H5 1096   1.064   4.694   1.396  0.6233  1.1696 -0.2606
   72MPD2     C 1097   1.699   0.639   0.980 -0.2212 -0.5088  0.6696
   72MPD2    C1 1098   1.574   0.658   0.919  0.3633  0.0369 -0.6017
   72MPD2    C2 1099   1.467   0.585   0.975  0.6798 -0.1917  0.2136
   72MPD2    C3 1100   1.480   0.493   1.075  0.9288 -0.1157  0.3836
   72MPD2    C4 1101   1.610   0.467   1.122 -0.2003  0.3489 -0.0472
   72MPD2    C5 1102   1.715   0.538   1.071 -0.3268  0.0079 -0.3278
   72MPD2     H 1103   1.376   0.601   0.918  1.1338  0.1310 -0.4253
   72MPD2    H1 1104   1.630   0.402   1.207 -1.4817  1.5302  1.1651
   72MPD2    H2 1105   1.786   0.697   0.949  0.4088 -2.1912 -0.7356
   72MPD2    H3 1106   1.814   0.530   1.114 -0.9264 -0.8494  0.8781
   72MPD2     N 1107   1.374   0.434   1.141  0.1632 -0.3788 -0.1601
   72MPD2    H5 1108   1.394   0.366   1.214  0.2822  0.8799  0.9710
   72MPD2    N1 1109   1.547   0.762   0.827 -0.0010 -0.2233 -0.2485
   72MPD2    H7 1110   1.450   0.773   0.798  0.2990  0.2306 -1.0882
   73TMC2    C1 1111   1.050   3.043  13.738 -0.1310 -0.2504 -0.2548
   73TMC2    C2 1112   1.025   3.115  13.852  0.1977 -0.2530 -0.7278
   73TMC2    C3 1113   1.095   3.086  13.963  0.1299 -0.0051  0.4489
   73TMC2    C4 1114   1.158   2.958  13.739  0.1250  0.5363  0.4153
   73TMC2    C5 1115   1.238   2.947  13.856 -0.3682 -0.2917 -0.4666
   73TMC2    C6 1116   1.198   3.004  13.974 -0.0669  0.5340  0.1227
   73TMC2     C 1117   1.048   3.127  13.618  0.2677  0.1124  0.1815
   73TMC2     O 1118   1.155   3.117  13.558  0.0894 -0.4287  0.8060
   73TMC2     H 1119   0.962   3.203  13.858  2.2701  1.0844  1.4008
   73TMC2    H1 1120   1.176   2.905  13.646  2.6984 -0.2120  1.3559
   73TMC2    H2 1121   1.254   2.996  14.066 -0.8041 -0.2010  0.5039
   73TMC2    C7 1122   1.375   2.986  13.829 -0.3369  0.4175 -0.6023
   73TMC2    C8 1123   1.097   3.190  14.066  0.2625  0.3560 -0.0410
   73TMC2    O1 1124   1.451   2.970  13.920  0.4442 -0.0027 -0.0423
   73TMC2    O2 1125   1.061   3.307  14.047  0.0931 -0.2773  0.0861
   73TMC2    O5 1126   1.065   3.129  14.177  0.6144  0.2818 -0.0412
   73TMC2    H5 1127   1.064   3.031  14.171 -2.2321  0.4396 -2.4040
   74MPD2     C 1128   0.976   3.592  13.441 -0.1697  0.0425  0.6194
   74MPD2    C1 1129   1.057   3.495  13.393  0.0544  0.1755 -0.0600
   74MPD2    C2 1130   1.046   3.363  13.445  0.5666 -0.1568  0.1186
   74MPD2    C3 1131   0.942   3.340  13.538 -0.1601  0.1451  0.5295
   74MPD2    C4 1132   0.853   3.443  13.571 -0.1516  0.3366 -0.2797
   74MPD2    C5 1133   0.875   3.563  13.517 -0.3156 -0.7475  0.0026
   74MPD2     H 1134   1.120   3.288  13.421 -0.1525 -0.7165 -0.3687
   74MPD2    H1 1135   0.765   3.424  13.632  0.2216  0.3650  0.2687
   74MPD2    H2 1136   0.973   3.691  13.396  0.6728  0.3654  1.2661
   74MPD2    H3 1137   0.808   3.646  13.539  0.4317  0.2297 -1.4412
   74MPD2     N 1138   0.946   3.221  13.617  0.6491  0.3287 -0.0487
   74MPD2    H5 1139   0.870   3.200  13.680 -0.1910 -0.0715 -1.2151
   74MPD2    N1 1140   1.147   3.528  13.290  0.0699  0.1000 -0.5815
   74MPD2    H7 1141   1.159   3.627  13.270  2.0481 -0.0818 -0.3026
   75TCq2    C1 1142   1.138   4.585  14.346 -0.3412 -0.3101 -0.2206
   75TCq2    O2 1143   1.152   4.588  14.469 -0.4238 -0.7390  0.6243
   75TCq2    C2 1144   1.014   4.625  14.282  0.3842  0.1600  0.1275
   75TCq2    C3 1145   0.911   4.660  14.362  0.4980 -0.3885  0.5477
   75TCq2    C4 1146   0.795   4.716  14.308  1.5097  0.2847  0.3649
   75TCq2    C5 1147   0.783   0.022  14.175  0.3239 -0.1079  0.0491
   75TCq2    C6 1148   0.890   4.704  14.101 -0.2176 -0.1072 -0.1168
   75TCq2    C7 1149   1.005   4.652  14.148 -0.3807 -0.3722  0.0051
   75TCq2    C8 1150   0.896   0.039  13.963 -0.4113  0.0063  0.1295
   75TCq2    O4 1151   0.944   4.687  13.875  0.0422 -0.1460  0.2548
   75TCq2    C9 1152   0.694   0.025  14.397 -0.3172 -0.3972 -0.2529
   75TCq2    O5 1153   0.588   0.066  14.348 -0.5534  0.3353  0.0353
   75TCq2    O6 1154   0.718   0.020  14.520 -0.3591  0.5507 -0.3508
   75TCq2    H2 1155   0.918   4.638  14.468  2.9008  0.5915  0.5819
   75TCq2    H3 1156   0.683   0.050  14.145  0.9553  0.2080 -1.7802
   75TCq2    H4 1157   1.092   4.634  14.087 -0.8480  2.1837 -1.3965
   76MPD2     C 1158   0.325   0.744  11.075 -0.4586 -0.2816  0.0428
   76MPD2    C1 1159   0.210   0.681  11.093 -0.6745  0.0028 -0.3828
   76MPD2    C2 1160   0.206   0.564  11.167 -0.6508  0.6265  0.1104
   76MPD2    C3 1161   0.321   0.525  11.237 -0.4749 -0.4730  0.1841
   76MPD2    C4 1162   0.441   0.595  11.225  0.1005 -0.1897 -1.4706
   76MPD2    C5 1163   0.439   0.697  11.138 -0.4006  0.4795  0.0085
   76MPD2     H 1164   0.116   0.505  11.181 -0.5003  0.4092  0.1636
   76MPD2    H1 1165   0.539   0.576  11.268  0.0375 -0.1852 -1.3267
   76MPD2    H2 1166   0.335   0.836  11.018  2.8187  0.5810  2.0054
   76MPD2    H3 1167   0.535   0.743  11.115  0.9940 -2.7756 -0.7791
   76MPD2     N 1168   0.331   0.395  11.301  0.6645  0.1338  1.1513
   76MPD2    H5 1169   0.417   0.382  11.354  2.3726  0.2758 -1.6196
   76MPD2    N1 1170   0.089   0.722  11.026  0.2393 -0.0986 -0.1695
   76MPD2    H7 1171   0.002   0.672  11.042  0.6186 -0.7400 -0.0940
   77TCq2    C1 1172   0.229   0.300  11.294  0.0275 -0.1795  0.0947
   77TCq2    O2 1173   0.135   0.297  11.218 -0.1038  0.2239  0.5499
   77TCq2    C2 1174   0.244   0.190  11.390 -0.3781 -0.0117 -0.5530
   77TCq2    C3 1175   0.172   0.073  11.363  0.1618  0.0808  0.4743
   77TCq2    C4 1176   0.163   4.707  11.469  0.2556 -1.0131  0.1396
   77TCq2    C5 1177   0.228   0.000  11.586 -0.0275 -0.4530 -0.0055
   77TCq2    C6 1178   0.299   0.114  11.611  0.2877  0.2261  0.1901
   77TCq2    C7 1179   0.303   0.211  11.509 -0.4139 -0.0519  0.1206
   77TCq2    C8 1180   0.378   0.118  11.732 -0.5551 -0.0052 -0.8264
   77TCq2    O4 1181   0.384   0.016  11.799 -0.1111 -0.0312 -0.1271
   77TCq2    C9 1182   0.078   4.586  11.451  0.4807  0.4617  0.6551
   77TCq2    O5 1183   0.074   4.499  11.544  0.0166 -0.1295  0.2366
   77TCq2    O6 1184   0.028   4.563  11.340  0.1023  0.5201 -0.4002
   77TCq2    H2 1185   0.110   0.061  11.275  0.2099 -1.5715  0.6647
   77TCq2    H3 1186   0.216   4.638  11.652  0.8014 -0.9014 -0.4451
   77TCq2    H4 1187   0.361   0.301  11.527  0.2662 -0.2559 -1.0915
   78MPD1     C 1188   1.177   3.912   0.609 -0.6713  0.2520  0.2996
   78MPD1    C1 1189   1.210   3.837   0.713  0.2493 -0.4346 -0.4147
   78MPD1    C2 1190   1.178   3.881   0.843  0.8420  0.0405  0.0609
   78MPD1    C3 1191   1.106   4.001   0.862  0.1059  0.1813 -0.3471
   78MPD1    C4 1192   1.054   4.059   0.749 -0.3259  0.0478  0.3381
   78MPD1    C5 1193   1.092   4.019   0.629  0.0266 -0.7588 -0.0310
   78MPD1     H 1194   1.213   3.833   0.934 -1.4711 -0.8224  0.5045
   78MPD1    H1 1195   0.996   4.151   0.754  0.7254  0.8198 -1.8409
   78MPD1    H2 1196   1.200   3.875   0.510 -1.0323  1.3863 -0.2157
   78MPD1    H3 1197   1.065   4.074   0.540  0.7645  0.8243  0.7195
   78MPD1     N 1198   1.070   4.066   0.982  0.3386  0.7150 -0.0682
   78MPD1    H5 1199   1.000   4.139   0.969  0.1569  0.7018  0.7884
   78MPD1    N1 1200   1.291   3.722   0.699  0.3834 -0.1126 -0.5501
   78MPD1    H6 1201   1.259   3.671   0.617 -1.3514 -0.6775  0.4924
   78MPD1    H7 1202   1.299   3.670   0.786 -0.6114 -1.0429 -1.0141
   79TCq2    C1 1203   1.129   4.046   1.110 -0.2168  0.0460  0.6241
   79TCq2    O2 1204   1.189   3.948   1.145  0.2018 -0.3187 -0.6185
   79TCq2    C2 1205   1.087   4.149   1.200  0.5618 -0.0537 -0.4044
   79TCq2    C3 1206   1.076   4.119   1.330  0.5704 -0.3133 -0.1520
   79TCq2    C4 1207   1.080   4.223   1.422  0.1475  0.4538 -0.5728
   79TCq2    C5 1208   1.104   4.348   1.382  0.3748  0.2961  0.1569
   79TCq2    C6 1209   1.113   4.376   1.246  0.0486 -0.1225  0.0103
   79TCq2    C7 1210   1.122   4.276   1.161  0.7768 -0.5715 -0.1391
   79TCq2    C8 1211   1.204   4.488   1.215 -0.1358 -0.3308 -0.2325
   79TCq2    O4 1212   1.317   4.471   1.260 -0.9626 -1.2434 -0.0303
   79TCq2    C9 1213   1.060   4.188   1.560  0.2165  0.9379  0.8452
   79TCq2    O5 1214   1.057   4.067   1.591 -0.5379  0.1854 -0.0717
   79TCq2    O6 1215   1.045   4.277   1.649 -0.2075  0.2066  0.1186
   79TCq2    H2 1216   1.063   4.016   1.362  0.9361  0.1635  1.5271
   79TCq2    H3 1217   1.107   4.431   1.451 -0.8699 -0.9728  1.7424
   79TCq2    H4 1218   1.158   4.299   1.062 -1.0568  2.6124 -0.0426
   80MPD2     C 1219   4.211   4.622  12.428  0.9770  0.2907  0.0157
   80MPD2    C1 1220   4.097   4.673  12.375  0.2663  0.2057  0.4961
   80MPD2    C2 1221   4.002   0.009  12.448  0.3957 -0.2458 -0.2008
   80MPD2    C3 1222   4.021   0.015  12.586  0.2461 -0.5287 -0.5721
   80MPD2    C4 1223   4.139   4.694  12.643 -0.0936 -0.1691  0.1938
   80MPD2    C5 1224   4.237   4.642  12.567 -0.0312 -0.8740  0.0047
   80MPD2     H 1225   3.918   0.048  12.392 -1.9621 -3.5075  1.0639
   80MPD2    H1 1226   4.167   4.702  12.748  1.9395 -0.7859 -0.2981
   80MPD2    H2 1227   4.287   4.579  12.364  2.3111  0.7527  1.3006
   80MPD2    H3 1228   4.327   4.606  12.615  0.3482  0.3795  0.2304
   80MPD2     N 1229   3.942   0.086  12.676  0.1940 -0.0102  0.1203
   80MPD2    H5 1230   3.978   0.096  12.771  0.0520 -0.7703  0.2599
   80MPD2    N1 1231   4.059   4.654  12.236  0.2844 -0.5419  0.2820
   80MPD2    H7 1232   3.972   4.699  12.211  1.5863  1.6002 -0.3473
   81TCq2    C1 1233   4.123   4.581  12.137  0.0283  0.4948  0.8175
   81TCq2    O2 1234   4.240   4.548  12.132 -0.2378 -0.0630  0.2137
   81TCq2    C2 1235   4.049   4.570  12.014 -0.3856 -0.0565  0.9793
   81TCq2    C3 1236   4.115   4.565  11.896  0.1429 -0.1784  0.0524
   81TCq2    C4 1237   4.044   4.562  11.774 -0.1498 -0.5904  0.2018
   81TCq2    C5 1238   3.908   4.552  11.779  0.6426  0.2289  0.0234
   81TCq2    C6 1239   3.844   4.551  11.898  0.4829 -0.2833 -0.0722
   81TCq2    C7 1240   3.910   4.559  12.014  0.6441  0.4657 -0.6912
   81TCq2    C8 1241   3.729   4.457  11.891 -0.2633 -0.1187 -0.1080
   81TCq2    O4 1242   3.685   4.422  11.785  0.2685  0.7269  0.3653
   81TCq2    C9 1243   4.114   4.554  11.643 -0.5216  0.4135 -0.1028
   81TCq2    O5 1244   4.239   4.539  11.647 -0.0653  0.8504  0.1656
   81TCq2    O6 1245   4.045   4.557  11.535  0.5270  0.3079 -0.0438
   81TCq2    H2 1246   4.223   4.577  11.887  0.0270 -0.9501 -2.2762
   81TCq2    H3 1247   3.856   4.550  11.684  0.6568  0.3160  0.0135
   81TCq2    H4 1248   3.856   4.573  12.107 -0.2750  1.1797 -1.3279
   82MPD2     C 1249   1.729   0.592  10.436 -0.1201 -0.6944 -0.4442
   82MPD2    C1 1250   1.681   0.464  10.419  0.7408  0.1127 -0.1258
   82MPD2    C2 1251   1.686   0.369  10.515 -0.3647 -0.3946 -0.2544
   82MPD2    C3 1252   1.765   0.388  10.629 -0.1446 -0.2039 -0.1989
   82MPD2    C4 1253   1.808   0.518  10.657  0.1816 -0.7184  0.1616
   82MPD2    C5 1254   1.783   0.621  10.563  0.4561  0.7541 -0.1783
   82MPD2     H 1255   1.650   0.269  10.494  0.7468 -0.9587  0.4922
   82MPD2    H1 1256   1.851   0.544  10.753 -0.9651  0.0418  0.4765
   82MPD2    H2 1257   1.735   0.660  10.351 -0.9188 -2.1034 -1.6385
   82MPD2    H3 1258   1.821   0.722  10.578  1.7486 -0.0369  1.8645
   82MPD2     N 1259   1.795   0.292  10.725 -0.1356 -0.0896  0.1709
   82MPD2    H5 1260   1.824   0.328  10.815  1.8808  1.9361 -1.2898
   82MPD2    N1 1261   1.629   0.447  10.288  1.0623  0.3062 -0.0960
   82MPD2    H7 1262   1.656   0.519  10.222  3.2215  0.1201  0.5818
   83TCq2    C1 1263   1.757   0.158  10.716  0.2393  0.3103 -0.1237
   83TCq2    O2 1264   1.755   0.095  10.613 -0.4201 -0.2081  0.0022
   83TCq2    C2 1265   1.781   0.086  10.839  0.4971  0.3536 -0.2257
   83TCq2    C3 1266   1.792   0.160  10.948 -0.2237  0.3596  0.1147
   83TCq2    C4 1267   1.858   0.103  11.045  0.5960 -0.1650  0.0573
   83TCq2    C5 1268   1.918   4.702  11.035 -0.0718 -0.2889  0.6289
   83TCq2    C6 1269   1.910   4.633  10.919 -0.2235 -0.0234 -0.2211
   83TCq2    C7 1270   1.850   4.695  10.816 -0.4574 -0.0662  0.1832
   83TCq2    C8 1271   1.882   4.492  10.934 -0.2407  0.5035 -0.0908
   83TCq2    O4 1272   1.936   4.436  11.029  0.0368 -0.1839 -0.1807
   83TCq2    C9 1273   1.833   0.153  11.179 -0.5109 -0.1883  0.5416
   83TCq2    O5 1274   1.770   0.264  11.188  0.1892  0.0931  0.4326
   83TCq2    O6 1275   1.858   0.081  11.279  0.0924  0.8637  0.0005
   83TCq2    H2 1276   1.721   0.241  10.964 -0.2395 -0.2623  3.2970
   83TCq2    H3 1277   1.955   4.665  11.130 -1.1518  0.2038  1.2405
   83TCq2    H4 1278   1.829   4.642  10.724  0.4624 -1.2236  0.6559
   84TCq2    C1 1279   3.138   3.980   9.824  0.0610 -0.4739  0.4349
   84TCq2    O2 1280   3.219   3.948   9.741 -0.0823  0.5925  0.4054
   84TCq2    C2 1281   3.173   4.079   9.928 -0.6816  0.4891  0.1896
   84TCq2    C3 1282   3.295   4.138   9.903  0.9929  0.4017  0.6228
   84TCq2    C4 1283   3.350   4.207  10.007  0.3045 -0.0601  0.0129
   84TCq2    C5 1284   3.308   4.198  10.134 -0.2091 -0.1770 -0.4366
   84TCq2    C6 1285   3.194   4.134  10.158  0.7110  0.0794  0.0130
   84TCq2    C7 1286   3.126   4.072  10.056  0.5520 -0.3042 -0.0546
   84TCq2    C8 1287   3.168   4.108  10.304  0.5021 -0.4913 -0.9678
   84TCq2    O4 1288   3.252   4.136  10.386 -0.0882 -0.2535  0.6358
   84TCq2    C9 1289   3.476   4.281   9.989  0.2943  0.3959  0.2560
   84TCq2    O5 1290   3.535   4.287   9.875  0.5109  0.0482 -0.1673
   84TCq2    O6 1291   3.507   4.363  10.082  0.2990 -0.0354 -0.2498
   84TCq2    H2 1292   3.344   4.138   9.806  0.6475 -0.6689  0.4444
   84TCq2    H3 1293   3.366   4.240  10.216 -0.9766  1.3606 -0.6855
   84TCq2    H4 1294   3.036   4.017  10.078  1.5813 -1.5157  1.1162
   85MPD2     C 1295   3.985   0.841  16.551 -0.0680  0.3899  0.2227
   85MPD2    C1 1296   3.907   0.891  16.450  0.0486  0.3696  0.1405
   85MPD2    C2 1297   3.926   1.021  16.411  0.3042  0.1131 -0.4409
   85MPD2    C3 1298   4.031   1.098  16.461  0.3762 -0.3840  0.6431
   85MPD2    C4 1299   4.117   1.040  16.556  0.4149 -0.1618  0.3842
   85MPD2    C5 1300   4.098   0.914  16.601  0.3100  0.6657  0.4890
   85MPD2     H 1301   3.861   1.069  16.339 -1.4657 -3.2548 -1.0895
   85MPD2    H1 1302   4.204   1.085  16.604  0.0558  0.7739  0.1470
   85MPD2    H2 1303   3.974   0.740  16.589  0.4202  0.6220  0.9764
   85MPD2    H3 1304   4.167   0.869  16.671  1.1804  1.1242 -0.0779
   85MPD2     N 1305   4.037   1.239  16.427  0.1824  0.7675  0.8536
   85MPD2    H5 1306   3.963   1.269  16.364  1.2905 -1.9673 -1.7747
   85MPD2    N1 1307   3.800   0.818  16.394  0.5017 -0.0830  0.6521
   85MPD2    H7 1308   3.753   0.864  16.317 -1.8958 -1.2666  1.4207
   86TCq2    C1 1309   4.110   1.335  16.498  0.9536 -0.5072 -0.7443
   86TCq2    O2 1310   4.173   1.322  16.599 -0.3301  0.6242 -0.3347
   86TCq2    C2 1311   4.115   1.471  16.451  0.4487 -0.6871  0.5264
   86TCq2    C3 1312   4.180   1.558  16.541  0.1974  0.7317 -0.0830
   86TCq2    C4 1313   4.242   1.672  16.500  0.1269  0.1279  0.3050
   86TCq2    C5 1314   4.251   1.697  16.364  0.2243  0.1343  0.4473
   86TCq2    C6 1315   4.194   1.606  16.277 -0.0197  0.3959  0.0094
   86TCq2    C7 1316   4.129   1.496  16.318  0.1526 -0.6629 -0.0134
   86TCq2    C8 1317   4.202   1.622  16.138  0.5053 -0.0290 -0.7032
   86TCq2    O4 1318   4.189   1.525  16.071  0.5038 -0.3766  0.2006
   86TCq2    C9 1319   4.323   1.746  16.591 -0.6494 -0.1762  0.2127
   86TCq2    O5 1320   4.374   1.849  16.540  0.6004 -0.4059 -0.1347
   86TCq2    O6 1321   4.349   1.693  16.703 -0.2539  0.3184  0.5142
   86TCq2    H2 1322   4.153   1.548  16.645  4.0014 -2.7110  0.5975
   86TCq2    H3 1323   4.297   1.787  16.325 -0.0964  0.0698 -0.0951
   86TCq2    H4 1324   4.116   1.411  16.252 -2.8163 -1.0690  1.0768
   87MPD2     C 1325   0.616   3.885   0.940  0.5011 -0.2209  0.1307
   87MPD2    C1 1326   0.669   3.850   0.818 -0.3467  0.2186 -0.2802
   87MPD2    C2 1327   0.630   3.928   0.707 -0.0301 -0.8264 -0.4603
   87MPD2    C3 1328   0.543   4.031   0.719  0.2954  0.2693 -0.1119
   87MPD2    C4 1329   0.478   4.056   0.842  0.0559  0.7535 -0.3297
   87MPD2    C5 1330   0.516   3.981   0.951 -0.8310 -0.1242  0.0169
   87MPD2     H 1331   0.680   3.901   0.615  0.9165 -3.0427  0.7126
   87MPD2    H1 1332   0.399   4.129   0.857 -1.0544 -0.1904 -1.5688
   87MPD2    H2 1333   0.639   3.833   1.033 -1.5045  0.2203  0.8821
   87MPD2    H3 1334   0.467   3.997   1.046 -0.9558 -1.0027  0.0986
   87MPD2     N 1335   0.509   4.114   0.609  0.3820 -0.4086 -0.4991
   87MPD2    H5 1336   0.445   4.191   0.624  1.0399 -0.4801  2.5185
   87MPD2    N1 1337   0.764   3.750   0.798  0.9978 -0.3862  0.3373
   87MPD2    H7 1338   0.785   3.727   0.701 -0.8703  4.1305 -1.1470
   88TCq2    C1 1339   0.835   3.684   0.899  0.4725  0.1609 -0.8213
   88TCq2    O2 1340   0.831   3.690   1.022  0.0885  0.2837 -0.2489
   88TCq2    C2 1341   0.903   3.578   0.836  0.0755 -0.5036  0.2279
   88TCq2    C3 1342   0.915   3.473   0.916  0.0145 -0.1695 -0.2279
   88TCq2    C4 1343   0.963   3.365   0.859  0.1388 -0.5083 -0.4315
   88TCq2    C5 1344   1.017   3.370   0.733  0.2202 -0.0512  0.0851
   88TCq2    C6 1345   1.009   3.487   0.659  0.5040  0.2216 -0.1971
   88TCq2    C7 1346   0.947   3.599   0.713 -0.9397  0.5820  0.4006
   88TCq2    C8 1347   1.092   3.502   0.542 -1.2753 -0.1423 -0.3954
   88TCq2    O4 1348   1.107   3.618   0.499 -0.4949  0.6574  0.2875
   88TCq2    C9 1349   0.981   3.251   0.942  0.0071 -0.3721 -0.1889
   88TCq2    O5 1350   1.025   3.148   0.891 -1.0365  0.1459  0.1956
   88TCq2    O6 1351   0.955   3.266   1.063  0.0314 -0.1545 -0.7127
   88TCq2    H2 1352   0.881   3.473   1.018 -0.3860  1.1209 -0.3594
   88TCq2    H3 1353   1.068   3.285   0.688 -2.3195 -1.1150 -0.7814
   88TCq2    H4 1354   0.962   3.697   0.668  0.8837 -0.3139 -0.9512
   89MPD2     C 1355   2.515   2.034   1.593 -0.4310 -0.0080 -0.1892
   89MPD2    C1 1356   2.428   2.140   1.602  0.2064 -0.2146  0.4649
   89MPD2    C2 1357   2.476   2.269   1.629 -0.1918 -0.1536 -0.0942
   89MPD2    C3 1358   2.608   2.282   1.664 -0.5750  0.1067  0.7120
   89MPD2    C4 1359   2.693   2.168   1.668  0.2452  0.5046  0.3706
   89MPD2    C5 1360   2.644   2.051   1.619  0.4535  0.2486 -0.0342
   89MPD2     H 1361   2.399   2.345   1.632  0.7009  0.7630 -0.5830
   89MPD2    H1 1362   2.795   2.159   1.703  0.2991 -2.5954 -0.5806
   89MPD2    H2 1363   2.483   1.934   1.567 -1.8904  0.3333  0.3412
   89MPD2    H3 1364   2.706   1.962   1.632  0.2658  0.5947  3.2861
   89MPD2     N 1365   2.657   2.415   1.693  0.0439  0.3624  0.2440
   89MPD2    H5 1366   2.593   2.491   1.716  0.2938  0.8557 -0.7029
   89MPD2    N1 1367   2.292   2.118   1.563 -0.3328 -0.3807 -0.4331
   89MPD2    H7 1368   2.222   2.191   1.574 -0.4361 -0.4265 -0.7600
   90TCq2    C1 1369   2.794   2.439   1.702  0.0032  0.0527  0.6519
   90TCq2    O2 1370   2.888   2.365   1.685 -0.0623  0.5059  0.1477
   90TCq2    C2 1371   2.825   2.556   1.776  0.0637  0.5437 -0.3220
   90TCq2    C3 1372   2.728   2.622   1.845  0.3429  0.0511 -0.0345
   90TCq2    C4 1373   2.768   2.725   1.924 -0.2738 -0.1656 -0.3282
   90TCq2    C5 1374   2.899   2.766   1.923 -0.4935  0.6160  0.3866
   90TCq2    C6 1375   2.993   2.698   1.849  0.3023  0.2001 -0.4342
   90TCq2    C7 1376   2.960   2.587   1.772  0.1070 -0.2787 -0.6318
   90TCq2    C8 1377   3.134   2.733   1.853  0.5700 -0.4720 -0.0948
   90TCq2    O4 1378   3.171   2.849   1.873  0.2315 -0.6433 -0.1984
   90TCq2    C9 1379   2.673   2.798   2.000  0.2779 -0.2208  0.8685
   90TCq2    O5 1380   2.562   2.747   2.016 -0.4110 -0.3844 -0.0646
   90TCq2    O6 1381   2.705   2.914   2.033  0.2744  0.6992 -0.0317
   90TCq2    H2 1382   2.625   2.588   1.853  1.0100 -2.4780 -1.9235
   90TCq2    H3 1383   2.936   2.842   1.992  1.6748  2.4217 -2.7337
   90TCq2    H4 1384   3.018   2.558   1.685 -1.2358  0.7343 -1.8770
   91TMC2    C1 1385   4.107   2.408  16.896 -0.8514 -0.1396  0.2133
   91TMC2    C2 1386   4.114   2.514  16.808 -0.3378  0.0313 -0.2337
   91TMC2    C3 1387   4.015   2.516  16.710  0.1137  0.2286 -0.3147
   91TMC2    C4 1388   4.007   2.310  16.898 -0.3906 -0.5289  0.0276
   91TMC2    C5 1389   3.914   2.319  16.798 -0.3192 -0.0132 -0.6410
   91TMC2    C6 1390   3.921   2.417  16.698 -0.5504 -1.0586  0.0100
   91TMC2     C 1391   4.209   2.384  16.996 -0.0724 -0.1148  0.4902
   91TMC2     O 1392   4.177   2.310  17.088  0.5059 -0.5760 -0.1157
   91TMC2     H 1393   4.179   2.597  16.831 -0.5704 -0.1141  0.9419
   91TMC2    H1 1394   4.012   2.216  16.952  2.3847  0.0364  0.7481
   91TMC2    H2 1395   3.831   2.431  16.639 -0.3120 -1.0016 -0.3406
   91TMC2    C7 1396   3.801   2.218  16.808 -0.4216  0.2434  1.2685
   91TMC2    C8 1397   4.038   2.594  16.593 -0.1082  0.4314 -0.2576
   91TMC2    O1 1398   3.772   2.179  16.923 -0.1672 -0.6510 -0.5495
   91TMC2    O2 1399   3.957   2.602  16.500 -0.2994 -0.4492 -0.2385
   91TMC2    O5 1400   4.168   2.630  16.592 -0.7711  0.1771 -0.0328
   91TMC2    H5 1401   4.225   2.559  16.630  0.1600  0.8144 -0.2478
   92MPD2     C 1402   4.470   2.357  17.142  0.2915  0.0846 -0.2205
   92MPD2    C1 1403   4.460   2.409  17.019  0.3492 -0.3560 -0.4051
   92MPD2    C2 1404   4.577   2.450  16.958  0.4760  0.4197 -0.6782
   92MPD2    C3 1405   4.708   2.434  17.003 -0.2427  0.7283  0.4471
   92MPD2    C4 1406   4.714   2.370  17.126  0.2754  0.1705  0.1415
   92MPD2    C5 1407   4.601   2.336  17.188  0.3583  0.2621  0.1651
   92MPD2     H 1408   4.558   2.498  16.862 -0.9289  1.6689  0.2306
   92MPD2    H1 1409   0.080   2.357  17.186 -0.8637  1.0501  2.0196
   92MPD2    H2 1410   4.387   2.338  17.208 -1.0484 -0.4626 -2.0777
   92MPD2    H3 1411   4.612   2.289  17.285 -1.7680 -0.5477  0.0185
   92MPD2     N 1412   0.094   2.477  16.923 -0.0245 -0.4422 -0.6931
   92MPD2    H5 1413   0.078   2.533  16.840  0.5460  1.2841  0.3801
   92MPD2    N1 1414   4.334   2.423  16.954 -0.1841 -0.3428 -0.5974
   92MPD2    H7 1415   4.338   2.473  16.865  1.0519  2.4425  1.0379
   93MPD2     C 1416   0.865   2.124  13.788 -0.0091  0.1005  0.3067
   93MPD2    C1 1417   0.818   2.252  13.819 -0.1780  0.1486  0.4537
   93MPD2    C2 1418   0.684   2.293  13.804  0.4127 -0.4412 -0.4686
   93MPD2    C3 1419   0.598   2.199  13.744 -0.5140  0.1424  0.0289
   93MPD2    C4 1420   0.647   2.070  13.721 -0.0540 -0.1883 -0.9024
   93MPD2    C5 1421   0.774   2.029  13.749 -0.4223 -0.0540  0.0205
   93MPD2     H 1422   0.654   2.396  13.824  1.4645 -0.5068  1.5437
   93MPD2    H1 1423   0.576   2.003  13.674 -1.0615  1.1888 -1.3456
   93MPD2    H2 1424   0.962   2.083  13.815  0.8918  2.2358  0.3417
   93MPD2    H3 1425   0.802   1.925  13.732 -1.7438 -0.5230  0.7414
   93MPD2     N 1426   0.465   2.222  13.697 -0.0916  0.3410  0.2816
   93MPD2    H5 1427   0.415   2.150  13.648  3.0627 -1.8907  0.3213
   93MPD2    N1 1428   0.897   2.344  13.891 -0.6482  0.2565 -0.3771
   93MPD2    H7 1429   0.850   2.429  13.921  0.7507  0.3606  1.5587
   94TCq2    C1 1430   1.035   2.335  13.898 -0.0229  0.2976 -0.0877
   94TCq2    O2 1431   1.113   2.257  13.841 -0.3139  0.7008 -0.1340
   94TCq2    C2 1432   1.095   2.453  13.969 -0.2418  0.2314  0.7329
   94TCq2    C3 1433   1.017   2.537  14.035  0.5872  0.5762 -0.1260
   94TCq2    C4 1434   1.079   2.642  14.092  0.3282  0.5586  0.1139
   94TCq2    C5 1435   1.211   2.658  14.084  0.1915  0.5854 -0.2070
   94TCq2    C6 1436   1.280   2.586  13.991  0.3146 -0.1510  0.0704
   94TCq2    C7 1437   1.227   2.471  13.941  0.0844 -0.6292  0.1595
   94TCq2    C8 1438   1.417   2.633  13.970 -0.3799 -0.3724 -0.6057
   94TCq2    O4 1439   1.475   2.673  14.070 -0.0875  0.1478  0.2851
   94TCq2    C9 1440   1.003   2.745  14.151 -0.6262 -0.5097 -0.3736
   94TCq2    O5 1441   1.061   2.852  14.179  0.0781 -0.5470 -0.3363
   94TCq2    O6 1442   0.885   2.726  14.181  0.0848  0.0498 -0.2350
   94TCq2    H2 1443   0.914   2.518  14.061 -0.6113  3.1484 -3.1273
   94TCq2    H3 1444   1.252   2.750  14.123 -0.4185  0.2887  1.1485
   94TCq2    H4 1445   1.287   2.413  13.873 -0.4054 -0.3575 -0.5027
   95TMC2    C1 1446   0.857   4.631  15.598 -0.0315 -0.2697 -0.6076
   95TMC2    C2 1447   0.782   4.514  15.623  0.6039 -0.5989  0.2485
   95TMC2    C3 1448   0.663   4.536  15.685 -0.5544  0.3342 -0.0265
   95TMC2    C4 1449   0.815   0.035  15.631  0.1461  0.5808 -0.3166
   95TMC2    C5 1450   0.697   0.047  15.697 -0.3278 -0.3123 -0.7878
   95TMC2    C6 1451   0.616   4.660  15.724 -0.4682 -0.1398 -0.0486
   95TMC2     C 1452   0.976   4.611  15.525 -0.0435 -0.5581  0.4119
   95TMC2     O 1453   1.036   4.512  15.555 -0.4185  0.6602  0.4692
   95TMC2     H 1454   0.812   4.416  15.586  0.0771 -1.3570  1.8547
   95TMC2    H1 1455   0.881   0.121  15.628  0.1848  0.5974  1.4376
   95TMC2    H2 1456   0.533   4.677  15.792  0.8824  3.2269  0.7342
   95TMC2    C7 1457   0.653   0.170  15.753 -0.0846 -0.4684 -0.0600
   95TMC2    C8 1458   0.572   4.427  15.683  0.7953  0.1059 -0.3933
   95TMC2    O1 1459   0.551   0.167  15.816 -0.0313 -0.0679 -0.7188
   95TMC2    O2 1460   0.594   4.309  15.701 -0.6770 -0.5494  0.5100
   95TMC2    O5 1461   0.457   4.486  15.645  0.2622  0.5020  0.5192
   95TMC2    H5 1462   0.462   4.583  15.630  0.8993  0.6251  1.4689
   96MPD2     C 1463   1.308   4.672  15.147  0.3222 -0.4415  0.7220
   96MPD2    C1 1464   1.307   4.581  15.251 -0.0733 -0.2823 -0.6673
   96MPD2    C2 1465   1.217   4.594  15.356  0.1642 -0.2060 -0.1238
   96MPD2    C3 1466   1.116   4.696  15.346 -0.2850 -0.1008 -0.2880
   96MPD2    C4 1467   1.118   0.057  15.237  0.8648  1.0033  0.2998
   96MPD2    C5 1468   1.208   0.044  15.132 -0.1055  0.2152 -0.4015
   96MPD2     H 1469   1.221   4.525  15.439  0.0502 -0.3913 -0.2729
   96MPD2    H1 1470   1.038   0.128  15.219  2.5449  1.9659 -3.1254
   96MPD2    H2 1471   1.393   4.676  15.079 -0.0625  0.0763  0.2704
   96MPD2    H3 1472   1.212   0.116  15.051 -4.0752  0.0801 -0.6999
   96MPD2     N 1473   1.010   4.712  15.435  0.3952 -0.0802 -0.0125
   96MPD2    H5 1474   0.951   0.071  15.431  1.1147  0.4461  0.2233
   96MPD2    N1 1475   1.405   4.476  15.243  0.2485 -0.5107 -0.1003
   96MPD2    H7 1476   1.449   4.470  15.152 -1.6321 -0.0541 -1.0418
   97MPD2     C 1477   2.526   1.338   0.876  1.0786 -0.2241 -0.2934
   97MPD2    C1 1478   2.637   1.397   0.923  0.0285  0.2433  0.1936
   97MPD2    C2 1479   2.690   1.506   0.855  0.4687 -0.5139 -0.2420
   97MPD2    C3 1480   2.628   1.560   0.739  0.2371  0.1809  0.4578
   97MPD2    C4 1481   2.515   1.499   0.697  0.0536 -0.1912 -0.4508
   97MPD2    C5 1482   2.468   1.384   0.759  0.1695  0.4683 -0.3747
   97MPD2     H 1483   2.783   1.550   0.889 -0.6226  2.5075 -1.1912
   97MPD2    H1 1484   2.452   1.525   0.613  0.9351  2.5828 -0.2547
   97MPD2    H2 1485   2.484   1.248   0.920 -0.7966  1.0082  0.3965
   97MPD2    H3 1486   2.384   1.331   0.716  0.8189 -2.3894  1.8776
   97MPD2     N 1487   2.681   1.673   0.667  0.6421  0.2791  0.2118
   97MPD2    H5 1488   2.630   1.709   0.587  1.9419  1.4153 -0.1062
   97MPD2    N1 1489   2.682   1.358   1.051  0.3281  0.6433  0.0205
   97MPD2    H7 1490   2.617   1.296   1.098 -0.0458 -0.1341 -1.5089
   98TCq2    C1 1491   2.802   1.735   0.693 -0.0290 -0.2623  0.3668
   98TCq2    O2 1492   2.885   1.715   0.781  0.3513  0.3911 -0.6365
   98TCq2    C2 1493   2.846   1.824   0.588 -0.3460 -0.1292 -0.1215
   98TCq2    C3 1494   2.749   1.892   0.520 -1.0268 -0.2491  0.0425
   98TCq2    C4 1495   2.774   2.000   0.435 -0.0716  0.2469 -0.0606
   98TCq2    C5 1496   2.897   2.054   0.434  0.0929  0.8503  0.5788
   98TCq2    C6 1497   2.997   1.985   0.500  0.6191 -0.3740 -0.2837
   98TCq2    C7 1498   2.974   1.877   0.587  0.2074 -0.5375 -1.3257
   98TCq2    C8 1499   3.135   1.998   0.461 -0.6461  0.1696 -0.7611
   98TCq2    O4 1500   3.176   2.109   0.428 -0.7419 -0.1671  0.1157
   98TCq2    C9 1501   2.657   2.048   0.365 -0.6508  0.0512 -0.3624
   98TCq2    O5 1502   2.679   2.152   0.297  0.3256 -0.4500 -0.2354
   98TCq2    O6 1503   2.553   1.977   0.362 -0.5176 -0.4362 -0.0363
   98TCq2    H2 1504   2.650   1.850   0.531 -1.8213  1.4552 -0.4857
   98TCq2    H3 1505   2.916   2.139   0.370  1.8191  0.1054  0.0783
   98TCq2    H4 1506   3.042   1.833   0.659  0.3922  1.1011 -0.5048
   99MPD2     C 1507   2.046   3.884   1.590 -0.3778  0.2885  0.5319
   99MPD2    C1 1508   1.910   3.847   1.603 -0.5368 -0.3286 -0.6355
   99MPD2    C2 1509   1.856   3.757   1.508 -0.0216 -0.6933  0.4054
   99MPD2    C3 1510   1.937   3.695   1.414  0.5623 -0.1188 -0.7688
   99MPD2    C4 1511   2.070   3.732   1.399  0.1647  0.7136 -0.3767
   99MPD2    C5 1512   2.120   3.823   1.491  0.2458  0.7995 -0.0966
   99MPD2     H 1513   1.753   3.728   1.520  0.8774 -4.1345 -0.1960
   99MPD2    H1 1514   2.139   3.699   1.323  0.7869  0.8061  0.1546
   99MPD2    H2 1515   2.093   3.960   1.651 -1.2923  0.9063  0.4698
   99MPD2    H3 1516   2.225   3.846   1.486  0.5010 -0.8107 -1.9262
   99MPD2     N 1517   1.869   3.610   1.318 -0.1373  0.5475 -0.0585
   99MPD2    H5 1518   1.769   3.595   1.327  0.2331 -1.6829  0.2646
   99MPD2    N1 1519   1.820   3.904   1.688 -0.1353 -0.0580  0.4447
   99MPD2    H7 1520   1.724   3.873   1.681 -0.5576  0.8535  2.2223
  100TCq2    C1 1521   1.853   3.980   1.795  0.0878  0.4095  0.1583
  100TCq2    O2 1522   1.959   4.015   1.840  1.0707 -0.2718 -0.0117
  100TCq2    C2 1523   1.745   3.992   1.894 -0.2060  0.3440  0.3899
  100TCq2    C3 1524   1.761   4.092   1.985 -0.5789  0.0498 -0.2167
  100TCq2    C4 1525   1.659   4.119   2.067  0.0748  0.2102  0.4503
  100TCq2    C5 1526   1.544   4.040   2.068 -0.1876  0.7929 -0.0559
  100TCq2    C6 1527   1.531   3.935   1.976 -0.4834  0.5575  0.4791
  100TCq2    C7 1528   1.627   3.924   1.873  0.1241 -0.3310  0.1391
  100TCq2    C8 1529   1.405   3.880   1.976 -0.3768 -0.1613 -0.6114
  100TCq2    O4 1530   1.309   3.936   2.031 -0.2430 -0.5286 -0.1238
  100TCq2    C9 1531   1.673   4.211   2.178  0.2137 -0.6822  0.3326
  100TCq2    O5 1532   1.593   4.195   2.276  0.2188  0.4076 -0.5193
  100TCq2    O6 1533   1.769   4.290   2.170  1.1002 -0.5352  0.4350
  100TCq2    H2 1534   1.853   4.149   1.994 -1.5596  1.4004  1.0690
  100TCq2    H3 1535   1.459   4.054   2.134 -1.4503 -3.8572 -0.7282
  100TCq2    H4 1536   1.616   3.842   1.804 -0.1940  0.1676 -0.4073
  101MPD2     C 1537   2.740   0.493  12.935  0.5924 -0.2724 -0.0227
  101MPD2    C1 1538   2.618   0.563  12.940 -0.5103  0.2103 -0.5683
  101MPD2    C2 1539   2.512   0.525  13.014 -0.1264 -0.1992  0.2408
  101MPD2    C3 1540   2.531   0.431  13.111  0.4390 -0.0009 -0.1647
  101MPD2    C4 1541   2.657   0.369  13.116  0.1813 -0.3102  0.7642
  101MPD2    C5 1542   2.761   0.394  13.028  0.7251  0.0709 -0.2286
  101MPD2     H 1543   2.414   0.568  12.999  0.3118  1.0576  1.0251
  101MPD2    H1 1544   2.667   0.286  13.185 -2.4286 -0.2545  1.2346
  101MPD2    H2 1545   2.815   0.510  12.858  2.2600 -1.5932  1.3059
  101MPD2    H3 1546   2.851   0.334  13.032  0.1414 -0.8293 -0.7174
  101MPD2     N 1547   2.418   0.378  13.181 -0.0352 -0.6993 -0.1190
  101MPD2    H5 1548   2.332   0.428  13.161  0.7325 -0.0036 -1.6446
  101MPD2    N1 1549   2.598   0.663  12.844 -0.6466 -0.0051  0.3440
  101MPD2    H7 1550   2.662   0.658  12.766  0.8793 -1.8712  1.7311
  102TCq2    C1 1551   2.700   0.883  12.428  0.1021  0.2715  1.0260
  102TCq2    O2 1552   2.775   0.789  12.461 -0.1048 -0.3496 -0.2224
  102TCq2    C2 1553   2.577   0.890  12.503 -0.1095  0.5292  0.3917
  102TCq2    C3 1554   2.464   0.952  12.462 -0.0202 -0.5068 -1.0366
  102TCq2    C4 1555   2.349   0.935  12.538  0.2680  0.1292  0.3437
  102TCq2    C5 1556   2.355   0.858  12.654 -0.1526  0.6240 -0.1235
  102TCq2    C6 1557   2.471   0.801  12.699 -0.1138 -0.3479 -0.1687
  102TCq2    C7 1558   2.581   0.820  12.619 -0.0993  0.4922 -0.0582
  102TCq2    C8 1559   2.485   0.745  12.830 -1.0006 -0.1179  0.4600
  102TCq2    O4 1560   2.391   0.769  12.908 -0.4607  0.2118  1.0131
  102TCq2    C9 1561   2.226   0.998  12.494 -0.3566 -0.0852 -0.5157
  102TCq2    O5 1562   2.117   0.952  12.535 -0.1149  0.6551  0.3836
  102TCq2    O6 1563   2.234   1.085  12.404 -0.0166 -0.5666  0.0442
  102TCq2    H2 1564   2.458   1.007  12.369  1.6572 -0.2397 -0.9822
  102TCq2    H3 1565   2.263   0.843  12.710 -0.0698 -1.6223 -0.5875
  102TCq2    H4 1566   2.674   0.776  12.652 -0.8116 -1.0988 -0.1874
  103TMC2    C1 1567   0.627   0.857  11.918 -0.1417  0.3966 -0.0528
  103TMC2    C2 1568   0.570   0.965  11.854 -0.3587 -0.5148 -0.8682
  103TMC2    C3 1569   0.605   1.087  11.909 -0.1490  0.1350 -0.1901
  103TMC2    C4 1570   0.713   0.873  12.023 -0.2221 -0.1151 -0.3934
  103TMC2    C5 1571   0.737   1.003  12.068  1.0503 -0.4485 -0.0272
  103TMC2    C6 1572   0.702   1.111  11.997 -0.6037 -0.1924 -0.5701
  103TMC2     C 1573   0.589   0.721  11.882  0.0755 -0.1056  0.0390
  103TMC2     O 1574   0.548   0.710  11.765  0.0820 -0.1700 -0.5965
  103TMC2     H 1575   0.494   0.946  11.779 -0.6492  0.3210 -0.7812
  103TMC2    H1 1576   0.757   0.790  12.077 -0.5572  0.1388  0.2757
  103TMC2    H2 1577   0.711   1.211  12.037  3.0790 -0.6936 -0.2010
  103TMC2    C7 1578   0.836   1.007  12.166  0.0224  0.1633 -0.5313
  103TMC2    C8 1579   0.546   1.204  11.841 -0.2049 -0.1232  0.4906
  103TMC2    O1 1580   0.841   0.909  12.240 -0.8152 -0.2348  0.3480
  103TMC2    O2 1581   0.506   1.206  11.724  0.2066  0.2283 -0.0484
  103TMC2    O5 1582   0.503   1.297  11.934  0.4294 -0.6710  0.3549
  103TMC2    H5 1583   0.520   1.264  12.026 -1.7822 -0.9965  0.6501
  104MPD2     C 1584   0.606   0.410  12.082  0.5283 -0.0466  0.6768
  104MPD2    C1 1585   0.562   0.495  11.979  0.2797  0.0368 -0.1774
  104MPD2    C2 1586   0.482   0.436  11.881 -0.0425 -0.1027 -0.9092
  104MPD2    C3 1587   0.457   0.302  11.880  0.0301  0.8279  0.0970
  104MPD2    C4 1588   0.506   0.223  11.977 -0.2920 -0.3830  0.1910
  104MPD2    C5 1589   0.577   0.275  12.076  0.4766  0.8798 -0.1921
  104MPD2     H 1590   0.428   0.494  11.807 -2.6476 -2.2059 -0.6763
  104MPD2    H1 1591   0.476   0.119  11.986 -2.2650  0.1186 -0.5607
  104MPD2    H2 1592   0.666   0.440  12.167 -1.7256 -1.9692  2.9558
  104MPD2    H3 1593   0.619   0.215  12.155  0.5755  0.8074 -0.3007
  104MPD2     N 1594   0.399   0.249  11.761  0.1509  0.1909 -0.4015
  104MPD2    H5 1595   0.387   0.325  11.694  0.4950 -0.7852 -1.5732
  104MPD2    N1 1596   0.614   0.625  11.976  0.1261  0.1421 -0.5143
  104MPD2    H7 1597   0.669   0.660  12.054 -0.3018 -0.8536  0.2459
  105MPD2     C 1598   2.421   3.814  17.337 -0.2478 -0.3601 -0.6625
  105MPD2    C1 1599   2.332   3.922  17.331 -0.2403  0.8150  0.8383
  105MPD2    C2 1600   2.221   3.918  17.414 -0.3571 -0.0440 -0.3351
  105MPD2    C3 1601   2.198   3.815  17.505  0.4509  0.0809  0.8030
  105MPD2    C4 1602   2.286   3.711  17.505 -0.3684  0.1177 -0.2235
  105MPD2    C5 1603   2.396   3.711  17.420 -0.3764 -0.1157 -0.9600
  105MPD2     H 1604   2.148   3.998  17.410  0.0100  0.1991 -1.9820
  105MPD2    H1 1605   2.279   3.626  17.571 -0.0436 -1.1593 -1.8492
  105MPD2    H2 1606   2.504   3.816  17.266 -0.2699 -0.5445 -0.6915
  105MPD2    H3 1607   2.478   3.641  17.433  0.5052  1.0845 -0.0993
  105MPD2     N 1608   2.083   3.825  17.587 -0.4770 -0.5344  0.1986
  105MPD2    H5 1609   2.022   3.904  17.570 -1.8368 -1.1714  2.2034
  105MPD2    N1 1610   2.334   4.021  17.235  0.5633  0.6960  0.8184
  105MPD2    H7 1611   2.261   4.091  17.240  0.3035  0.6048 -1.5391
  106TCq2    C1 1612   2.030   3.727  17.671 -0.0533  1.0645 -0.2038
  106TCq2    O2 1613   2.081   3.619   0.007 -0.1432 -0.4660  0.3060
  106TCq2    C2 1614   1.903   3.768   0.032  0.1576 -0.2525 -1.0201
  106TCq2    C3 1615   1.842   3.893   0.004 -0.4552  0.5077 -0.5894
  106TCq2    C4 1616   1.706   3.911   0.033  0.1926  0.4911 -0.1915
  106TCq2    C5 1617   1.634   3.809   0.098  0.9903 -0.3497  0.1124
  106TCq2    C6 1618   1.699   3.692   0.123  0.4861  0.0715  1.0499
  106TCq2    C7 1619   1.833   3.674   0.098  0.1017  0.2371  0.4906
  106TCq2    C8 1620   1.629   3.581   0.172  0.4848  0.4436  0.2178
  106TCq2    O4 1621   1.698   3.485   0.142  0.4414 -0.0745 -0.0601
  106TCq2    C9 1622   1.635   4.034  17.674 -0.5548 -0.4852 -0.0088
  106TCq2    O5 1623   1.513   4.043   0.013  0.7736 -0.1860 -0.0798
  106TCq2    O6 1624   1.707   4.129  17.626  0.6567 -0.1564 -0.1427
  106TCq2    H2 1625   1.899   3.972  17.652 -0.1340  0.5557 -0.1165
  106TCq2    H3 1626   1.527   3.826   0.108  0.9624 -1.1657  1.1403
  106TCq2    H4 1627   1.883   3.578   0.104  0.3446  0.0909 -3.7897
  107TMC2    C1 1628   3.053   4.015  11.283  0.4670 -0.4567 -0.4601
  107TMC2    C2 1629   3.016   4.149  11.279 -0.0371  0.9019 -0.0044
  107TMC2    C3 1630   2.992   4.203  11.155 -0.4404 -0.4121 -0.1168
  107TMC2    C4 1631   3.081   3.941  11.168  0.8919  0.0998  0.2317
  107TMC2    C5 1632   3.068   4.010  11.046 -0.1983 -1.2543 -0.4008
  107TMC2    C6 1633   3.027   4.138  11.042 -0.0814  0.1456  0.2323
  107TMC2     C 1634   3.023   3.953  11.408 -0.0402  0.2383  0.0273
  107TMC2     O 1635   2.957   4.022  11.485  0.0414 -0.0875 -0.1388
  107TMC2     H 1636   3.002   4.206  11.370 -2.2883  1.3737 -0.6506
  107TMC2    H1 1637   3.099   3.834  11.169  0.4212  0.0171 -0.0079
  107TMC2    H2 1638   2.992   4.181  10.949  0.3543  0.3085  0.1424
  107TMC2    C7 1639   3.034   3.930  10.926  0.1758  0.5769 -0.2206
  107TMC2    C8 1640   2.977   4.349  11.160 -0.1595  0.0980 -0.1088
  107TMC2    O1 1641   2.952   3.840  10.952 -0.0977 -0.0168 -0.0227
  107TMC2    O2 1642   2.953   4.408  11.264  0.0667  0.0782 -0.5771
  107TMC2    O5 1643   3.010   4.404  11.040  0.1682 -0.4144  0.2334
  107TMC2    H5 1644   3.038   4.331  10.981  1.1547 -0.4326  0.7226
  108MPD2     C 1645   3.017   3.598  11.472  0.6902 -0.0308 -0.3001
  108MPD2    C1 1646   2.992   3.730  11.500 -0.6673  0.0207  0.3779
  108MPD2    C2 1647   2.916   3.762  11.612  0.1184  0.2450  0.1713
  108MPD2    C3 1648   2.864   3.659  11.699  0.3100 -0.2127 -0.0749
  108MPD2    C4 1649   2.897   3.526  11.670 -0.3794 -0.4968  0.3916
  108MPD2    C5 1650   2.971   3.501  11.557 -0.2442  0.3816 -0.7096
  108MPD2     H 1651   2.889   3.866  11.623  1.1501  0.5070  0.2218
  108MPD2    H1 1652   2.854   3.450  11.734 -1.5929  0.5616  0.8278
  108MPD2    H2 1653   3.068   3.568  11.382 -1.1116 -2.6786 -0.4588
  108MPD2    H3 1654   3.005   3.401  11.537 -1.4508 -0.6801  2.4651
  108MPD2     N 1655   2.776   3.687  11.810  0.2056  0.0867  0.1755
  108MPD2    H5 1656   2.746   3.611  11.871 -1.0964 -0.6529 -1.3926
  108MPD2    N1 1657   3.045   3.821  11.405 -0.2533 -0.0878  0.1538
  108MPD2    H7 1658   3.109   3.787  11.333 -0.5976 -0.8035  0.1834
  109MPD2     C 1659   1.846   0.125   1.742  0.9275 -0.3984 -0.0268
  109MPD2    C1 1660   1.940   0.176   1.653  0.6225 -0.0145 -0.8727
  109MPD2    C2 1661   2.048   0.251   1.705 -0.4127 -0.5724  0.2311
  109MPD2    C3 1662   2.065   0.276   1.842  0.5491 -0.5763  0.6034
  109MPD2    C4 1663   1.964   0.228   1.927  0.1539 -0.2126  0.1670
  109MPD2    C5 1664   1.858   0.156   1.881  0.1341 -0.2640 -0.3321
  109MPD2     H 1665   2.130   0.289   1.645 -0.1680  1.7008  1.9761
  109MPD2    H1 1666   1.968   0.259   2.031 -0.7194 -0.7195  0.3573
  109MPD2    H2 1667   1.761   0.065   1.713  0.4929  0.0368  0.3514
  109MPD2    H3 1668   1.776   0.126   1.945  2.9088 -1.5206  2.6045
  109MPD2     N 1669   2.168   0.369   1.883 -0.5824 -0.3771 -0.1947
  109MPD2    H5 1670   2.225   0.406   1.807  0.5315 -0.7212  0.4762
  109MPD2    N1 1671   1.926   0.145   1.514 -0.5239 -0.6795  0.0836
  109MPD2    H7 1672   1.839   0.099   1.486 -0.9670 -0.4974  1.1703
  110TCq2    C1 1673   2.206   0.398   2.011  0.7041  0.2776 -0.6836
  110TCq2    O2 1674   2.155   0.363   2.116 -0.2933 -0.3222  0.5113
  110TCq2    C2 1675   2.315   0.494   2.018 -0.0475 -0.3637  0.1876
  110TCq2    C3 1676   2.405   0.491   2.126 -0.2482 -0.7886  0.6559
  110TCq2    C4 1677   2.516   0.574   2.123 -0.5453 -0.0298  0.3216
  110TCq2    C5 1678   2.524   0.667   2.023 -0.0523  0.0786  0.3965
  110TCq2    C6 1679   2.433   0.677   1.924  0.0859  0.4859  0.1231
  110TCq2    C7 1680   2.322   0.587   1.918  0.5613 -0.0509 -0.1500
  110TCq2    C8 1681   2.454   0.775   1.820 -0.1118 -0.0806  0.0603
  110TCq2    O4 1682   2.506   0.884   1.853 -0.2034 -0.0139 -0.1765
  110TCq2    C9 1683   2.616   0.576   2.232  0.1695  0.1304 -0.3661
  110TCq2    O5 1684   2.607   0.485   2.317  0.6038 -0.3390  0.3931
  110TCq2    O6 1685   2.717   0.657   2.229  0.1146  0.2161 -0.4320
  110TCq2    H2 1686   2.395   0.417   2.205 -0.4134  0.2570  1.6230
  110TCq2    H3 1687   2.600   0.744   2.028 -1.6882  1.7714 -0.9411
  110TCq2    H4 1688   2.234   0.612   1.861  1.4456 -0.6840 -1.7739
  111TMC2    C1 1689   3.428   0.797  11.127  0.2148  0.1392  0.1595
  111TMC2    C2 1690   3.517   0.741  11.033 -0.6570 -0.6635  0.2466
  111TMC2    C3 1691   3.613   0.653  11.069  0.1665 -0.2002 -0.2830
  111TMC2    C4 1692   3.440   0.766  11.258  0.4910  0.1633  0.3045
  111TMC2    C5 1693   3.539   0.680  11.293  0.6658  0.3928 -0.2282
  111TMC2    C6 1694   3.619   0.616  11.200 -0.1041 -0.1951  0.4379
  111TMC2     C 1695   3.340   0.904  11.073 -0.3136  0.2285  0.0448
  111TMC2     O 1696   3.306   0.891  10.956 -0.8252 -0.1417 -0.0246
  111TMC2     H 1697   3.507   0.759  10.927  2.6639 -0.5918 -0.0530
  111TMC2    H1 1698   3.363   0.789  11.331 -0.9172  0.1751 -1.1823
  111TMC2    H2 1699   3.676   0.527  11.223 -0.4866 -0.9497 -1.5404
  111TMC2    C7 1700   3.555   0.652  11.436 -1.2761 -0.2139  0.0307
  111TMC2    C8 1701   3.711   0.599  10.986  0.4272 -0.1531 -0.2657
  111TMC2    O1 1702   3.473   0.693  11.518 -0.1894 -0.0237 -0.9265
  111TMC2    O2 1703   3.766   0.492  10.997 -0.1945 -0.3262  0.1405
  111TMC2    O5 1704   3.775   0.705  10.935  0.4096 -0.4594 -0.3214
  111TMC2    H5 1705   3.747   0.792  10.968 -0.5162 -1.1060  0.5988
  112MPD2     C 1706   2.992   1.264  11.180  0.9806  0.1827 -0.7881
  112MPD2    C1 1707   3.033   1.210  11.056  0.9829  0.6401  0.1116
  112MPD2    C2 1708   3.141   1.130  11.061  0.7160  1.1925  0.3443
  112MPD2    C3 1709   3.208   1.095  11.175  0.7305 -0.0839 -0.1715
  112MPD2    C4 1710   3.168   1.149  11.294 -0.0966 -0.0126  0.2523
  112MPD2    C5 1711   3.056   1.224  11.292  0.3239 -0.0469  0.0616
  112MPD2     H 1712   3.163   1.085  10.965  1.0492  2.1392 -0.0252
  112MPD2    H1 1713   3.205   1.112  11.389  3.2611  0.9687 -0.6605
  112MPD2    H2 1714   2.900   1.320  11.194  0.6585 -0.9703  1.6935
  112MPD2    H3 1715   3.018   1.249  11.390  1.1165  0.9155  0.1230
  112MPD2     N 1716   3.310   0.995  11.173 -0.6719 -0.1335  0.6166
  112MPD2    H5 1717   3.357   0.974  11.260 -0.6000 -1.1016  0.3356
  112MPD2    N1 1718   2.975   1.237  10.929 -0.6002  0.0853  0.5869
  112MPD2    H7 1719   3.004   1.179  10.852 -0.6787 -1.1549  1.4953
  113MPD2     C 1720   0.736   2.830   1.153 -0.5908 -0.0315  0.7374
  113MPD2    C1 1721   0.723   2.885   1.024 -0.2505 -0.0159 -0.6236
  113MPD2    C2 1722   0.720   2.806   0.906 -0.3625  0.1608  0.2565
  113MPD2    C3 1723   0.736   2.669   0.926 -0.2854 -0.1256  0.0345
  113MPD2    C4 1724   0.760   2.616   1.050  0.5995  0.2008  0.1248
  113MPD2    C5 1725   0.766   2.695   1.165  0.0311  0.2764 -0.0867
  113MPD2     H 1726   0.705   2.850   0.808  0.7574  2.3367  1.0514
  113MPD2    H1 1727   0.782   2.510   1.058  0.2001  0.2872  2.3334
  113MPD2    H2 1728   0.724   2.880   1.248 -1.1280  0.2754  0.5127
  113MPD2    H3 1729   0.799   2.662   1.263  0.4490  1.4333  0.1598
  113MPD2     N 1730   0.746   2.584   0.815 -0.1181 -0.3873 -0.4196
  113MPD2    H5 1731   0.757   2.487   0.843  0.0256  0.4754  2.5224
  113MPD2    N1 1732   0.674   3.023   1.003 -0.3325 -0.0380  0.1902
  113MPD2    H7 1733   0.675   3.062   0.910 -1.7483  1.3692  0.7789
  114TCq2    C1 1734   0.761   2.612   0.685 -0.1573 -0.0417  0.9345
  114TCq2    O2 1735   0.730   2.709   0.621  0.3553 -0.0606 -0.4873
  114TCq2    C2 1736   0.822   2.497   0.619  0.5496  0.1415 -0.5021
  114TCq2    C3 1737   0.823   2.501   0.484 -0.8689 -0.2494 -0.2861
  114TCq2    C4 1738   0.855   2.384   0.418 -0.1998 -0.5387  0.6566
  114TCq2    C5 1739   0.898   2.270   0.482 -0.4231 -0.8592 -0.8267
  114TCq2    C6 1740   0.895   2.275   0.618 -0.0624 -0.1377  0.1455
  114TCq2    C7 1741   0.867   2.386   0.697  0.1318 -0.5533  0.0162
  114TCq2    C8 1742   0.941   2.145   0.677  0.5595  0.7391 -0.7518
  114TCq2    O4 1743   0.997   2.061   0.607  0.3470  0.1310 -0.4123
  114TCq2    C9 1744   0.825   2.367   0.277 -0.4943 -0.8678  0.0842
  114TCq2    O5 1745   0.727   2.432   0.221  0.1608 -0.2068 -0.3833
  114TCq2    O6 1746   0.888   2.274   0.221  0.6564  0.7419 -0.5033
  114TCq2    H2 1747   0.784   2.591   0.437 -0.9443  0.5942  1.4061
  114TCq2    H3 1748   0.913   2.179   0.424 -0.2379 -1.6121  0.3997
  114TCq2    H4 1749   0.890   2.389   0.803 -0.5626 -0.5567  0.1668
  115TMC2    C1 1750   2.062   1.499   0.250  0.2136 -0.9327 -0.0024
  115TMC2    C2 1751   2.108   1.512   0.380 -0.0993 -0.2165 -0.3396
  115TMC2    C3 1752   2.105   1.638   0.436  0.0496  0.4458  0.2510
  115TMC2    C4 1753   2.034   1.608   0.168 -0.3178 -0.5286  0.0005
  115TMC2    C5 1754   2.053   1.736   0.223  0.3540  0.3040 -0.1107
  115TMC2    C6 1755   2.074   1.755   0.358 -0.3282 -0.2755  0.3869
  115TMC2     C 1756   1.984   1.380   0.225  0.2152 -0.6514 -0.7490
  115TMC2     O 1757   1.916   1.377   0.124  0.6606  0.7709  0.4278
  115TMC2     H 1758   2.158   1.429   0.429  0.0503  0.8033  1.2521
  115TMC2    H1 1759   1.983   1.590   0.074 -0.3601 -3.0314  0.5016
  115TMC2    H2 1760   2.090   1.847   0.412 -0.0402  0.4045 -0.8607
  115TMC2    C7 1761   2.006   1.854   0.159  0.1218 -0.2361  0.3136
  115TMC2    C8 1762   2.202   1.659   0.544  0.6128 -0.1281 -0.5791
  115TMC2    O1 1763   1.989   1.950   0.232 -0.4091  0.3730  0.3871
  115TMC2    O2 1764   2.262   1.764   0.565 -0.2324 -0.3118  0.0343
  115TMC2    O5 1765   2.170   1.580   0.642  0.2730 -0.6630  0.0648
  115TMC2    H5 1766   2.101   1.523   0.600 -0.0088  0.7612 -1.4099
  116MPD2     C 1767   1.794   0.916   0.344  0.0470 -1.0305 -0.6031
  116MPD2    C1 1768   1.763   0.992   0.236  0.2095 -0.1732 -0.0781
  116MPD2    C2 1769   1.823   1.124   0.227 -0.2720 -0.1862  0.0636
  116MPD2    C3 1770   1.919   1.162   0.323  0.7907  0.4174  0.2527
  116MPD2    C4 1771   1.955   1.077   0.425  0.1759 -0.9398 -0.1848
  116MPD2    C5 1772   1.890   0.957   0.435  0.1269 -0.4353  0.8816
  116MPD2     H 1773   1.795   1.198   0.153 -0.5383 -1.1623 -0.8067
  116MPD2    H1 1774   2.033   1.092   0.498 -0.5626  1.3592  0.1191
  116MPD2    H2 1775   1.749   0.823   0.374  0.8611 -0.9201  0.9382
  116MPD2    H3 1776   1.889   0.894   0.524  0.9435 -2.3488 -0.4410
  116MPD2     N 1777   1.992   1.288   0.326 -0.0174  0.1998  0.1291
  116MPD2    H5 1778   2.043   1.307   0.412  1.5100  2.9034 -1.3721
  116MPD2    N1 1779   1.660   0.951   0.146 -0.1713 -1.0564  0.4181
  116MPD2    H7 1780   1.621   0.860   0.165 -1.2270 -0.9035 -0.9890
  117TMC2    C1 1781   0.409   2.796  13.696  0.0395  0.7828 -0.2780
  117TMC2    C2 1782   0.535   2.748  13.682 -0.1604 -0.7597  0.1501
  117TMC2    C3 1783   0.610   2.747  13.797  0.0255  0.7613 -0.2942
  117TMC2    C4 1784   0.364   2.857  13.814 -0.3261 -0.6075  0.1505
  117TMC2    C5 1785   0.445   2.848  13.923  0.2055  0.2198 -0.8028
  117TMC2    C6 1786   0.573   2.799  13.913  0.4092 -0.1055  0.0346
  117TMC2     C 1787   0.328   2.831  13.584 -0.6551  0.0534 -1.2681
  117TMC2     O 1788   0.331   2.754  13.490  0.3441 -0.1015 -0.4207
  117TMC2     H 1789   0.560   2.688  13.596  0.1139  0.4150 -0.5846
  117TMC2    H1 1790   0.259   2.880  13.821  0.6917  3.9309  0.7357
  117TMC2    H2 1791   0.637   2.799  14.000  0.6526  0.3312 -0.1464
  117TMC2    C7 1792   0.432   2.962  14.011 -0.1485  0.0512 -0.4340
  117TMC2    C8 1793   0.732   2.662  13.789  0.3652  0.3919  0.5521
  117TMC2    O1 1794   0.528   2.982  14.077 -0.4751 -0.7432  0.0995
  117TMC2    O2 1795   0.787   2.625  13.685  0.2896  0.6952  0.5774
  117TMC2    O5 1796   0.745   2.621  13.915  0.1680  0.0429 -0.0430
  117TMC2    H5 1797   0.662   2.649  13.960  0.8248  0.5554  0.8508
  118MPD2     C 1798   0.221   3.250  13.925 -0.0824 -0.3163  0.6185
  118MPD2    C1 1799   0.332   3.191  13.976  0.2068 -0.1385  0.4162
  118MPD2    C2 1800   0.450   3.267  13.987  0.2281  0.6867  0.1317
  118MPD2    C3 1801   0.449   3.405  13.959 -0.2119  0.5688  0.4624
  118MPD2    C4 1802   0.325   3.464  13.924 -0.1032 -0.2238  0.1034
  118MPD2    C5 1803   0.218   3.382  13.892 -0.2248 -0.6505  0.4307
  118MPD2     H 1804   0.546   3.225  14.013  0.8887  1.8565 -0.4388
  118MPD2    H1 1805   0.312   3.569  13.903 -0.9290 -0.4468 -0.5134
  118MPD2    H2 1806   0.136   3.194  13.888 -0.7792 -0.9845  3.2926
  118MPD2    H3 1807   0.127   3.416  13.844  1.2459  0.5497 -1.4936
  118MPD2     N 1808   0.562   3.484  13.965 -0.4120 -0.2467  0.3696
  118MPD2    H5 1809   0.548   3.585  13.969 -1.4241 -0.2618 -2.6792
  118MPD2    N1 1810   0.331   3.052  13.972  0.3667 -0.2071  0.3524
  118MPD2    H7 1811   0.241   3.015  13.943  0.7168 -2.8514  2.6500
  119MPD2     C 1812   3.706   4.692  13.289  0.1464 -0.3572 -0.0022
  119MPD2    C1 1813   3.594   4.672  13.361  0.1052  0.0860 -0.2762
  119MPD2    C2 1814   3.540   4.548  13.349 -0.0822 -0.1680 -0.7873
  119MPD2    C3 1815   3.580   4.445  13.270 -0.0671 -0.3866  0.4209
  119MPD2    C4 1816   3.695   4.470  13.200  0.2534  0.5276  0.3845
  119MPD2    C5 1817   3.756   4.590  13.201 -0.2999 -0.1734 -0.1353
  119MPD2     H 1818   3.461   4.529  13.422 -0.7111 -0.4479 -1.5418
  119MPD2    H1 1819   3.740   4.402  13.129  0.5428 -2.0565  3.0574
  119MPD2    H2 1820   3.764   0.059  13.299  1.8388 -1.5778  1.2593
  119MPD2    H3 1821   3.850   4.615  13.154 -0.4629 -2.1726 -1.4985
  119MPD2     N 1822   3.515   4.319  13.258 -0.4833  0.1344 -0.0211
  119MPD2    H5 1823   3.557   4.250  13.197 -1.2245 -0.6746  0.3870
  119MPD2    N1 1824   3.547   0.056  13.447 -0.2070 -0.0419 -1.1096
  119MPD2    H7 1825   3.603   0.134  13.480 -0.7193  0.5009 -1.5140
  120TCq2    C1 1826   3.392   4.288  13.311 -0.1328  0.1913 -0.6081
  120TCq2    O2 1827   3.310   4.356  13.372 -0.4482 -0.5520 -0.3585
  120TCq2    C2 1828   3.359   4.149  13.274 -0.6313  0.1856  0.0361
  120TCq2    C3 1829   3.441   4.061  13.330  0.2298 -0.0442 -0.3014
  120TCq2    C4 1830   3.396   3.950  13.393  0.2570 -0.1650  0.2636
  120TCq2    C5 1831   3.261   3.935  13.417  0.3449  0.7666 -0.5381
  120TCq2    C6 1832   3.174   4.028  13.357  0.1091 -0.4178 -1.4228
  120TCq2    C7 1833   3.223   4.135  13.287 -0.4793  0.4798  0.1333
  120TCq2    C8 1834   3.039   4.028  13.402 -1.0125 -0.1057  0.2811
  120TCq2    O4 1835   2.964   4.108  13.350 -0.4070 -0.1867 -0.0279
  120TCq2    C9 1836   3.491   3.856  13.436 -0.9035  0.6760  0.1084
  120TCq2    O5 1837   3.458   3.769  13.521  0.0528  0.1988 -0.1112
  120TCq2    O6 1838   3.607   3.878  13.400  0.0819 -0.5772  0.7310
  120TCq2    H2 1839   3.548   4.083  13.327 -0.6045  3.6285 -2.9300
  120TCq2    H3 1840   3.230   3.848  13.474 -0.6105  1.5527  0.1244
  120TCq2    H4 1841   3.146   4.205  13.256  0.1667  1.8808  1.7046
  121TMC2    C1 1842   0.640   1.535  14.012 -0.4426  0.0439 -0.4392
  121TMC2    C2 1843   0.682   1.666  14.022 -0.7901 -0.3482  0.3116
  121TMC2    C3 1844   0.639   1.737  14.137 -0.2260 -0.2337  0.3554
  121TMC2    C4 1845   0.583   1.465  14.114  0.4740  0.3711  0.1058
  121TMC2    C5 1846   0.546   1.535  14.229 -0.6785  0.4376 -0.5762
  121TMC2    C6 1847   0.574   1.671  14.241  0.0196  0.3011 -0.3820
  121TMC2     C 1848   0.671   1.462  13.889 -0.8897  0.3463 -0.5535
  121TMC2     O 1849   0.663   1.340  13.888  0.0020  0.0438 -0.3508
  121TMC2     H 1850   0.713   1.725  13.936 -1.0808 -2.2368 -1.0817
  121TMC2    H1 1851   0.557   1.361  14.098 -0.6637  0.4262  1.6690
  121TMC2    H2 1852   0.538   1.729  14.325  0.0127 -1.1991  0.6523
  121TMC2    C7 1853   0.444   1.477  14.308  0.6131 -0.0634  0.6557
  121TMC2    C8 1854   0.648   1.889  14.136 -0.0814 -0.1470  0.0081
  121TMC2    O1 1855   0.448   1.508  14.425  0.6263  0.0366  0.0078
  121TMC2    O2 1856   0.743   1.948  14.087  0.1372  0.4272  0.3685
  121TMC2    O5 1857   0.555   1.942  14.221  0.0038 -0.4084 -0.5112
  121TMC2    H5 1858   0.490   1.874  14.248  2.2275 -0.6928  4.0083
  122MPD2     C 1859   0.787   1.353  13.643 -0.3263  0.2270  0.0134
  122MPD2    C1 1860   0.772   1.493  13.666 -1.5356 -0.5052  0.0852
  122MPD2    C2 1861   0.796   1.582  13.565  0.2108  0.2915  0.1634
  122MPD2    C3 1862   0.834   1.545  13.439 -0.1478 -0.3427 -0.0312
  122MPD2    C4 1863   0.852   1.408  13.418 -0.8040 -0.6525 -0.2162
  122MPD2    C5 1864   0.826   1.318  13.514  0.2799  0.1094  0.6684
  122MPD2     H 1865   0.771   1.686  13.581  2.0959  0.6996  0.4285
  122MPD2    H1 1866   0.875   1.376  13.316 -2.3164  0.0029 -0.7527
  122MPD2    H2 1867   0.780   1.274  13.717  0.1167  0.7194  0.5892
  122MPD2    H3 1868   0.819   1.212  13.493  0.3673  0.1434  0.4716
  122MPD2     N 1869   0.861   1.634  13.338  0.3854 -0.1856 -0.5313
  122MPD2    H5 1870   0.902   1.592  13.255  2.7863  2.5528 -0.7119
  122MPD2    N1 1871   0.708   1.541  13.781 -0.3616  0.1060  0.4839
  122MPD2    H7 1872   0.676   1.637  13.784  0.2385  0.2608  2.0651
  123MPD2     C 1873   2.571   4.532  10.534  0.3296  0.0338 -0.4637
  123MPD2    C1 1874   2.552   4.537  10.401  0.3686  0.5216  0.4889
  123MPD2    C2 1875   2.629   4.625  10.324 -0.0383 -0.6123  0.4973
  123MPD2    C3 1876   2.746   4.683  10.374  0.2586 -0.6507  0.4069
  123MPD2    C4 1877   2.769   4.671  10.511  0.1577  0.5583  0.7028
  123MPD2    C5 1878   2.677   4.599  10.587 -0.6771 -0.0164  0.7993
  123MPD2     H 1879   2.612   4.627  10.217 -0.7616 -1.6231  0.5947
  123MPD2    H1 1880   2.853   4.721  10.558  1.4299  0.3555 -1.3475
  123MPD2    H2 1881   2.510   4.468  10.596  0.2403  0.8591  0.3104
  123MPD2    H3 1882   2.703   4.585  10.691 -1.6697 -0.7395  0.9483
  123MPD2     N 1883   2.819   0.034  10.284  0.6288  0.4101  0.7724
  123MPD2    H5 1884   2.785   0.036  10.188  0.5515  0.5654  0.8035
  123MPD2    N1 1885   2.447   4.451  10.349  0.1219  0.3101 -0.3724
  123MPD2    H7 1886   2.389   4.405  10.418 -0.6914  0.1214 -1.1764
  124TCq2    C1 1887   2.939   0.097  10.306  0.1278  0.4417  0.2460
  124TCq2    O2 1888   2.984   0.147  10.408 -0.0528 -0.1002 -0.6457
  124TCq2    C2 1889   3.002   0.133  10.181  0.4241  0.6982 -0.3867
  124TCq2    C3 1890   3.096   0.234  10.185 -0.9074  0.4019 -0.2982
  124TCq2    C4 1891   3.161   0.267  10.072  0.8186 -0.0576 -0.1244
  124TCq2    C5 1892   3.129   0.217   9.949 -0.9868  0.1340  0.3898
  124TCq2    C6 1893   3.028   0.119   9.952 -0.5663 -0.4534 -0.8077
  124TCq2    C7 1894   2.977   0.068  10.070 -0.3794 -0.2893  0.7246
  124TCq2    C8 1895   3.000   0.048   9.830 -0.0616 -0.1411 -0.4181
  124TCq2    O4 1896   2.920   4.682   9.830 -0.1686  0.9658  0.0477
  124TCq2    C9 1897   3.247   0.383  10.079 -0.3374 -0.6330 -0.0241
  124TCq2    O5 1898   3.317   0.396   9.974 -0.2690 -0.2641 -0.2861
  124TCq2    O6 1899   3.249   0.454  10.183  0.1356  0.0124  0.2856
  124TCq2    H2 1900   3.115   0.280  10.281  2.9437 -0.0784 -0.7965
  124TCq2    H3 1901   3.180   0.268   9.867  0.7918  1.9673  2.6507
  124TCq2    H4 1902   2.915   4.703  10.068 -0.4432 -0.2218 -0.4175
  125TMC2    C1 1903   4.163   1.432   9.003  0.1322  0.3185 -0.3713
  125TMC2    C2 1904   4.152   1.492   9.123  0.4215  0.4615  0.1713
  125TMC2    C3 1905   4.257   1.564   9.173 -0.1886 -0.0620 -0.1061
  125TMC2    C4 1906   4.274   1.448   8.928 -0.3437 -0.2349  0.0009
  125TMC2    C5 1907   4.385   1.508   8.988 -0.4934  0.7873  0.4587
  125TMC2    C6 1908   4.378   1.573   9.110  0.3097  0.2966  0.2607
  125TMC2     C 1909   4.091   1.305   8.981  0.1987  0.5797 -0.9038
  125TMC2     O 1910   4.097   1.262   8.866  0.4806  0.1042 -0.1667
  125TMC2     H 1911   4.063   1.474   9.182 -1.1272 -0.0679 -2.2890
  125TMC2    H1 1912   4.281   1.404   8.829  1.8366  0.2468 -0.0644
  125TMC2    H2 1913   4.461   1.630   9.151  1.4395 -1.4573  0.4035
  125TMC2    C7 1914   4.510   1.461   8.927  0.1259  0.0337  0.0773
  125TMC2    C8 1915   4.251   1.603   9.309  0.2594 -0.5282  0.8336
  125TMC2    O1 1916   4.506   1.376   8.839  0.3859  0.3873 -0.4237
  125TMC2    O2 1917   4.348   1.603   9.385 -0.2011  0.0512  0.2377
  125TMC2    O5 1918   4.137   1.668   9.331  0.2117  0.0361  0.0502
  125TMC2    H5 1919   4.085   1.680   9.248  1.0873  0.0434 -0.4946
  126MPD1     C 1920   3.888   0.856   9.085  0.2429  0.4715  0.5660
  126MPD1    C1 1921   3.935   0.906   9.201  0.4464  0.2798 -0.1746
  126MPD1    C2 1922   3.970   1.037   9.209 -0.6080 -0.3264  0.3075
  126MPD1    C3 1923   3.994   1.114   9.095 -0.1280 -0.2100  0.4144
  126MPD1    C4 1924   3.940   1.055   8.982  0.2521  0.1634 -0.4827
  126MPD1    C5 1925   3.879   0.926   8.975  0.2002 -0.0922  0.2249
  126MPD1     H 1926   3.981   1.085   9.305 -2.8950  0.7083  0.0449
  126MPD1    H1 1927   3.937   1.108   8.888  0.4864 -0.5336 -0.8829
  126MPD1    H2 1928   3.861   0.752   9.072 -2.2600  1.0864  0.9515
  126MPD1    H3 1929   3.839   0.881   8.885  2.3742  0.4684 -1.0426
  126MPD1     N 1930   4.046   1.244   9.095 -0.0084 -0.0736 -0.2290
  126MPD1    H5 1931   4.074   1.278   9.187  1.3864 -1.0609 -0.3022
  126MPD1    N1 1932   3.917   0.836   9.319  0.3856  0.1916 -0.2867
  126MPD1    H6 1933   3.989   0.846   9.390  0.7698  1.0354 -0.7843
  126MPD1    H7 1934   3.910   0.739   9.288  0.4332 -0.7810  2.7953
  127MPD2     C 1935   0.348   0.956   9.667  0.3622 -0.1781  0.5333
  127MPD2    C1 1936   0.418   0.840   9.649 -0.2447 -0.2140  0.2445
  127MPD2    C2 1937   0.554   0.840   9.610  0.1322 -0.1308 -0.1259
  127MPD2    C3 1938   0.612   0.962   9.578 -0.0210 -0.1191 -0.3157
  127MPD2    C4 1939   0.536   1.079   9.583  0.3658  0.6015  0.2768
  127MPD2    C5 1940   0.406   1.073   9.629  0.5863  0.2576 -0.3417
  127MPD2     H 1941   0.610   0.748   9.594  1.1056  0.0857  1.9868
  127MPD2    H1 1942   0.571   1.182   9.573 -0.0963  0.9362  2.1288
  127MPD2    H2 1943   0.241   0.948   9.680  0.3718 -0.8097  0.2080
  127MPD2    H3 1944   0.354   1.168   9.633 -0.5156 -0.3450 -0.4524
  127MPD2     N 1945   0.750   0.960   9.525 -0.1643 -0.4658 -0.1725
  127MPD2    H5 1946   0.795   0.869   9.524  0.5544 -0.1354  1.8131
  127MPD2    N1 1947   0.349   0.722   9.687 -0.6405  0.3105 -0.0044
  127MPD2    H7 1948   0.249   0.728   9.703 -0.6818 -2.6345  0.8374
  128TCq2    C1 1949   0.408   0.597   9.693  0.4868 -0.7472 -0.0500
  128TCq2    O2 1950   0.524   0.561   9.675  0.3986 -0.0640  0.6232
  128TCq2    C2 1951   0.308   0.499   9.732 -0.2184  1.0958 -0.9601
  128TCq2    C3 1952   0.327   0.376   9.678  0.2374  0.0766 -0.3941
  128TCq2    C4 1953   0.230   0.276   9.685 -0.1937  0.1346  0.6756
  128TCq2    C5 1954   0.104   0.303   9.730 -0.0571 -0.0572  0.6515
  128TCq2    C6 1955   0.085   0.431   9.782 -0.2266  0.1280  0.1819
  128TCq2    C7 1956   0.188   0.533   9.779 -0.4413  0.0470  0.3727
  128TCq2    C8 1957   4.677   0.474   9.834  0.5835 -0.0219  0.3678
  128TCq2    O4 1958   4.654   0.596   9.859 -0.0154  0.0757  0.1668
  128TCq2    C9 1959   0.257   0.147   9.630  0.2420  0.4942  0.4777
  128TCq2    O5 1960   0.170   0.057   9.654  0.1263  0.4739  0.0670
  128TCq2    O6 1961   0.376   0.122   9.602  0.1083  0.2555 -0.2086
  128TCq2    H2 1962   0.420   0.344   9.631  0.7460  2.9478 -1.3324
  128TCq2    H3 1963   0.023   0.230   9.725  0.2632 -0.3194 -0.6180
  128TCq2    H4 1964   0.170   0.629   9.826 -2.0994 -0.8321  1.5161
  129MPD2     C 1965   2.678   0.936   1.097  0.6836 -0.3629  0.3490
  129MPD2    C1 1966   2.785   0.941   1.187  0.1820  0.5601  1.0084
  129MPD2    C2 1967   2.892   1.013   1.147  0.3124  0.7549 -0.2672
  129MPD2    C3 1968   2.903   1.082   1.029 -0.0349  0.3801 -0.2005
  129MPD2    C4 1969   2.788   1.081   0.953 -0.6536 -0.3894  0.1160
  129MPD2    C5 1970   2.680   1.002   0.982  0.0291 -0.2724 -0.2836
  129MPD2     H 1971   2.975   1.029   1.215  0.5756 -0.6043 -0.2789
  129MPD2    H1 1972   2.788   1.149   0.868  0.7990 -0.3358  0.1545
  129MPD2    H2 1973   2.591   0.873   1.113  0.7305 -1.1974 -2.7382
  129MPD2    H3 1974   2.592   0.994   0.919 -1.0923 -0.1840  1.2959
  129MPD2     N 1975   3.012   1.167   0.996  0.5090 -0.1658 -0.1424
  129MPD2    H5 1976   3.075   1.196   1.070 -0.5186  0.7160  0.3885
  129MPD2    N1 1977   2.787   0.887   1.315  0.4133  0.2152  0.1138
  129MPD2    H7 1978   2.879   0.887   1.358  1.3560 -0.8737 -1.9190
  130TCq2    C1 1979   2.682   0.811   1.365  0.6525  0.1716 -0.7413
  130TCq2    O2 1980   2.572   0.778   1.316  0.2088 -0.4834  0.3546
  130TCq2    C2 1981   2.728   0.741   1.487 -0.1310 -0.7778  0.5176
  130TCq2    C3 1982   2.821   0.795   1.570 -0.0684  0.5295  0.4109
  130TCq2    C4 1983   2.845   0.734   1.690 -0.4428  0.6492  0.2174
  130TCq2    C5 1984   2.793   0.611   1.728 -0.1039 -0.7020 -0.2706
  130TCq2    C6 1985   2.695   0.557   1.642 -0.8206 -0.3026  0.4690
  130TCq2    C7 1986   2.662   0.621   1.527  0.4142  0.3145  0.9225
  130TCq2    C8 1987   2.610   0.450   1.680 -0.2258  0.4195  0.4054
  130TCq2    O4 1988   2.524   0.414   1.603  0.0077 -0.1074 -0.0601
  130TCq2    C9 1989   2.928   0.795   1.784 -0.5184 -0.1536 -0.0723
  130TCq2    O5 1990   2.992   0.893   1.736  0.1016 -0.1403  0.6962
  130TCq2    O6 1991   2.923   0.747   1.903 -0.7143 -0.1778  0.1261
  130TCq2    H2 1992   2.852   0.898   1.559 -0.3109  0.4604 -0.9476
  130TCq2    H3 1993   2.808   0.565   1.824 -0.3618 -0.7028 -0.2292
  130TCq2    H4 1994   2.572   0.593   1.473  1.5481 -1.0943 -0.2247
  131MPD2     C 1995   2.009   4.558   9.473 -0.0705  0.5748 -0.1796
  131MPD2    C1 1996   2.125   4.586   9.529  0.0117 -0.1975 -0.4009
  131MPD2    C2 1997   2.163   4.538   9.649  0.6152  0.1229  0.1938
  131MPD2    C3 1998   2.076   4.453   9.719 -0.3470  0.7514 -0.7909
  131MPD2    C4 1999   1.949   4.432   9.667  1.1898 -0.6207 -0.5024
  131MPD2    C5 2000   1.914   4.488   9.546  0.2410 -0.4958  0.0773
  131MPD2     H 2001   2.242   4.582   9.708 -0.6269  0.4143  1.6271
  131MPD2    H1 2002   1.882   4.355   9.703  2.9137 -1.0668  1.7487
  131MPD2    H2 2003   1.976   4.611   9.385  0.1207 -1.5291 -1.5191
  131MPD2    H3 2004   1.821   4.461   9.497 -0.8035  0.3361  1.6064
  131MPD2     N 2005   2.123   4.390   9.837  0.4057 -0.1296 -0.1079
  131MPD2    H5 2006   2.219   4.413   9.861  0.3009 -0.2893  0.4823
  131MPD2    N1 2007   2.215   4.670   9.451  0.3906 -0.3143 -0.1619
  131MPD2    H7 2008   2.176   4.706   9.364  1.3620  0.7798 -0.1543
  132TCq2    C1 2009   2.742   0.220   9.450 -0.0498  0.3988 -0.6311
  132TCq2    O2 2010   2.721   0.212   9.571  0.3738 -0.3331  0.1876
  132TCq2    C2 2011   2.626   0.170   9.375  1.3094 -0.0744  0.3125
  132TCq2    C3 2012   2.588   0.216   9.248  0.3500 -0.4733  0.2340
  132TCq2    C4 2013   2.460   0.181   9.213  0.1805  0.2907 -0.6623
  132TCq2    C5 2014   2.387   0.087   9.272  0.1154 -0.3716  0.5328
  132TCq2    C6 2015   2.425   0.038   9.392  0.0328  0.5866 -0.0138
  132TCq2    C7 2016   2.540   0.087   9.447 -0.7460  0.0036  0.4185
  132TCq2    C8 2017   2.343   4.689   9.488  0.0730  0.1977  0.2333
  132TCq2    O4 2018   2.403   4.632   9.577 -0.3615  0.7344  0.4038
  132TCq2    C9 2019   2.420   0.235   9.083 -0.1848 -0.4019  0.3104
  132TCq2    O5 2020   2.330   0.177   9.019 -0.5657 -0.2773 -0.4835
  132TCq2    O6 2021   2.463   0.352   9.052  0.1211 -0.3708  0.3994
  132TCq2    H2 2022   2.653   0.276   9.186  0.9425  0.8640  2.1291
  132TCq2    H3 2023   2.304   0.050   9.212  0.8563  0.0549 -0.7546
  132TCq2    H4 2024   2.573   0.046   9.543 -1.4020 -1.1634  0.1490
  133MPD2     C 2025   1.534   1.791   9.130 -0.4160  1.4960  0.3682
  133MPD2    C1 2026   1.513   1.741   9.003  0.0504 -0.2808 -0.6899
  133MPD2    C2 2027   1.541   1.607   8.977  0.6343 -0.6043 -0.6539
  133MPD2    C3 2028   1.563   1.518   9.084 -0.9086 -0.2798  0.4157
  133MPD2    C4 2029   1.574   1.568   9.215 -0.0705 -0.0629  0.1463
  133MPD2    C5 2030   1.564   1.699   9.237  0.1154 -0.4448 -0.3725
  133MPD2     H 2031   1.534   1.566   8.877  0.4461  2.7634 -2.0368
  133MPD2    H1 2032   1.602   1.507   9.300  3.0053  0.0822 -0.7506
  133MPD2    H2 2033   1.507   1.890   9.166 -0.6715  2.3430 -2.1539
  133MPD2    H3 2034   1.564   1.736   9.339 -2.1178 -2.6685  0.4155
  133MPD2     N 2035   1.587   1.380   9.062  0.4191 -0.1186  0.0700
  133MPD2    H5 2036   1.588   1.325   9.147  0.4341  0.8483  0.7023
  133MPD2    N1 2037   1.467   1.832   8.907  0.3129  0.6041 -0.2415
  133MPD2    H7 2038   1.458   1.931   8.929  0.8714  0.8063 -0.9273
  134TCq2    C1 2039   1.424   1.800   8.776  0.8989  0.6875  0.4193
  134TCq2    O2 2040   1.402   1.688   8.725  0.0100  0.9802 -0.6726
  134TCq2    C2 2041   1.356   1.909   8.721  0.3168  0.0822  0.1164
  134TCq2    C3 2042   1.422   2.032   8.722  0.2782 -0.0108  0.3778
  134TCq2    C4 2043   1.349   2.149   8.717 -0.6815  0.6314 -1.0633
  134TCq2    C5 2044   1.215   2.146   8.714 -0.2244  0.3498 -0.4935
  134TCq2    C6 2045   1.155   2.017   8.710  0.3327 -0.0000 -0.8632
  134TCq2    C7 2046   1.217   1.896   8.718  0.4251  0.3460  0.8928
  134TCq2    C8 2047   1.010   2.020   8.693 -0.3190 -0.7262  0.6320
  134TCq2    O4 2048   0.950   2.123   8.713 -0.3099 -0.4777  0.0281
  134TCq2    C9 2049   1.425   2.277   8.729 -0.3196 -1.1290  0.6907
  134TCq2    O5 2050   1.386   2.369   8.655 -0.1710  0.0110 -0.0187
  134TCq2    O6 2051   1.532   2.274   8.796 -0.3607 -0.6208  0.0145
  134TCq2    H2 2052   1.527   2.038   8.750  0.5695 -0.2663 -0.6669
  134TCq2    H3 2053   1.152   2.234   8.704  0.4055  0.7061 -1.2568
  134TCq2    H4 2054   1.169   1.801   8.739 -2.7930  1.7846  0.1776
  135MPD2     C 2055   4.609   2.888   8.947 -0.6320  0.0471  0.2448
  135MPD2    C1 2056   4.635   2.755   8.948  0.8445  0.1692 -0.7464
  135MPD2    C2 2057   0.042   2.710   8.963 -0.0013 -0.0248 -0.0138
  135MPD2    C3 2058   0.141   2.809   8.968  0.0118  0.1270  0.0140
  135MPD2    C4 2059   0.119   2.946   8.961  0.0586  0.0187 -0.1488
  135MPD2    C5 2060   4.709   2.983   8.948  0.2189  0.1391  0.3732
  135MPD2     H 2061   0.070   2.606   8.979 -2.0289 -0.3153  1.6174
  135MPD2    H1 2062   0.200   3.018   8.970  1.4654 -1.7775  1.5863
  135MPD2    H2 2063   4.509   2.928   8.947 -1.3824 -1.8642  1.2397
  135MPD2    H3 2064   4.676   3.084   8.971  1.5255  1.1098 -2.0529
  135MPD2     N 2065   0.276   2.790   8.975 -1.0416 -0.1696  0.1769
  135MPD2    H5 2066   0.345   2.864   8.967 -0.6054 -0.9305 -3.0836
  135MPD2    N1 2067   4.529   2.661   8.939  0.0576 -0.2604 -0.4045
  135MPD2    H7 2068   4.549   2.562   8.931 -0.9495 -0.2767 -2.6531
  136TCq2    C1 2069   4.388   2.690   8.936 -0.6500  0.4645 -0.1125
  136TCq2    O2 2070   4.326   2.795   8.958 -0.1328 -0.0000 -0.4064
  136TCq2    C2 2071   4.314   2.566   8.924 -0.3397  0.2108  0.5291
  136TCq2    C3 2072   4.179   2.572   8.956  0.3485 -0.3582 -0.5042
  136TCq2    C4 2073   4.104   2.464   8.941 -0.2980  0.6757  0.4050
  136TCq2    C5 2074   4.152   2.343   8.894  0.2528  0.0364  0.2653
  136TCq2    C6 2075   4.290   2.336   8.866 -0.0578 -0.7035  0.0743
  136TCq2    C7 2076   4.370   2.444   8.881 -0.2004 -0.3170  0.8098
  136TCq2    C8 2077   4.353   2.216   8.813  0.0690 -0.1278  0.3797
  136TCq2    O4 2078   4.468   2.220   8.762 -0.0500 -0.0965  0.5609
  136TCq2    C9 2079   3.972   2.470   8.979 -0.0885 -0.0752  0.8658
  136TCq2    O5 2080   3.913   2.580   9.000  0.6385  0.0801 -0.1537
  136TCq2    O6 2081   3.903   2.360   8.972 -0.6871 -0.1276 -0.0154
  136TCq2    H2 2082   4.131   2.661   8.995  0.8990 -1.0071  1.6469
  136TCq2    H3 2083   4.084   2.260   8.889 -0.7778  0.8544  0.6429
  136TCq2    H4 2084   4.477   2.430   8.874 -0.0499  0.5569  1.2882
  137MPD2     C 2085   4.633   1.123   9.768  0.3270  0.1022  0.0018
  137MPD2    C1 2086   4.527   1.072   9.699 -0.1630 -0.8343 -0.6272
  137MPD2    C2 2087   4.408   1.149   9.692 -0.2521 -0.0046 -0.6175
  137MPD2    C3 2088   4.402   1.270   9.756 -0.2958  0.5806 -0.6425
  137MPD2    C4 2089   4.509   1.311   9.824  0.4351 -0.0827 -0.3453
  137MPD2    C5 2090   4.622   1.245   9.828 -0.5635  0.3104 -0.3111
  137MPD2     H 2091   4.324   1.120   9.631 -1.0694  1.0304  0.0266
  137MPD2    H1 2092   4.512   1.410   9.868  0.2017 -1.7954  3.5616
  137MPD2    H2 2093   0.000   1.065   9.779  0.8942  1.2379  1.2389
  137MPD2    H3 2094   4.706   1.296   9.873 -0.3170  2.1253 -2.8059
  137MPD2     N 2095   4.293   1.345   9.732 -0.0405 -0.4253 -0.6718
  137MPD2    H5 2096   4.219   1.299   9.680  0.1182  0.5038 -1.7193
  137MPD2    N1 2097   4.546   0.943   9.653 -0.3308  0.0137  0.4313
  137MPD2    H7 2098   4.638   0.902   9.662  0.1953  0.5480 -2.5886
  138TCq2    C1 2099   4.446   0.854   9.610  0.1042  0.2956 -0.3361
  138TCq2    O2 2100   4.328   0.877   9.617 -0.2766 -0.0938 -0.3871
  138TCq2    C2 2101   4.497   0.726   9.568  0.3953  0.7134  0.7685
  138TCq2    C3 2102   4.628   0.703   9.538  0.2065  0.1398 -0.2066
  138TCq2    C4 2103   4.664   0.583   9.476 -0.2965 -0.4297  0.2585
  138TCq2    C5 2104   4.578   0.482   9.474 -0.4299  0.0588 -0.6769
  138TCq2    C6 2105   4.453   0.496   9.520  0.5479  0.4610 -0.4213
  138TCq2    C7 2106   4.404   0.620   9.551 -0.2816 -0.5852  0.1071
  138TCq2    C8 2107   4.361   0.382   9.502 -0.0200  0.0026  0.8740
  138TCq2    O4 2108   4.407   0.270   9.515  0.2043 -0.4383 -0.0645
  138TCq2    C9 2109   0.072   0.567   9.424  0.8419 -0.5120  0.3876
  138TCq2    O5 2110   0.088   0.461   9.355  0.7457  0.4079 -0.1395
  138TCq2    O6 2111   0.140   0.671   9.429 -0.3253 -0.2527  0.0455
  138TCq2    H2 2112   4.695   0.788   9.542 -0.2342  0.4463  0.6458
  138TCq2    H3 2113   4.607   0.384   9.440 -1.2769 -0.0138 -1.2058
  138TCq2    H4 2114   4.311   0.635   9.605 -1.0586 -2.2698 -0.7555
  139TMC2    C1 2115   0.227   4.089  13.318  0.1810  0.0492  0.3263
  139TMC2    C2 2116   0.249   4.162  13.202 -0.7399 -0.5282 -0.5427
  139TMC2    C3 2117   0.199   4.291  13.196 -0.2431  0.2395  0.6391
  139TMC2    C4 2118   0.155   4.133  13.422 -0.5516  0.6508  0.2633
  139TMC2    C5 2119   0.110   4.267  13.409 -0.2675  0.4012 -0.2100
  139TMC2    C6 2120   0.139   4.350  13.300 -0.8197  0.7990  0.5441
  139TMC2     C 2121   0.307   3.966  13.328  0.0475  0.7063  0.8993
  139TMC2     O 2122   0.338   3.922  13.219 -0.3945  0.0618  0.2350
  139TMC2     H 2123   0.303   4.124  13.117  2.3940  1.1728  0.6960
  139TMC2    H1 2124   0.132   4.070  13.508  0.7711  1.6120  1.3215
  139TMC2    H2 2125   0.096   4.446  13.271 -0.6479  0.1769 -1.8131
  139TMC2    C7 2126   0.014   4.326  13.511  0.4103 -0.6119  0.5145
  139TMC2    C8 2127   0.249   4.392  13.098 -0.2591 -0.7612 -0.3169
  139TMC2    O1 2128   4.695   4.437  13.476  0.4670  0.5627 -0.0954
  139TMC2    O2 2129   0.171   4.473  13.051 -0.3221  0.5784 -0.2942
  139TMC2    O5 2130   0.370   4.351  13.048  0.3753  0.1738  0.5232
  139TMC2    H5 2131   0.425   4.293  13.105 -0.2174 -2.4016 -1.5274
  140MPD2     C 2132   0.437   3.782  13.631 -0.2872 -0.3847  0.5471
  140MPD2    C1 2133   0.411   3.812  13.497  0.8431  0.1719 -0.0887
  140MPD2    C2 2134   0.463   3.715  13.403 -0.5563 -0.5033  0.4168
  140MPD2    C3 2135   0.516   3.595  13.434 -0.5623  0.2193 -0.4997
  140MPD2    C4 2136   0.518   3.563  13.568  0.3265  0.5547 -0.6581
  140MPD2    C5 2137   0.479   3.651  13.666 -0.2579  0.0851  0.3833
  140MPD2     H 2138   0.448   3.742  13.299  0.6690 -1.1706  0.0674
  140MPD2    H1 2139   0.559   3.472  13.610 -2.2734 -1.5617 -2.6529
  140MPD2    H2 2140   0.413   3.860  13.702 -1.0049  0.8134 -1.0048
  140MPD2    H3 2141   0.492   3.617  13.768  0.7982 -0.3331  0.1068
  140MPD2     N 2142   0.555   3.505  13.331 -0.4437  0.6690 -0.5249
  140MPD2    H5 2143   0.571   3.540  13.238  0.8203  2.6055  0.4234
  140MPD2    N1 2144   0.336   3.925  13.457  0.0939  0.4836 -0.0851
  140MPD2    H7 2145   0.301   3.980  13.534  0.1530 -0.2347  0.4459
  141TCq2    C1 2146   0.531   0.546  13.474  0.1049 -0.0233 -0.0922
  141TCq2    O2 2147   0.594   0.647  13.505  0.8121 -0.1289  0.0655
  141TCq2    C2 2148   0.513   0.451  13.579  0.7762  0.3305 -0.1486
  141TCq2    C3 2149   0.501   0.318  13.548 -0.1387  0.0220 -0.2034
  141TCq2    C4 2150   0.496   0.220  13.639  0.5480 -0.4809 -0.5918
  141TCq2    C5 2151   0.498   0.250  13.775 -0.3779  0.4689 -0.2259
  141TCq2    C6 2152   0.534   0.380  13.806  0.4897  0.1686  0.2250
  141TCq2    C7 2153   0.532   0.477  13.715  0.7339 -0.6116 -0.0969
  141TCq2    C8 2154   0.527   0.428  13.946 -0.6541  0.2863 -0.4303
  141TCq2    O4 2155   0.469   0.356  14.025  0.3874 -0.6108  0.0970
  141TCq2    C9 2156   0.464   0.087  13.608 -0.0430  0.0631  0.7818
  141TCq2    O5 2157   0.487   0.048  13.492 -0.4716  0.3146 -0.0265
  141TCq2    O6 2158   0.449   0.004  13.707 -0.1898 -0.1892  0.1546
  141TCq2    H2 2159   0.484   0.289  13.445  0.2993 -1.4987  0.1484
  141TCq2    H3 2160   0.501   0.170  13.848  2.3001  0.0324 -0.8246
  141TCq2    H4 2161   0.553   0.582  13.736 -1.3295  0.2789 -2.4606
  142MPD2     C 2162   1.971   3.919   9.318 -0.1820  0.1205  0.2113
  142MPD2    C1 2163   2.073   3.900   9.412  0.1947 -0.4625 -0.6711
  142MPD2    C2 2164   2.171   3.988   9.416  0.0583  0.1205 -0.2343
  142MPD2    C3 2165   2.181   4.092   9.324 -1.1033 -0.0999 -0.1922
  142MPD2    C4 2166   2.083   4.106   9.226 -0.7865  0.1184  0.2334
  142MPD2    C5 2167   1.979   4.019   9.228 -0.5727 -0.3311 -0.5320
  142MPD2     H 2168   2.246   3.976   9.493 -0.6321  1.3747  0.6357
  142MPD2    H1 2169   2.080   4.188   9.156 -0.3428  1.4455  1.7652
  142MPD2    H2 2170   1.884   3.855   9.323 -0.8170  1.1579  2.6301
  142MPD2    H3 2171   1.897   4.033   9.159 -1.1942 -0.9893  0.0776
  142MPD2     N 2172   2.287   4.188   9.311 -0.2398  0.4178 -0.5320
  142MPD2    H5 2173   2.277   4.260   9.240  1.9853  0.5684 -0.6904
  142MPD2    N1 2174   2.054   3.806   9.516  0.2687 -0.2749 -0.4989
  142MPD2    H7 2175   1.972   3.747   9.511  1.9044 -2.7708  1.7701
  143TCq2    C1 2176   2.406   4.192   9.386  0.1996 -0.5325  0.3242
  143TCq2    O2 2177   2.445   4.122   9.475 -0.0375  0.2171 -0.5047
  143TCq2    C2 2178   2.499   4.299   9.330 -0.4854  0.0872  0.7677
  143TCq2    C3 2179   2.469   4.360   9.210  0.2593 -0.1033  0.3642
  143TCq2    C4 2180   2.540   4.470   9.169 -0.6639 -0.1801  0.4389
  143TCq2    C5 2181   2.649   4.516   9.234  0.2849 -0.0466 -0.1713
  143TCq2    C6 2182   2.671   4.455   9.356  0.5557  0.3851 -0.0212
  143TCq2    C7 2183   2.595   4.351   9.414  0.8185 -0.1940 -0.0236
  143TCq2    C8 2184   2.775   4.504   9.437  0.1954 -0.7368 -0.4176
  143TCq2    O4 2185   2.765   4.498   9.559  0.1368 -0.5399 -0.5481
  143TCq2    C9 2186   2.486   4.552   9.057  0.6120  1.2249  0.2226
  143TCq2    O5 2187   2.569   4.624   8.994 -0.1397 -0.2289  0.2634
  143TCq2    O6 2188   2.371   4.516   9.010 -0.7836  0.4933  0.2786
  143TCq2    H2 2189   2.387   4.334   9.144  2.1148  0.2353 -2.0762
  143TCq2    H3 2190   2.711   4.596   9.195  0.3095 -0.0740 -0.1881
  143TCq2    H4 2191   2.619   4.299   9.506  2.3003 -0.7621 -0.7305
  144MPD2     C 2192   1.189   2.502   0.811 -0.0211 -0.0226 -0.0308
  144MPD2    C1 2193   1.279   2.492   0.704  0.2766  0.3339  0.4570
  144MPD2    C2 2194   1.404   2.449   0.734 -0.1611 -0.8173 -0.0259
  144MPD2    C3 2195   1.449   2.450   0.862 -0.5808 -0.4174  0.3216
  144MPD2    C4 2196   1.357   2.457   0.959  0.5040 -0.0261  0.1337
  144MPD2    C5 2197   1.230   2.484   0.938  0.8095 -0.1531  0.2352
  144MPD2     H 2198   1.469   2.426   0.650 -2.5372  1.2405 -2.4421
  144MPD2    H1 2199   1.407   2.471   1.055 -1.4887 -0.7411  1.2702
  144MPD2    H2 2200   1.091   2.540   0.788 -0.4436 -0.9828  0.2049
  144MPD2    H3 2201   1.162   2.495   1.022  2.2859 -0.0854  1.4269
  144MPD2     N 2202   1.584   2.424   0.899  0.2812 -0.7269  0.3068
  144MPD2    H5 2203   1.614   2.447   0.993  0.4105  2.3866 -0.4860
  144MPD2    N1 2204   1.250   2.525   0.573 -0.3534 -0.1265 -0.3009
  144MPD2    H7 2205   1.297   2.487   0.491  2.4315  0.6983  0.9076
  145TCq2    C1 2206   1.690   2.389   0.812 -0.0049 -0.3646 -0.4127
  145TCq2    O2 2207   1.681   2.364   0.693 -0.2503  0.0064 -0.3792
  145TCq2    C2 2208   1.822   2.414   0.866 -0.4960 -0.1666  0.3327
  145TCq2    C3 2209   1.923   2.343   0.805 -0.3667  0.4247 -0.7141
  145TCq2    C4 2210   2.048   2.375   0.844  0.1168  0.0998 -0.2220
  145TCq2    C5 2211   2.075   2.462   0.950 -0.0371  0.6819 -0.2324
  145TCq2    C6 2212   1.972   2.528   0.999 -0.5360  0.3329  0.0934
  145TCq2    C7 2213   1.842   2.510   0.962 -0.7557 -0.1141  0.1867
  145TCq2    C8 2214   1.997   2.627   1.104 -0.2523 -0.5036 -0.2253
  145TCq2    O4 2215   2.114   2.646   1.128 -0.6822 -0.0219 -0.0088
  145TCq2    C9 2216   2.163   2.300   0.796  0.7418  0.1650  0.0938
  145TCq2    O5 2217   2.147   2.236   0.686  0.0699 -0.0352  0.2798
  145TCq2    O6 2218   2.263   2.291   0.871 -0.0054 -0.1496 -0.0646
  145TCq2    H2 2219   1.902   2.260   0.737 -0.6298 -1.4335  1.6242
  145TCq2    H3 2220   2.182   2.476   0.959 -0.1715  0.5674  1.4571
  145TCq2    H4 2221   1.765   2.576   0.997  0.9321  1.3390  1.1591
  146TMC2    C1 2222   2.899   1.749  12.703 -0.8435  0.5599  0.8429
  146TMC2    C2 2223   2.900   1.791  12.579  0.1616  0.6923  0.2515
  146TMC2    C3 2224   2.848   1.711  12.483  0.5556  0.4608 -0.6758
  146TMC2    C4 2225   2.830   1.636  12.736 -0.9560 -0.0313 -0.4051
  146TMC2    C5 2226   2.776   1.561  12.632 -0.9055  0.8231 -0.4542
  146TMC2    C6 2227   2.780   1.600  12.504 -0.2640  0.1926  0.0534
  146TMC2     C 2228   2.932   1.837  12.809 -0.9565 -0.5656 -0.2072
  146TMC2     O 2229   2.928   1.956  12.786 -0.4035  0.1929 -0.2699
  146TMC2     H 2230   2.969   1.870  12.552  0.6833 -0.8198 -2.7781
  146TMC2    H1 2231   2.817   1.602  12.838  1.2182  0.9451  0.1882
  146TMC2    H2 2232   2.743   1.538  12.423  0.1219  0.9844 -0.7364
  146TMC2    C7 2233   2.714   1.436  12.661  0.2810  0.2695  0.1609
  146TMC2    C8 2234   2.831   1.782  12.355 -0.5551  0.2251 -0.2068
  146TMC2    O1 2235   2.659   1.377  12.573 -0.0317  0.8802  0.0650
  146TMC2    O2 2236   2.850   1.904  12.353 -0.3019  0.1955  0.0539
  146TMC2    O5 2237   2.845   1.703  12.251  0.2598  0.0404  0.4362
  146TMC2    H5 2238   2.874   1.610  12.268 -2.2235 -0.6197  1.1000
  147MPD2     C 2239   2.640   1.053  12.984  0.0370  0.0099 -0.4553
  147MPD2    C1 2240   2.751   1.118  13.023  0.2575 -0.3678  0.9338
  147MPD2    C2 2241   2.795   1.229  12.945 -0.2419 -0.9314  0.0865
  147MPD2    C3 2242   2.725   1.273  12.836  0.5204 -0.3993  0.2378
  147MPD2    C4 2243   2.602   1.214  12.806 -0.2545 -0.2437 -1.0243
  147MPD2    C5 2244   2.575   1.097  12.871  0.0033  0.1040  0.2716
  147MPD2     H 2245   2.884   1.285  12.974 -0.7446 -0.4139  0.6335
  147MPD2    H1 2246   2.536   1.249  12.728 -2.9811 -0.0392  1.3539
  147MPD2    H2 2247   2.593   0.973  13.040  1.0538  0.0594  0.4665
  147MPD2    H3 2248   2.484   1.047  12.839  0.9848 -2.0328  0.8286
  147MPD2     N 2249   2.778   1.378  12.768  0.3385  0.0280 -0.3388
  147MPD2    H5 2250   2.863   1.423  12.800 -0.7325  0.5367  1.7693
  147MPD2    N1 2251   2.832   1.056  13.124  0.1026 -0.0766  0.4109
  147MPD2    H7 2252   2.792   0.975  13.170 -0.3754  0.9350  1.8111
  148MPD2     C 2253   2.368   0.164  10.882 -0.2079  0.0825 -0.5153
  148MPD2    C1 2254   2.410   0.211  10.761  0.4460  0.1517  0.6584
  148MPD2    C2 2255   2.319   0.257  10.666  0.2174  0.0239 -0.7416
  148MPD2    C3 2256   2.181   0.241  10.683  0.2368  0.3998  0.2342
  148MPD2    C4 2257   2.135   0.197  10.810 -0.8153 -0.1925  0.4470
  148MPD2    C5 2258   2.231   0.156  10.900 -0.3827  0.7706  0.7296
  148MPD2     H 2259   2.363   0.280  10.570 -1.2337 -0.8067 -1.6149
  148MPD2    H1 2260   2.030   0.175  10.826 -1.0228 -0.6883 -1.5746
  148MPD2    H2 2261   2.441   0.153  10.961  0.3275 -1.7768 -1.2841
  148MPD2    H3 2262   2.198   0.123  10.998 -1.9745  0.4488  0.0897
  148MPD2     N 2263   2.082   0.273  10.591 -0.5215 -0.1125  0.7377
  148MPD2    H5 2264   1.983   0.260  10.609 -0.2173 -2.3867  0.7644
  148MPD2    N1 2265   2.546   0.240  10.729  0.5396  0.1067 -0.4631
  148MPD2    H7 2266   2.572   0.282  10.640  2.5872 -1.3003 -0.5169
  149TCq2    C1 2267   2.647   0.235  10.819 -0.5594 -0.4000  0.8113
  149TCq2    O2 2268   2.645   0.216  10.939  0.5405  0.8137 -0.1559
  149TCq2    C2 2269   2.758   0.298  10.756 -0.0020  0.1151  0.1566
  149TCq2    C3 2270   2.805   0.420  10.808  0.1904  1.0314  0.9537
  149TCq2    C4 2271   2.861   0.514  10.724 -0.1819  0.9267 -0.6981
  149TCq2    C5 2272   2.842   0.503  10.591 -0.0280 -0.1422  0.4661
  149TCq2    C6 2273   2.797   0.386  10.539  0.1510  0.3949  0.1293
  149TCq2    C7 2274   2.758   0.283  10.620 -0.0261  0.2526  0.2578
  149TCq2    C8 2275   2.745   0.391  10.405 -0.1797  0.4468  0.3590
  149TCq2    O4 2276   2.643   0.336  10.378  0.5569  0.5234  0.1482
  149TCq2    C9 2277   2.869   0.656  10.777 -0.2164 -0.2799  0.7028
  149TCq2    O5 2278   2.901   0.671  10.896  0.4244  0.1627  0.8470
  149TCq2    O6 2279   2.840   0.753  10.698 -0.0435  0.0058 -0.1506
  149TCq2    H2 2280   2.796   0.449  10.912  0.2277 -0.8769  1.4938
  149TCq2    H3 2281   2.871   0.593  10.538  1.6615 -0.4351  0.8841
  149TCq2    H4 2282   2.720   0.192  10.573 -3.3337  0.9338  1.6587
  150MPD2     C 2283   4.003   4.065  12.309  0.3266 -0.9015 -0.3427
  150MPD2    C1 2284   4.023   4.127  12.188 -0.4189  0.3758 -0.3448
  150MPD2    C2 2285   4.143   4.204  12.178 -0.7606 -0.0005 -0.0204
  150MPD2    C3 2286   4.231   4.217  12.282 -1.3210 -0.7267 -0.6001
  150MPD2    C4 2287   4.206   4.168  12.407 -0.0439 -0.1710  0.1421
  150MPD2    C5 2288   4.091   4.092  12.414  0.5620  0.3460  0.0090
  150MPD2     H 2289   4.170   4.250  12.084 -1.0461 -0.2179 -0.2059
  150MPD2    H1 2290   4.281   4.173  12.485  0.2844 -1.7943 -0.0761
  150MPD2    H2 2291   3.918   4.000  12.323  1.4895 -2.0617  1.3009
  150MPD2    H3 2292   4.067   4.052  12.512 -0.7874 -0.3854 -0.6177
  150MPD2     N 2293   4.354   4.282  12.255  0.3835  0.0874  0.4008
  150MPD2    H5 2294   4.349   4.327  12.164 -3.3847  3.6231  2.3205
  150MPD2    N1 2295   3.923   4.104  12.091  0.2158  0.4281 -0.1342
  150MPD2    H7 2296   3.843   4.048  12.120  0.2643  1.5362  2.1466
  151TCq2    C1 2297   4.468   4.290  12.324 -0.3379  0.1218  0.0561
  151TCq2    O2 2298   4.506   4.234  12.425 -0.5058 -0.1405  0.4115
  151TCq2    C2 2299   4.564   4.391  12.279 -0.5672 -0.1309  0.2366
  151TCq2    C3 2300   4.552   4.443  12.150  0.7110 -0.2916  0.5958
  151TCq2    C4 2301   4.634   4.542  12.118  0.5018 -0.1375  0.4030
  151TCq2    C5 2302   4.710   4.602  12.206 -0.5529  0.4436 -0.0884
  151TCq2    C6 2303   4.713   4.564  12.337 -0.2173  0.6960 -0.1041
  151TCq2    C7 2304   4.649   4.446  12.373 -0.4609 -0.0195 -0.4627
  151TCq2    C8 2305   0.066   4.652  12.430  0.3197  0.1602 -0.2914
  151TCq2    O4 2306   0.041   0.049  12.428 -0.1631  0.1041  0.4703
  151TCq2    C9 2307   4.638   4.596  11.982  0.2509 -0.1273 -0.4785
  151TCq2    O5 2308   0.002   4.679  11.948  0.4996 -0.0275  0.6129
  151TCq2    O6 2309   4.567   4.539  11.895  0.3255 -0.3160 -0.0645
  151TCq2    H2 2310   4.497   4.386  12.075 -2.1474  0.2754  2.2693
  151TCq2    H3 2311   0.045   4.688  12.173  1.5213 -1.4325 -1.2754
  151TCq2    H4 2312   4.644   4.411  12.476  2.6526 -0.6054 -0.5100
  152MPD2     C 2313   4.300   3.970  12.964  0.3566 -0.3923  0.1941
  152MPD2    C1 2314   4.280   4.062  12.869 -0.1288 -0.1489  0.3493
  152MPD2    C2 2315   4.152   4.071  12.818  0.1163  1.2388 -0.2527
  152MPD2    C3 2316   4.058   3.984  12.866 -0.5240 -0.2534 -0.5199
  152MPD2    C4 2317   4.091   3.884  12.945 -0.1767 -0.0169 -0.4206
  152MPD2    C5 2318   4.210   3.877  13.003  0.7350  1.0476 -0.6957
  152MPD2     H 2319   4.119   4.142  12.742  0.7882  1.7656 -0.0631
  152MPD2    H1 2320   4.017   3.814  12.982 -0.1857 -1.0155 -2.3358
  152MPD2    H2 2321   4.403   3.970  12.998  0.3530 -0.3270  0.2046
  152MPD2    H3 2322   4.236   3.802  13.076  0.3981  0.3770 -1.2634
  152MPD2     N 2323   3.928   3.991  12.799  0.1158 -0.0251 -0.3170
  152MPD2    H5 2324   3.932   4.046  12.714 -1.2565 -2.2159 -1.7961
  152MPD2    N1 2325   4.386   4.139  12.826  0.2961 -0.1682 -0.5947
  152MPD2    H7 2326   4.480   4.127  12.861  0.2131  2.8134  0.5977
  153TCq2    C1 2327   4.385   4.247  12.746  0.0789 -0.7478 -0.4570
  153TCq2    O2 2328   4.296   4.314  12.701  0.2100 -0.1245  0.1356
  153TCq2    C2 2329   4.517   4.302  12.733 -0.3292  0.3777 -0.4781
  153TCq2    C3 2330   4.621   4.216  12.713  0.2664  0.7006 -0.5135
  153TCq2    C4 2331   0.024   4.263  12.718  0.0968  0.1102  0.6101
  153TCq2    C5 2332   0.054   4.396  12.750  0.2333  0.6751 -0.1322
  153TCq2    C6 2333   4.668   4.478  12.775 -0.4796  0.3559  0.6002
  153TCq2    C7 2334   4.540   4.431  12.772 -0.3244  0.1635 -0.2318
  153TCq2    C8 2335   4.698   4.621  12.801 -0.5196 -0.7157 -0.3610
  153TCq2    O4 2336   4.607   4.695  12.759 -0.2319  0.4940  0.4229
  153TCq2    C9 2337   0.127   4.169  12.684  0.4123  0.1321 -0.0192
  153TCq2    O5 2338   0.242   4.215  12.664 -0.2646 -0.2915  0.0909
  153TCq2    O6 2339   0.099   4.046  12.677  0.2018  0.1724 -0.1040
  153TCq2    H2 2340   4.598   4.111  12.697 -2.0798  0.8699  1.8173
  153TCq2    H3 2341   0.154   4.438  12.751  0.6092 -0.1638 -1.6360
  153TCq2    H4 2342   4.455   4.496  12.786 -2.0436 -1.9692 -0.6981
  154MPD2     C 2343   1.469   2.759   0.107  1.3763  0.2005  0.2824
  154MPD2    C1 2344   1.425   2.811   0.228 -0.1201  0.0906  0.6115
  154MPD2    C2 2345   1.350   2.924   0.218  0.4670  0.7792  0.3056
  154MPD2    C3 2346   1.325   2.985   0.105  0.1833 -0.3909  0.2099
  154MPD2    C4 2347   1.378   2.938  17.676 -0.1186 -0.5184 -0.0831
  154MPD2    C5 2348   1.449   2.820  17.685 -0.8955  0.0104  0.5452
  154MPD2     H 2349   1.310   2.975   0.305  0.4784  1.1295  0.1048
  154MPD2    H1 2350   1.369   2.977  17.575 -1.2278 -0.4625  0.0296
  154MPD2    H2 2351   1.516   2.662   0.099  0.5737 -0.2014  0.4248
  154MPD2    H3 2352   1.469   2.770  17.590 -1.1890  0.3860  0.2841
  154MPD2     N 2353   1.248   3.102   0.121  0.0205 -0.2275  0.1497
  154MPD2    H5 2354   1.221   3.127   0.215 -0.6791 -1.5521  0.3078
  154MPD2    N1 2355   1.474   2.760   0.351  0.4989 -0.0518  0.0043
  154MPD2    H7 2356   1.533   2.680   0.331 -1.3628 -0.5930 -3.2418
  155TCq2    C1 2357   1.442   2.812   0.472  0.4891  0.5273 -0.9284
  155TCq2    O2 2358   1.381   2.914   0.502 -0.3631  0.8619 -0.5389
  155TCq2    C2 2359   1.516   2.752   0.581  0.1128  0.7424 -0.4287
  155TCq2    C3 2360   1.468   2.790   0.706 -0.1643  0.2199  0.7506
  155TCq2    C4 2361   1.555   2.792   0.811 -0.1844 -0.1027 -0.9092
  155TCq2    C5 2362   1.687   2.769   0.799 -0.8679  0.0222 -0.0551
  155TCq2    C6 2363   1.737   2.746   0.671 -0.1812 -0.0028  0.5651
  155TCq2    C7 2364   1.655   2.739   0.558  0.2173  0.5560 -0.1651
  155TCq2    C8 2365   1.880   2.709   0.650  0.4573  0.2349 -0.2946
  155TCq2    O4 2366   1.908   2.640   0.555  0.0556 -0.3245  0.7449
  155TCq2    C9 2367   1.511   2.838   0.940 -0.1638  0.4722  0.3185
  155TCq2    O5 2368   1.425   2.927   0.932 -0.4300  0.0263  0.8615
  155TCq2    O6 2369   1.578   2.822   1.046  0.0746 -0.4331 -0.1291
  155TCq2    H2 2370   1.360   2.788   0.709 -0.1215  0.2917  2.3652
  155TCq2    H3 2371   1.753   2.791   0.883  1.2101 -0.4715 -1.5603
  155TCq2    H4 2372   1.694   2.727   0.458 -1.4795  1.6138 -0.9539
  156MPD2     C 2373   4.330   1.705  11.833 -0.6191  0.0163  0.3440
  156MPD2    C1 2374   4.202   1.660  11.820 -0.9466  0.0098  0.3878
  156MPD2    C2 2375   4.112   1.657  11.927  0.2649  0.4580 -0.2195
  156MPD2    C3 2376   4.149   1.718  12.050  0.5010 -0.2164  0.3460
  156MPD2    C4 2377   4.281   1.749  12.076  0.1465 -0.4689 -0.2688
  156MPD2    C5 2378   4.362   1.744  11.962 -0.8444 -0.1843  1.0166
  156MPD2     H 2379   4.006   1.644  11.908  0.4700  1.6940 -2.1883
  156MPD2    H1 2380   4.328   1.785  12.167 -1.1791  0.5527  0.0080
  156MPD2    H2 2381   4.406   1.710  11.756 -1.6769  0.9093 -0.6475
  156MPD2    H3 2382   4.468   1.758  11.978 -0.6974  0.7273 -0.7804
  156MPD2     N 2383   4.048   1.725  12.148 -0.1267 -0.1696  0.2580
  156MPD2    H5 2384   3.958   1.683  12.128  1.2290 -2.7020 -0.5296
  156MPD2    N1 2385   4.182   1.611  11.690  0.6375 -0.2852  0.2711
  156MPD2    H7 2386   4.254   1.613  11.618 -0.2788  0.2367 -0.6327
  157TCq2    C1 2387   4.058   1.570  11.644 -0.0595  0.2412  0.1359
  157TCq2    O2 2388   3.953   1.536  11.699 -0.3362 -0.2881 -0.3955
  157TCq2    C2 2389   4.047   1.555  11.502  0.5676 -0.0410 -0.1630
  157TCq2    C3 2390   3.951   1.466  11.466  0.1930  0.1490 -0.3212
  157TCq2    C4 2391   3.891   1.486  11.342 -0.4883 -0.5888 -0.2372
  157TCq2    C5 2392   3.916   1.598  11.271 -0.3014  0.1385  0.2822
  157TCq2    C6 2393   4.014   1.687  11.312  0.0417 -0.7478  0.7618
  157TCq2    C7 2394   4.081   1.664  11.427 -0.0157  1.0551 -0.3795
  157TCq2    C8 2395   4.015   1.824  11.260  0.2902 -0.2889 -0.4779
  157TCq2    O4 2396   4.114   1.890  11.277  0.6383  0.9729  0.1430
  157TCq2    C9 2397   3.783   1.393  11.303 -0.2547  1.2792 -0.7358
  157TCq2    O5 2398   3.751   1.384  11.185  0.1429 -0.2425 -0.4757
  157TCq2    O6 2399   3.756   1.310  11.393 -0.2959 -0.4844  0.2297
  157TCq2    H2 2400   3.910   1.391  11.532  0.3597 -1.8202 -2.4449
  157TCq2    H3 2401   3.858   1.613  11.181  2.8593 -0.9701 -1.9306
  157TCq2    H4 2402   4.153   1.735  11.467 -0.9622  0.6903  1.9735
  158TMC2    C1 2403   0.400   0.913  13.374  0.3862 -0.8523 -0.3784
  158TMC2    C2 2404   0.437   1.004  13.281  0.4102  0.6494 -0.8349
  158TMC2    C3 2405   0.378   0.996  13.164 -0.6325 -0.0618 -0.0003
  158TMC2    C4 2406   0.293   0.833  13.366  0.1212  0.8216  0.3332
  158TMC2    C5 2407   0.219   0.831  13.246 -0.2520  0.4742  0.2041
  158TMC2    C6 2408   0.268   0.916  13.151  0.0199  0.1786  0.2713
  158TMC2     C 2409   0.477   0.933  13.495 -0.4209 -0.1229  0.0472
  158TMC2     O 2410   0.581   0.996  13.488 -0.0117  0.6201  0.5310
  158TMC2     H 2411   0.530   1.059  13.279  1.6441 -1.4109 -0.4142
  158TMC2    H1 2412   0.283   0.756  13.442 -0.5033 -1.0469 -1.6366
  158TMC2    H2 2413   0.215   0.929  13.057  1.7516 -0.0967 -0.7365
  158TMC2    C7 2414   0.119   0.739  13.203 -0.2200 -0.3920 -0.0865
  158TMC2    C8 2415   0.444   1.062  13.053 -0.3627  0.3699  0.3940
  158TMC2    O1 2416   0.091   0.732  13.083 -0.0548  0.2870 -0.1909
  158TMC2    O2 2417   0.422   1.026  12.940 -0.3376  0.1879  0.1038
  158TMC2    O5 2418   0.433   1.188  13.082  0.2973  0.1111  0.0197
  158TMC2    H5 2419   0.442   1.202  13.179 -0.6117 -2.1589  0.4402
  159MPD2     C 2420   0.540   0.960  14.006 -0.4775 -0.3485 -0.6112
  159MPD2    C1 2421   0.407   0.965  13.973 -0.0695 -0.1341  0.0141
  159MPD2    C2 2422   0.362   0.950  13.840  0.1836  0.1141 -1.0041
  159MPD2    C3 2423   0.446   0.925  13.736  1.0595  0.5100  0.6642
  159MPD2    C4 2424   0.579   0.909  13.769 -0.4164 -0.3081 -0.2305
  159MPD2    C5 2425   0.619   0.932  13.899  0.6130  0.5527 -0.6235
  159MPD2     H 2426   0.255   0.942  13.827  0.2940 -0.2024 -1.7595
  159MPD2    H1 2427   0.650   0.893  13.689 -2.2582  2.3355 -2.4134
  159MPD2    H2 2428   0.594   0.981  14.097  1.4343 -2.4839 -1.2471
  159MPD2    H3 2429   0.727   0.927  13.908  0.6038 -1.0842 -1.4445
  159MPD2     N 2430   0.397   0.914  13.606 -0.3655  0.0320  0.0053
  159MPD2    H5 2431   0.300   0.889  13.590 -0.6031  0.7279  0.3513
  159MPD2    N1 2432   0.318   0.996  14.083  0.4835  0.0656 -0.1640
  159MPD2    H7 2433   0.350   1.006  14.178 -1.7534  3.1509  0.2752
  160TMC2    C1 2434   4.375   3.788   1.436  0.0817  1.0946 -0.3358
  160TMC2    C2 2435   4.335   3.720   1.328 -0.3531  0.2774 -0.9149
  160TMC2    C3 2436   4.429   3.678   1.244  0.0573  0.8458 -0.7414
  160TMC2    C4 2437   4.506   3.817   1.461 -0.2864 -0.6741  0.1307
  160TMC2    C5 2438   4.598   3.746   1.385  0.2456 -0.1730  0.6197
  160TMC2    C6 2439   4.559   3.687   1.270  0.7602  0.6858 -0.1913
  160TMC2     C 2440   4.284   3.816   1.549 -0.0239  0.2967 -0.6285
  160TMC2     O 2441   4.327   3.799   1.663  0.1018 -0.4033 -0.0240
  160TMC2     H 2442   4.231   3.691   1.321  0.3459 -2.8358  1.8144
  160TMC2    H1 2443   4.541   3.871   1.549 -1.7011 -0.2111  0.4010
  160TMC2    H2 2444   4.634   3.640   1.207  1.7876  1.2795  0.5944
  160TMC2    C7 2445   0.010   3.719   1.440 -0.0105 -0.3576 -0.0400
  160TMC2    C8 2446   4.388   3.604   1.132 -0.2510 -0.3534 -0.0767
  160TMC2    O1 2447   0.060   3.808   1.507 -0.3962  0.4808 -0.1846
  160TMC2    O2 2448   4.269   3.572   1.114 -0.4004 -0.5862  0.2120
  160TMC2    O5 2449   4.471   3.633   1.032  0.2158 -0.1319 -0.6428
  160TMC2    H5 2450   4.555   3.665   1.071  0.4557 -0.0621 -1.2199
  161MPD2     C 2451   4.056   3.863   1.730 -0.6290  0.3932  0.3781
  161MPD2    C1 2452   4.042   3.858   1.596  0.2246  0.4040  0.4406
  161MPD2    C2 2453   3.908   3.870   1.549  0.4893  0.7023 -0.7413
  161MPD2    C3 2454   3.796   3.876   1.633 -1.0722  0.3288  0.1308
  161MPD2    C4 2455   3.822   3.866   1.765  0.1107 -0.9348  0.5848
  161MPD2    C5 2456   3.951   3.862   1.818 -0.6678 -0.0046  0.2779
  161MPD2     H 2457   3.896   3.874   1.442  2.0225 -0.3292 -0.9540
  161MPD2    H1 2458   3.740   3.862   1.836 -2.2619 -1.3257 -2.1900
  161MPD2    H2 2459   4.153   3.862   1.779  0.4265  0.9439 -1.7141
  161MPD2    H3 2460   3.971   3.862   1.924 -0.4009 -0.1342  0.2291
  161MPD2     N 2461   3.664   3.886   1.595  0.5362 -0.6694 -0.3491
  161MPD2    H5 2462   3.598   3.904   1.670 -0.3983 -0.2355 -1.2591
  161MPD2    N1 2463   4.152   3.845   1.511  0.0294 -0.7153  0.2809
  161MPD2    H7 2464   4.132   3.839   1.411  0.1260  1.2029  0.1424
  162TMC2    C1 2465   2.279   0.169   0.632  0.0538 -0.0919  0.5492
  162TMC2    C2 2466   2.202   0.248   0.547  0.8775 -0.2997 -0.5513
  162TMC2    C3 2467   2.068   0.228   0.543 -0.2333  0.2727  1.2209
  162TMC2    C4 2468   2.227   0.075   0.718  0.1646  0.1916 -0.5722
  162TMC2    C5 2469   2.091   0.049   0.697  0.1784 -0.0431  0.5954
  162TMC2    C6 2470   2.015   0.126   0.614  0.7727 -0.4366  0.4203
  162TMC2     C 2471   2.413   0.218   0.647  0.4005 -0.5848  0.2139
  162TMC2     O 2472   2.463   0.279   0.555  0.1139 -0.1699 -0.0245
  162TMC2     H 2473   2.253   0.317   0.482  1.1007  1.6320  1.6773
  162TMC2    H1 2474   2.293   0.010   0.775  0.3632 -0.2952 -1.3467
  162TMC2    H2 2475   1.911   0.101   0.598  0.8244 -0.1503 -0.3438
  162TMC2    C7 2476   2.022   4.667   0.767 -0.0767 -0.3337 -0.0506
  162TMC2    C8 2477   2.016   0.255   0.419 -0.4883  0.1351 -0.4155
  162TMC2    O1 2478   1.912   4.636   0.723  0.5197  0.4256 -0.4210
  162TMC2    O2 2479   2.081   0.245   0.314 -0.2138 -0.6520 -0.9100
  162TMC2    O5 2480   1.886   0.291   0.426 -0.3073 -0.0718 -0.8442
  162TMC2    H5 2481   1.855   0.305   0.518 -0.9144 -0.5083 -0.9834
  163MPD2     C 2482   2.852   0.259   0.901 -0.0728  0.3229  0.2436
  163MPD2    C1 2483   2.810   0.316   0.784  0.1031  0.0247  0.0440
  163MPD2    C2 2484   2.685   0.301   0.737 -0.3746  0.6193  0.4376
  163MPD2    C3 2485   2.589   0.224   0.817 -0.3879  0.7169  0.2874
  163MPD2    C4 2486   2.623   0.177   0.939  0.3072 -0.1365  0.8393
  163MPD2    C5 2487   2.759   0.196   0.976 -0.2234  0.4390 -0.2138
  163MPD2     H 2488   2.651   0.337   0.641  0.9691 -2.5780 -1.2384
  163MPD2    H1 2489   2.556   0.117   0.999 -1.9025 -2.0155 -3.4926
  163MPD2    H2 2490   2.952   0.276   0.939  1.1455 -1.2334 -2.2959
  163MPD2    H3 2491   2.777   0.153   1.073  0.7052  1.6520  0.1565
  163MPD2     N 2492   2.459   0.196   0.775  0.8893  0.0170 -0.0687
  163MPD2    H5 2493   2.394   0.163   0.846 -0.1204  2.4243  0.1540
  163MPD2    N1 2494   2.911   0.394   0.723  0.2133  0.2719  0.5788
  163MPD2    H7 2495   2.994   0.419   0.777  0.3719 -0.6491  0.7696
  164TCq2    C1 2496   3.042   0.330  11.160  0.5153  0.2247  0.4705
  164TCq2    O2 2497   3.017   0.222  11.212  0.3662  0.4187 -0.1834
  164TCq2    C2 2498   3.064   0.443  11.242  0.0744  0.1749  0.4002
  164TCq2    C3 2499   3.101   0.415  11.376 -0.2731 -0.1290  0.2042
  164TCq2    C4 2500   3.133   0.533  11.451  0.0151 -1.0611 -0.6380
  164TCq2    C5 2501   3.117   0.658  11.401 -0.0859  0.5681  0.3113
  164TCq2    C6 2502   3.067   0.678  11.274  0.4837 -0.3584  0.0686
  164TCq2    C7 2503   3.039   0.568  11.197  0.3661 -0.3399  0.2461
  164TCq2    C8 2504   2.980   0.789  11.241 -0.3908 -0.3167  0.4683
  164TCq2    O4 2505   2.971   0.822  11.127  0.4173  0.7888 -0.7798
  164TCq2    C9 2506   3.192   0.514  11.582 -0.5929 -0.1665  0.6626
  164TCq2    O5 2507   3.168   0.602  11.667 -0.2167  0.5308 -0.6785
  164TCq2    O6 2508   3.245   0.402  11.601  0.4714  0.0048 -0.1757
  164TCq2    H2 2509   3.106   0.314  11.414  1.0629 -0.3645 -0.6151
  164TCq2    H3 2510   3.155   0.741  11.459 -1.6415 -0.4995  2.8699
  164TCq2    H4 2511   2.996   0.584  11.099 -1.0333  1.0859  1.1000
  165MPD2     C 2512   3.833   1.323   2.392 -0.6670  0.8151  0.3072
  165MPD2    C1 2513   3.852   1.358   2.264 -0.1770  0.1340 -0.6498
  165MPD2    C2 2514   3.970   1.427   2.232  0.2200 -0.4219  0.8921
  165MPD2    C3 2515   4.061   1.454   2.338  0.7983 -0.7747 -0.1942
  165MPD2    C4 2516   4.032   1.415   2.465 -0.5865 -1.8172  0.1307
  165MPD2    C5 2517   3.918   1.350   2.493  0.2995  0.6642 -0.1908
  165MPD2     H 2518   3.980   1.455   2.127 -0.0294  1.4226  1.3655
  165MPD2    H1 2519   4.116   1.442   2.528 -1.4306 -0.3252  0.6297
  165MPD2    H2 2520   3.740   1.279   2.424  0.6616 -1.1261  1.5169
  165MPD2    H3 2521   3.891   1.329   2.596 -1.8353  2.9638 -0.2802
  165MPD2     N 2522   4.188   1.518   2.319 -0.7818 -0.5945  0.1303
  165MPD2    H5 2523   4.224   1.556   2.406  2.8622  0.9421 -2.0637
  165MPD2    N1 2524   3.754   1.313   2.166  0.7875 -0.5555 -0.6053
  165MPD2    H7 2525   3.697   1.236   2.198 -1.0634  1.5798  1.2936
  166TCq2    C1 2526   4.247   1.545   2.196 -0.0172 -0.4929  0.7012
  166TCq2    O2 2527   4.203   1.532   2.081 -0.2559 -0.3531  0.3369
  166TCq2    C2 2528   4.381   1.603   2.209 -0.6036  1.0399  0.0392
  166TCq2    C3 2529   4.459   1.582   2.324 -0.0351 -0.2090  0.9156
  166TCq2    C4 2530   4.580   1.649   2.334  0.3250  0.1855  0.0454
  166TCq2    C5 2531   4.631   1.723   2.234 -0.0856  0.6592  0.1124
  166TCq2    C6 2532   4.555   1.729   2.117  0.0571 -0.1820 -0.2612
  166TCq2    C7 2533   4.427   1.673   2.105  0.0272  0.1896  0.7924
  166TCq2    C8 2534   4.623   1.761   1.998 -0.6369  0.3748 -0.1618
  166TCq2    O4 2535   0.017   1.794   2.003  0.4528 -0.1590  0.2625
  166TCq2    C9 2536   4.668   1.614   2.445  0.9478 -0.1249 -0.0056
  166TCq2    O5 2537   4.603   1.547   2.530  0.1566  0.0732  0.4612
  166TCq2    O6 2538   0.062   1.653   2.445 -0.5496  0.1016  0.6113
  166TCq2    H2 2539   4.428   1.508   2.397 -2.6669  0.1243  0.1486
  166TCq2    H3 2540   0.010   1.758   2.240  0.7487 -1.7815  0.1231
  166TCq2    H4 2541   4.374   1.668   2.011 -0.7851 -2.4780  1.4008
  167TMC2    C1 2542   2.522   0.122  12.924  0.2722 -0.4159 -0.4850
  167TMC2    C2 2543   2.463   0.054  13.022  0.0455 -0.1719  0.1946
  167TMC2    C3 2544   2.543   4.693  13.096 -0.2492 -0.7317 -0.1984
  167TMC2    C4 2545   2.654   0.112  12.892 -0.1432  0.2847  0.3848
  167TMC2    C5 2546   2.726   0.018  12.967  0.1419 -0.4503 -0.5815
  167TMC2    C6 2547   2.676   4.669  13.075 -0.0776 -0.4843  0.4982
  167TMC2     C 2548   2.443   0.222  12.850 -0.0848 -0.2024  0.2015
  167TMC2     O 2549   2.338   0.253  12.896  0.0118  0.0016 -0.0832
  167TMC2     H 2550   2.356   0.066  13.034  0.0640  0.6066 -0.4006
  167TMC2    H1 2551   2.699   0.176  12.818  2.2100 -2.1472 -0.3039
  167TMC2    H2 2552   2.729   4.585  13.117  1.4920  1.4260  2.2759
  167TMC2    C7 2553   2.867   4.718  12.932  0.5961 -0.9621 -0.7593
  167TMC2    C8 2554   2.470   4.616  13.190  0.3713  0.5882  0.0594
  167TMC2    O1 2555   2.943   4.677  13.018 -0.3059  0.6692  0.4733
  167TMC2    O2 2556   2.352   4.586  13.174 -0.0673 -0.1264 -0.2421
  167TMC2    O5 2557   2.540   4.589  13.298  0.1807 -0.2233 -0.2299
  167TMC2    H5 2558   2.631   4.625  13.300  0.1653 -0.1057 -1.3896
  168MPD2     C 2559   2.340   0.442  12.677 -0.8564 -0.3951  0.3328
  168MPD2    C1 2560   2.461   0.377  12.663  0.1935 -0.0153  0.2478
  168MPD2    C2 2561   2.538   0.396  12.550 -0.3816 -0.1139  0.5455
  168MPD2    C3 2562   2.497   0.485  12.446 -0.2141 -0.1075  0.4117
  168MPD2    C4 2563   2.369   0.543  12.462  0.3794  0.2375 -0.1163
  168MPD2    C5 2564   2.301   0.535  12.585 -0.3825  1.0799  0.4985
  168MPD2     H 2565   2.632   0.345  12.539 -0.0388  0.9899 -1.8712
  168MPD2    H1 2566   2.315   0.603  12.390 -0.8700 -0.7769 -0.0276
  168MPD2    H2 2567   2.288   0.434  12.772 -0.0985 -0.1571  0.7699
  168MPD2    H3 2568   2.206   0.586  12.592 -0.6190  0.2100  3.6479
  168MPD2     N 2569   2.565   0.492  12.326  0.4003 -0.3757  0.1616
  168MPD2    H5 2570   2.642   0.428  12.316  1.3133  0.9846 -1.5395
  168MPD2    N1 2571   2.505   0.276  12.740  0.5765 -0.3644 -0.2734
  168MPD2    H7 2572   2.592   0.231  12.713  1.0014  0.8350 -0.8719
  169MPD1     C 2573   4.237   4.671   9.704 -0.1613 -0.1507 -0.5684
  169MPD1    C1 2574   4.372   4.637   9.686 -0.1210  0.1155 -0.5602
  169MPD1    C2 2575   4.402   4.506   9.652 -0.5447  0.1446 -0.0173
  169MPD1    C3 2576   4.303   4.408   9.657 -1.3004  0.6234 -0.3124
  169MPD1    C4 2577   4.167   4.443   9.685  0.9006 -0.4477 -0.1301
  169MPD1    C5 2578   4.144   4.575   9.706  0.0028 -0.1180 -0.4489
  169MPD1     H 2579   4.501   4.473   9.625  0.3196  1.6038  1.3907
  169MPD1    H1 2580   4.090   4.374   9.718  1.1810 -0.0104  1.4509
  169MPD1    H2 2581   4.205   0.049   9.726  1.5552  0.2448  0.0744
  169MPD1    H3 2582   4.042   4.602   9.733  0.1870 -1.1280  1.3214
  169MPD1     N 2583   4.348   4.277   9.631  0.4999 -0.0898  0.2278
  169MPD1    H5 2584   4.446   4.264   9.608  0.4980 -1.3936  0.9798
  169MPD1    N1 2585   4.473   0.010   9.703  0.1916 -0.5777  0.0109
  169MPD1    H6 2586   4.439   0.106   9.702 -0.5439 -0.8348  1.0628
  169MPD1    H7 2587   4.548   4.708   9.639 -0.3352 -0.2551 -0.7538
  170MPD1     C 2588   3.104   2.401  12.894  0.0507  0.1627  0.5049
  170MPD1    C1 2589   3.118   2.543  12.888 -0.5394 -0.0924  0.7567
  170MPD1    C2 2590   3.205   2.595  12.982  0.1666 -0.1562  0.6133
  170MPD1    C3 2591   3.289   2.518  13.062  0.2439 -1.1180 -0.3300
  170MPD1    C4 2592   3.290   2.376  13.045 -0.8169  0.3475 -0.5923
  170MPD1    C5 2593   3.198   2.325  12.961  0.0239 -0.1634  0.1762
  170MPD1     H 2594   3.215   2.702  12.996  1.8012 -0.0830 -1.1104
  170MPD1    H1 2595   3.357   2.318  13.107  0.9993  3.1075  0.0340
  170MPD1    H2 2596   3.022   2.355  12.840  0.2127  0.9227 -0.3924
  170MPD1    H3 2597   3.187   2.218  12.947  0.5252 -0.1665 -0.1768
  170MPD1     N 2598   3.374   2.580  13.157  0.4311 -0.2161 -0.1308
  170MPD1    H5 2599   3.360   2.680  13.158 -2.4597 -0.6298  1.4446
  170MPD1    N1 2600   3.018   2.627  12.839 -0.3570 -0.4716  0.4250
  170MPD1    H6 2601   2.976   2.588  12.755 -1.4112  1.1350  0.1923
  170MPD1    H7 2602   3.046   2.725  12.836 -0.8857 -0.3527 -0.5523
  171MPD1     C 2603   2.106   3.322  15.258  0.1872 -0.8429 -0.2335
  171MPD1    C1 2604   2.119   3.206  15.182 -0.0315  0.1650 -0.1146
  171MPD1    C2 2605   2.147   3.086  15.246 -0.0663 -0.5285  0.1491
  171MPD1    C3 2606   2.195   3.088  15.381  0.4238 -0.5694 -0.0089
  171MPD1    C4 2607   2.190   3.209  15.444 -0.8325  0.1741 -0.4721
  171MPD1    C5 2608   2.140   3.327  15.391 -0.7566 -0.2182 -0.3372
  171MPD1     H 2609   2.142   2.996  15.186  0.6542  0.7429 -1.8175
  171MPD1    H1 2610   2.235   3.226  15.541  0.2385 -3.2545 -0.3677
  171MPD1    H2 2611   2.061   3.415  15.225  0.8937 -0.8374 -1.1651
  171MPD1    H3 2612   2.122   3.409  15.459 -1.9353  0.0529 -0.9793
  171MPD1     N 2613   2.252   2.990  15.455  0.2304  0.2396 -0.5721
  171MPD1    H5 2614   2.266   3.012  15.553  1.0283 -0.5072 -0.5120
  171MPD1    N1 2615   2.059   3.202  15.057 -0.2840  0.2380 -0.0139
  171MPD1    H6 2616   2.080   3.124  14.995  0.0254 -0.8546  1.4623
  171MPD1    H7 2617   2.079   3.291  15.011  3.9615 -0.6286  0.1008
  172MPD1     C 2618   1.673   1.920  17.259 -0.2160 -0.4617  0.4614
  172MPD1    C1 2619   1.678   1.961  17.390 -0.4185  0.1387 -0.6875
  172MPD1    C2 2620   1.672   2.097  17.424 -0.5955 -0.6865  0.7304
  172MPD1    C3 2621   1.684   2.192  17.326  1.1412 -0.1804 -0.4811
  172MPD1    C4 2622   1.701   2.146  17.200  0.0497  0.5530 -0.7191
  172MPD1    C5 2623   1.695   2.011  17.166  0.1842  0.2720 -0.1023
  172MPD1     H 2624   1.682   2.131  17.527 -0.8521  0.2544  0.4468
  172MPD1    H1 2625   1.695   2.214  17.116  2.7791 -0.5595 -1.7841
  172MPD1    H2 2626   1.655   1.815  17.238  0.8106 -0.6216  0.4102
  172MPD1    H3 2627   1.698   1.986  17.060 -0.5607 -1.1971  0.2288
  172MPD1     N 2628   1.684   2.331  17.345  0.6993 -0.5838 -0.4346
  172MPD1    H5 2629   1.717   2.395  17.274 -1.3727 -0.1165 -0.9788
  172MPD1    N1 2630   1.644   1.869  17.486 -0.9941  0.6097  0.1398
  172MPD1    H6 2631   1.694   1.899  17.570  0.8530  1.5519 -1.3181
  172MPD1    H7 2632   1.686   1.782  17.455 -1.1048  1.1890 -1.6077
  173MPD1     C 2633   2.689   2.941  13.967 -0.4923 -0.5403 -0.5748
  173MPD1    C1 2634   2.764   2.828  13.952  0.0717  0.5197 -0.5401
  173MPD1    C2 2635   2.704   2.707  13.989  0.0916 -0.2485  0.1542
  173MPD1    C3 2636   2.584   2.694  14.052  0.0551 -0.4243  0.0084
  173MPD1    C4 2637   2.522   2.809  14.090 -0.4662 -0.3056  0.2677
  173MPD1    C5 2638   2.566   2.926  14.031 -1.0997 -0.0372  0.0349
  173MPD1     H 2639   2.767   2.618  13.984 -0.4884 -0.7275  1.3786
  173MPD1    H1 2640   2.426   2.825  14.139  0.1411 -0.3763  1.4689
  173MPD1    H2 2641   2.706   3.041  13.930  1.0315  0.0262  1.7069
  173MPD1    H3 2642   2.507   3.015  14.047 -1.1795 -0.0310 -0.2888
  173MPD1     N 2643   2.539   2.571  14.104 -0.2270  0.1922  0.3071
  173MPD1    H5 2644   2.583   2.491  14.061  1.1327  1.3203 -0.3939
  173MPD1    N1 2645   2.885   2.843  13.875  0.3736  0.0242  0.0238
  173MPD1    H6 2646   2.968   2.790  13.897  0.6758  0.3913 -0.2325
  173MPD1    H7 2647   2.922   2.938  13.881  2.4244 -0.9270  2.1304
  174MPD1     C 2648   2.544   1.920  13.584  0.5984 -0.2731 -0.1680
  174MPD1    C1 2649   2.487   1.853  13.690  0.0330  0.4377 -1.0785
  174MPD1    C2 2650   2.436   1.927  13.798 -0.2856  0.5384 -0.5636
  174MPD1    C3 2651   2.474   2.063  13.807 -0.0817  0.6410  0.1313
  174MPD1    C4 2652   2.544   2.127  13.707 -0.1807  0.2646 -0.1491
  174MPD1    C5 2653   2.576   2.054  13.595  0.0036 -0.3360 -0.3650
  174MPD1     H 2654   2.386   1.872  13.876 -0.6037 -1.2959 -2.0761
  174MPD1    H1 2655   2.577   2.230  13.713 -2.7038  1.2218 -2.5752
  174MPD1    H2 2656   2.580   1.868  13.495 -0.1267  1.0524 -1.2285
  174MPD1    H3 2657   2.632   2.098  13.513 -0.2330  0.6942  0.0241
  174MPD1     N 2658   2.456   2.142  13.921 -1.0259 -0.0287  0.2071
  174MPD1    H5 2659   2.501   2.233  13.931 -1.1463  0.1950 -1.3955
  174MPD1    N1 2660   2.457   1.714  13.682  0.4086 -0.2420  0.2339
  174MPD1    H6 2661   2.461   1.684  13.779 -0.0299  2.0589  0.9735
  174MPD1    H7 2662   2.516   1.664  13.617 -2.1635 -2.7101 -0.2033
  175MPD1     C 2663   1.234   4.101  15.386  0.1865  0.0084  0.5586
  175MPD1    C1 2664   1.126   4.153  15.446 -0.1881 -0.1463 -0.6723
  175MPD1    C2 2665   1.048   4.070  15.527 -0.2488 -0.1132  0.2486
  175MPD1    C3 2666   1.078   3.935  15.541  0.6629  0.3098  0.1228
  175MPD1    C4 2667   1.190   3.883  15.481 -0.9673  0.0457 -0.6580
  175MPD1    C5 2668   1.267   3.964  15.403 -0.1026 -0.5194  0.2753
  175MPD1     H 2669   0.961   4.114  15.574  0.5751  0.6518  1.0552
  175MPD1    H1 2670   1.231   3.784  15.503  0.2469  0.3801 -1.4267
  175MPD1    H2 2671   1.299   4.156  15.319  0.5777 -0.6855  0.3720
  175MPD1    H3 2672   1.356   3.927  15.354 -0.6546 -1.5404  0.0450
  175MPD1     N 2673   0.997   3.841  15.618 -0.1905  0.2060  0.4938
  175MPD1    H5 2674   1.032   3.746  15.627  0.2316  0.4351  1.2011
  175MPD1    N1 2675   1.076   4.275  15.406 -0.3656 -0.3186 -0.1152
  175MPD1    H6 2676   1.024   4.324  15.479 -0.5281 -0.0388 -0.4194
  175MPD1    H7 2677   1.153   4.331  15.369 -1.0881 -0.1735 -1.3909
  176MPD1     C 2678   2.872   4.527  16.321 -0.1888 -0.1143 -0.1148
  176MPD1    C1 2679   2.948   4.555  16.437 -0.3903 -0.8733 -0.0314
  176MPD1    C2 2680   2.901   4.641  16.532 -0.0825  0.5281  0.1323
  176MPD1    C3 2681   2.768   4.687  16.518  0.2827  0.0134 -0.2311
  176MPD1    C4 2682   2.696   4.660  16.401 -0.3017  0.6120 -0.0866
  176MPD1    C5 2683   2.745   4.574  16.311 -0.8742  1.0686  0.1879
  176MPD1     H 2684   2.964   4.676  16.613  3.2344 -1.7854 -1.4207
  176MPD1    H1 2685   2.591   4.686  16.389 -0.0234  1.4274 -0.7084
  176MPD1    H2 2686   2.907   4.460  16.244 -3.3255 -0.5909 -1.1384
  176MPD1    H3 2687   2.689   4.530  16.229  0.3125  2.1322 -1.1983
  176MPD1     N 2688   2.711   0.022  16.636  0.1484 -0.0787 -0.3667
  176MPD1    H5 2689   2.756   0.026  16.727  0.2733 -5.0852 -0.1912
  176MPD1    N1 2690   3.083   4.507  16.439  0.4636 -0.2861 -0.2926
  176MPD1    H6 2691   3.102   4.434  16.370 -0.3365  0.5647 -1.4076
  176MPD1    H7 2692   3.126   4.488  16.530  1.0039  2.4401  0.0223
  177MPD1     C 2693   1.326   0.334   9.537  0.5616 -0.0089  0.4001
  177MPD1    C1 2694   1.202   0.365   9.587 -0.4910 -0.4935  1.0484
  177MPD1    C2 2695   1.148   0.481   9.545 -1.5504  0.4988 -0.0889
  177MPD1    C3 2696   1.222   0.572   9.474 -0.2332 -1.3852 -0.2060
  177MPD1    C4 2697   1.355   0.539   9.436 -0.2044 -0.0029 -0.4491
  177MPD1    C5 2698   1.408   0.417   9.472  0.1925  0.4156  0.7875
  177MPD1     H 2699   1.047   0.508   9.573 -2.0436 -1.5369  0.1056
  177MPD1    H1 2700   1.405   0.607   9.368  0.1273  2.7327  2.5179
  177MPD1    H2 2701   1.361   0.234   9.559 -0.2713 -0.9969 -2.6994
  177MPD1    H3 2702   1.509   0.386   9.447 -0.0142 -0.2026  0.7225
  177MPD1     N 2703   1.160   0.695   9.449 -0.0175 -0.2738 -0.4848
  177MPD1    H5 2704   1.064   0.712   9.476 -0.0423 -3.4484  1.4952
  177MPD1    N1 2705   1.127   0.259   9.643 -0.1108 -0.3513 -0.1161
  177MPD1    H6 2706   1.058   0.295   9.708 -0.5801 -1.5267  0.0414
  177MPD1    H7 2707   1.179   0.185   9.691  1.6384  0.3478 -0.9187
  178MPD1     C 2708   3.223   1.651   0.147  0.1779 -0.6366 -0.4614
  178MPD1    C1 2709   3.186   1.530   0.096  0.3049 -0.0495  0.1777
  178MPD1    C2 2710   3.272   1.466   0.010  0.0843 -0.1073  0.0266
  178MPD1    C3 2711   3.390   1.525  17.669 -1.0586 -0.3434  0.6638
  178MPD1    C4 2712   3.424   1.644   0.023 -0.1114 -0.1963 -0.7257
  178MPD1    C5 2713   3.339   1.713   0.107 -0.0678 -0.2695  0.0055
  178MPD1     H 2714   3.248   1.367  17.667 -0.0466  0.9119 -2.5422
  178MPD1    H1 2715   3.513   1.695  17.683 -0.2950  0.9232  0.4433
  178MPD1    H2 2716   3.159   1.699   0.220  0.2714  0.5748 -1.1803
  178MPD1    H3 2717   3.373   1.812   0.137  1.0557 -0.9134  0.8247
  178MPD1     N 2718   3.482   1.476  17.571  0.2406  0.1232  0.2684
  178MPD1    H5 2719   3.564   1.533  17.558  0.9859 -1.0377 -0.0900
  178MPD1    N1 2720   3.056   1.475   0.113 -0.1057  0.5001  0.5518
  178MPD1    H6 2721   3.049   1.393   0.053 -4.1782  1.0529  0.2535
  178MPD1    H7 2722   2.994   1.547   0.076 -0.7601 -0.1911  0.2934
  179MPD1     C 2723   3.312   4.717  15.900  0.2485  0.5954 -0.2693
  179MPD1    C1 2724   3.295   4.653  15.777  0.9828 -0.9697  0.1862
  179MPD1    C2 2725   3.284   4.512  15.772 -0.1004 -0.8425  0.1644
  179MPD1    C3 2726   3.269   4.439  15.886 -0.3327  0.3931  0.6756
  179MPD1    C4 2727   3.286   4.509  16.007 -0.0969  0.5237  0.3607
  179MPD1    C5 2728   3.302   4.643  16.016 -0.0015 -0.0823 -0.6224
  179MPD1     H 2729   3.265   4.464  15.676 -1.3413 -0.4282  0.2032
  179MPD1    H1 2730   3.269   4.464  16.105 -1.5630 -0.7805 -0.4990
  179MPD1    H2 2731   3.315   0.102  15.900 -0.7240  0.6189 -2.1298
  179MPD1    H3 2732   3.311   4.680  16.118  1.2140 -0.6358 -0.5303
  179MPD1     N 2733   3.260   4.302  15.904  0.1895 -0.6708 -0.1219
  179MPD1    H5 2734   3.245   4.273  16.000 -2.9940  0.1712 -0.3598
  179MPD1    N1 2735   3.305   0.007  15.664  0.5750 -0.7530  0.0350
  179MPD1    H6 2736   3.280   4.676  15.582 -1.4884  0.0317  0.1303
  179MPD1    H7 2737   3.258   0.097  15.671 -1.9112 -2.0654  0.0862
  180MPD1     C 2738   3.522   0.322  15.032  0.2489  0.0794  0.1315
  180MPD1    C1 2739   3.575   0.439  14.993 -0.1457 -0.0977  0.2325
  180MPD1    C2 2740   3.496   0.542  14.954  0.3094 -0.0262 -0.3969
  180MPD1    C3 2741   3.360   0.533  14.951  0.5624  0.6856  0.5309
  180MPD1    C4 2742   3.303   0.420  14.995 -0.7280 -0.1661 -0.1031
  180MPD1    C5 2743   3.386   0.315  15.026  0.1618 -0.1833  0.5098
  180MPD1     H 2744   3.541   0.638  14.931 -1.6268  1.0452  0.3041
  180MPD1    H1 2745   3.197   0.401  14.995 -0.6768 -0.5262  2.8536
  180MPD1    H2 2746   3.581   0.237  15.064  0.7074  0.1288 -0.6058
  180MPD1    H3 2747   3.345   0.216  15.038 -1.1914  0.4672  1.2425
  180MPD1     N 2748   3.282   0.637  14.892  0.0626  0.1146 -0.2206
  180MPD1    H5 2749   3.328   0.708  14.838  0.3395 -0.7529 -1.1176
  180MPD1    N1 2750   3.714   0.452  15.002  0.1619  0.0305 -0.2320
  180MPD1    H6 2751   3.744   0.395  15.081  1.1700  0.2499 -0.4539
  180MPD1    H7 2752   3.736   0.543  15.042 -1.0695  0.3144 -0.1957
  181MPD1     C 2753   4.155   2.703  10.073 -0.2768  0.1278 -0.0812
  181MPD1    C1 2754   4.256   2.675   9.988 -0.1059 -1.4002 -0.1279
  181MPD1    C2 2755   4.324   2.784   9.934  0.0392 -0.2052  0.0527
  181MPD1    C3 2756   4.297   2.915   9.977 -0.2890  0.2473 -0.6751
  181MPD1    C4 2757   4.200   2.941  10.069 -0.5363 -0.5952 -0.6080
  181MPD1    C5 2758   4.134   2.834  10.116 -0.3860 -0.4638 -0.1890
  181MPD1     H 2759   4.395   2.762   9.855  0.9422  0.5636  0.6509
  181MPD1    H1 2760   4.184   3.043  10.103  0.8716  0.0192 -1.8223
  181MPD1    H2 2761   4.093   2.620  10.106  0.4691 -1.2138 -2.0115
  181MPD1    H3 2762   4.056   2.838  10.191  1.0834 -0.5681  1.3361
  181MPD1     N 2763   4.360   3.031   9.932 -0.5988 -0.1338  0.2650
  181MPD1    H5 2764   4.344   3.116   9.985 -0.0039 -0.7988  1.5128
  181MPD1    N1 2765   4.281   2.544   9.946  1.3739  0.5912 -0.6799
  181MPD1    H6 2766   4.259   2.479  10.021  2.4008  0.4135 -0.5273
  181MPD1    H7 2767   4.379   2.530   9.925  1.5264 -0.6421  0.8481
  182MPD1     C 2768   1.342   0.725   1.333  0.1959  0.5187 -0.3639
  182MPD1    C1 2769   1.276   0.694   1.448  0.0279 -0.2195  0.0191
  182MPD1    C2 2770   1.156   0.765   1.465  0.5117 -0.1793 -0.2849
  182MPD1    C3 2771   1.097   0.844   1.370 -0.0558  0.3005  0.2507
  182MPD1    C4 2772   1.159   0.846   1.250  0.0889 -0.1092  0.1118
  182MPD1    C5 2773   1.287   0.795   1.239 -0.0062 -0.5000  1.0596
  182MPD1     H 2774   1.109   0.756   1.562  0.4078  1.4049 -0.1962
  182MPD1    H1 2775   1.122   0.903   1.165  1.1587  0.2259 -0.1221
  182MPD1    H2 2776   1.441   0.685   1.315  1.0241  3.3265 -1.9459
  182MPD1    H3 2777   1.340   0.817   1.147 -1.8520 -2.0315 -0.4089
  182MPD1     N 2778   0.974   0.917   1.391 -0.1745 -0.0892  0.4364
  182MPD1    H5 2779   0.935   0.977   1.320 -0.3046 -0.0989  0.4989
  182MPD1    N1 2780   1.329   0.618   1.550 -0.0086  0.2030 -0.1273
  182MPD1    H6 2781   1.401   0.558   1.509  0.3159 -1.7001  3.2691
  182MPD1    H7 2782   1.259   0.567   1.603  1.0547 -1.5021 -0.3660
  183MPD1     C 2783   1.606   4.146   9.449  0.1288 -0.0912  0.5836
  183MPD1    C1 2784   1.489   4.080   9.419 -0.1800  0.2530 -0.6346
  183MPD1    C2 2785   1.494   3.946   9.419 -0.0854  0.6338 -0.2124
  183MPD1    C3 2786   1.605   3.871   9.451  0.2143  0.2935 -0.3655
  183MPD1    C4 2787   1.717   3.941   9.483  0.4028  0.1384  0.4277
  183MPD1    C5 2788   1.720   4.073   9.468  0.1927  0.7253 -0.4353
  183MPD1     H 2789   1.403   3.892   9.395  0.5492  1.3960 -4.4025
  183MPD1    H1 2790   1.813   3.898   9.510  1.6395  2.0099 -0.9686
  183MPD1    H2 2791   1.622   4.252   9.460  1.4020 -0.3517  1.3550
  183MPD1    H3 2792   1.816   4.119   9.491  0.9368 -0.9831 -0.1079
  183MPD1     N 2793   1.597   3.729   9.467  0.0490  0.1136 -0.1572
  183MPD1    H5 2794   1.507   3.681   9.470  0.1293  0.0582  1.3127
  183MPD1    N1 2795   1.373   4.150   9.370  0.0641 -0.3227  0.0466
  183MPD1    H6 2796   1.357   4.239   9.418 -0.1285 -1.0089  1.2362
  183MPD1    H7 2797   1.290   4.093   9.384 -0.9139  0.6273 -1.8678
  184MPD1     C 2798   4.719   2.203   9.874 -0.0906 -0.1824 -0.5285
  184MPD1    C1 2799   4.611   2.153   9.804  0.0542 -0.0230 -0.0843
  184MPD1    C2 2800   4.627   2.066   9.701 -0.0243  0.5178 -0.2523
  184MPD1    C3 2801   0.037   2.039   9.665 -0.5160 -0.0454 -0.2980
  184MPD1    C4 2802   0.137   2.109   9.723  0.4992  0.3282  0.6824
  184MPD1    C5 2803   0.125   2.191   9.829  0.3758 -0.1716 -0.2694
  184MPD1     H 2804   4.542   2.012   9.661  1.1206 -3.0062  2.0544
  184MPD1    H1 2805   0.234   2.092   9.679  0.3743 -1.8183  1.2441
  184MPD1    H2 2806   4.702   2.259   9.965  1.6160  0.0258 -0.3273
  184MPD1    H3 2807   0.200   2.261   9.863  1.5989 -1.2230 -0.7602
  184MPD1     N 2808   0.071   1.951   9.561  0.1493  0.0024 -0.9731
  184MPD1    H5 2809   0.170   1.952   9.540  0.2849 -1.1756 -0.3433
  184MPD1    N1 2810   4.481   2.158   9.858  0.8909  0.2403  0.2894
  184MPD1    H6 2811   4.459   2.247   9.901  1.0630 -0.1095  1.0882
  184MPD1    H7 2812   4.412   2.135   9.787 -0.5235 -1.7949  2.3434
  185MPD1     C 2813   4.345   1.105   9.237 -0.1107 -0.0521  0.4533
  185MPD1    C1 2814   4.457   1.129   9.160  0.4920  0.5425 -0.7875
  185MPD1    C2 2815   4.547   1.221   9.206  0.3332  0.8762 -0.3818
  185MPD1    C3 2816   4.524   1.308   9.312  0.1478  0.1490  0.1797
  185MPD1    C4 2817   4.412   1.286   9.387 -0.3288 -0.0938 -0.9715
  185MPD1    C5 2818   4.328   1.185   9.350  0.0162  0.8146  0.4159
  185MPD1     H 2819   4.639   1.234   9.149  1.3248 -0.3677  0.9247
  185MPD1    H1 2820   4.385   1.352   9.468  3.3401  0.4742 -0.1771
  185MPD1    H2 2821   4.267   1.037   9.204 -0.1700 -0.1813  0.8684
  185MPD1    H3 2822   4.241   1.165   9.411  0.3573  0.1531  0.6913
  185MPD1     N 2823   4.611   1.413   9.347 -0.7523  0.2824 -0.0747
  185MPD1    H5 2824   4.580   1.478   9.418 -1.8437 -0.3089 -0.0003
  185MPD1    N1 2825   4.480   1.052   9.043 -0.3815 -0.1492 -0.2719
  185MPD1    H6 2826   4.396   1.002   9.014 -0.1986 -0.4325 -0.3137
  185MPD1    H7 2827   4.511   1.109   8.965 -1.0790 -0.1607 -0.5594
  186MPD1     C 2828   3.670   4.110  15.635 -0.0670  0.4921  0.2719
  186MPD1    C1 2829   3.588   4.044  15.725  0.0466 -0.2987  0.3327
  186MPD1    C2 2830   3.558   4.118  15.844 -0.7930 -0.6616  0.2452
  186MPD1    C3 2831   3.625   4.237  15.881 -1.4546 -0.5376  0.1829
  186MPD1    C4 2832   3.708   4.294  15.792 -0.6656 -0.0357 -0.0256
  186MPD1    C5 2833   3.723   4.236  15.668  0.3191 -0.7155 -0.1856
  186MPD1     H 2834   3.492   4.070  15.916  1.8480 -0.4172  2.8436
  186MPD1    H1 2835   3.762   4.385  15.816 -0.9424  0.1437 -0.0914
  186MPD1    H2 2836   3.685   4.072  15.535  1.0837 -0.8237  0.9557
  186MPD1    H3 2837   3.781   4.283  15.589  0.6717 -0.9700 -0.0784
  186MPD1     N 2838   3.612   4.293  16.010 -0.1505 -0.1188  0.9845
  186MPD1    H5 2839   3.651   4.386  16.023  0.8344 -0.3809 -0.1287
  186MPD1    N1 2840   3.523   3.930  15.688  0.2466 -0.0618  0.4691
  186MPD1    H6 2841   3.583   3.864  15.638  3.0765  1.1376  2.2787
  186MPD1    H7 2842   3.497   3.873  15.768 -1.8189 -0.2325 -0.3420
  187MPD1     C 2843   2.484   0.583   0.405 -0.1553  0.5651 -0.0792
  187MPD1    C1 2844   2.458   0.527   0.285 -0.1881 -0.1661 -0.7573
  187MPD1    C2 2845   2.457   0.604   0.168  0.6993 -0.6448 -0.5362
  187MPD1    C3 2846   2.509   0.732   0.167  0.3946 -0.5681  0.2239
  187MPD1    C4 2847   2.543   0.786   0.281 -0.2687  0.2612 -0.4783
  187MPD1    C5 2848   2.520   0.711   0.395 -0.3627  0.8664  0.0816
  187MPD1     H 2849   2.446   0.558   0.071 -2.4631 -0.9442 -0.0374
  187MPD1    H1 2850   2.576   0.889   0.286 -0.4987  0.3359 -0.4907
  187MPD1    H2 2851   2.476   0.528   0.498  2.7098  0.8409  0.3025
  187MPD1    H3 2852   2.544   0.765   0.487 -0.7851 -2.9525  2.4455
  187MPD1     N 2853   2.512   0.819   0.061  0.2373  0.0911 -0.2290
  187MPD1    H5 2854   2.556   0.910   0.072  0.4164 -0.2401  1.7222
  187MPD1    N1 2855   2.416   0.395   0.281 -0.2192  0.1102  0.0656
  187MPD1    H6 2856   2.436   0.352   0.371  1.6529 -1.0792 -0.9135
  187MPD1    H7 2857   2.440   0.339   0.199 -1.1272 -2.1777  1.3299
  188MPD1     C 2858   2.318   2.410  10.214 -0.1691 -0.7244  0.3312
  188MPD1    C1 2859   2.248   2.424  10.100 -0.1798  0.1556 -0.8981
  188MPD1    C2 2860   2.236   2.320  10.017 -0.1442  0.3273  0.1446
  188MPD1    C3 2861   2.299   2.201  10.046  0.1687  0.8868  0.0523
  188MPD1    C4 2862   2.337   2.172  10.168 -0.0557  0.5517 -0.6442
  188MPD1    C5 2863   2.359   2.279  10.244 -0.8452  0.5074 -0.1979
  188MPD1     H 2864   2.190   2.352   9.923  0.4802  0.7634 -0.0129
  188MPD1    H1 2865   2.394   2.087  10.203  0.9702  0.7225 -1.9117
  188MPD1    H2 2866   2.329   2.485  10.292  0.2792  0.4622 -0.8755
  188MPD1    H3 2867   2.406   2.260  10.341 -0.8958 -1.6489 -0.5907
  188MPD1     N 2868   2.305   2.093   9.953 -0.9435  0.2049 -0.4016
  188MPD1    H5 2869   2.337   2.000   9.979 -0.1514  0.3053 -0.9970
  188MPD1    N1 2870   2.203   2.545  10.057  0.5648  0.6064 -0.2389
  188MPD1    H6 2871   2.155   2.599  10.128  0.2016  0.9769 -0.7650
  188MPD1    H7 2872   2.130   2.528   9.987  0.3533  1.8349 -0.3164
  189MPD1     C 2873   4.467   2.011   0.720  0.1771 -0.5603  0.3420
  189MPD1    C1 2874   4.366   1.918   0.697 -0.1243 -0.1608  0.5556
  189MPD1    C2 2875   4.253   1.959   0.640 -1.1901 -0.6448  0.2340
  189MPD1    C3 2876   4.244   2.088   0.593 -0.4167 -0.3504  0.0085
  189MPD1    C4 2877   4.332   2.181   0.627  0.2773 -0.5742  0.7791
  189MPD1    C5 2878   4.453   2.145   0.690 -0.8589 -0.3869 -0.3897
  189MPD1     H 2879   4.166   1.894   0.636  0.0732 -2.3422  0.2854
  189MPD1    H1 2880   4.323   2.287   0.609  0.9613 -0.4406  1.2397
  189MPD1    H2 2881   4.563   1.981   0.761  0.4215 -0.2658 -0.0069
  189MPD1    H3 2882   4.529   2.219   0.709 -2.7514  1.6348 -0.7176
  189MPD1     N 2883   4.134   2.138   0.522 -0.1121 -0.4279 -0.5004
  189MPD1    H5 2884   4.072   2.070   0.479 -1.2753  1.0362 -1.1374
  189MPD1    N1 2885   4.381   1.795   0.763  0.2568 -1.0969  0.2868
  189MPD1    H6 2886   4.478   1.765   0.762  0.3870 -0.6260 -1.7024
  189MPD1    H7 2887   4.318   1.726   0.722 -1.6229  0.1609  1.0508
  190MPD1     C 2888   2.784   0.326  15.254 -0.3941 -0.1763 -0.0075
  190MPD1    C1 2889   2.901   0.388  15.202 -0.2629 -1.0635  0.6613
  190MPD1    C2 2890   2.984   0.455  15.283  0.6411  0.1462  0.0331
  190MPD1    C3 2891   2.957   0.469  15.418  0.2958 -0.0765 -0.4368
  190MPD1    C4 2892   2.840   0.412  15.466  0.4568  0.2747 -0.7946
  190MPD1    C5 2893   2.757   0.348  15.382  0.4646 -0.0417  0.3314
  190MPD1     H 2894   3.086   0.482  15.256  0.4956  0.8955  0.2324
  190MPD1    H1 2895   2.809   0.407  15.570 -1.2676 -0.9304 -1.3659
  190MPD1    H2 2896   2.723   0.262  15.190 -0.1524  0.8148 -1.2267
  190MPD1    H3 2897   2.672   0.298  15.426 -0.6361  0.1476 -1.5494
  190MPD1     N 2898   3.048   0.540  15.498  0.0935  0.3279  0.0875
  190MPD1    H5 2899   3.133   0.587  15.467  2.4610 -2.9856  1.5333
  190MPD1    N1 2900   2.940   0.350  15.074  0.8046  0.2141 -0.6316
  190MPD1    H6 2901   3.002   0.419  15.033 -0.1629  0.8523 -0.9996
  190MPD1    H7 2902   2.861   0.334  15.012  0.7185 -0.1757 -0.4205
  191MPD1     C 2903   2.620   2.774  12.880  0.3033 -1.3284  0.1422
  191MPD1    C1 2904   2.501   2.748  12.811 -0.6583 -0.5106 -0.3234
  191MPD1    C2 2905   2.485   2.820  12.695  0.3635 -0.1644 -0.1824
  191MPD1    C3 2906   2.574   2.918  12.651 -0.4384  0.1518 -0.4773
  191MPD1    C4 2907   2.683   2.940  12.720  0.8455 -0.0551  0.1433
  191MPD1    C5 2908   2.708   2.866  12.834  0.4761 -0.3459 -0.1679
  191MPD1     H 2909   2.401   2.801  12.629  0.0423 -1.3027  0.5524
  191MPD1    H1 2910   2.759   3.017  12.714  1.1361 -0.3586 -0.0846
  191MPD1    H2 2911   2.631   2.729  12.977  0.5677  2.2533  1.7759
  191MPD1    H3 2912   2.795   2.894  12.891 -1.0875  0.3248  1.8857
  191MPD1     N 2913   2.535   2.993  12.536 -0.5677  0.0867 -0.1686
  191MPD1    H5 2914   2.443   2.969  12.500 -0.7554  1.1099 -0.3672
  191MPD1    N1 2915   2.424   2.639  12.843  0.4346 -0.1693 -0.1685
  191MPD1    H6 2916   2.333   2.632  12.799  0.3782 -0.3656 -0.0197
  191MPD1    H7 2917   2.422   2.618  12.942 -2.3496 -1.2356 -0.4637
  192MPD1     C 2918   2.039   3.817  12.455 -0.2957 -0.2695  0.1482
  192MPD1    C1 2919   2.061   3.709  12.542  0.3830 -0.2423  0.2865
  192MPD1    C2 2920   2.143   3.605  12.499 -0.6832  0.3997  0.5180
  192MPD1    C3 2921   2.200   3.606  12.370  0.6316 -0.5897  0.0983
  192MPD1    C4 2922   2.173   3.715  12.292 -0.8602 -0.6960  0.0505
  192MPD1    C5 2923   2.102   3.818  12.334  0.2545  0.2023 -0.7183
  192MPD1     H 2924   2.176   3.522  12.560 -1.9814 -0.2947  0.2751
  192MPD1    H1 2925   2.199   3.724  12.187  0.4197  1.5231  0.5389
  192MPD1    H2 2926   1.976   3.901  12.483 -0.9481 -1.1955  1.4712
  192MPD1    H3 2927   2.089   3.913  12.284  1.5182 -0.1219 -1.6733
  192MPD1     N 2928   2.288   3.508  12.315 -0.6603  0.2696  0.2878
  192MPD1    H5 2929   2.335   3.528  12.228 -0.7152 -3.1980 -0.5312
  192MPD1    N1 2930   2.027   3.717  12.679 -0.3408 -0.2458 -0.0177
  192MPD1    H6 2931   1.940   3.769  12.690 -0.4743 -0.5676  0.4370
  192MPD1    H7 2932   2.012   3.623  12.715  0.2347  0.0839  1.0729
  193MPD1     C 2933   2.056   2.755  15.961 -0.8008  0.3169 -0.3651
  193MPD1    C1 2934   2.031   2.869  16.038  0.3998  0.4639 -0.4864
  193MPD1    C2 2935   2.138   2.914  16.108  1.3301 -0.3129 -0.2765
  193MPD1    C3 2936   2.272   2.873  16.099 -0.1546  0.4113 -0.2639
  193MPD1    C4 2937   2.286   2.753  16.027  0.2373 -0.4412 -0.5437
  193MPD1    C5 2938   2.179   2.696  15.959  0.1045  0.1674 -0.9886
  193MPD1     H 2939   2.122   3.008  16.161  1.2084 -0.4604 -0.0499
  193MPD1    H1 2940   2.383   2.707  16.010  0.8950  0.7946 -0.0967
  193MPD1    H2 2941   1.981   2.702  15.903 -0.7500 -3.6577  3.1890
  193MPD1    H3 2942   2.202   2.614  15.893  2.0074 -0.9880  1.0883
  193MPD1     N 2943   2.377   2.922  16.180  0.3774  0.4765  0.0146
  193MPD1    H5 2944   2.466   2.874  16.186 -0.2023 -0.3237  2.2984
  193MPD1    N1 2945   1.894   2.918  16.056  1.0305  0.2671 -0.2860
  193MPD1    H6 2946   1.897   3.017  16.080  1.4488 -0.2469  1.8084
  193MPD1    H7 2947   1.820   2.891  15.991 -0.4902  1.7958  0.8231
  194MPD1     C 2948   3.377   4.188   0.033  0.2664  0.1873 -0.2715
  194MPD1    C1 2949   3.377   4.174  17.591  0.5195 -0.0789  0.6581
  194MPD1    C2 2950   3.491   4.112  17.540 -0.4988 -0.5771  0.4062
  194MPD1    C3 2951   3.605   4.101  17.615 -0.2672 -0.0712  0.0399
  194MPD1    C4 2952   3.596   4.108   0.053  0.4138  0.3737 -0.2059
  194MPD1    C5 2953   3.484   4.167   0.110 -0.2685 -0.4528  0.7840
  194MPD1     H 2954   3.512   4.087  17.437  1.3416  1.4563  0.2772
  194MPD1    H1 2955   3.678   4.087   0.121  0.3395  3.7251  0.9270
  194MPD1    H2 2956   3.284   4.210   0.085 -0.2009  0.1304 -1.0876
  194MPD1    H3 2957   3.475   4.170   0.218 -3.3579  0.1479  0.5273
  194MPD1     N 2958   3.721   4.036  17.563  0.3104  0.1725 -0.1165
  194MPD1    H5 2959   3.771   3.981  17.632  2.5894  0.4751 -1.5398
  194MPD1    N1 2960   3.264   4.200  17.522 -0.5512  0.1149  0.0934
  194MPD1    H6 2961   3.227   4.292  17.546 -1.2697  0.3472 -1.8742
  194MPD1    H7 2962   3.271   4.187  17.421 -0.9398 -0.5030  0.1459
  195MPD1     C 2963   2.444   1.320   0.396  0.1072  0.1003  0.4299
  195MPD1    C1 2964   2.408   1.352   0.264  0.3084  0.1405  0.2085
  195MPD1    C2 2965   2.322   1.268   0.201 -0.3157  0.4749 -0.7061
  195MPD1    C3 2966   2.286   1.148   0.250 -0.1431  0.4080 -0.2306
  195MPD1    C4 2967   2.331   1.111   0.374  0.3900 -0.2531  0.6807
  195MPD1    C5 2968   2.411   1.200   0.448  0.1964  0.6121 -0.0937
  195MPD1     H 2969   2.272   1.291   0.107 -1.2951  0.2659 -0.2352
  195MPD1    H1 2970   2.316   1.012   0.415 -0.1528  0.2205  1.6142
  195MPD1    H2 2971   2.499   1.383   0.465 -1.5787  3.6377 -1.4637
  195MPD1    H3 2972   2.447   1.169   0.545  3.4853 -0.1266 -1.5521
  195MPD1     N 2973   2.204   1.056   0.183  0.3981 -0.0193  0.8381
  195MPD1    H5 2974   2.183   0.963   0.221 -0.3533 -0.2792 -0.2198
  195MPD1    N1 2975   2.404   1.479   0.213  0.3106  1.0170 -0.3887
  195MPD1    H6 2976   2.391   1.490   0.113 -2.0607  0.9731 -0.0788
  195MPD1    H7 2977   2.471   1.545   0.251  1.1965 -0.3241  0.3832
  196MPD1     C 2978   0.916   0.680   0.301  0.2269  0.0163  0.3025
  196MPD1    C1 2979   0.974   0.782   0.232  0.2971 -0.4034 -0.9489
  196MPD1    C2 2980   1.084   0.845   0.291 -0.6614  0.7544 -0.6229
  196MPD1    C3 2981   1.137   0.796   0.408  0.3392  0.0269 -0.7950
  196MPD1    C4 2982   1.078   0.690   0.473 -0.6595 -0.2341  0.7181
  196MPD1    C5 2983   0.974   0.631   0.417 -0.2285  0.0513 -0.2506
  196MPD1     H 2984   1.118   0.932   0.237  3.0715 -0.1943  0.2494
  196MPD1    H1 2985   1.114   0.651   0.568 -0.9223 -2.1420  0.0342
  196MPD1    H2 2986   0.824   0.632   0.268 -1.4132  1.5326  2.6678
  196MPD1    H3 2987   0.921   0.545   0.456 -1.3880  0.9459  0.1236
  196MPD1     N 2988   1.261   0.845   0.456  0.0290 -0.4512  0.1402
  196MPD1    H5 2989   1.291   0.814   0.548  1.9095  1.1880  0.0825
  196MPD1    N1 2990   0.904   0.846   0.129 -0.0168  0.0010  0.2381
  196MPD1    H6 2991   0.834   0.785   0.088 -1.2181  0.3767  1.7423
  196MPD1    H7 2992   0.958   0.901   0.062  0.1230 -0.0532  0.3069
  197MPD1     C 2993   1.408   3.968  17.362 -0.5677 -0.1159 -0.2529
  197MPD1    C1 2994   1.330   4.076  17.386  0.2454 -1.1953 -0.7810
  197MPD1    C2 2995   1.224   4.105  17.300  0.2310 -0.9625  0.2207
  197MPD1    C3 2996   1.201   4.015  17.195  0.8799  0.6649 -0.0837
  197MPD1    C4 2997   1.279   3.910  17.172 -0.0794  0.4896 -1.2339
  197MPD1    C5 2998   1.378   3.883  17.264 -1.0270  0.6755 -0.3750
  197MPD1     H 2999   1.164   4.194  17.318 -1.5994 -2.1261 -0.1542
  197MPD1    H1 3000   1.274   3.843  17.088  0.4491  0.1698 -1.0134
  197MPD1    H2 3001   1.493   3.935  17.421 -0.6203  1.2906  0.6158
  197MPD1    H3 3002   1.444   3.798  17.256 -0.6348  1.0464 -1.1364
  197MPD1     N 3003   1.104   4.046  17.093 -0.4397  0.0462  0.5423
  197MPD1    H5 3004   1.095   3.977  17.020  0.7899 -1.0833  1.4747
  197MPD1    N1 3005   1.368   4.156  17.495 -0.6526 -0.1341 -0.7318
  197MPD1    H6 3006   1.417   4.104  17.567  0.7031 -0.5393 -1.9606
  197MPD1    H7 3007   1.284   4.198  17.533  0.5355  0.4185  1.2717
  198MPD1     C 3008   2.975   1.343  15.595  0.6811 -0.1366  0.2944
  198MPD1    C1 3009   2.922   1.471  15.591  0.5982  0.0457  0.2787
  198MPD1    C2 3010   2.978   1.563  15.679  0.0649  0.1968  0.8318
  198MPD1    C3 3011   3.069   1.524  15.779  0.4230  0.2463 -0.0073
  198MPD1    C4 3012   3.115   1.391  15.794  0.0133 -0.1010  0.1027
  198MPD1    C5 3013   3.072   1.311  15.691 -0.4824 -0.2172  0.1751
  198MPD1     H 3014   2.954   1.667  15.662 -0.7802 -0.0983  0.2558
  198MPD1    H1 3015   3.184   1.356  15.870  0.9048  0.0172 -0.6561
  198MPD1    H2 3016   2.943   1.275  15.516  0.0369 -1.0122  1.3066
  198MPD1    H3 3017   3.109   1.209  15.688  1.6022  0.6299 -2.1985
  198MPD1     N 3018   3.112   1.622  15.872 -0.4478 -0.2014 -0.0154
  198MPD1    H5 3019   3.080   1.716  15.851 -0.5828  0.4208  3.0351
  198MPD1    N1 3020   2.836   1.510  15.484 -0.0940  0.2223  0.1881
  198MPD1    H6 3021   2.780   1.429  15.456 -3.0573  1.7511  1.6036
  198MPD1    H7 3022   2.779   1.585  15.522  1.5510  1.4072  0.3036
  199MPD1     C 3023   0.604   2.949   9.635 -0.5915  0.3145 -0.2172
  199MPD1    C1 3024   0.526   2.841   9.656 -0.0115  0.3318  0.1297
  199MPD1    C2 3025   0.407   2.835   9.590  0.1414  0.1599 -0.2890
  199MPD1    C3 3026   0.353   2.943   9.525  0.4345  0.0733 -0.3788
  199MPD1    C4 3027   0.429   3.059   9.530  0.4642 -0.1949  0.0809
  199MPD1    C5 3028   0.562   3.057   9.572 -0.4162 -0.1682  0.3733
  199MPD1     H 3029   0.348   2.744   9.594  0.5187 -0.0703  0.0338
  199MPD1    H1 3030   0.395   3.142   9.470  2.4169 -0.2316 -1.0658
  199MPD1    H2 3031   0.699   2.959   9.685 -0.4559 -1.2456 -0.1421
  199MPD1    H3 3032   0.625   3.145   9.568 -0.3709 -0.1263  1.8443
  199MPD1     N 3033   0.227   2.946   9.455 -0.2612  0.1855  0.3066
  199MPD1    H5 3034   0.200   3.040   9.425 -1.2219  0.5592  2.3260
  199MPD1    N1 3035   0.579   2.725   9.715  0.4425 -0.4819 -0.4558
  199MPD1    H6 3036   0.510   2.656   9.745  0.0393 -0.6867 -1.8745
  199MPD1    H7 3037   0.638   2.760   9.790  0.6092 -0.5082 -0.5743
  200MPD1     C 3038   3.679   3.362  14.625  0.0065 -0.4837 -0.4572
  200MPD1    C1 3039   3.684   3.289  14.512  0.4472 -0.6681  0.6333
  200MPD1    C2 3040   3.810   3.268  14.460 -0.2044 -0.1433 -0.4709
  200MPD1    C3 3041   3.919   3.276  14.536  0.2259  0.5631  0.2278
  200MPD1    C4 3042   3.910   3.336  14.660 -0.1117  1.0031 -0.2549
  200MPD1    C5 3043   3.787   3.375  14.699  0.2950 -0.0154  0.0850
  200MPD1     H 3044   3.819   3.209  14.369 -0.2907 -1.1361  0.1652
  200MPD1    H1 3045   3.998   3.357  14.720 -0.0082 -2.0372  0.6247
  200MPD1    H2 3046   3.584   3.392  14.669 -0.0201  1.3385 -1.7396
  200MPD1    H3 3047   3.782   3.434  14.790 -1.8432  0.6292 -0.4609
  200MPD1     N 3048   4.036   3.250  14.472 -0.3108  0.3387  0.7726
  200MPD1    H5 3049   4.037   3.208  14.380 -2.3610  1.4954  0.2294
  200MPD1    N1 3050   3.566   3.270  14.433  0.0625 -0.3323  0.1716
  200MPD1    H6 3051   3.565   3.189  14.372  1.5164  0.1354 -0.4607
  200MPD1    H7 3052   3.488   3.264  14.498 -0.0959  0.3665  0.0408
  201MPD1     C 3053   1.637   2.557  12.920  0.3753  0.1128  0.2150
  201MPD1    C1 3054   1.648   2.517  13.050  0.1230 -0.1034  0.7632
  201MPD1    C2 3055   1.743   2.418  13.085 -0.0302 -0.0164  0.6979
  201MPD1    C3 3056   1.809   2.343  12.989 -0.6517  0.7063 -1.0367
  201MPD1    C4 3057   1.780   2.379  12.854  0.4101  0.1992 -0.6649
  201MPD1    C5 3058   1.694   2.477  12.822  0.3311  0.2156  0.1730
  201MPD1     H 3059   1.746   2.395  13.191 -0.7157 -0.3641  0.6385
  201MPD1    H1 3060   1.827   2.323  12.775 -0.5113 -1.7722  0.1769
  201MPD1    H2 3061   1.572   2.641  12.895 -1.7114 -1.4587  0.3193
  201MPD1    H3 3062   1.676   2.495  12.717  0.5467 -0.1360  0.0771
  201MPD1     N 3063   1.902   2.248  13.039 -0.3349  0.5281 -0.5781
  201MPD1    H5 3064   1.912   2.235  13.139 -1.6640  0.6487 -0.4243
  201MPD1    N1 3065   1.589   2.595  13.150  0.3669 -0.1764 -0.2555
  201MPD1    H6 3066   1.570   2.559  13.243  0.3436  1.5747  0.4321
  201MPD1    H7 3067   1.500   2.624  13.109  1.0929 -0.1651 -1.8176
  202MPD1     C 3068   1.226   2.063   9.220  0.8095  0.5459 -0.5071
  202MPD1    C1 3069   1.280   2.193   9.207 -0.0295  0.3369 -0.4386
  202MPD1    C2 3070   1.378   2.231   9.295  0.1042  0.3024 -0.2521
  202MPD1    C3 3071   1.420   2.152   9.403 -0.0271 -0.7195  0.1562
  202MPD1    C4 3072   1.362   2.028   9.419  0.2597 -0.3721  0.4567
  202MPD1    C5 3073   1.266   1.983   9.325  0.0903  0.3880 -0.8759
  202MPD1     H 3074   1.439   2.319   9.273 -1.3178  0.8702 -1.8722
  202MPD1    H1 3075   1.391   1.963   9.500 -0.7250  0.1501  1.2322
  202MPD1    H2 3076   1.152   2.032   9.147 -0.2061 -0.0646  0.7836
  202MPD1    H3 3077   1.225   1.884   9.337  0.1480  0.8834  3.3605
  202MPD1     N 3078   1.519   2.190   9.502 -0.7382 -0.0359  0.1156
  202MPD1    H5 3079   1.528   2.122   9.578 -0.8510  2.0331  1.9730
  202MPD1    N1 3080   1.271   2.253   9.079 -0.0082 -0.5918  0.0527
  202MPD1    H6 3081   1.180   2.241   9.035 -0.6002  2.7231  0.3922
  202MPD1    H7 3082   1.293   2.352   9.089 -1.0010 -0.1490 -2.2379
  203MPD1     C 3083   4.720   2.712  12.396  0.0635 -0.1841 -0.4019
  203MPD1    C1 3084   0.045   2.617  12.309 -0.4849  0.3764 -0.1681
  203MPD1    C2 3085   0.177   2.573  12.321  1.0948  0.1640 -0.2514
  203MPD1    C3 3086   0.264   2.636  12.401 -0.7000  0.4197 -0.2307
  203MPD1    C4 3087   0.216   2.734  12.494 -0.2085  0.3238 -0.7568
  203MPD1    C5 3088   0.082   2.768  12.490  0.4504 -0.0031  1.0671
  203MPD1     H 3089   0.211   2.488  12.263  0.8552 -0.9655  1.2563
  203MPD1    H1 3090   0.276   2.777  12.575 -0.3897  1.6664 -1.3410
  203MPD1    H2 3091   4.614   2.731  12.404  0.2835  0.4426  1.0658
  203MPD1    H3 3092   0.040   2.832  12.567 -1.8041  1.2655 -1.2360
  203MPD1     N 3093   0.395   2.590  12.407 -0.2466 -0.3017 -0.0507
  203MPD1    H5 3094   0.421   2.527  12.332 -1.6850  1.2496 -1.8344
  203MPD1    N1 3095   4.675   2.539  12.235  0.9595  0.4510 -0.4062
  203MPD1    H6 3096   4.722   2.493  12.158  0.7197  1.3270 -1.0714
  203MPD1    H7 3097   4.601   2.601  12.202  1.2515  2.7226  3.2045
  204MPD1     C 3098   3.931   3.646  17.058  0.0391  0.4104 -0.5073
  204MPD1    C1 3099   3.951   3.578  17.179  0.4128  0.5410  0.4796
  204MPD1    C2 3100   4.082   3.547  17.205 -0.2978 -0.8838 -0.1711
  204MPD1    C3 3101   4.183   3.578  17.117 -0.0646 -1.0487  0.1562
  204MPD1    C4 3102   4.159   3.646  17.005  0.5040  0.4332 -0.0456
  204MPD1    C5 3103   4.030   3.681  16.973 -0.2494 -0.1140 -0.0606
  204MPD1     H 3104   4.104   3.498  17.299  2.8007 -0.2187 -0.5613
  204MPD1    H1 3105   4.232   3.672  16.930 -0.6462 -1.8937 -1.9828
  204MPD1    H2 3106   3.829   3.678  17.036  0.2438  0.3689 -1.4735
  204MPD1    H3 3107   4.007   3.736  16.883 -0.4368 -0.0081  0.0540
  204MPD1     N 3108   4.313   3.525  17.143 -0.5014  0.2355 -0.0814
  204MPD1    H5 3109   4.338   3.490  17.235 -0.7405  2.1051  0.6972
  204MPD1    N1 3110   3.848   3.530  17.261 -0.1653  0.5238  0.0365
  204MPD1    H6 3111   3.759   3.579  17.253 -0.6468 -0.4464 -0.4996
  204MPD1    H7 3112   3.864   3.525  17.361  3.3073  1.9090 -0.4381
  205MPD1     C 3113   0.874   2.748  17.356  0.6192 -0.1582 -0.9917
  205MPD1    C1 3114   0.847   2.616  17.397 -0.8189 -0.2013  0.2411
  205MPD1    C2 3115   0.725   2.595  17.465 -0.1353  0.2619  0.8686
  205MPD1    C3 3116   0.646   2.698  17.508 -0.5495  0.1209  0.3004
  205MPD1    C4 3117   0.681   2.825  17.473  0.2803 -0.6528  0.3954
  205MPD1    C5 3118   0.792   2.852  17.400 -0.4509 -0.1488  0.4054
  205MPD1     H 3119   0.707   2.491  17.489 -1.1027  0.2297 -0.0559
  205MPD1    H1 3120   0.624   2.914  17.494  0.4374 -0.6486  0.8121
  205MPD1    H2 3121   0.958   2.782  17.297  1.1377 -2.4893 -1.6120
  205MPD1    H3 3122   0.804   2.955  17.368  0.0544 -1.3795 -3.3012
  205MPD1     N 3123   0.524   2.690  17.580  0.9107  0.3927 -0.1594
  205MPD1    H5 3124   0.484   2.775  17.619  0.1968  0.2846 -0.6626
  205MPD1    N1 3125   0.906   2.514  17.336  0.3461 -0.5952  0.3134
  205MPD1    H6 3126   0.905   2.432  17.397  0.0037 -1.3832 -0.7492
  205MPD1    H7 3127   1.005   2.537  17.334  0.5795 -1.4745  1.4384
  206MPD1     C 3128   0.247   0.099  17.036  0.9036 -0.8691  0.0591
  206MPD1    C1 3129   0.178   0.217  17.029  0.1274 -0.5545 -0.1605
  206MPD1    C2 3130   0.126   0.256  16.908  0.2487 -0.5191  0.2870
  206MPD1    C3 3131   0.135   0.176  16.795 -0.0939 -0.1790  0.2108
  206MPD1    C4 3132   0.178   0.049  16.812  0.3574  0.3761 -0.0910
  206MPD1    C5 3133   0.233   0.014  16.932 -0.4028 -0.4134  0.5874
  206MPD1     H 3134   0.075   0.352  16.906  1.4654  0.1508  1.8781
  206MPD1    H1 3135   0.176   4.700  16.732  0.7516 -1.1631  1.2851
  206MPD1    H2 3136   0.304   0.071  17.124 -0.4223 -2.7742  0.3174
  206MPD1    H3 3137   0.293   4.647  16.932  1.1599  0.6086 -1.6081
  206MPD1     N 3138   0.076   0.217  16.668 -0.3015  0.7650  0.3432
  206MPD1    H5 3139   0.076   0.148  16.594 -2.6976  0.4025  0.6594
  206MPD1    N1 3140   0.190   0.317  17.131  0.0544 -0.5639 -0.2280
  206MPD1    H6 3141   0.175   0.285  17.226  1.7443  0.2442  0.2976
  206MPD1    H7 3142   0.115   0.382  17.109  1.3540  0.7744 -0.6821
  207MPD1     C 3143   1.303   3.733   9.781  0.5756  0.3217 -0.0919
  207MPD1    C1 3144   1.348   3.618   9.847 -0.0936  0.1941  0.6102
  207MPD1    C2 3145   1.487   3.615   9.869  0.7483 -0.2547 -1.0029
  207MPD1    C3 3146   1.564   3.723   9.832  0.0840 -0.4517  0.1851
  207MPD1    C4 3147   1.513   3.838   9.778 -0.0697 -0.1832  0.1570
  207MPD1    C5 3148   1.378   3.843   9.745  0.3470 -0.4084  0.5928
  207MPD1     H 3149   1.533   3.534   9.923  0.5911  1.5901  1.8857
  207MPD1    H1 3150   1.577   3.917   9.739  1.4869 -0.9566  1.1708
  207MPD1    H2 3151   1.199   3.731   9.750  0.2987  0.5747  0.8106
  207MPD1    H3 3152   1.336   3.922   9.683  1.2702 -0.7186 -0.4322
  207MPD1     N 3153   1.707   3.716   9.834  0.6073  0.4692 -0.6064
  207MPD1    H5 3154   1.759   3.797   9.801  0.6439  0.4727 -0.5407
  207MPD1    N1 3155   1.261   3.506   9.878  0.1480 -0.1299  0.7711
  207MPD1    H6 3156   1.305   3.454   9.954  1.3545  0.9889  0.8455
  207MPD1    H7 3157   1.174   3.536   9.920  0.0024 -0.2030  0.5205
  208MPD1     C 3158   0.884   1.633   0.015 -0.4173  0.1327 -0.3596
  208MPD1    C1 3159   0.761   1.700  17.691  0.1259  0.1832  0.2927
  208MPD1    C2 3160   0.680   1.713   0.110  0.2173 -0.1731 -0.0558
  208MPD1    C3 3161   0.719   1.662   0.227  0.5562 -0.2285  0.5816
  208MPD1    C4 3162   0.827   1.581   0.237 -0.2435  0.0461  0.0553
  208MPD1    C5 3163   0.914   1.577   0.132 -0.1689 -0.2173 -0.4855
  208MPD1     H 3164   0.592   1.777   0.109 -0.4653 -1.1164 -0.8624
  208MPD1    H1 3165   0.865   1.545   0.332 -0.2816 -1.8002 -0.6319
  208MPD1    H2 3166   0.956   1.627  17.629 -1.7004  0.2850 -1.5035
  208MPD1    H3 3167   1.003   1.515   0.134  0.0384  0.0922 -0.1579
  208MPD1     N 3168   0.633   1.692   0.336 -0.0001  0.1948  0.3565
  208MPD1    H5 3169   0.560   1.759   0.315 -0.6020 -0.3402  0.7410
  208MPD1    N1 3170   0.740   1.777  17.577  0.1964  0.6904 -0.0165
  208MPD1    H6 3171   0.787   1.735  17.497  1.1862 -0.1644  1.0099
  208MPD1    H7 3172   0.640   1.779  17.556  0.7862  0.4027 -2.8147
  209MPD1     C 3173   3.107   2.758  11.004 -0.5282 -0.1306 -0.1141
  209MPD1    C1 3174   3.185   2.862  10.958 -0.4216 -0.3714  0.8465
  209MPD1    C2 3175   3.126   2.955  10.877 -0.6006 -0.7500  0.0952
  209MPD1    C3 3176   3.006   2.920  10.817 -0.1683 -0.1955  0.9592
  209MPD1    C4 3177   2.930   2.814  10.858 -0.1496 -0.5314 -0.7142
  209MPD1    C5 3178   2.988   2.733  10.954 -0.2923  0.2092 -0.1701
  209MPD1     H 3179   3.186   3.038  10.843 -0.9795 -0.5929 -0.1854
  209MPD1    H1 3180   2.831   2.795  10.819 -1.0251  0.9907  0.7529
  209MPD1    H2 3181   3.140   2.697  11.087  0.2480 -0.7515 -0.8684
  209MPD1    H3 3182   2.926   2.653  10.993  1.3732 -1.4011 -0.8532
  209MPD1     N 3183   2.966   3.008  10.712  0.3243  0.0019 -0.3244
  209MPD1    H5 3184   3.030   3.083  10.689  2.4716 -1.4188  0.9711
  209MPD1    N1 3185   3.305   2.887  11.030 -0.3271  0.1423 -0.4542
  209MPD1    H6 3186   3.371   2.937  10.971  0.7178 -0.3430  0.2960
  209MPD1    H7 3187   3.349   2.799  11.055 -2.5469 -0.7496  0.3185
  210MPD1     C 3188   3.280   3.771  10.199  0.3593  0.1122  0.0661
  210MPD1    C1 3189   3.293   3.732  10.334  0.0846 -1.0082 -0.4149
  210MPD1    C2 3190   3.209   3.630  10.379  0.8569 -0.1252 -0.3965
  210MPD1    C3 3191   3.099   3.589  10.299 -0.4634 -0.3350  0.5460
  210MPD1    C4 3192   3.078   3.646  10.173  0.5135  0.5572  0.6098
  210MPD1    C5 3193   3.171   3.736  10.122  1.1465 -0.1190 -0.1799
  210MPD1     H 3194   3.228   3.589  10.477  0.4169  2.6454  0.8464
  210MPD1    H1 3195   2.986   3.624  10.120  0.1720 -0.4648  1.6295
  210MPD1    H2 3196   3.347   3.848  10.161 -1.0044  0.3185 -1.9629
  210MPD1    H3 3197   3.160   3.792  10.030  1.2296 -1.4936 -1.0290
  210MPD1     N 3198   3.006   3.486  10.338 -0.7550  0.1981 -0.5139
  210MPD1    H5 3199   2.921   3.473  10.283 -2.0912  0.5277  1.4979
  210MPD1    N1 3200   3.397   3.774  10.417 -0.4853  0.6887  0.3263
  210MPD1    H6 3201   3.446   3.861  10.396  1.1535 -0.3386 -0.1886
  210MPD1    H7 3202   3.370   3.771  10.515 -3.4994 -0.8376 -0.5679
  211MPD1     C 3203   1.086   2.270  16.979  0.4051  0.1597 -0.3546
  211MPD1    C1 3204   0.996   2.284  17.083  0.0155  0.5534 -0.2470
  211MPD1    C2 3205   0.877   2.350  17.051 -0.4682  0.2757  0.0748
  211MPD1    C3 3206   0.838   2.397  16.926  0.3988 -0.2711 -0.6622
  211MPD1    C4 3207   0.936   2.379  16.830  0.2842 -0.0463 -0.2719
  211MPD1    C5 3208   1.057   2.319  16.853  0.7039 -0.6118  0.1433
  211MPD1     H 3209   0.811   2.356  17.136 -0.8058 -1.2733 -0.0816
  211MPD1    H1 3210   0.929   2.412  16.727 -0.8357 -1.3396 -0.6158
  211MPD1    H2 3211   1.174   2.207  16.987  0.5522  0.0845 -2.4980
  211MPD1    H3 3212   1.129   2.307  16.773  0.1379  1.3031 -0.6482
  211MPD1     N 3213   0.710   2.456  16.903 -0.4916 -0.2789 -0.6127
  211MPD1    H5 3214   0.655   2.451  16.988  1.2019  0.8310  0.5366
  211MPD1    N1 3215   1.011   2.208  17.203 -0.5767  0.0493  0.5793
  211MPD1    H6 3216   1.106   2.181  17.229 -0.5317  1.1249  1.5478
  211MPD1    H7 3217   0.963   2.248  17.283 -0.9955  0.9921 -0.1477
  212MPD1     C 3218   4.617   4.571  16.848 -0.2386 -0.1215 -0.1907
  212MPD1    C1 3219   4.579   4.619  16.970 -0.3587  0.2027 -0.5628
  212MPD1    C2 3220   4.447   4.611  17.009  0.1934 -0.0189 -0.2051
  212MPD1    C3 3221   4.347   4.566  16.930  1.1572 -0.1417  0.2886
  212MPD1    C4 3222   4.385   4.518  16.809 -1.2372 -0.8754  0.0418
  212MPD1    C5 3223   4.516   4.524  16.769 -0.8045  0.2021 -0.9277
  212MPD1     H 3224   4.415   4.647  17.106  0.1681 -0.7950  0.0776
  212MPD1    H1 3225   4.318   4.476  16.734 -1.5719 -0.3266  0.0327
  212MPD1    H2 3226   4.712   4.586  16.798 -0.2714  0.2996 -0.1288
  212MPD1    H3 3227   4.551   4.482  16.676 -0.0448 -0.8197 -0.1882
  212MPD1     N 3228   4.213   4.555  16.967  0.1112 -0.1153  0.4055
  212MPD1    H5 3229   4.152   4.537  16.888  0.1559 -0.6344  0.4886
  212MPD1    N1 3230   4.671   4.667  17.067 -0.0694 -0.2221  0.0904
  212MPD1    H6 3231   4.643   0.021  17.128 -1.1998 -0.3334 -0.2911
  212MPD1    H7 3232   0.029   4.711  17.026 -0.8559 -0.3114 -1.5520
  213MPD1     C 3233   2.664   1.203  15.440  0.1593 -0.1345 -0.6298
  213MPD1    C1 3234   2.564   1.108  15.419  0.8842 -0.1130  0.4232
  213MPD1    C2 3235   2.503   1.103  15.299  0.2454 -0.7979 -0.6864
  213MPD1    C3 3236   2.548   1.185  15.197  0.3006  0.7141 -0.4095
  213MPD1    C4 3237   2.674   1.240  15.201 -0.0595 -0.2829 -0.3104
  213MPD1    C5 3238   2.717   1.262  15.332 -0.0017  0.2736 -0.2397
  213MPD1     H 3239   2.409   1.053  15.281 -0.4235  1.0672 -2.4234
  213MPD1    H1 3240   2.726   1.276  15.112  1.5801 -2.1924 -0.1262
  213MPD1    H2 3241   2.722   1.180  15.529  1.3830  1.7369 -0.9354
  213MPD1    H3 3242   2.811   1.315  15.332  1.2248 -1.8760 -0.8554
  213MPD1     N 3243   2.475   1.190  15.078  0.3907  0.2143 -0.3342
  213MPD1    H5 3244   2.396   1.129  15.062 -0.3896  0.6549  1.8288
  213MPD1    N1 3245   2.484   1.071  15.528 -0.4557 -0.5747  0.7588
  213MPD1    H6 3246   2.423   0.990  15.512  0.3287 -1.2436  1.1738
  213MPD1    H7 3247   2.532   1.050  15.615 -2.0483 -0.1670  1.7433
  214MPD1     C 3248   1.694   0.917  15.124 -0.0870 -1.3533 -0.2513
  214MPD1    C1 3249   1.712   0.920  14.991  0.0362  0.2374  0.8101
  214MPD1    C2 3250   1.815   1.001  14.932  0.0960 -0.4561 -0.1641
  214MPD1    C3 3251   1.901   1.071  15.012  0.6413 -0.7440  0.7917
  214MPD1    C4 3252   1.877   1.070  15.149  0.2316  0.1840 -0.4028
  214MPD1    C5 3253   1.775   0.996  15.205  0.2942 -0.7519  0.5860
  214MPD1     H 3254   1.844   0.981  14.830  1.3458 -0.9961  0.3006
  214MPD1    H1 3255   1.935   1.133  15.216  3.9128 -2.3877 -1.1407
  214MPD1    H2 3256   1.617   0.866  15.180 -1.5925  0.7188 -0.4727
  214MPD1    H3 3257   1.759   0.997  15.312 -0.2877 -0.8881  0.4999
  214MPD1     N 3258   2.009   1.144  14.967  0.3726  0.0266  0.2911
  214MPD1    H5 3259   2.069   1.181  15.040  1.8481 -3.0332  0.6394
  214MPD1    N1 3260   1.643   0.827  14.918  0.5706 -0.0978 -0.0625
  214MPD1    H6 3261   1.549   0.839  14.954 -0.3768  0.1332 -2.6420
  214MPD1    H7 3262   1.630   0.853  14.820 -3.5276  0.1679  0.5451
  215MPD1     C 3263   2.320   2.240  10.936 -0.3412  0.3016 -1.0226
  215MPD1    C1 3264   2.385   2.262  11.057  0.2041  0.0759 -0.0029
  215MPD1    C2 3265   2.431   2.391  11.088  0.0737 -0.7513  0.0683
  215MPD1    C3 3266   2.440   2.488  10.988  0.2322 -0.5174 -0.4912
  215MPD1    C4 3267   2.365   2.471  10.877  0.3828 -0.5565 -0.3170
  215MPD1    C5 3268   2.314   2.346  10.848 -0.0932  0.9040  0.3807
  215MPD1     H 3269   2.476   2.416  11.183 -1.8722  1.0057  0.5330
  215MPD1    H1 3270   2.365   2.546  10.798 -1.6523 -0.2459 -0.0045
  215MPD1    H2 3271   2.288   2.143  10.898 -1.0054  0.1376 -0.0686
  215MPD1    H3 3272   2.273   2.327  10.750  0.2375  2.3994 -0.0467
  215MPD1     N 3273   2.499   2.611  11.026 -0.2071 -0.5479 -0.4854
  215MPD1    H5 3274   2.548   2.610  11.115  0.5539 -1.3844 -0.9185
  215MPD1    N1 3275   2.376   2.156  11.149 -0.0044  0.2796 -0.3335
  215MPD1    H6 3276   2.456   2.155  11.212 -1.4347 -0.9852  1.4831
  215MPD1    H7 3277   2.380   2.070  11.095 -1.4090 -0.6036  0.9512
  216MPD1     C 3278   0.577   0.075  17.372  0.6864 -1.0995  0.7758
  216MPD1    C1 3279   0.440   0.051  17.400  0.4831  0.4868  0.1498
  216MPD1    C2 3280   0.406   4.641  17.390 -0.3707  0.4700 -0.0332
  216MPD1    C3 3281   0.485   4.534  17.359  1.1043  0.3518  0.6696
  216MPD1    C4 3282   0.622   4.558  17.342  0.1996 -0.0560  0.8397
  216MPD1    C5 3283   0.660   4.690  17.350 -0.2134  0.3852  0.6094
  216MPD1     H 3284   0.301   4.627  17.416 -0.2327 -0.4439  0.0257
  216MPD1    H1 3285   0.698   4.482  17.325  0.6771  0.2040  1.7912
  216MPD1    H2 3286   0.606   0.176  17.397 -0.2704 -0.9670  1.3566
  216MPD1    H3 3287   0.766   4.704  17.338 -0.2579  1.1317  1.0514
  216MPD1     N 3288   0.440   4.404  17.354 -0.2549 -0.1325 -0.3953
  216MPD1    H5 3289   0.344   4.389  17.382 -0.1755  1.1603  0.5598
  216MPD1    N1 3290   0.344   0.138  17.447 -0.2757  0.0314 -0.7831
  216MPD1    H6 3291   0.350   0.224  17.393  1.2918 -1.5746 -3.2204
  216MPD1    H7 3292   0.251   0.103  17.425 -1.3102  1.1605  1.8496
  217MPD1     C 3293   1.032   3.299   8.865  0.7448 -0.4561 -0.6146
  217MPD1    C1 3294   0.917   3.279   8.791  0.2760 -0.7712  0.1954
  217MPD1    C2 3295   0.846   3.158   8.804 -0.2254 -0.0221 -0.0148
  217MPD1    C3 3296   0.886   3.063   8.893  0.0332 -0.6974 -0.3890
  217MPD1    C4 3297   1.004   3.086   8.967 -0.0317 -0.5445 -0.5763
  217MPD1    C5 3298   1.071   3.203   8.956 -0.1853  0.2928  0.4285
  217MPD1     H 3299   0.758   3.149   8.740 -1.4139  0.5357  1.5367
  217MPD1    H1 3300   1.036   3.021   9.047  0.2300 -0.6795 -0.7928
  217MPD1    H2 3301   1.087   3.390   8.842  0.5427 -0.3237 -0.5699
  217MPD1    H3 3302   1.166   3.218   9.005 -0.7651  0.9814  1.3398
  217MPD1     N 3303   0.815   2.942   8.918 -0.4990  0.0180  0.2978
  217MPD1    H5 3304   0.832   2.892   9.005  0.9092  1.5308  0.8983
  217MPD1    N1 3305   0.876   3.370   8.696 -0.5244  0.0570 -0.7564
  217MPD1    H6 3306   0.777   3.357   8.676 -0.6701  0.9979 -0.6673
  217MPD1    H7 3307   0.890   3.467   8.726 -0.4625  0.0105 -0.6335
  218MPD1     C 3308   1.388   3.018  13.052  0.5457  0.0420  0.3240
  218MPD1    C1 3309   1.488   2.942  13.118  1.0674  0.2217  0.0790
  218MPD1    C2 3310   1.596   2.904  13.051  0.2040  0.5841 -0.0358
  218MPD1    C3 3311   1.600   2.919  12.910  0.4573 -0.0290 -0.0315
  218MPD1    C4 3312   1.505   3.001  12.849  0.6029  0.4259  0.7503
  218MPD1    C5 3313   1.391   3.047  12.917  0.0802  0.2976 -0.4223
  218MPD1     H 3314   1.684   2.871  13.106 -0.3465  0.7705  0.9587
  218MPD1    H1 3315   1.513   3.033  12.746  0.3568  1.5336  1.0671
  218MPD1    H2 3316   1.297   3.052  13.099  1.4754  1.2229  1.2703
  218MPD1    H3 3317   1.312   3.096  12.862 -0.0674 -0.4586 -0.8862
  218MPD1     N 3318   1.715   2.876  12.842 -0.5936  0.0125 -0.3175
  218MPD1    H5 3319   1.788   2.824  12.889 -0.5139 -0.3480 -0.8350
  218MPD1    N1 3320   1.487   2.949  13.256  0.3234  0.2716  0.6424
  218MPD1    H6 3321   1.532   2.865  13.293 -0.6835 -1.4415 -2.0204
  218MPD1    H7 3322   1.388   2.947  13.280  0.1141  0.5173 -0.2216
  219MPD1     C 3323   2.146   3.201  11.971  0.9769  0.2014  0.5904
  219MPD1    C1 3324   2.246   3.143  12.044  0.0866 -0.7789  0.4057
  219MPD1    C2 3325   2.207   3.078  12.162  0.3910 -0.0455  0.3915
  219MPD1    C3 3326   2.081   3.097  12.221 -0.1578  0.3886  0.3436
  219MPD1    C4 3327   1.993   3.173  12.146  0.2382 -0.1284 -0.0903
  219MPD1    C5 3328   2.020   3.219  12.022 -0.6353 -0.0896 -0.8185
  219MPD1     H 3329   2.284   3.015  12.205  0.7286  0.8820  1.1314
  219MPD1    H1 3330   1.890   3.182  12.177 -0.2707 -1.6586 -1.3193
  219MPD1    H2 3331   2.162   3.239  11.871  2.1024 -0.6841  0.4281
  219MPD1    H3 3332   1.940   3.266  11.965 -2.2183  0.2688  1.7149
  219MPD1     N 3333   2.034   3.030  12.334  0.3618  0.2121 -0.9830
  219MPD1    H5 3334   1.935   3.030  12.357  0.8914 -3.5119  1.2091
  219MPD1    N1 3335   2.369   3.125  11.983  0.3459 -0.1717 -0.2922
  219MPD1    H6 3336   2.442   3.098  12.049 -0.5743  1.2961  1.3190
  219MPD1    H7 3337   2.390   3.206  11.925  0.4450  1.2037  1.6695
  220MPD1     C 3338   2.293   4.137   9.801  0.0657  0.2488  0.2304
  220MPD1    C1 3339   2.377   4.141   9.910 -0.7655 -0.1014  0.0849
  220MPD1    C2 3340   2.366   4.034  10.000  0.1392 -0.2579  0.5737
  220MPD1    C3 3341   2.252   3.957   9.996 -0.2491 -0.3368 -0.4715
  220MPD1    C4 3342   2.159   3.969   9.892 -0.7120 -0.2285 -0.0753
  220MPD1    C5 3343   2.186   4.050   9.789 -0.3553 -0.7120  0.5428
  220MPD1     H 3344   2.440   4.013  10.077 -0.2002 -1.0743  0.6761
  220MPD1    H1 3345   2.071   3.906   9.890  0.4714 -1.8359 -0.5926
  220MPD1    H2 3346   2.314   4.199   9.714 -0.1050 -0.6825 -0.4722
  220MPD1    H3 3347   2.114   4.052   9.708  1.1057 -0.2166 -0.7364
  220MPD1     N 3348   2.233   3.866  10.103  1.1288 -0.4417 -0.0285
  220MPD1    H5 3349   2.310   3.862  10.170 -0.2479  0.8021  1.6149
  220MPD1    N1 3350   2.486   4.227   9.909 -0.3043 -0.7698  0.1987
  220MPD1    H6 3351   2.529   4.235  10.001  0.0792 -0.3154 -0.0253
  220MPD1    H7 3352   2.458   4.317   9.871  2.3593 -0.4021 -0.8459
  221MPD1     C 3353   0.003   1.951  15.725 -0.7983  0.0299 -0.0755
  221MPD1    C1 3354   0.082   1.947  15.835 -0.4136 -0.2518 -0.2023
  221MPD1    C2 3355   0.071   1.835  15.913  0.3007  0.3146 -0.0367
  221MPD1    C3 3356   4.689   1.737  15.897  0.7055 -0.1037 -0.2544
  221MPD1    C4 3357   4.607   1.751  15.786  0.6000 -0.0449 -0.4025
  221MPD1    C5 3358   4.622   1.860  15.709  0.2594  0.1772 -0.0866
  221MPD1     H 3359   0.135   1.827  16.000  1.1879  1.4366 -0.5827
  221MPD1    H1 3360   4.523   1.685  15.769 -1.1634  2.1736 -0.3632
  221MPD1    H2 3361   0.008   2.037  15.659 -1.6187 -1.4944 -2.1402
  221MPD1    H3 3362   4.550   1.877  15.629  0.5552  0.5775 -0.2721
  221MPD1     N 3363   4.669   1.634  15.982 -0.1546  0.8178  0.3785
  221MPD1    H5 3364   4.586   1.578  15.967 -0.6081  1.5191  0.2954
  221MPD1    N1 3365   0.196   2.028  15.853 -0.2465  0.3678  0.1420
  221MPD1    H6 3366   0.216   2.046  15.951  0.8656 -1.1707  0.1938
  221MPD1    H7 3367   0.176   2.121  15.818 -1.7495 -0.7479 -1.9427
  222MPD1     C 3368   0.786   0.973  17.279 -0.2919 -0.2123 -0.2922
  222MPD1    C1 3369   0.694   0.913  17.188 -0.1876  0.0587 -0.8213
  222MPD1    C2 3370   0.568   0.882  17.238  0.0229  0.1357  0.0379
  222MPD1    C3 3371   0.532   0.928  17.364  0.4692  0.3913 -0.3096
  222MPD1    C4 3372   0.625   1.003  17.440  0.7494 -0.0208 -0.0746
  222MPD1    C5 3373   0.752   1.018  17.399  0.1309 -0.2963 -0.4495
  222MPD1     H 3374   0.497   0.835  17.171  0.5476 -0.1325 -0.3343
  222MPD1    H1 3375   0.608   1.031  17.544  2.2384  1.6759 -0.2741
  222MPD1    H2 3376   0.893   0.978  17.264  0.0079 -0.2506  1.8141
  222MPD1    H3 3377   0.820   1.083  17.453  2.2341 -1.5805 -1.5582
  222MPD1     N 3378   0.400   0.903  17.421  0.0693  0.4634 -0.5786
  222MPD1    H5 3379   0.390   0.963  17.503  0.4926  0.2374 -0.3637
  222MPD1    N1 3380   0.742   0.851  17.070  0.7955 -0.4362 -0.0569
  222MPD1    H6 3381   0.817   0.903  17.025  0.5071  0.0793  0.0686
  222MPD1    H7 3382   0.666   0.839  17.003  0.8842  0.0391 -0.2392
  223MPD1     C 3383   4.319   0.166  17.603 -0.8848  0.4096  0.4319
  223MPD1    C1 3384   4.258   0.289  17.569 -0.2905 -0.1340  0.3524
  223MPD1    C2 3385   4.338   0.393  17.525 -0.0826  0.2009  0.5077
  223MPD1    C3 3386   4.475   0.385  17.519 -0.0376  0.0373  0.3923
  223MPD1    C4 3387   4.533   0.264  17.558 -0.8420  0.5969  0.0998
  223MPD1    C5 3388   4.458   0.156  17.592 -0.9542  0.1314  0.0265
  223MPD1     H 3389   4.298   0.490  17.498  0.9111  0.3370 -0.4601
  223MPD1    H1 3390   4.638   0.239  17.560 -0.8408  0.5908 -0.0541
  223MPD1    H2 3391   4.262   0.078  17.631 -0.9451 -0.0515 -1.0998
  223MPD1    H3 3392   4.503   0.059  17.611  0.5366  0.6335 -0.9694
  223MPD1     N 3393   4.548   0.500  17.494  0.3006  0.7889  0.3083
  223MPD1    H5 3394   4.494   0.583  17.467  0.3851  0.4510 -0.9217
  223MPD1    N1 3395   4.121   0.306  17.566 -0.0633 -0.6731  0.1061
  223MPD1    H6 3396   4.085   0.400  17.584 -1.6134 -1.1769 -0.3178
  223MPD1    H7 3397   4.057   0.237  17.606 -0.7654 -0.5651 -0.8325
  224MPD1     C 3398   1.293   3.860   9.153 -0.7764 -0.2254  0.2162
  224MPD1    C1 3399   1.189   3.910   9.235 -0.3520 -0.7109  0.5609
  224MPD1    C2 3400   1.140   3.834   9.339 -0.7593  0.2097  0.4517
  224MPD1    C3 3401   1.178   3.702   9.353  0.2886 -0.3451  0.6677
  224MPD1    C4 3402   1.282   3.657   9.275  0.3860  0.3823  0.4123
  224MPD1    C5 3403   1.336   3.732   9.173 -0.2767 -0.4617  0.0719
  224MPD1     H 3404   1.064   3.873   9.405  0.3191 -0.5313  2.1075
  224MPD1    H1 3405   1.315   3.555   9.287 -1.2518 -0.0507  1.1684
  224MPD1    H2 3406   1.347   3.925   9.085  0.4827 -2.1941 -0.6714
  224MPD1    H3 3407   1.417   3.697   9.110 -1.0005  1.1206 -1.7353
  224MPD1     N 3408   1.124   3.610   9.445 -0.6520 -0.0439 -0.4270
  224MPD1    H5 3409   1.161   3.515   9.441  1.0006  0.5190  1.0946
  224MPD1    N1 3410   1.136   4.032   9.197  0.0734  0.2186 -0.6906
  224MPD1    H6 3411   1.074   4.065   9.270  1.0961 -0.8024  0.6490
  224MPD1    H7 3412   1.208   4.104   9.203  0.1251  0.2837 -2.1307
  225MPD1     C 3413   1.750   3.862  12.899  0.5210  0.7242  0.5132
  225MPD1    C1 3414   1.728   3.989  12.843  0.6218 -0.5524  0.4122
  225MPD1    C2 3415   1.706   3.999  12.705  0.2221 -0.0609  0.2832
  225MPD1    C3 3416   1.710   3.886  12.627 -0.5461 -0.5611 -1.1258
  225MPD1    C4 3417   1.738   3.766  12.684  0.0471 -0.8476  0.1777
  225MPD1    C5 3418   1.756   3.756  12.815 -0.0690 -0.1510  0.2919
  225MPD1     H 3419   1.663   4.084  12.654 -0.4401  1.3627  3.2297
  225MPD1    H1 3420   1.740   3.670  12.633  2.2061 -1.2884  1.1187
  225MPD1    H2 3421   1.754   3.844  13.006 -2.1415  0.9980  0.6519
  225MPD1    H3 3422   1.753   3.653  12.847 -2.8860  0.0956  0.7651
  225MPD1     N 3423   1.667   3.901  12.489 -0.3350 -0.1525 -0.1011
  225MPD1    H5 3424   1.619   3.988  12.470 -1.4594 -0.6452  0.4777
  225MPD1    N1 3425   1.692   4.087  12.932  0.1344 -0.0053 -0.0088
  225MPD1    H6 3426   1.702   4.180  12.892 -2.0645 -0.6661 -2.1007
  225MPD1    H7 3427   1.748   4.080  13.017 -0.7187 -1.2606  0.4549
  226MPD1     C 3428   0.295   3.159   8.450  0.2058  0.1537 -0.4819
  226MPD1    C1 3429   0.363   3.275   8.465  0.0915 -0.5102  0.4876
  226MPD1    C2 3430   0.418   3.302   8.586 -0.0122 -0.4454 -0.3764
  226MPD1    C3 3431   0.416   3.210   8.694 -0.7934  0.2127 -0.1443
  226MPD1    C4 3432   0.343   3.093   8.671 -0.2249 -0.1052  0.0317
  226MPD1    C5 3433   0.284   3.069   8.556  0.3582 -0.2021  0.1084
  226MPD1     H 3434   0.462   3.399   8.608  1.3255 -1.1266 -0.0147
  226MPD1    H1 3435   0.329   3.019   8.749 -0.2936 -0.2925 -0.1566
  226MPD1    H2 3436   0.249   3.133   8.356  0.8712 -1.3663 -0.3738
  226MPD1    H3 3437   0.234   2.975   8.538 -0.6718  0.7917 -2.2218
  226MPD1     N 3438   0.472   3.245   8.814 -0.0460  0.8972 -0.1161
  226MPD1    H5 3439   0.528   3.329   8.814  0.7390  0.3731 -1.1851
  226MPD1    N1 3440   0.348   3.376   8.364  0.7483  0.6479 -0.4179
  226MPD1    H6 3441   0.342   3.332   8.273 -0.4693  1.7081 -0.8519
  226MPD1    H7 3442   0.432   3.432   8.350  1.8975 -0.9038  0.2412
  227MPD1     C 3443   0.702   4.029   9.139  0.2770  0.1874  1.2586
  227MPD1    C1 3444   0.675   3.978   9.013  0.2107 -0.3115 -0.2054
  227MPD1    C2 3445   0.664   3.844   9.001 -0.0626  0.0431  0.1100
  227MPD1    C3 3446   0.665   3.760   9.110  0.3199 -0.3802 -0.6172
  227MPD1    C4 3447   0.678   3.813   9.235  0.4185  0.0243  0.0964
  227MPD1    C5 3448   0.705   3.946   9.249 -0.0384  0.6900 -0.3362
  227MPD1     H 3449   0.675   3.794   8.906  0.9582 -0.7777  0.6564
  227MPD1    H1 3450   0.671   3.751   9.324  2.7306  0.8165  0.8341
  227MPD1    H2 3451   0.725   4.133   9.158  0.1370  0.0078  2.4392
  227MPD1    H3 3452   0.726   3.984   9.349 -2.3044  0.7185  0.1271
  227MPD1     N 3453   0.660   3.621   9.082 -0.6780  0.2838 -0.1603
  227MPD1    H5 3454   0.646   3.596   8.985  1.5107  1.3451 -0.7585
  227MPD1    N1 3455   0.681   4.052   8.893  0.0846 -0.8387  0.0185
  227MPD1    H6 3456   0.620   4.023   8.817 -0.0710  2.0459 -0.9646
  227MPD1    H7 3457   0.656   4.151   8.899 -0.1128 -1.0023  1.8838
  228MPD1     C 3458   3.844   0.854  13.119 -0.7035 -0.4972  0.8193
  228MPD1    C1 3459   3.765   0.881  13.009  0.1999  0.2128 -0.3110
  228MPD1    C2 3460   3.631   0.913  13.036  0.6094  0.2545 -0.0408
  228MPD1    C3 3461   3.584   0.938  13.167 -0.0910  0.3889  0.6290
  228MPD1    C4 3462   3.674   0.921  13.272  0.3811  0.4199  0.3680
  228MPD1    C5 3463   3.803   0.875  13.245  0.3863  0.3500  0.1287
  228MPD1     H 3464   3.566   0.918  12.949 -1.2437  1.5844  1.4215
  228MPD1    H1 3465   3.646   0.935  13.376 -1.5686 -0.5186 -0.0327
  228MPD1    H2 3466   3.942   0.809  13.111 -0.2540  1.1710 -2.9963
  228MPD1    H3 3467   3.881   0.859  13.319 -1.2423  1.1453  2.0094
  228MPD1     N 3468   3.445   0.964  13.195 -0.3164 -0.1607 -0.4265
  228MPD1    H5 3469   3.387   0.992  13.117 -0.3159 -1.5136 -0.9107
  228MPD1    N1 3470   3.815   0.850  12.884 -0.4593 -0.1063 -0.0738
  228MPD1    H6 3471   3.770   0.913  12.818 -1.5135 -1.0364 -0.2349
  228MPD1    H7 3472   3.917   0.855  12.879 -0.4292 -1.7496 -1.1148
  229MPD1     C 3473   4.280   4.640  14.509 -0.1650  0.5478  0.0491
  229MPD1    C1 3474   4.172   4.698  14.568 -0.1935  0.1928 -0.0877
  229MPD1    C2 3475   4.050   4.637  14.568  0.4253 -0.2074 -0.4342
  229MPD1    C3 3476   4.032   4.517  14.513 -0.0700 -0.1318 -0.1194
  229MPD1    C4 3477   4.139   4.454  14.461 -0.0384 -0.6702 -0.4530
  229MPD1    C5 3478   4.263   4.517  14.454 -0.0707  0.2167 -0.0544
  229MPD1     H 3479   3.966   4.691  14.609 -0.4956 -1.0382 -1.2178
  229MPD1    H1 3480   4.129   4.353  14.422 -0.5215 -1.0354  0.6044
  229MPD1    H2 3481   4.373   4.694  14.490  0.3566 -0.5622 -0.5525
  229MPD1    H3 3482   4.335   4.470  14.388 -0.6041 -0.8317  0.1171
  229MPD1     N 3483   3.909   4.447  14.512 -0.4379  0.6717  0.3607
  229MPD1    H5 3484   3.927   4.351  14.485 -1.6918  1.2193 -2.3835
  229MPD1    N1 3485   4.177   0.107  14.608  0.5343 -0.3394  0.1883
  229MPD1    H6 3486   4.274   0.119  14.637  0.4458 -0.0034  0.3498
  229MPD1    H7 3487   4.127   0.132  14.693 -1.0086 -0.6122 -0.6380
  230MPD1     C 3488   2.905   4.263  14.865  0.1632 -0.0069 -0.0839
  230MPD1    C1 3489   2.985   4.150  14.864  0.2806 -0.3351  0.6041
  230MPD1    C2 3490   3.113   4.163  14.814  0.0191  0.2089 -0.7918
  230MPD1    C3 3491   3.159   4.276  14.744 -0.0173 -0.3253 -0.0565
  230MPD1    C4 3492   3.069   4.381  14.736 -0.0565 -0.8091  0.4878
  230MPD1    C5 3493   2.947   4.371  14.798  0.7986 -0.0568  0.2308
  230MPD1     H 3494   3.177   4.076  14.817  0.5711  0.6736  1.0473
  230MPD1    H1 3495   3.088   4.468  14.674 -2.3948 -2.2324 -2.2514
  230MPD1    H2 3496   2.807   4.259  14.911  1.2997  1.4155  2.4473
  230MPD1    H3 3497   2.877   4.454  14.798  0.3016 -0.4646 -1.4651
  230MPD1     N 3498   3.293   4.273  14.691 -0.5999 -0.8367  0.2264
  230MPD1    H5 3499   3.352   4.192  14.708  1.5299  0.8548  0.8863
  230MPD1    N1 3500   2.959   4.038  14.945 -0.0094 -0.8036 -1.1139
  230MPD1    H6 3501   2.999   4.049  15.037 -1.0012  1.8750 -0.9839
  230MPD1    H7 3502   3.010   3.959  14.907  0.1295 -1.3033  0.1311
  231MPD1     C 3503   1.437   1.329  15.530 -0.2621  0.2076 -0.1164
  231MPD1    C1 3504   1.395   1.262  15.417  0.2570 -0.0050  0.0909
  231MPD1    C2 3505   1.480   1.268  15.306  0.6378 -0.3006 -0.3916
  231MPD1    C3 3506   1.593   1.349  15.306  0.2145 -0.0914  0.1816
  231MPD1    C4 3507   1.625   1.419  15.412  0.3367 -0.0197  0.0940
  231MPD1    C5 3508   1.549   1.410  15.527  0.4675  0.6598 -0.5849
  231MPD1     H 3509   1.455   1.202  15.224  1.2298 -2.7651  1.3806
  231MPD1    H1 3510   1.718   1.474  15.416  0.4081 -0.0387 -1.3709
  231MPD1    H2 3511   1.380   1.327  15.623  0.1361 -1.2256  0.1019
  231MPD1    H3 3512   1.581   1.454  15.621  0.1994  2.9226 -1.5511
  231MPD1     N 3513   1.666   1.349  15.188  0.8353  0.5453  0.4850
  231MPD1    H5 3514   1.616   1.298  15.116 -0.9446 -0.3609  2.3588
  231MPD1    N1 3515   1.290   1.162  15.419 -0.6883  0.1621  0.2008
  231MPD1    H6 3516   1.247   1.155  15.327  1.2882 -0.0366 -0.7198
  231MPD1    H7 3517   1.220   1.178  15.492  0.2970 -0.7292  1.3422
  232MPD1     C 3518   3.097   2.828   0.804  1.0009  0.6745 -0.1917
  232MPD1    C1 3519   3.041   2.942   0.760  0.1290 -0.9315 -0.2956
  232MPD1    C2 3520   3.022   3.038   0.852  0.0226 -0.3979  0.2226
  232MPD1    C3 3521   3.045   3.012   0.991 -0.3113 -0.5085  0.5882
  232MPD1    C4 3522   3.094   2.892   1.031  0.1411  0.3210  0.3580
  232MPD1    C5 3523   3.126   2.798   0.934  0.2582  0.5970  0.0255
  232MPD1     H 3524   2.972   3.129   0.821  1.3767  0.1641 -0.2903
  232MPD1    H1 3525   3.118   2.878   1.136  2.8457  2.5708  0.0179
  232MPD1    H2 3526   3.135   2.765   0.724  0.3064 -1.8664  1.4616
  232MPD1    H3 3527   3.162   2.699   0.957 -3.5237 -1.7106 -4.2541
  232MPD1     N 3528   3.023   3.119   1.086 -0.1825 -0.1123  0.1642
  232MPD1    H5 3529   2.978   3.198   1.044  1.6585  0.2589 -1.1111
  232MPD1    N1 3530   3.023   2.976   0.619  0.5191  0.0306 -0.6444
  232MPD1    H6 3531   2.950   3.044   0.601  0.6547  0.2792 -0.2431
  232MPD1    H7 3532   3.013   2.886   0.573 -0.5353 -0.7818  1.1857
  233MPD1     C 3533   3.981   1.061   2.005 -0.5825  0.3670  0.7593
  233MPD1    C1 3534   4.048   1.093   2.118 -0.6142 -0.5841  0.4654
  233MPD1    C2 3535   4.177   1.148   2.112 -0.3029 -0.2467 -0.3942
  233MPD1    C3 3536   4.226   1.181   1.984  0.7383 -0.1827  0.2092
  233MPD1    C4 3537   4.146   1.150   1.867  0.0079  0.3195  0.7095
  233MPD1    C5 3538   4.028   1.097   1.879  0.0995 -0.0601 -0.3161
  233MPD1     H 3539   4.229   1.172   2.204  0.5242  2.0905 -1.4789
  233MPD1    H1 3540   4.180   1.176   1.768 -0.9939  1.8504  0.7755
  233MPD1    H2 3541   3.880   1.022   1.997  0.1750 -1.2792 -0.6929
  233MPD1    H3 3542   3.959   1.085   1.797 -1.2125  0.8376  0.6397
  233MPD1     N 3543   4.355   1.248   1.964 -0.1526 -0.2371  0.0647
  233MPD1    H5 3544   4.366   1.279   1.868 -2.0378  1.1130  0.2925
  233MPD1    N1 3545   3.998   1.048   2.242  0.5367  0.3273  0.7437
  233MPD1    H6 3546   4.018   1.110   2.321  2.5167 -1.5403  1.7028
  233MPD1    H7 3547   3.898   1.031   2.242  0.6582 -0.3613 -0.7759
  234MPD1     C 3548   1.700   1.926  10.213 -0.2744  0.3656  0.3563
  234MPD1    C1 3549   1.676   2.055  10.249  0.7586 -0.0726 -0.2703
  234MPD1    C2 3550   1.620   2.143  10.163 -0.4719 -0.0633  0.1001
  234MPD1    C3 3551   1.565   2.100  10.044  0.1071 -0.0964  0.8254
  234MPD1    C4 3552   1.578   1.970  10.008  0.1969  0.2800  0.4149
  234MPD1    C5 3553   1.658   1.884  10.093  0.1960 -0.0390  0.5139
  234MPD1     H 3554   1.633   2.249  10.181 -2.0020  0.8169 -3.8219
  234MPD1    H1 3555   1.552   1.933   9.909 -2.0791 -0.2224  1.1917
  234MPD1    H2 3556   1.751   1.857  10.279  0.0781 -0.0642 -0.3646
  234MPD1    H3 3557   1.704   1.790  10.064 -0.6173 -0.2653 -0.0446
  234MPD1     N 3558   1.509   2.202   9.965  0.1020  0.3767  0.6700
  234MPD1    H5 3559   1.530   2.296   9.996 -2.5522  0.3368  2.6166
  234MPD1    N1 3560   1.746   2.104  10.360  0.0998  0.2122 -0.0255
  234MPD1    H6 3561   1.721   2.196  10.395 -2.2406 -0.5534  0.3231
  234MPD1    H7 3562   1.741   2.041  10.440 -0.6378  0.7668  0.3692
  235MPD1     C 3563   2.179   3.714  10.685 -0.6960 -0.0081 -0.1816
  235MPD1    C1 3564   2.282   3.798  10.686 -0.1387  0.1585  0.6960
  235MPD1    C2 3565   2.284   3.901  10.598  0.3113 -0.3824  0.7981
  235MPD1    C3 3566   2.181   3.927  10.507  0.4683  0.1884  0.1152
  235MPD1    C4 3567   2.064   3.857  10.529  0.4255  0.0370  0.4062
  235MPD1    C5 3568   2.071   3.736  10.599 -1.0970 -0.1003 -0.0461
  235MPD1     H 3569   2.354   3.984  10.593  0.3691 -0.3180  2.5434
  235MPD1    H1 3570   1.972   3.888  10.480  1.0433  0.1067 -0.7007
  235MPD1    H2 3571   2.174   3.627  10.749  0.4777  1.9171  2.5829
  235MPD1    H3 3572   1.981   3.677  10.612 -1.2484  0.1533  0.0858
  235MPD1     N 3573   2.199   4.027  10.417 -0.1389  0.1532 -0.4269
  235MPD1    H5 3574   2.294   4.063  10.412 -0.7185  1.3031 -3.3243
  235MPD1    N1 3575   2.375   3.780  10.781 -0.3425 -0.0342 -0.0731
  235MPD1    H6 3576   2.376   3.682  10.808 -2.1385  0.3138  1.2156
  235MPD1    H7 3577   2.469   3.805  10.750 -0.1194  0.2780  0.8613
  236MPD1     C 3578   2.538   0.614   9.970  0.3262  0.7869  0.3887
  236MPD1    C1 3579   2.448   0.559   9.881  0.5953  0.5255  0.4915
  236MPD1    C2 3580   2.325   0.513   9.926 -0.2380 -0.1980  0.0888
  236MPD1    C3 3581   2.308   0.497  10.064  0.0304  0.4895 -0.0556
  236MPD1    C4 3582   2.410   0.533  10.148 -0.2321  0.0792 -0.4394
  236MPD1    C5 3583   2.515   0.595  10.099 -1.2419 -0.2481 -0.0182
  236MPD1     H 3584   2.262   0.468   9.851 -0.3958  2.0997 -1.1490
  236MPD1    H1 3585   2.418   0.517  10.255  1.1678 -0.7913 -0.6655
  236MPD1    H2 3586   2.634   0.652   9.937  0.8365 -2.4187 -1.8017
  236MPD1    H3 3587   2.580   0.638  10.175 -1.5605  1.0772 -0.4946
  236MPD1     N 3588   2.195   0.441  10.122 -0.2177  0.1028 -0.0420
  236MPD1    H5 3589   2.204   0.430  10.223 -1.1377  0.1795  0.0458
  236MPD1    N1 3590   2.473   0.570   9.743 -0.4334 -0.0512 -1.1577
  236MPD1    H6 3591   2.433   0.484   9.707  0.1991 -0.3278 -1.1962
  236MPD1    H7 3592   2.573   0.557   9.727 -0.4254  0.9815 -1.9522
  237MPD1     C 3593   2.486   2.567  14.952  0.8440 -0.2129  0.5657
  237MPD1    C1 3594   2.412   2.599  15.069  0.4001 -0.1206  0.5393
  237MPD1    C2 3595   2.291   2.543  15.092 -0.6564 -0.4569 -0.2565
  237MPD1    C3 3596   2.227   2.470  14.996 -0.3544  0.3922  0.4618
  237MPD1    C4 3597   2.290   2.458  14.872 -0.1332  0.1552  0.0594
  237MPD1    C5 3598   2.420   2.501  14.855  0.1979  0.2634  0.0726
  237MPD1     H 3599   2.243   2.565  15.186  0.1917 -1.3450  0.3856
  237MPD1    H1 3600   2.245   2.409  14.786  1.1847  1.0877 -1.1644
  237MPD1    H2 3601   2.585   2.606  14.933  0.6563  0.5446  1.1430
  237MPD1    H3 3602   2.466   2.493  14.758  2.7229 -0.7399  1.3524
  237MPD1     N 3603   2.091   2.439  15.007 -0.1692 -0.9815  0.2109
  237MPD1    H5 3604   2.049   2.406  14.920  0.6839 -0.0017 -0.5711
  237MPD1    N1 3605   2.481   2.687  15.155  0.0822 -0.2779 -0.3663
  237MPD1    H6 3606   2.553   2.747  15.114  0.5180 -0.0012  0.8122
  237MPD1    H7 3607   2.422   2.743  15.215  0.3176 -0.9715  0.5193
  238MPD1     C 3608   4.012   1.712  15.063 -0.3956 -0.4990  1.0612
  238MPD1    C1 3609   3.999   1.581  15.089  0.1941  0.7217  0.4188
  238MPD1    C2 3610   3.886   1.523  15.049 -0.4403 -0.0231  0.0995
  238MPD1    C3 3611   3.772   1.598  15.018  0.4192  0.1442  0.0148
  238MPD1    C4 3612   3.781   1.731  14.987  1.3090  0.1930 -0.2840
  238MPD1    C5 3613   3.908   1.783  15.010 -0.2756  0.3169 -0.1662
  238MPD1     H 3614   3.868   1.417  15.064  0.4652 -0.1571  0.2194
  238MPD1    H1 3615   3.702   1.800  14.962  1.6722  0.8036  0.2695
  238MPD1    H2 3616   4.099   1.777  15.068  1.8651 -3.4162 -0.7448
  238MPD1    H3 3617   3.923   1.890  14.995  2.1038  0.1488  1.0910
  238MPD1     N 3618   3.647   1.540  15.005 -0.0564  0.0376  0.2043
  238MPD1    H5 3619   3.578   1.612  14.987 -0.6170 -0.4863  0.2641
  238MPD1    N1 3620   4.121   1.505  15.104 -0.6285 -0.3878  0.1873
  238MPD1    H6 3621   4.111   1.413  15.147 -2.1942 -0.0071  0.6363
  238MPD1    H7 3622   4.198   1.540  15.161 -1.8814  0.6545  1.2592
  239MPD1     C 3623   3.988   2.724  14.965  0.1574 -0.0598 -0.1504
  239MPD1    C1 3624   4.036   2.629  14.876  0.6269  0.1381  0.0617
  239MPD1    C2 3625   3.987   2.632  14.745 -0.6267  0.1466  0.0627
  239MPD1    C3 3626   3.876   2.709  14.710 -0.0068 -0.8756 -0.1745
  239MPD1    C4 3627   3.834   2.801  14.805 -0.2630  0.2613 -0.1940
  239MPD1    C5 3628   3.896   2.813  14.926 -0.1488  0.1879 -0.2193
  239MPD1     H 3629   4.030   2.565  14.671  1.1336  3.5492 -2.0039
  239MPD1    H1 3630   3.747   2.861  14.782  0.8515  1.5446 -1.0863
  239MPD1    H2 3631   4.022   2.731  15.068 -0.0239  0.1251 -0.1029
  239MPD1    H3 3632   3.860   2.887  14.996 -3.0790  0.7742 -2.3140
  239MPD1     N 3633   3.823   2.705  14.578 -0.0378 -0.3165 -0.0306
  239MPD1    H5 3634   3.755   2.779  14.564  2.8557  1.9974 -1.6976
  239MPD1    N1 3635   4.142   2.539  14.914  0.2908 -0.3291  0.3473
  239MPD1    H6 3636   4.123   2.449  14.870  1.5111  0.0517 -0.9596
  239MPD1    H7 3637   4.139   2.529  15.015 -1.7241  4.3919  0.7859
  240MPD1     C 3638   3.033   2.310  13.889 -0.2041 -0.9075 -0.5497
  240MPD1    C1 3639   2.944   2.209  13.861 -0.1981 -0.3924 -0.1467
  240MPD1    C2 3640   2.927   2.106  13.954  0.1619 -0.0886 -0.1182
  240MPD1    C3 3641   2.991   2.105  14.074  0.5259  0.1676 -0.1343
  240MPD1    C4 3642   3.083   2.205  14.100 -0.7461  0.0334  0.1199
  240MPD1    C5 3643   3.096   2.313  14.008  0.4870  0.7836 -0.0577
  240MPD1     H 3644   2.859   2.029  13.919  0.5063  0.1226 -1.2536
  240MPD1    H1 3645   3.140   2.214  14.192  3.1557 -1.2574 -2.1918
  240MPD1    H2 3646   3.050   2.393  13.821 -0.8551  0.7134  1.2954
  240MPD1    H3 3647   3.176   2.383  14.029  0.2831  1.4311 -1.4505
  240MPD1     N 3648   2.962   2.000  14.164 -0.1819  0.1948 -0.2982
  240MPD1    H5 3649   2.879   1.944  14.143 -1.3266  2.3907 -1.6325
  240MPD1    N1 3650   2.842   2.239  13.764  0.2392 -0.7178  0.4376
  240MPD1    H6 3651   2.795   2.156  13.727  0.6781  0.0528 -1.8354
  240MPD1    H7 3652   2.883   2.293  13.689 -0.2492 -0.5295  0.3028
  241MPD1     C 3653   2.926   1.705  15.232  0.4655  0.6270 -0.4218
  241MPD1    C1 3654   2.967   1.823  15.179 -0.3411  0.7939  0.6400
  241MPD1    C2 3655   2.972   1.823  15.039 -0.0283 -0.2058 -0.0079
  241MPD1    C3 3656   2.932   1.719  14.959 -0.3528  0.0524 -1.0060
  241MPD1    C4 3657   2.891   1.600  15.019 -0.3444  0.0161 -0.6979
  241MPD1    C5 3658   2.883   1.599  15.154 -0.1939  1.0112 -0.7779
  241MPD1     H 3659   3.010   1.915  14.996  0.1386  0.3447  1.2959
  241MPD1    H1 3660   2.861   1.509  14.970  0.3954 -2.0720  2.7090
  241MPD1    H2 3661   2.919   1.701  15.340 -2.3163  0.3254 -0.6247
  241MPD1    H3 3662   2.834   1.514  15.200  1.3058  0.2448 -0.6084
  241MPD1     N 3663   2.933   1.718  14.818 -0.6252  0.0814  0.1576
  241MPD1    H5 3664   2.901   1.629  14.780  2.5027 -1.2553  0.5884
  241MPD1    N1 3665   3.020   1.928  15.254 -0.5494  0.1573 -0.0040
  241MPD1    H6 3666   2.985   1.926  15.349 -0.6465 -0.6187 -0.0635
  241MPD1    H7 3667   3.021   2.016  15.203  1.9865  0.4347  0.5177
  242MPD1     C 3668   2.734   0.033  15.984  0.3020  0.3251  0.1094
  242MPD1    C1 3669   2.628   0.084  15.918 -0.6352 -0.5223 -0.2577
  242MPD1    C2 3670   2.610   0.055  15.788 -0.1640  0.0135  0.2799
  242MPD1    C3 3671   2.713   4.709  15.718  0.6644 -0.4768 -0.3724
  242MPD1    C4 3672   2.827   4.663  15.786  0.1435 -0.2149  0.0911
  242MPD1    C5 3673   2.835   4.686  15.919  0.1748 -0.0402  0.3030
  242MPD1     H 3674   2.516   0.080  15.740 -0.7663 -1.5107  0.6412
  242MPD1    H1 3675   2.911   4.610  15.743  1.0846  0.0060  1.6519
  242MPD1    H2 3676   2.748   0.047  16.090  1.8940  0.3935 -0.1119
  242MPD1    H3 3677   2.919   4.643  15.972 -0.4628 -0.1208  1.2529
  242MPD1     N 3678   2.708   4.690  15.575 -0.3656  0.2469 -0.5631
  242MPD1    H5 3679   2.790   4.645  15.534 -0.2305  0.9834 -1.1056
  242MPD1    N1 3680   2.525   0.150  15.998 -0.2811  0.1995  0.4570
  242MPD1    H6 3681   2.557   0.176  16.091  2.3367 -0.4233 -0.2553
  242MPD1    H7 3682   2.447   0.203  15.961  1.6530  2.4112 -0.4571
  243MPD1     C 3683   4.233   2.866   1.417  0.1751 -0.4840  0.3679
  243MPD1    C1 3684   4.244   3.003   1.397  0.0522  0.2970 -0.1203
  243MPD1    C2 3685   4.233   3.042   1.260  0.2507  0.0728 -0.0353
  243MPD1    C3 3686   4.217   2.955   1.160 -0.6266  1.0166 -0.3272
  243MPD1    C4 3687   4.207   2.818   1.185 -0.4549  0.3717 -0.4712
  243MPD1    C5 3688   4.219   2.777   1.314 -0.4563  0.2171  0.6944
  243MPD1     H 3689   4.257   3.144   1.231 -0.8029  0.1803 -0.5098
  243MPD1    H1 3690   4.202   2.755   1.097  3.2627 -0.1399 -0.3175
  243MPD1    H2 3691   4.237   2.814   1.512  3.5293  1.7420  1.4453
  243MPD1    H3 3692   4.214   2.672   1.337  0.5878  0.4054  1.7745
  243MPD1     N 3693   4.213   3.007   1.030  0.2240  0.1024 -0.0531
  243MPD1    H5 3694   4.222   3.108   1.021 -2.1279  0.4151  1.1153
  243MPD1    N1 3695   4.262   3.100   1.503 -0.0314  0.2437  0.1417
  243MPD1    H6 3696   4.196   3.071   1.575  0.3809  0.1550  0.4809
  243MPD1    H7 3697   4.239   3.191   1.463 -0.7618  0.4711  1.0699
  244MPD1     C 3698   4.306   3.877   0.585 -0.2657  0.3250  0.1168
  244MPD1    C1 3699   4.233   3.814   0.489  0.2179 -0.4851  0.1898
  244MPD1    C2 3700   4.205   3.679   0.508  0.6085 -0.0201 -0.4118
  244MPD1    C3 3701   4.236   3.608   0.629  0.1092  0.1487 -0.3060
  244MPD1    C4 3702   4.295   3.681   0.734 -0.2764 -0.0572 -0.0396
  244MPD1    C5 3703   4.328   3.812   0.704 -0.5173  0.2806 -0.4965
  244MPD1     H 3704   4.157   3.624   0.428  1.1186 -0.8863 -0.1196
  244MPD1    H1 3705   4.318   3.640   0.831 -0.4443 -0.2755 -0.0933
  244MPD1    H2 3706   4.328   3.982   0.573  0.6983  0.0170 -0.7436
  244MPD1    H3 3707   4.393   3.864   0.772  1.9793 -0.1287 -2.5765
  244MPD1     N 3708   4.207   3.471   0.629  0.0875  0.0727 -0.0993
  244MPD1    H5 3709   4.151   3.425   0.558 -0.9163  0.5716  0.3673
  244MPD1    N1 3710   4.207   3.872   0.360  0.7274  0.3704 -0.7939
  244MPD1    H6 3711   4.117   3.836   0.327  1.6435 -0.1222 -2.7747
  244MPD1    H7 3712   4.215   3.974   0.358  2.1674  0.2631 -0.1645
  245MPD1     C 3713   1.215   0.222  13.717 -0.6245  0.1934 -0.6454
  245MPD1    C1 3714   1.322   0.161  13.772 -0.3296  0.2369  0.8152
  245MPD1    C2 3715   1.449   0.197  13.726 -0.4967  0.3498  0.6303
  245MPD1    C3 3716   1.466   0.313  13.649 -0.0096 -0.6635  0.1022
  245MPD1    C4 3717   1.353   0.379  13.609 -0.2665  0.8222  0.1850
  245MPD1    C5 3718   1.232   0.333  13.644  0.4671 -0.2680 -0.2719
  245MPD1     H 3719   1.533   0.145  13.769 -0.3901  0.5105  0.6171
  245MPD1    H1 3720   1.351   0.465  13.544  0.2072  0.5803 -0.1506
  245MPD1    H2 3721   1.113   0.188  13.731 -0.3931 -0.9486 -1.7255
  245MPD1    H3 3722   1.152   0.394  13.604 -0.3037 -0.0439  1.5862
  245MPD1     N 3723   1.600   0.355  13.619 -0.1733 -0.0330  0.3027
  245MPD1    H5 3724   1.658   0.320  13.695 -0.0235 -0.1676  0.1251
  245MPD1    N1 3725   1.304   0.051  13.857  0.7154 -0.4964 -0.1904
  245MPD1    H6 3726   1.382   0.042  13.921  0.0128  1.2158  0.9154
  245MPD1    H7 3727   1.221   0.073  13.911  0.1103 -0.4804 -1.1258
  246MPD1     C 3728   0.558   1.791   8.603 -0.1357 -0.6641  0.4743
  246MPD1    C1 3729   0.650   1.690   8.611 -0.0431 -0.3532  0.2989
  246MPD1    C2 3730   0.787   1.726   8.627 -0.1631  0.7407  0.2886
  246MPD1    C3 3731   0.820   1.859   8.647 -0.0381  0.0961 -0.0649
  246MPD1    C4 3732   0.721   1.954   8.646  0.2420 -0.1381 -0.5337
  246MPD1    C5 3733   0.591   1.920   8.609 -0.6009 -0.4788 -0.2476
  246MPD1     H 3734   0.852   1.639   8.631 -0.2514  0.6287 -0.5393
  246MPD1    H1 3735   0.747   2.059   8.653  0.1299 -0.1097 -0.5423
  246MPD1    H2 3736   0.453   1.763   8.595 -0.2204 -0.1180 -0.3636
  246MPD1    H3 3737   0.515   1.997   8.608 -0.4437 -0.3518 -1.7354
  246MPD1     N 3738   0.958   1.892   8.666  0.4352 -0.5137 -0.1557
  246MPD1    H5 3739   1.022   1.814   8.658 -0.9146 -1.5175 -1.1027
  246MPD1    N1 3740   0.615   1.558   8.614 -0.3932  0.7090 -0.4533
  246MPD1    H6 3741   0.545   1.538   8.543 -0.0334  0.6947 -0.8086
  246MPD1    H7 3742   0.691   1.493   8.594  0.1686  1.7893 -1.9026
  247MPD1     C 3743   0.626   0.682  15.696 -0.0670  0.0920  0.8426
  247MPD1    C1 3744   0.579   0.603  15.798  0.0784 -0.0773 -0.7291
  247MPD1    C2 3745   0.613   0.469  15.793  0.3818  0.8040 -0.4263
  247MPD1    C3 3746   0.674   0.411  15.687  0.2635  0.7559 -0.3020
  247MPD1    C4 3747   0.719   0.493  15.590  0.9633  0.2950 -0.1295
  247MPD1    C5 3748   0.693   0.625  15.595  0.2344  0.7546 -0.3654
  247MPD1     H 3749   0.585   0.403  15.875  0.3824 -1.0269 -1.8857
  247MPD1    H1 3750   0.772   0.461  15.501  0.3317  0.5982 -0.6207
  247MPD1    H2 3751   0.625   0.790  15.699  1.3671  0.0624  2.1754
  247MPD1    H3 3752   0.739   0.691  15.523  0.5701  0.1416 -0.7116
  247MPD1     N 3753   0.699   0.275  15.679 -0.0124 -0.0668 -0.3455
  247MPD1    H5 3754   0.760   0.252  15.601  2.4776 -0.3577  1.6612
  247MPD1    N1 3755   0.541   0.672  15.916  0.1354 -0.2362 -0.4964
  247MPD1    H6 3756   0.485   0.611  15.976 -1.0517 -0.3497 -1.7142
  247MPD1    H7 3757   0.489   0.754  15.887 -0.0880 -0.5793 -1.0556
  248MPD1     C 3758   2.376   2.696   0.801  0.0371  0.8177 -0.3581
  248MPD1    C1 3759   2.303   2.783   0.868 -0.3381 -0.0435  0.5371
  248MPD1    C2 3760   2.166   2.795   0.850  0.9220  0.7288  0.3148
  248MPD1    C3 3761   2.100   2.726   0.752  0.8269 -0.1266  0.1042
  248MPD1    C4 3762   2.179   2.646   0.673 -0.2073  0.5107  0.6452
  248MPD1    C5 3763   2.312   2.624   0.697  0.4681 -0.6122 -0.3259
  248MPD1     H 3764   2.105   2.851   0.920  0.7896  0.7458  0.1867
  248MPD1    H1 3765   2.139   2.593   0.588 -0.0680  1.2098  0.1468
  248MPD1    H2 3766   2.480   2.678   0.826 -0.4008  0.1992  1.0041
  248MPD1    H3 3767   2.371   2.558   0.635  1.3725  0.0347 -0.1407
  248MPD1     N 3768   1.963   2.746   0.745 -0.6930  0.2750 -0.2088
  248MPD1    H5 3769   1.922   2.812   0.811 -0.8304 -0.3514  0.3338
  248MPD1    N1 3770   2.358   2.840   0.981  0.0136 -0.0670 -0.1212
  248MPD1    H6 3771   2.306   2.908   1.036  0.2504 -0.1562  0.2165
  248MPD1    H7 3772   2.454   2.872   0.967  0.1130  0.4589  1.8326
  249MPD1     C 3773   3.296   2.422   9.498  0.1365  0.5228 -0.2308
  249MPD1    C1 3774   3.390   2.499   9.432 -0.7098 -0.2059  0.0970
  249MPD1    C2 3775   3.380   2.638   9.431 -0.7139  0.2438 -0.5963
  249MPD1    C3 3776   3.285   2.699   9.512  0.0546 -0.6141  0.1519
  249MPD1    C4 3777   3.207   2.617   9.591  0.1811 -0.8436  0.2573
  249MPD1    C5 3778   3.205   2.478   9.580 -0.0269 -0.7485 -0.2171
  249MPD1     H 3779   3.448   2.699   9.373  0.0865 -0.4760 -0.4301
  249MPD1    H1 3780   3.141   2.665   9.662 -0.5933 -0.9334 -0.3905
  249MPD1    H2 3781   3.313   2.315   9.510 -4.1337 -0.1050  0.0879
  249MPD1    H3 3782   3.132   2.426   9.641 -0.6087  1.7142  1.1752
  249MPD1     N 3783   3.280   2.837   9.517  0.5011  0.3952  0.2641
  249MPD1    H5 3784   3.320   2.885   9.437 -1.0162  0.0576 -0.7152
  249MPD1    N1 3785   3.463   2.432   9.332  0.4390 -0.1120  0.1521
  249MPD1    H6 3786   3.509   2.344   9.354  1.1752  0.3121  0.2983
  249MPD1    H7 3787   3.540   2.489   9.299  0.6340 -0.2751  0.3283
  250MPD2     C 3788   0.191   2.995  12.892  0.0566 -0.0460 -0.1915
  250MPD2    C1 3789   0.074   3.068  12.930  0.5270  0.2182 -0.4693
  250MPD2    C2 3790   4.674   3.001  12.930 -0.8371  0.9281  0.4600
  250MPD2    C3 3791   4.662   2.872  12.881  0.5397  0.2252  0.4339
  250MPD2    C4 3792   0.054   2.804  12.859 -0.6209 -0.2289 -0.5917
  250MPD2    C5 3793   0.178   2.860  12.859  1.1120  0.0551  0.5554
  250MPD2     H 3794   4.591   3.061  12.967  0.3084  1.2330  2.5374
  250MPD2    H1 3795   0.041   2.702  12.822  1.1625  0.6948 -3.8326
  250MPD2    H2 3796   0.287   3.045  12.882  0.9620 -1.5675  0.9573
  250MPD2    H3 3797   0.256   2.791  12.832  1.9855  0.8077  1.1549
  250MPD2     N 3798   4.539   2.801  12.878  0.0791  0.0570  0.1110
  250MPD2    H5 3799   4.539   2.702  12.855 -0.6324  0.1707 -0.3644
  250MPD2    N1 3800   0.099   3.200  12.986 -0.2465 -0.1130  0.4647
  250MPD2    H7 3801   0.190   3.242  12.970  0.7821 -2.2881  0.6154
  251TMC3    C1 3802   0.048   3.407  13.079 -0.4732  0.4555  0.1090
  251TMC3    C2 3803   4.686   3.512  13.094 -0.2275  0.4449  0.1112
  251TMC3    C3 3804   0.018   3.641  13.101 -0.3932  0.0107  0.6041
  251TMC3    C4 3805   0.185   3.425  13.099  0.3517  0.2933 -0.9622
  251TMC3    C5 3806   0.236   3.553  13.096 -0.4655 -0.1177 -0.6246
  251TMC3    C6 3807   0.155   3.663  13.090 -0.1730 -0.3999  0.6286
  251TMC3     C 3808   4.722   3.284  13.037 -0.2487  0.1945  0.8230
  251TMC3     O 3809   4.606   3.255  13.063 -0.0479  0.4724  0.3440
  251TMC3     H 3810   4.579   3.502  13.084 -0.2085 -0.0732  0.4198
  251TMC3    H1 3811   0.247   3.336  13.111 -2.2076 -1.1017  1.7818
  251TMC3    H2 3812   0.204   3.759  13.100  0.6458 -0.7716  0.0691
  251TMC3    C7 3813   0.372   3.564  13.040 -1.0035  0.1474  0.0311
  251TMC3    C8 3814   4.657   3.748  13.144 -0.7159 -0.0559  0.2410
  251TMC3    O1 3815   0.437   3.460  13.050  0.3878  0.3244 -0.3075
  251TMC3    O2 3816   4.571   3.727  13.224  0.1053 -0.3705  0.5951
  252TMC3    C1 3817   4.334   4.045   9.594 -0.0361  1.0515  0.0269
  252TMC3    C2 3818   4.469   4.029   9.590 -0.4698 -0.1465  0.0003
  252TMC3    C3 3819   4.531   3.909   9.564  0.3852  0.1152  0.7818
  252TMC3    C4 3820   4.259   3.927   9.580 -0.8177 -0.3487 -0.4161
  252TMC3    C5 3821   4.320   3.810   9.548  0.3369 -1.3872  0.1597
  252TMC3    C6 3822   4.457   3.794   9.547 -0.5120 -0.1998 -0.2725
  252TMC3     C 3823   4.269   4.165   9.635 -0.3099 -1.1378  0.1593
  252TMC3     O 3824   4.149   4.166   9.637  0.4473 -0.6399  0.4334
  252TMC3     H 3825   4.529   4.115   9.615  0.9075 -0.4792 -2.1742
  252TMC3    H1 3826   4.151   3.922   9.579 -0.8358 -0.1464  0.9085
  252TMC3    H2 3827   4.501   3.697   9.523  1.7379  0.8561 -0.4167
  252TMC3    C7 3828   4.229   3.695   9.560  0.4787  0.0299  0.3133
  252TMC3    C8 3829   4.678   3.902   9.552  0.8267  1.0492 -0.0949
  252TMC3    O1 3830   4.121   3.715   9.607  0.3758  0.1177 -0.4839
  252TMC3    O2 3831   0.005   3.808   9.496  0.7008  0.2737 -0.5333
  253MPD2     C 3832   1.396   3.015  14.732  0.0126  0.4696 -0.0238
  253MPD2    C1 3833   1.269   3.050  14.785  0.7843 -0.4706 -0.6593
  253MPD2    C2 3834   1.249   3.053  14.922  0.1539  0.7529  0.0926
  253MPD2    C3 3835   1.337   2.998  15.009  0.1665  0.4033  0.3644
  253MPD2    C4 3836   1.451   2.940  14.957 -1.3519 -0.2782 -0.0741
  253MPD2    C5 3837   1.483   2.957  14.826 -0.0607 -0.1915 -0.1121
  253MPD2     H 3838   1.153   3.094  14.950  0.1060 -1.2469  2.8209
  253MPD2    H1 3839   1.518   2.896  15.031 -0.7069  0.0791 -0.4429
  253MPD2    H2 3840   1.428   3.028  14.629 -0.4876  2.1001  0.0276
  253MPD2    H3 3841   1.581   2.921  14.798  0.0111  0.4820 -0.7087
  253MPD2     N 3842   1.314   2.979  15.150 -0.7686  0.6292  0.0527
  253MPD2    H5 3843   1.388   2.934  15.203 -1.8372 -0.1597  0.8513
  253MPD2    N1 3844   1.172   3.112  14.708 -0.0238 -0.1121 -0.6181
  253MPD2    H7 3845   1.078   3.125  14.742 -0.0365  0.5574 -0.9251
  254TMC3    C1 3846   1.190   3.005  15.367  0.0242 -0.6072  0.0649
  254TMC3    C2 3847   1.069   3.031  15.422 -0.6948 -0.7060  0.2050
  254TMC3    C3 3848   1.034   2.980  15.546 -0.6511 -0.0591  0.5944
  254TMC3    C4 3849   1.282   2.911  15.423 -0.5074 -0.3352  0.9243
  254TMC3    C5 3850   1.242   2.863  15.545 -0.3833  0.0795 -0.3296
  254TMC3    C6 3851   1.115   2.889  15.603 -0.5008 -0.1213 -0.1180
  254TMC3     C 3852   1.212   3.039  15.222 -0.4466  0.2633 -0.3341
  254TMC3     O 3853   1.125   3.119  15.185  0.1560  0.4620 -0.2131
  254TMC3     H 3854   1.002   3.097  15.368  0.6717  0.2098 -0.3795
  254TMC3    H1 3855   1.386   2.919  15.392 -0.3715  0.0585  1.4795
  254TMC3    H2 3856   1.101   2.849  15.703 -1.6194  1.0436  0.1866
  254TMC3    C7 3857   1.345   2.799  15.632 -0.4416 -0.2223  0.2784
  254TMC3    C8 3858   0.949   3.055  15.636 -0.0065 -0.1190 -0.4376
  254TMC3    O1 3859   1.315   2.763  15.745  0.4244  0.2942 -0.1398
  254TMC3    O2 3860   0.930   3.010  15.751  0.1356 -0.0172 -0.4522
  255MPD2     C 3861   3.565   1.202   9.146 -0.0130 -0.8295  0.2045
  255MPD2    C1 3862   3.669   1.287   9.121  0.2205 -0.2940 -0.4408
  255MPD2    C2 3863   3.755   1.330   9.222 -0.2094  0.2427  0.2705
  255MPD2    C3 3864   3.712   1.300   9.352 -0.7020  0.3869 -0.4758
  255MPD2    C4 3865   3.600   1.222   9.381 -0.1764 -0.7183  0.1546
  255MPD2    C5 3866   3.529   1.169   9.278 -0.2456 -0.5122  0.6214
  255MPD2     H 3867   3.841   1.389   9.193  0.4646 -0.4079  0.9563
  255MPD2    H1 3868   3.567   1.204   9.483 -1.0698  0.4561  0.0605
  255MPD2    H2 3869   3.499   1.159   9.073  2.3685 -1.4246 -1.6112
  255MPD2    H3 3870   3.447   1.103   9.304 -0.0503 -1.0331 -0.0830
  255MPD2     N 3871   3.789   1.348   9.461  0.1106 -0.5234 -0.0019
  255MPD2    H5 3872   3.741   1.353   9.550 -2.1619  0.9436 -1.3338
  255MPD2    N1 3873   3.683   1.317   8.983 -0.2143 -0.4121  0.1301
  255MPD2    H7 3874   3.620   1.270   8.918 -1.2093  1.4932 -0.2721
  256TMC3    C1 3875   3.791   1.417   8.799  0.4914 -0.0779  0.4140
  256TMC3    C2 3876   3.872   1.516   8.763  0.3166 -0.0017 -0.5600
  256TMC3    C3 3877   3.943   1.503   8.644  0.8140  0.4885  0.8082
  256TMC3    C4 3878   3.766   1.304   8.723  0.4487  0.2631 -0.1260
  256TMC3    C5 3879   3.837   1.289   8.605  0.2372  0.2952 -0.5280
  256TMC3    C6 3880   3.922   1.389   8.569 -0.3644  0.2210 -0.5391
  256TMC3     C 3881   3.766   1.421   8.941 -0.5908  0.1318  1.2478
  256TMC3     O 3882   3.830   1.505   9.006 -0.6116  0.3607  0.8452
  256TMC3     H 3883   3.889   1.598   8.831  0.5533 -0.3959 -0.1433
  256TMC3    H1 3884   3.705   1.226   8.766 -1.6167  0.7593 -2.1230
  256TMC3    H2 3885   3.993   1.374   8.488  3.0081  1.3223  2.2259
  256TMC3    C7 3886   3.830   1.168   8.525  0.1419 -0.2316  0.1198
  256TMC3    C8 3887   4.075   1.559   8.642  0.2302 -0.0055 -0.0746
  256TMC3    O1 3888   3.888   1.167   8.418  0.2829  0.2511 -0.6817
  256TMC3    O2 3889   4.170   1.497   8.591 -0.5121  0.1199  0.4880
  257MPD2     C 3890   3.636   3.375  13.174 -0.5405 -0.0815 -0.5204
  257MPD2    C1 3891   3.583   3.279  13.092  0.6781  0.5804 -0.0501
  257MPD2    C2 3892   3.541   3.161  13.147  0.1028 -0.4499  0.0812
  257MPD2    C3 3893   3.550   3.137  13.284 -0.0312  0.1641 -0.0719
  257MPD2    C4 3894   3.619   3.225  13.361  0.0169 -0.1182 -0.0354
  257MPD2    C5 3895   3.657   3.343  13.308  0.5170 -0.0937 -0.9841
  257MPD2     H 3896   3.495   3.085  13.085 -1.3211 -0.2242  0.8598
  257MPD2    H1 3897   3.645   3.213  13.466  0.0382  0.7371  0.0594
  257MPD2    H2 3898   3.669   3.474  13.141  0.6671  0.7439  3.0998
  257MPD2    H3 3899   3.699   3.415  13.377 -1.6513  1.6977 -1.5546
  257MPD2     N 3900   3.501   3.011  13.328  0.6469  0.2525  0.1625
  257MPD2    H5 3901   3.440   2.955  13.268  0.3929  0.2369  0.4370
  257MPD2    N1 3902   3.565   3.319  12.961 -0.1648 -0.6631  0.3458
  257MPD2    H7 3903   3.604   3.409  12.934 -0.9698 -0.2437  0.5682
  258TMC3    C1 3904   3.488   2.812  13.455  0.1507 -0.1021  0.9069
  258TMC3    C2 3905   3.499   2.736  13.341  0.1252  0.1829  0.4842
  258TMC3    C3 3906   3.510   2.601  13.351  0.1076  0.1108 -0.6617
  258TMC3    C4 3907   3.516   2.756  13.577  0.2110  0.0489 -0.0280
  258TMC3    C5 3908   3.530   2.621  13.587  0.3713  0.2182 -0.1173
  258TMC3    C6 3909   3.524   2.535  13.471  0.3248  0.3625 -0.2347
  258TMC3     C 3910   3.529   2.953  13.450  0.2295 -0.5884  0.8038
  258TMC3     O 3911   3.603   2.987  13.541  0.2635 -0.2925 -0.3659
  258TMC3     H 3912   3.490   2.783  13.244 -1.4389 -1.0849  0.0122
  258TMC3    H1 3913   3.493   2.818  13.664 -0.9109 -0.3726 -0.0223
  258TMC3    H2 3914   3.517   2.429  13.492  0.8066  0.2588 -0.6082
  258TMC3    C7 3915   3.488   2.563  13.711  0.3331  0.2641 -0.3166
  258TMC3    C8 3916   3.458   2.519  13.245  0.5594 -0.0620  0.4988
  258TMC3    O1 3917   3.402   2.621  13.775 -0.3023  0.1013 -0.3101
  258TMC3    O2 3918   3.489   2.401  13.265  0.0328  0.3088  0.1033
  259MPD2     C 3919   1.381   3.489   0.923 -0.1919 -0.8763  0.1858
  259MPD2    C1 3920   1.471   3.559   1.007  0.2851  0.1512  0.2205
  259MPD2    C2 3921   1.596   3.576   0.964 -0.0683  0.4926  0.0062
  259MPD2    C3 3922   1.644   3.527   0.848 -0.4311 -0.1278  0.2819
  259MPD2    C4 3923   1.557   3.447   0.774 -0.5165  0.7556  0.6827
  259MPD2    C5 3924   1.427   3.427   0.808  1.0718  0.6497 -0.4074
  259MPD2     H 3925   1.669   3.624   1.029  0.8962  0.1023 -0.7875
  259MPD2    H1 3926   1.582   3.397   0.681 -1.3316  2.2784 -0.3620
  259MPD2    H2 3927   1.283   3.475   0.966  0.2636  1.5599  1.9808
  259MPD2    H3 3928   1.360   3.359   0.756 -0.1711  1.0005  0.7348
  259MPD2     N 3929   1.779   3.544   0.809  0.3328  0.2575  0.0900
  259MPD2    H5 3930   1.839   3.575   0.884  0.1874  0.6244  0.0521
  259MPD2    N1 3931   1.417   3.611   1.131  0.9296  0.1590  0.3175
  259MPD2    H7 3932   1.318   3.602   1.151  0.8469  0.8611  0.2555
  260TMC3    C1 3933   1.985   3.512   0.707 -0.2120  0.4212 -0.0633
  260TMC3    C2 3934   2.037   3.619   0.766  0.0625 -0.2125  0.0696
  260TMC3    C3 3935   2.173   3.628   0.785  0.0538  0.6570  0.5550
  260TMC3    C4 3936   2.060   3.427   0.636 -0.2628 -0.4513 -0.1153
  260TMC3    C5 3937   2.192   3.445   0.636  0.9419  0.1280  0.6568
  260TMC3    C6 3938   2.260   3.543   0.715 -1.1636  0.3494 -0.1857
  260TMC3     C 3939   1.840   3.499   0.696  0.6743  0.3782 -0.5810
  260TMC3     O 3940   1.789   3.454   0.597  0.2363  0.4079  0.3855
  260TMC3     H 3941   1.965   3.691   0.804 -1.2244 -2.0301  1.0771
  260TMC3    H1 3942   2.008   3.338   0.603  0.8764 -1.2703  0.3139
  260TMC3    H2 3943   2.367   3.555   0.725 -1.0917  0.4946 -1.0930
  260TMC3    C7 3944   2.275   3.381   0.536 -0.3363  0.7174 -0.7582
  260TMC3    C8 3945   2.208   3.696   0.910 -0.2126  0.6651  0.1001
  260TMC3    O1 3946   2.396   3.401   0.523  0.0708 -0.3697 -0.4978
  260TMC3    O2 3947   2.119   3.760   0.960  0.3122  0.2911 -0.7173
  261MPD2     C 3948   3.838   2.659  12.530 -0.5885 -0.2341 -0.5949
  261MPD2    C1 3949   3.938   2.761  12.532  0.1052 -0.9338 -1.0849
  261MPD2    C2 3950   3.967   2.828  12.418 -0.3937  0.3797  1.0172
  261MPD2    C3 3951   3.897   2.803  12.303  0.1006  0.0064 -0.9429
  261MPD2    C4 3952   3.793   2.713  12.302  0.8810 -0.7738  0.2254
  261MPD2    C5 3953   3.772   2.638  12.410  0.0928  0.2423 -0.3306
  261MPD2     H 3954   4.050   2.897  12.418 -0.0064 -0.0886  0.9401
  261MPD2    H1 3955   3.735   2.680  12.216 -1.6322  0.4128  1.4504
  261MPD2    H2 3956   3.824   2.595  12.616 -1.7536 -1.3920 -1.6528
  261MPD2    H3 3957   3.698   2.559  12.402  2.3027 -1.8561 -0.0394
  261MPD2     N 3958   3.925   2.885  12.192  0.1027  0.0681 -0.2573
  261MPD2    H5 3959   3.998   2.954  12.207 -0.3506  0.4556  0.1494
  261MPD2    N1 3960   4.017   2.795  12.647 -0.4352  0.6686  0.2110
  261MPD2    H7 3961   4.097   2.855  12.630 -0.1323 -0.4185 -2.1931
  262TMC3    C1 3962   3.900   3.027  12.015  0.5739  0.0465 -0.1504
  262TMC3    C2 3963   3.812   3.112  11.958 -0.3177  0.0490 -0.7018
  262TMC3    C3 3964   3.856   3.209  11.874 -0.3791  0.3845  0.4720
  262TMC3    C4 3965   4.033   3.035  11.982 -0.4109  0.3840  0.0762
  262TMC3    C5 3966   4.071   3.126  11.889 -0.2020  0.4870 -0.7556
  262TMC3    C6 3967   3.980   3.213  11.829  0.3448 -0.4455  0.4350
  262TMC3     C 3968   3.853   2.903  12.077  0.1955 -0.0403 -0.5966
  262TMC3     O 3969   3.747   2.854  12.040  0.2966  0.1689  0.5626
  262TMC3     H 3970   3.710   3.109  11.995  0.0183 -0.3761  0.1720
  262TMC3    H1 3971   4.107   2.968  12.025 -0.9910  0.0109  0.4864
  262TMC3    H2 3972   4.001   3.279  11.745 -0.2623  0.2550  0.8272
  262TMC3    C7 3973   4.202   3.106  11.832  0.1335 -0.2763 -0.9321
  262TMC3    C8 3974   3.783   3.338  11.859 -0.4376 -0.2101 -0.2020
  262TMC3    O1 3975   4.268   3.012  11.881  0.1465  0.4059  0.5764
  262TMC3    O2 3976   3.855   3.435  11.843  0.0234  0.2297 -0.0613
  263MPD2     C 3977   0.272   2.098  11.029 -0.3644  0.6030  0.8433
  263MPD2    C1 3978   0.327   2.211  11.084  0.5439  0.7113  0.2110
  263MPD2    C2 3979   0.342   2.326  10.999  0.0018 -0.2977  0.4283
  263MPD2    C3 3980   0.308   2.328  10.865  0.6186 -0.2496 -0.0544
  263MPD2    C4 3981   0.249   2.213  10.818 -0.2322  0.0885  0.2383
  263MPD2    C5 3982   0.233   2.097  10.897 -0.1801  0.6295  0.2800
  263MPD2     H 3983   0.390   2.415  11.040 -0.7965  1.8014 -3.1890
  263MPD2    H1 3984   0.222   2.202  10.714  1.8693  2.7923 -0.5980
  263MPD2    H2 3985   0.252   2.012  11.093 -1.4646 -1.2891 -2.0267
  263MPD2    H3 3986   0.185   2.007  10.862  0.1606  0.4961  0.1586
  263MPD2     N 3987   0.317   2.452  10.796  0.1910 -0.0058  0.0804
  263MPD2    H5 3988   0.341   2.533  10.852  2.2662 -0.7288  0.2468
  263MPD2    N1 3989   0.379   2.210  11.217  0.6404  0.2503  0.4158
  263MPD2    H7 3990   0.393   2.119  11.260 -1.4185  0.0772  0.7090
  264TMC3    C1 3991   0.341   2.597  10.607  0.4333  0.0512  0.6699
  264TMC3    C2 3992   0.302   2.697  10.689  0.3391 -0.3263  0.4979
  264TMC3    C3 3993   0.343   2.823  10.656 -0.0041  0.1253  0.1436
  264TMC3    C4 3994   0.421   2.612  10.490 -0.0861 -0.1259  0.0805
  264TMC3    C5 3995   0.455   2.743  10.464 -0.4426 -0.7415 -0.3224
  264TMC3    C6 3996   0.415   2.852  10.545  0.0507  0.2548 -0.1998
  264TMC3     C 3997   0.317   2.466  10.655  0.2069  0.1985 -0.3136
  264TMC3     O 3998   0.313   2.384  10.564  0.6367  0.0100 -0.5010
  264TMC3     H 3999   0.239   2.676  10.774 -0.5589  0.4800  0.0487
  264TMC3    H1 4000   0.456   2.539  10.418 -0.6095 -0.8261  0.5366
  264TMC3    H2 4001   0.450   2.951  10.519  1.6070  0.1809  1.5941
  264TMC3    C7 4002   0.546   2.767  10.355 -0.9565 -0.0941  0.0737
  264TMC3    C8 4003   0.285   2.942  10.727 -0.1579  0.4035 -0.6716
  264TMC3    O1 4004   0.637   2.691  10.334 -0.3685 -0.0816  0.0150
  264TMC3    O2 4005   0.272   3.032  10.646 -0.4033  0.4571 -0.1068
  265MPD2     C 4006   2.486   2.169  15.352 -0.4713 -0.2390  0.2358
  265MPD2    C1 4007   2.502   2.294  15.304 -0.2796  0.1379  0.0888
  265MPD2    C2 4008   2.565   2.305  15.180 -0.2327 -0.3100 -1.1366
  265MPD2    C3 4009   2.602   2.188  15.114  0.1422  0.7167 -0.5958
  265MPD2    C4 4010   2.589   2.065  15.167  0.3397 -0.0159  0.3679
  265MPD2    C5 4011   2.525   2.059  15.283  0.2195 -0.3163 -0.4218
  265MPD2     H 4012   2.575   2.402  15.131 -1.1740  0.6082  0.4956
  265MPD2    H1 4013   2.629   1.973  15.125  0.8149  0.3939 -0.0674
  265MPD2    H2 4014   2.440   2.156  15.449  0.6964 -1.1370  0.6660
  265MPD2    H3 4015   2.508   1.961  15.326 -0.3950  0.1990  0.5120
  265MPD2     N 4016   2.663   2.187  14.992 -0.2214 -0.5950  0.8028
  265MPD2    H5 4017   2.671   2.103  14.936 -3.3837  0.7715 -1.6987
  265MPD2    N1 4018   2.450   2.412  15.363 -0.0293 -0.3370  0.4988
  265MPD2    H7 4019   2.451   2.503  15.316 -0.5800 -0.6372 -0.0984
  266TMC3    C1 4020   2.380   2.540  15.552 -0.1430 -0.3692 -0.3362
  266TMC3    C2 4021   2.441   2.583  15.665 -0.1730  1.0056  0.4667
  266TMC3    C3 4022   2.451   2.715  15.686  0.2815 -0.6818 -0.0453
  266TMC3    C4 4023   2.325   2.629  15.466 -0.6222 -0.4577 -0.1799
  266TMC3    C5 4024   2.329   2.763  15.493 -0.4736 -0.3248  0.4253
  266TMC3    C6 4025   2.406   2.805  15.599 -0.0880 -0.2145 -0.1559
  266TMC3     C 4026   2.427   2.414  15.500 -0.5685  0.2780  0.2877
  266TMC3     O 4027   2.453   2.328  15.584 -0.1595 -0.1998 -0.0775
  266TMC3     H 4028   2.486   2.514  15.734 -2.0788  0.1471  0.8618
  266TMC3    H1 4029   2.281   2.603  15.371 -1.3737  1.8651 -0.4642
  266TMC3    H2 4030   2.416   2.910  15.625 -0.5235 -0.0642 -0.5985
  266TMC3    C7 4031   2.279   2.862  15.401  0.3388  0.7073 -0.4232
  266TMC3    C8 4032   2.540   2.754  15.795 -0.0869  0.0061  0.3669
  266TMC3    O1 4033   2.253   2.826  15.286 -0.6168  0.0942  0.3738
  266TMC3    O2 4034   2.611   2.665  15.842  0.2133 -0.1193 -0.0152
  267MPD2     C 4035   0.487   3.537   0.156  0.5114 -0.1889  0.2274
  267MPD2    C1 4036   0.378   3.613   0.182 -1.0671  0.0687  0.4232
  267MPD2    C2 4037   0.367   3.744   0.122  0.2318 -0.1366 -0.1063
  267MPD2    C3 4038   0.469   3.783   0.030  0.0216  0.3746  0.0279
  267MPD2    C4 4039   0.574   3.703   0.010  0.5080 -0.4440 -0.1592
  267MPD2    C5 4040   0.585   3.583   0.069  0.2823 -0.0625  0.6451
  267MPD2     H 4041   0.287   3.810   0.152 -1.6586 -2.3527 -0.2726
  267MPD2    H1 4042   0.658   3.732  17.642  0.1202 -0.6049 -0.7519
  267MPD2    H2 4043   0.510   3.439   0.195  0.3177  0.5731  2.2912
  267MPD2    H3 4044   0.672   3.521   0.052 -0.8081 -1.5246  0.4205
  267MPD2     N 4045   0.467   3.896  17.637  0.3372 -0.0742  0.5633
  267MPD2    H5 4046   0.527   3.904  17.556  0.1855  2.8759  0.7657
  267MPD2    N1 4047   0.283   3.560   0.279 -0.1687 -0.1432  0.2026
  267MPD2    H7 4048   0.309   3.476   0.330  1.1591 -0.2920 -0.7187
  268TMC3    C1 4049   0.073   3.522   0.376 -0.6216  0.3434  0.3507
  268TMC3    C2 4050   4.663   3.523   0.348  0.6276  0.2988  0.3973
  268TMC3    C3 4051   4.575   3.443   0.432  0.0506 -0.2185 -0.4412
  268TMC3    C4 4052   0.131   3.452   0.477 -0.3143 -0.4082  0.0526
  268TMC3    C5 4053   0.043   3.376   0.552 -0.0840  0.3918  0.5244
  268TMC3    C6 4054   4.629   3.364   0.529  0.0160  0.6178  0.4986
  268TMC3     C 4055   0.152   3.598   0.279 -0.1884  0.2374 -0.0473
  268TMC3     O 4056   0.092   3.683   0.217  0.3235  0.3239  0.6758
  268TMC3     H 4057   4.618   3.582   0.269 -1.9715 -1.9071  0.2225
  268TMC3    H1 4058   0.237   3.455   0.503 -0.6807  1.3755  1.2910
  268TMC3    H2 4059   4.569   3.302   0.594  3.4766 -1.4647  1.7185
  268TMC3    C7 4060   0.099   3.272   0.634 -0.6533 -1.0513  0.1487
  268TMC3    C8 4061   4.440   3.413   0.386  0.2504 -0.3255 -0.6726
  268TMC3    O1 4062   0.031   3.244   0.732 -0.6050  0.5232 -0.4867
  268TMC3    O2 4063   4.388   3.311   0.430  0.1372  0.3043  0.2485
  269MPD2     C 4064   0.474   3.339  15.311  0.3230 -0.1682  0.2642
  269MPD2    C1 4065   0.354   3.359  15.378 -0.6191  0.3208 -0.2410
  269MPD2    C2 4066   0.303   3.488  15.386 -0.0896 -0.6422  0.4832
  269MPD2    C3 4067   0.372   3.591  15.326 -0.3944  1.0341 -0.5564
  269MPD2    C4 4068   0.478   3.564  15.247  0.0840 -0.6567 -0.1377
  269MPD2    C5 4069   0.531   3.437  15.243 -0.2095 -0.1335  0.1854
  269MPD2     H 4070   0.225   3.506  15.459 -0.2607  0.2919  0.0641
  269MPD2    H1 4071   0.522   3.635  15.178 -1.8672  0.9641  0.2847
  269MPD2    H2 4072   0.525   3.244  15.313 -0.8679 -0.7891  1.6840
  269MPD2    H3 4073   0.615   3.420  15.177 -0.6674 -1.4136 -0.0714
  269MPD2     N 4074   0.314   3.717  15.336  0.0952 -0.7933  0.3109
  269MPD2    H5 4075   0.230   3.730  15.390 -0.2182  1.6771 -0.7545
  269MPD2    N1 4076   0.288   3.252  15.443 -0.4432  0.0916 -0.2207
  269MPD2    H7 4077   0.337   3.163  15.453  1.1794  1.1006  0.9161
  270TMC3    C1 4078   0.129   3.142  15.570 -0.0836  0.3670  0.3265
  270TMC3    C2 4079   0.007   3.096  15.533  0.0550 -0.1125 -0.3708
  270TMC3    C3 4080   4.688   2.971  15.571  0.0768 -0.4926 -1.2644
  270TMC3    C4 4081   0.219   3.066  15.639 -0.6679  0.0186  0.2054
  270TMC3    C5 4082   0.173   2.948  15.685  0.0072 -0.3452  0.1224
  270TMC3    C6 4083   0.044   2.906  15.657  0.3554 -0.1450 -0.0000
  270TMC3     C 4084   0.167   3.261  15.504 -0.2462  0.8232 -0.3120
  270TMC3     O 4085   0.070   3.330  15.485  0.5899 -0.1825  0.6158
  270TMC3     H 4086   4.666   3.157  15.471 -0.9497 -0.5484  0.2365
  270TMC3    H1 4087   0.313   3.114  15.662 -0.2573 -1.0556  0.7744
  270TMC3    H2 4088   0.016   2.807  15.692 -0.8229  1.4873  3.5976
  270TMC3    C7 4089   0.266   2.854  15.744  0.2721  0.4786 -0.5727
  270TMC3    C8 4090   4.624   2.889  15.467 -0.5272  0.0524 -0.6297
  270TMC3    O1 4091   0.382   2.851  15.715  0.2316 -0.0705 -0.4496
  270TMC3    O2 4092   4.686   2.786  15.445  0.9309  0.1366 -0.5895
  271MPD2     C 4093   4.142   3.042  13.768  0.5322 -0.5592  0.1183
  271MPD2    C1 4094   4.075   2.997  13.874  0.0434 -0.0422  0.5232
  271MPD2    C2 4095   3.940   3.024  13.885  0.1502  0.2683 -0.4413
  271MPD2    C3 4096   3.876   3.108  13.788 -0.3509  0.0825 -0.0162
  271MPD2    C4 4097   3.954   3.160  13.690 -0.0586  0.0522  0.1935
  271MPD2    C5 4098   4.081   3.126  13.679 -0.2916 -0.7475 -0.0879
  271MPD2     H 4099   3.882   2.982  13.967  2.3072  0.3003  1.0870
  271MPD2    H1 4100   3.912   3.223  13.612 -0.8905 -0.0271  0.5741
  271MPD2    H2 4101   4.250   3.033  13.757  0.4100 -0.5603 -1.0868
  271MPD2    H3 4102   4.139   3.173  13.601  0.2860 -1.6297 -0.1993
  271MPD2     N 4103   3.733   3.117  13.783 -0.0891 -0.2749  0.3015
  271MPD2    H5 4104   3.690   3.158  13.701 -0.1512  0.2408  0.5904
  271MPD2    N1 4105   4.133   2.919  13.980  0.0558 -0.0034 -0.1014
  271MPD2    H7 4106   4.068   2.892  14.053 -0.2958 -3.2919 -1.6567
  272TMC3    C1 4107   4.294   2.796  14.109 -0.1436  0.3022 -0.3968
  272TMC3    C2 4108   4.423   2.762  14.124  0.1275  0.8137 -0.0007
  272TMC3    C3 4109   4.466   2.714  14.244 -0.2400  0.6559 -0.3292
  272TMC3    C4 4110   4.206   2.796  14.217 -0.7544  0.3452  0.3463
  272TMC3    C5 4111   4.259   2.752  14.336 -0.3199  0.3962  0.2520
  272TMC3    C6 4112   4.382   2.698  14.350  0.9208 -0.2934 -0.5695
  272TMC3     C 4113   4.269   2.875  13.994  0.3841  0.1690  0.1995
  272TMC3     O 4114   4.369   2.929  13.950 -0.0469 -0.7973  0.0310
  272TMC3     H 4115   4.492   2.772  14.041 -0.6678  1.8290 -0.5397
  272TMC3    H1 4116   4.105   2.832  14.206  0.0312  2.6209  0.5948
  272TMC3    H2 4117   4.410   2.672  14.452 -1.4141 -0.2912  0.0585
  272TMC3    C7 4118   4.184   2.814  14.448  0.4969 -0.0883  0.0140
  272TMC3    C8 4119   4.605   2.692  14.253 -0.0710  0.1876  0.1646
  272TMC3    O1 4120   4.071   2.839  14.413 -0.0745 -0.0935 -0.0726
  272TMC3    O2 4121   4.677   2.734  14.163  0.0117  0.2853 -0.3638
  273MPD2     C 4122   0.788   1.151  10.793  0.4073 -0.0580 -0.4869
  273MPD2    C1 4123   0.862   1.208  10.889  0.0655  0.1111 -0.0523
  273MPD2    C2 4124   0.979   1.273  10.852  0.8575 -0.3076  0.0415
  273MPD2    C3 4125   1.013   1.283  10.715 -0.2153  0.4366  1.1443
  273MPD2    C4 4126   0.936   1.219  10.624  0.7770  0.4664  0.1379
  273MPD2    C5 4127   0.821   1.160  10.661 -0.1148 -0.1583  0.5655
  273MPD2     H 4128   1.043   1.325  10.923  0.7134 -0.0235 -0.0345
  273MPD2    H1 4129   0.966   1.226  10.520  0.1608  4.7156  0.2370
  273MPD2    H2 4130   0.699   1.093  10.815 -0.5017  1.6827  0.3980
  273MPD2    H3 4131   0.756   1.110  10.590 -0.8839  0.4740  0.8297
  273MPD2     N 4132   1.121   1.354  10.661  0.3750  0.0472 -0.3771
  273MPD2    H5 4133   1.138   1.359  10.561  0.2051  1.1175 -0.3544
  273MPD2    N1 4134   0.815   1.204  11.020 -0.4157 -0.1259 -0.1492
  273MPD2    H7 4135   0.725   1.160  11.032  1.0494 -3.5168 -1.8323
  274TMC3    C1 4136   1.199   1.573  10.644 -0.4352 -0.3480 -0.7147
  274TMC3    C2 4137   1.094   1.580  10.554  0.0950 -0.3735 -0.4087
  274TMC3    C3 4138   1.013   1.686  10.561  0.4732  0.2153 -0.8449
  274TMC3    C4 4139   1.227   1.680  10.731 -0.1786  0.2661  0.3684
  274TMC3    C5 4140   1.140   1.788  10.729  0.2333  0.2150 -0.4105
  274TMC3    C6 4141   1.029   1.791  10.653  0.2234  0.1104  0.2256
  274TMC3     C 4142   1.184   1.459  10.731  0.9669  0.6142 -0.1954
  274TMC3     O 4143   1.188   1.483  10.853  0.3558  0.4907 -0.4505
  274TMC3     H 4144   1.095   1.503  10.478  2.2021 -1.7328  1.0049
  274TMC3    H1 4145   1.309   1.686  10.801 -0.4892 -0.1773  0.7726
  274TMC3    H2 4146   0.956   1.871  10.652 -1.9365 -1.8743 -1.1980
  274TMC3    C7 4147   1.119   1.854  10.853 -0.2445 -0.1871  0.2988
  274TMC3    C8 4148   0.878   1.680  10.501 -0.4527  0.1512 -0.2833
  274TMC3    O1 4149   1.082   1.972  10.848  0.1014  0.2402 -0.1052
  274TMC3    O2 4150   0.797   1.766  10.536  0.2185 -0.1412  0.3630
  275MPD2     C 4151   1.042   3.749  14.214  0.0466  0.3729 -0.1299
  275MPD2    C1 4152   0.951   3.844  14.248  0.4156  0.7732  0.0721
  275MPD2    C2 4153   0.817   3.816  14.269 -0.2220  0.9005  0.3392
  275MPD2    C3 4154   0.771   3.686  14.291 -0.1399 -0.3666  0.3365
  275MPD2    C4 4155   0.870   3.587  14.267  0.0535 -1.2668 -0.2322
  275MPD2    C5 4156   0.997   3.621  14.231 -0.2778 -0.4673 -1.0868
  275MPD2     H 4157   0.744   3.896  14.279 -0.4847  0.5771  1.0594
  275MPD2    H1 4158   0.844   3.482  14.267 -0.9121 -1.0327  0.8699
  275MPD2    H2 4159   1.148   3.762  14.191  0.0936 -0.9014 -0.6250
  275MPD2    H3 4160   1.064   3.538  14.213  0.3853  0.1344 -1.3731
  275MPD2     N 4161   0.641   3.653  14.330 -0.2755  0.0404  0.2159
  275MPD2    H5 4162   0.618   3.554  14.326  1.6870 -0.4086 -0.0424
  275MPD2    N1 4163   0.988   3.980  14.268  0.3392 -0.3943  0.8051
  275MPD2    H7 4164   0.908   4.037  14.296 -1.0457 -1.9463 -0.0258
  276TMC3    C1 4165   1.136   4.160  14.329 -0.3777 -0.3323 -0.1464
  276TMC3    C2 4166   1.027   4.201  14.402 -0.4771  0.2612 -0.3682
  276TMC3    C3 4167   1.032   4.274  14.515 -0.3761  0.4171  0.9070
  276TMC3    C4 4168   1.259   4.196  14.374  0.0171 -0.0226  0.8540
  276TMC3    C5 4169   1.266   4.256  14.500  0.1675  0.4353  0.2736
  276TMC3    C6 4170   1.153   4.295  14.574  0.2595 -0.0307 -0.1014
  276TMC3     C 4171   1.119   4.030  14.269 -0.1237  0.5838  0.0723
  276TMC3     O 4172   1.223   3.974  14.239 -0.9600 -0.6198  0.2106
  276TMC3     H 4173   0.926   4.192  14.364  0.2272 -3.7494 -1.2474
  276TMC3    H1 4174   1.345   4.176  14.311 -1.1698  0.7278 -0.9928
  276TMC3    H2 4175   1.159   4.341  14.672  0.0829 -2.3990  1.0104
  276TMC3    C7 4176   1.380   4.258  14.583  0.1857 -0.4118 -0.1990
  276TMC3    C8 4177   0.930   4.223  14.600  0.4125 -0.0130  0.3628
  276TMC3    O1 4178   1.376   4.333  14.677 -0.0511  0.2677  0.2880
  276TMC3    O2 4179   0.878   4.296  14.683 -0.3343  0.1632 -0.2785
  277MPD2     C 4180   2.743   3.029  13.274  0.6806  0.1762  0.6351
  277MPD2    C1 4181   2.608   3.031  13.253 -0.6297 -0.4572  0.4935
  277MPD2    C2 4182   2.526   2.982  13.350 -0.4098 -0.4021 -0.0082
  277MPD2    C3 4183   2.562   2.936  13.470  0.3389  0.0877  0.2000
  277MPD2    C4 4184   2.687   2.958  13.502 -0.0698  0.2713  0.6780
  277MPD2    C5 4185   2.781   3.000  13.401 -0.8384  0.3105  0.0109
  277MPD2     H 4186   2.419   2.983  13.333 -0.7906  1.5978  2.4168
  277MPD2    H1 4187   2.728   2.933  13.599 -1.6865  1.5930  1.7128
  277MPD2    H2 4188   2.817   3.052  13.198 -1.0046 -0.5173 -1.1857
  277MPD2    H3 4189   2.883   3.020  13.434  0.0521 -1.1903 -1.7949
  277MPD2     N 4190   2.461   2.880  13.557  0.3958  0.1730 -0.3773
  277MPD2    H5 4191   2.364   2.882  13.527  0.2610 -1.7983 -0.0745
  277MPD2    N1 4192   2.565   3.077  13.127 -0.4227  0.3180 -0.2084
  277MPD2    H7 4193   2.643   3.108  13.070  0.8160  1.1400  1.9285
  278TMC3    C1 4194   2.387   2.765  13.747 -0.0981 -0.1168 -1.0047
  278TMC3    C2 4195   2.380   2.633  13.793  0.1344  0.4913 -0.4399
  278TMC3    C3 4196   2.274   2.598  13.877 -0.5626 -0.5910 -0.0140
  278TMC3    C4 4197   2.278   2.850  13.757  0.3053  0.5684 -0.5631
  278TMC3    C5 4198   2.166   2.810  13.830 -0.2408 -0.0706 -0.3075
  278TMC3    C6 4199   2.177   2.691  13.898  0.3088 -0.5010  0.1614
  278TMC3     C 4200   2.499   2.800  13.657 -0.2401  0.4224  0.1084
  278TMC3     O 4201   2.604   2.734  13.664  1.0896  0.0637  0.3113
  278TMC3     H 4202   2.459   2.561  13.778 -1.0825 -0.9574  0.0825
  278TMC3    H1 4203   2.276   2.949  13.714 -0.4778  0.8324  0.0947
  278TMC3    H2 4204   2.094   2.648  13.952  0.0150 -1.1615 -0.8219
  278TMC3    C7 4205   2.030   2.838  13.768  0.2960  0.1038 -0.0745
  278TMC3    C8 4206   2.216   2.464  13.869  0.5351  0.8406 -0.6435
  278TMC3    O1 4207   2.041   2.905  13.666 -0.8659  0.8139 -1.2644
  278TMC3    O2 4208   2.129   2.432  13.946 -0.5983  0.3814 -0.1364
  279MPD2     C 4209   2.165   2.523   0.079 -0.3667  0.0297 -0.4858
  279MPD2    C1 4210   2.077   2.596  17.693  0.2839  0.7444 -0.6456
  279MPD2    C2 4211   2.102   2.593  17.554 -1.0324  0.2446  0.3049
  279MPD2    C3 4212   2.196   2.504  17.499 -0.2662 -0.3096  0.0251
  279MPD2    C4 4213   2.269   2.422  17.581 -0.3013 -0.4411 -0.4545
  279MPD2    C5 4214   2.260   2.438   0.024 -0.2687 -0.6372 -0.4894
  279MPD2     H 4215   2.049   2.660  17.487 -2.1567  0.2716  1.2315
  279MPD2    H1 4216   2.340   2.347  17.548  0.6600  0.4954 -0.5429
  279MPD2    H2 4217   2.169   2.528   0.187  2.3118 -1.1653 -0.5283
  279MPD2    H3 4218   2.320   2.367   0.080  0.5055 -0.1600 -0.7144
  279MPD2     N 4219   2.226   2.495  17.357  0.1507 -0.4471  0.2274
  279MPD2    H5 4220   2.297   2.432  17.322  0.9118 -0.2829  1.5025
  279MPD2    N1 4221   1.982   2.687   0.055  0.0365  0.9219 -0.6685
  279MPD2    H7 4222   1.983   2.695   0.156  0.0612  0.5504 -0.6377
  280TMC3    C1 4223   1.817   2.703  17.563  0.2737  0.7675  0.5628
  280TMC3    C2 4224   1.766   2.579  17.563  0.1533  0.5954 -0.6113
  280TMC3    C3 4225   1.687   2.539  17.459 -0.2002  0.1024 -0.1556
  280TMC3    C4 4226   1.780   2.792  17.467  0.8997  1.0851  0.0446
  280TMC3    C5 4227   1.711   2.742  17.357 -0.0607 -0.1814  0.2746
  280TMC3    C6 4228   1.674   2.613  17.347 -0.1109 -0.2003  0.6492
  280TMC3     C 4229   1.883   2.761  17.683  0.1915 -0.2135  0.5091
  280TMC3     O 4230   1.813   2.854   0.031  0.6863  0.4050  0.1328
  280TMC3     H 4231   1.787   2.504  17.638  0.2404  2.1697  0.9373
  280TMC3    H1 4232   1.825   2.889  17.484 -0.9769  1.6180  1.8921
  280TMC3    H2 4233   1.622   2.585  17.256 -1.5479  0.6972  1.2036
  280TMC3    C7 4234   1.644   2.840  17.276 -0.1388  0.2545 -0.1016
  280TMC3    C8 4235   1.657   2.397  17.466 -0.3750  0.6621 -0.0566
  280TMC3    O1 4236   1.527   2.818  17.244  0.2971  0.0967 -0.0516
  280TMC3    O2 4237   1.616   2.358  17.570  0.8094  0.4219 -0.0288
  281TMC3    C1 4238   0.659   3.330  13.235 -0.4204 -0.0145  0.5770
  281TMC3    C2 4239   0.747   3.410  13.175 -0.1858  0.6521  0.3550
  281TMC3    C3 4240   0.788   3.373  13.045 -0.7628 -0.7172  0.2768
  281TMC3    C4 4241   0.629   3.206  13.186 -0.9564 -0.1140 -0.0140
  281TMC3    C5 4242   0.666   3.180  13.056  0.4032  0.0072 -0.3554
  281TMC3    C6 4243   0.751   3.263  12.983  0.4376 -0.3886  0.4344
  281TMC3     C 4244   0.600   3.378  13.354  0.4732 -0.7856 -0.2476
  281TMC3     O 4245   0.575   3.303  13.448  0.5753  0.9787 -0.3562
  281TMC3     H 4246   0.793   3.495  13.226  1.0747  1.1057 -1.5412
  281TMC3    H1 4247   0.571   3.140  13.249 -2.0337  0.4416 -0.4326
  281TMC3    H2 4248   0.778   3.246  12.879  2.4544  1.0641  0.7215
  281TMC3    C7 4249   0.626   3.053  12.994 -0.1817  0.0887  0.7451
  281TMC3    C8 4250   0.894   3.445  12.971 -0.6327 -0.0141  0.3946
  281TMC3    O1 4251   0.673   3.027  12.887  0.4571  0.2888  0.3172
  281TMC3    O2 4252   0.975   3.377  12.913 -0.3250  0.1542  0.6035
  282MPD2     C 4253   2.423   4.387  15.298  0.5289  0.1333  0.1558
  282MPD2    C1 4254   2.293   4.377  15.341 -0.2199 -0.3391 -0.4178
  282MPD2    C2 4255   2.190   4.381  15.248  0.2008  0.0002  0.5278
  282MPD2    C3 4256   2.213   4.400  15.113  0.2775  0.4186  0.2025
  282MPD2    C4 4257   2.342   4.388  15.066  0.0774 -0.0068 -0.2505
  282MPD2    C5 4258   2.446   4.381  15.157 -1.0287 -0.9170  0.3224
  282MPD2     H 4259   2.093   4.372  15.295  0.0258 -1.3308 -0.1116
  282MPD2    H1 4260   2.361   4.387  14.959  1.5400 -2.3815  0.0362
  282MPD2    H2 4261   2.517   4.400  15.349 -1.3701  0.5794  3.4852
  282MPD2    H3 4262   2.550   4.382  15.127 -2.0842  0.6047 -3.2864
  282MPD2     N 4263   2.100   4.432  15.030  0.5690 -0.6808  0.0665
  282MPD2    H5 4264   2.009   4.436  15.075 -0.5747 -1.2435 -2.2177
  282MPD2    N1 4265   2.249   4.375  15.472 -0.0254  0.2697 -0.7173
  282MPD2    H7 4266   2.149   4.372  15.489  0.3755  0.6497  1.7009
  283TMC3    C1 4267   2.251   4.413  15.693  0.2369  0.3860 -0.4454
  283TMC3    C2 4268   2.261   4.525  15.769  0.1097  0.6787 -0.2423
  283TMC3    C3 4269   2.175   4.534  15.880 -0.4671 -0.4141 -0.0076
  283TMC3    C4 4270   2.174   4.305  15.722 -0.4520  0.4270  0.5336
  283TMC3    C5 4271   2.103   4.311  15.848  0.2551  0.3700  0.2139
  283TMC3    C6 4272   2.094   4.429  15.913  0.4109  0.0860 -0.4496
  283TMC3     C 4273   2.333   4.409  15.577  0.2600 -0.3996 -0.5529
  283TMC3     O 4274   2.452   4.447  15.586  0.2482  0.3230  0.2576
  283TMC3     H 4275   2.349   4.587  15.763  0.3282  0.2317 -1.4893
  283TMC3    H1 4276   2.170   4.217  15.658  1.3772 -0.2648  1.3571
  283TMC3    H2 4277   2.018   4.438  15.990  1.2511  1.5113  0.2228
  283TMC3    C7 4278   2.023   4.201  15.896  0.3560 -0.4790 -0.1908
  283TMC3    C8 4279   2.147   4.673  15.928 -0.3398  0.3075 -0.0584
  283TMC3    O1 4280   1.929   4.223  15.971 -0.2757 -0.1196  0.0956
  283TMC3    O2 4281   2.079   4.680  16.030 -0.3675 -0.2725  0.2395
  284MPD2     C 4282   0.375   4.182  12.027 -0.1297  0.5026 -0.9804
  284MPD2    C1 4283   0.348   4.148  11.896  0.4895 -0.4101 -0.2866
  284MPD2    C2 4284   0.272   4.037  11.860 -0.5493  0.8114 -0.5209
  284MPD2    C3 4285   0.214   3.961  11.960  0.6969  0.4263 -0.4817
  284MPD2    C4 4286   0.233   4.008  12.094  0.3720 -0.7923 -0.3423
  284MPD2    C5 4287   0.307   4.114  12.124  0.5473  0.5112 -1.0537
  284MPD2     H 4288   0.246   4.017  11.757 -5.3045 -0.0489  0.8778
  284MPD2    H1 4289   0.172   3.958  12.169 -1.3368 -0.7680 -1.7248
  284MPD2    H2 4290   0.438   4.266  12.054 -0.4310  0.3901  0.0567
  284MPD2    H3 4291   0.335   4.136  12.227  3.8703 -0.3294 -1.7833
  284MPD2     N 4292   0.161   3.834  11.943 -0.1843 -0.3488 -0.2892
  284MPD2    H5 4293   0.151   3.784  12.030 -1.9207  0.9059  0.2290
  284MPD2    N1 4294   0.410   4.209  11.784 -0.4205 -0.6673 -0.4287
  284MPD2    H7 4295   0.398   4.159  11.696 -1.2768 -2.2478  0.5774
  285TMC3    C1 4296   0.538   4.359  11.658  0.0515  0.6926 -0.0231
  285TMC3    C2 4297   0.571   4.265  11.575  0.1555 -0.4984 -0.2342
  285TMC3    C3 4298   0.601   4.301  11.446 -0.5316 -0.6217 -0.3428
  285TMC3    C4 4299   0.574   4.490  11.643  0.4657 -0.6345  0.1747
  285TMC3    C5 4300   0.626   4.521  11.516 -0.0848 -0.6666  0.6587
  285TMC3    C6 4301   0.633   4.431  11.417  0.4654 -0.6790  0.1630
  285TMC3     C 4302   0.489   4.320  11.786  0.2448  0.5129  0.1882
  285TMC3     O 4303   0.526   4.387  11.882 -0.1537 -0.5765  0.0800
  285TMC3     H 4304   0.566   4.160  11.597 -1.0174 -0.2733  0.5362
  285TMC3    H1 4305   0.539   4.570  11.708  0.1964 -0.6473  0.0446
  285TMC3    H2 4306   0.674   4.460  11.321 -0.5824 -0.1335 -0.1208
  285TMC3    C7 4307   0.642   4.661  11.476 -0.0221 -0.1939  0.0900
  285TMC3    C8 4308   0.613   4.196  11.347 -0.0494 -0.8364  0.0490
  285TMC3    O1 4309   0.652   4.692  11.356 -0.3006  0.1725  0.0431
  285TMC3    O2 4310   0.526   4.106  11.349  0.7137 -0.7434  0.1903
  286MPD2     C 4311   0.896   1.408   1.655  0.4491  1.0802 -0.4160
  286MPD2    C1 4312   0.871   1.417   1.523  1.0985 -0.2439 -0.6574
  286MPD2    C2 4313   0.957   1.361   1.424 -0.1548  0.5480 -0.1054
  286MPD2    C3 4314   1.062   1.283   1.467  0.2374  0.1855  0.1670
  286MPD2    C4 4315   1.085   1.282   1.598  0.1097 -0.0335  0.2750
  286MPD2    C5 4316   1.005   1.342   1.694 -0.3643 -0.4147  0.3136
  286MPD2     H 4317   0.937   1.377   1.319 -2.3842 -1.6562 -0.0102
  286MPD2    H1 4318   1.169   1.228   1.640 -0.1545 -0.3827  0.3504
  286MPD2    H2 4319   0.828   1.447   1.731  0.8112  0.6032  0.1480
  286MPD2    H3 4320   1.012   1.319   1.799  1.5062  0.2180  0.3173
  286MPD2     N 4321   1.153   1.216   1.384  0.1905 -0.1719 -0.8788
  286MPD2    H5 4322   1.225   1.164   1.432 -0.8395  1.6328  2.6240
  286MPD2    N1 4323   0.759   1.492   1.481  0.2518  0.6830 -0.0688
  286MPD2    H7 4324   0.751   1.507   1.381  0.2571 -0.7524 -0.2814
  287TMC3    C1 4325   1.263   1.165   1.191  0.9928 -0.4771 -0.5180
  287TMC3    C2 4326   1.237   1.118   1.066 -0.1397  0.3029 -0.6123
  287TMC3    C3 4327   1.324   1.150   0.965  0.2672 -0.2273  0.1477
  287TMC3    C4 4328   1.375   1.232   1.223  0.9235  0.6876 -0.7955
  287TMC3    C5 4329   1.455   1.277   1.122  0.3220  0.6008  0.2711
  287TMC3    C6 4330   1.428   1.233   0.991 -0.4612 -0.9338  0.0722
  287TMC3     C 4331   1.148   1.217   1.248 -0.4212 -0.1172 -0.3810
  287TMC3     O 4332   1.052   1.242   1.176 -0.4185 -0.5922  0.1998
  287TMC3     H 4333   1.149   1.060   1.040  0.4812 -1.7612  1.9021
  287TMC3    H1 4334   1.377   1.291   1.314 -3.6995 -2.5449  1.3576
  287TMC3    H2 4335   1.490   1.275   0.913 -1.9678  0.2188 -0.5026
  287TMC3    C7 4336   1.545   1.388   1.159 -0.6790 -0.0044 -0.1219
  287TMC3    C8 4337   1.274   1.145   0.827 -0.6085 -0.3413 -0.0723
  287TMC3    O1 4338   1.556   1.415   1.278  0.4073 -0.1535 -0.4064
  287TMC3    O2 4339   1.220   1.045   0.786  0.9538  0.1847 -0.2511
  288TMC3    C1 4340   2.359   2.218  14.126 -0.2375  0.0448  0.1332
  288TMC3    C2 4341   2.330   2.172  14.254 -0.6486  0.5168  0.4675
  288TMC3    C3 4342   2.355   2.251  14.362 -1.1047 -0.0536 -0.2323
  288TMC3    C4 4343   2.415   2.341  14.107  0.2024  0.0187  0.6789
  288TMC3    C5 4344   2.420   2.422  14.219 -0.0287  0.1743  0.0234
  288TMC3    C6 4345   2.389   2.381  14.348  0.3500 -0.3795  0.0457
  288TMC3     C 4346   2.372   2.106  14.028  0.2019 -0.4183  0.0460
  288TMC3     O 4347   2.301   2.010  14.039  0.6149  0.2291 -0.4940
  288TMC3     H 4348   2.315   2.064  14.258 -1.0042  0.7036  3.7756
  288TMC3    H1 4349   2.424   2.377  14.005 -0.3591 -0.1038  0.5850
  288TMC3    H2 4350   2.394   2.446  14.435 -0.0963 -1.0785  0.5965
  288TMC3    C7 4351   2.451   2.558  14.208  0.0347 -0.1823  0.0293
  288TMC3    C8 4352   2.364   2.192  14.501  0.3183  0.0196 -0.3092
  288TMC3    O1 4353   2.410   2.640  14.290 -0.1905 -0.8584 -0.2150
  288TMC3    O2 4354   2.453   2.239  14.569  0.0674 -0.7884 -0.2246
  289MPD2     C 4355   2.620   1.264  14.496 -0.1643  0.6531  0.0437
  289MPD2    C1 4356   2.613   1.376  14.417 -0.1990 -0.3116 -0.3397
  289MPD2    C2 4357   2.498   1.392  14.345 -0.5974  0.0065 -1.4436
  289MPD2    C3 4358   2.394   1.300  14.351 -0.6606 -1.1254 -0.2956
  289MPD2    C4 4359   2.410   1.189  14.433 -0.0285  0.7281 -0.0649
  289MPD2    C5 4360   2.526   1.162  14.493  0.2212 -0.1714  0.2378
  289MPD2     H 4361   2.486   1.482  14.285  0.9923  2.1186  1.4274
  289MPD2    H1 4362   2.330   1.119  14.454  0.2510  1.4836  3.5617
  289MPD2    H2 4363   2.705   1.255  14.563  0.6923 -0.0323 -1.1312
  289MPD2    H3 4364   2.537   1.078  14.559  1.1159 -1.8571 -2.0480
  289MPD2     N 4365   2.271   1.303  14.283 -0.5667  0.4393 -0.4154
  289MPD2    H5 4366   2.211   1.227  14.315  0.7232 -0.3888  0.0539
  289MPD2    N1 4367   2.720   1.472  14.437  0.2376  0.4023 -0.7330
  289MPD2    H7 4368   2.789   1.455  14.509 -1.1768  2.1604  1.0233
  290TMC3    C1 4369   2.088   1.406  14.160 -0.6654 -0.0593  0.3164
  290TMC3    C2 4370   2.034   1.518  14.111 -0.2781  0.4907  0.6762
  290TMC3    C3 4371   1.907   1.516  14.067 -0.1530 -0.4040  0.1440
  290TMC3    C4 4372   2.007   1.292  14.172 -0.3072  0.4876 -0.0144
  290TMC3    C5 4373   1.884   1.285  14.106 -0.5029  0.8770 -0.3958
  290TMC3    C6 4374   1.835   1.398  14.051 -0.2878 -0.1845  0.5247
  290TMC3     C 4375   2.230   1.412  14.212 -0.6832 -0.0210  0.3465
  290TMC3     O 4376   2.303   1.492  14.152  0.4133  0.3219  0.3155
  290TMC3     H 4377   2.097   1.606  14.107  0.1096  0.1900  0.1351
  290TMC3    H1 4378   2.053   1.207  14.221 -0.7677 -1.2314 -2.5379
  290TMC3    H2 4379   1.736   1.408  14.009 -0.4864 -0.3115  0.9561
  290TMC3    C7 4380   1.793   1.181  14.138 -0.1353  0.3298 -0.2718
  290TMC3    C8 4381   1.835   1.640  14.033  0.3339 -0.5612 -0.2734
  290TMC3    O1 4382   1.679   1.187  14.092 -0.4514 -0.1417 -0.0574
  290TMC3    O2 4383   1.727   1.627  13.978  0.5997  0.4886  0.9516
  291MPD2     C 4384   1.722   0.547   0.586  0.3198  0.6287 -0.2409
  291MPD2    C1 4385   1.674   0.529   0.458  0.4241 -0.1125 -0.4655
  291MPD2    C2 4386   1.756   0.566   0.352 -0.0851 -0.5107  0.1160
  291MPD2    C3 4387   1.884   0.612   0.375 -1.0930 -0.1710  0.8484
  291MPD2    C4 4388   1.935   0.612   0.505 -0.3388 -0.1184 -0.2311
  291MPD2    C5 4389   1.854   0.589   0.608  0.7327 -0.0154 -0.4868
  291MPD2     H 4390   1.713   0.564   0.252 -0.6666 -1.9832  0.3844
  291MPD2    H1 4391   2.030   0.649   0.542  0.4557 -0.1850 -2.2291
  291MPD2    H2 4392   1.660   0.538   0.674  1.1081  0.1644  0.2608
  291MPD2    H3 4393   1.890   0.597   0.710  0.0960 -0.5846 -0.2174
  291MPD2     N 4394   1.969   0.647   0.268 -0.0684 -0.0273 -0.5080
  291MPD2    H5 4395   2.065   0.668   0.295  0.5871 -0.2005 -2.7584
  291MPD2    N1 4396   1.539   0.496   0.437 -0.9185 -1.1442 -0.3143
  291MPD2    H7 4397   1.500   0.511   0.344 -3.8070 -2.1155  0.7309
  292TMC3    C1 4398   1.330   0.408   0.486 -0.3175  0.3672  0.0049
  292TMC3    C2 4399   1.225   0.392   0.573 -0.4943  0.1981  0.1381
  292TMC3    C3 4400   1.108   0.337   0.522  0.2670 -0.2340  0.4682
  292TMC3    C4 4401   1.308   0.389   0.345  0.2193 -0.1342  0.5888
  292TMC3    C5 4402   1.190   0.361   0.296 -0.3853  0.2965  0.9284
  292TMC3    C6 4403   1.091   0.322   0.383 -0.2465 -0.3162 -0.3351
  292TMC3     C 4404   1.448   0.461   0.538  0.4704 -0.2802  0.5643
  292TMC3     O 4405   1.458   0.461   0.659  0.2393  0.1338  0.4577
  292TMC3     H 4406   1.245   0.415   0.677  1.3949 -3.5696  0.5706
  292TMC3    H1 4407   1.390   0.401   0.275 -1.0568  1.2093 -0.6872
  292TMC3    H2 4408   0.996   0.294   0.339  1.7371 -2.4098 -3.2814
  292TMC3    C7 4409   1.176   0.341   0.148  0.6128  0.7141  0.1686
  292TMC3    C8 4410   1.001   0.299   0.610 -0.2066  0.3864  0.4224
  292TMC3    O1 4411   1.275   0.358   0.081 -0.3536 -0.0930  0.3585
  292TMC3    O2 4412   0.997   0.358   0.715  0.2999 -0.0898 -0.1674
  293MPD2     C 4413   3.674   3.080  12.401 -0.0566  0.3639  0.6231
  293MPD2    C1 4414   3.578   3.025  12.485  0.5557 -0.8594  0.0589
  293MPD2    C2 4415   3.604   3.017  12.621  0.0051 -0.1594  0.1271
  293MPD2    C3 4416   3.725   3.067  12.677 -0.3018 -0.4897 -0.7142
  293MPD2    C4 4417   3.811   3.136  12.590  0.0605 -0.1388  0.2646
  293MPD2    C5 4418   3.786   3.137  12.456 -0.3281  0.3572  0.1782
  293MPD2     H 4419   3.530   2.980  12.691  1.2692 -1.6018  0.6902
  293MPD2    H1 4420   3.904   3.184  12.619  0.6009 -1.6035  0.9792
  293MPD2    H2 4421   3.645   3.078  12.296 -0.8379 -1.0632  0.8722
  293MPD2    H3 4422   3.848   3.194  12.388  0.1900 -1.3528 -0.7865
  293MPD2     N 4423   3.757   3.042  12.812 -0.6506 -0.4304  0.0226
  293MPD2    H5 4424   3.689   2.995  12.871  0.4139 -0.4100  1.2800
  293MPD2    N1 4425   3.450   2.988  12.424 -0.7973 -0.3893 -0.3183
  293MPD2    H7 4426   3.457   3.018  12.328 -0.3111  1.1511  0.1970
  294TMC3    C1 4427   3.239   2.890  12.382  0.0766 -0.7894  0.0807
  294TMC3    C2 4428   3.129   2.822  12.432 -0.1878  0.0085 -0.6720
  294TMC3    C3 4429   3.010   2.825  12.367 -0.4358  0.3407 -0.0995
  294TMC3    C4 4430   3.223   2.960  12.270  0.0961  0.7359 -0.4025
  294TMC3    C5 4431   3.102   2.956  12.204 -0.1863 -0.3751  0.4877
  294TMC3    C6 4432   2.993   2.891  12.251  0.1779  0.0178  0.4496
  294TMC3     C 4433   3.340   2.922  12.476  0.2923  0.0974 -0.7115
  294TMC3     O 4434   3.323   2.890  12.595  0.0676  0.7327 -0.3431
  294TMC3     H 4435   3.142   2.766  12.524 -0.0406  0.7582 -0.2352
  294TMC3    H1 4436   3.302   3.021  12.228  0.8903  0.3289  0.5197
  294TMC3    H2 4437   2.898   2.900  12.201  0.9995  0.4498 -1.0261
  294TMC3    C7 4438   3.096   2.991  12.064 -0.0047  0.7600  0.2297
  294TMC3    C8 4439   2.902   2.763  12.431 -0.0949  0.2518  1.0818
  294TMC3    O1 4440   2.984   2.976  12.017 -0.2300  0.1794  0.3641
  294TMC3    O2 4441   2.894   2.759  12.552  0.5187  0.0205 -0.4356
  295MPD2     C 4442   3.507   1.214   0.096 -0.6175  0.0270 -0.0426
  295MPD2    C1 4443   3.583   1.307   0.173 -0.5133  0.0172  1.2584
  295MPD2    C2 4444   3.532   1.328   0.304 -0.4196 -0.9257  0.7196
  295MPD2    C3 4445   3.410   1.272   0.348 -0.7259  0.4414  0.0313
  295MPD2    C4 4446   3.345   1.193   0.263 -0.4834 -0.7453 -0.3713
  295MPD2    C5 4447   3.390   1.161   0.133  0.4581 -0.9120 -0.0496
  295MPD2     H 4448   3.605   1.379   0.366  1.7162  1.5447 -3.8043
  295MPD2    H1 4449   3.254   1.154   0.306 -0.8212  0.9786  0.4736
  295MPD2    H2 4450   3.542   1.188  17.692  0.8701 -1.3976  0.8728
  295MPD2    H3 4451   3.331   1.102   0.064  0.6873 -0.5368 -0.5601
  295MPD2     N 4452   3.354   1.289   0.478 -0.4502  0.4037 -0.1569
  295MPD2    H5 4453   3.254   1.271   0.484 -0.5046  0.9002  0.4333
  295MPD2    N1 4454   3.716   1.357   0.146 -0.5321 -0.0929 -0.2906
  295MPD2    H7 4455   3.760   1.415   0.216  1.6595 -0.2866 -1.5141
  296TMC3    C1 4456   3.332   1.350   0.706 -0.1849 -0.1295  0.9846
  296TMC3    C2 4457   3.378   1.441   0.795  0.6173 -0.6302 -0.1638
  296TMC3    C3 4458   3.309   1.441   0.914  0.1745  1.2461 -0.2869
  296TMC3    C4 4459   3.230   1.259   0.723  0.9014  0.1989 -0.4111
  296TMC3    C5 4460   3.155   1.278   0.837  0.0086 -0.0333  0.3753
  296TMC3    C6 4461   3.198   1.364   0.935  0.1045  0.2057  0.0159
  296TMC3     C 4462   3.412   1.355   0.585 -0.0264  0.5105  0.0422
  296TMC3     O 4463   3.529   1.388   0.601 -0.5496  0.0788  0.5896
  296TMC3     H 4464   3.455   1.510   0.764 -0.8781  0.1692 -2.1219
  296TMC3    H1 4465   3.188   1.202   0.640 -0.7450  1.0393 -0.1565
  296TMC3    H2 4466   3.128   1.382   1.016  0.0479 -1.4622  0.3278
  296TMC3    C7 4467   3.038   1.190   0.860 -0.2520  0.1613  0.0944
  296TMC3    C8 4468   3.365   1.527   1.016 -0.2409 -0.0888 -0.1278
  296TMC3    O1 4469   2.985   1.140   0.759 -0.0931  0.2567 -0.0832
  296TMC3    O2 4470   3.435   1.615   0.967  0.9027 -0.3162 -0.1137
  297MPD2     C 4471   1.270   3.343  16.025  0.2861  0.1831 -0.6495
  297MPD2    C1 4472   1.267   3.478  16.015 -0.8202 -0.8259 -0.3253
  297MPD2    C2 4473   1.376   3.562  16.042 -0.0960  0.0726 -0.7579
  297MPD2    C3 4474   1.492   3.499  16.079 -0.0275  0.0134 -0.4897
  297MPD2    C4 4475   1.500   3.359  16.085 -0.7812 -0.0275  0.3013
  297MPD2    C5 4476   1.390   3.285  16.065 -0.3991 -0.1147 -0.6592
  297MPD2     H 4477   1.366   3.670  16.045  0.7574  0.1728 -1.7922
  297MPD2    H1 4478   1.587   3.304  16.118 -0.5913  0.1250  0.0493
  297MPD2    H2 4479   1.184   3.278  16.012  1.6198 -1.6911 -0.1211
  297MPD2    H3 4480   1.402   3.177  16.066  2.0453  0.1755  1.1119
  297MPD2     N 4481   1.602   3.585  16.105 -0.1837 -0.2453  0.2812
  297MPD2    H5 4482   1.585   3.685  16.108 -0.0100 -0.1427 -1.9083
  297MPD2    N1 4483   1.147   3.541  15.969 -0.6826  0.7010 -0.0483
  297MPD2    H7 4484   1.159   3.639  15.949 -1.9592  0.6813 -0.9133
  298TMC3    C1 4485   0.918   3.578  15.910  0.7484  0.4156  0.4259
  298TMC3    C2 4486   0.936   3.659  15.803  0.0232 -0.1369  0.2430
  298TMC3    C3 4487   0.851   3.766  15.785  0.5530  1.1316  0.6922
  298TMC3    C4 4488   0.803   3.586  15.985  0.1881 -0.1330 -0.1572
  298TMC3    C5 4489   0.715   3.688  15.956  0.0142 -0.2572 -0.6777
  298TMC3    C6 4490   0.739   3.791  15.864 -0.3492  0.1571 -0.8081
  298TMC3     C 4491   1.021   3.491  15.970  0.2553  0.0376 -0.0175
  298TMC3     O 4492   0.979   3.402  16.043 -0.6815 -0.4182 -0.9279
  298TMC3     H 4493   1.030   3.646  15.750 -0.8528 -3.8043 -0.3812
  298TMC3    H1 4494   0.793   3.509  16.060  0.5446 -0.3746 -0.3596
  298TMC3    H2 4495   0.672   3.873  15.843 -0.3389  0.7832  1.6085
  298TMC3    C7 4496   0.607   3.703  16.056 -0.1834 -0.4997  0.2286
  298TMC3    C8 4497   0.889   3.875  15.698  0.3790  0.3889  0.0063
  298TMC3    O1 4498   0.620   3.647  16.163  0.2620  0.4030 -0.2680
  298TMC3    O2 4499   0.832   3.981  15.706 -0.4689  0.2923  0.4624
  299MPD2     C 4500   1.628   4.178   9.969  0.3058  0.3791  0.5204
  299MPD2    C1 4501   1.548   4.161  10.083  0.3336 -0.1366 -0.2527
  299MPD2    C2 4502   1.413   4.154  10.062 -0.3507 -0.2869 -0.3398
  299MPD2    C3 4503   1.354   4.150   9.933 -0.1108 -0.0976 -0.6526
  299MPD2    C4 4504   1.442   4.162   9.828  0.7695 -0.0628  0.7237
  299MPD2    C5 4505   1.571   4.178   9.842 -0.2992 -1.0068  0.5764
  299MPD2     H 4506   1.352   4.140  10.150 -0.4747 -1.2253 -0.5695
  299MPD2    H1 4507   1.401   4.158   9.727 -1.4028  2.3983  1.5222
  299MPD2    H2 4508   1.734   4.200   9.971  0.3303  0.2108  0.8976
  299MPD2    H3 4509   1.627   4.182   9.749 -0.4719 -2.7139  0.3913
  299MPD2     N 4510   1.212   4.135   9.920  0.2606  0.0374  0.4776
  299MPD2    H5 4511   1.163   4.135  10.009 -1.8569  0.8075 -0.6999
  299MPD2    N1 4512   1.611   4.169  10.216  0.4933  0.0677  0.3226
  299MPD2    H7 4513   1.712   4.181  10.213  0.8759 -2.7667  1.2197
  300TMC3    C1 4514   1.001   4.120   9.846 -0.2471 -0.3829 -0.7046
  300TMC3    C2 4515   0.968   4.211   9.939 -0.4437  0.2884 -0.5824
  300TMC3    C3 4516   0.871   4.176  10.028  0.3269 -0.3953  0.7106
  300TMC3    C4 4517   0.933   3.998   9.832 -0.5433 -0.1607  0.3089
  300TMC3    C5 4518   0.840   3.966   9.929 -0.1622  0.1537  0.3302
  300TMC3    C6 4519   0.815   4.050  10.029 -0.1823 -0.2553 -0.2263
  300TMC3     C 4520   1.142   4.126   9.802 -0.2313  0.3932  0.0869
  300TMC3     O 4521   1.170   4.117   9.685 -0.2614  0.3749  0.2067
  300TMC3     H 4522   1.018   4.307   9.948  0.4013 -0.3317  1.4121
  300TMC3    H1 4523   0.955   3.922   9.758 -1.9852 -0.3602  0.0793
  300TMC3    H2 4524   0.743   4.022  10.106 -0.2643  2.1631  0.5893
  300TMC3    C7 4525   0.781   3.837   9.934  0.1352  0.8415  0.1321
  300TMC3    C8 4526   0.863   4.256  10.151 -0.1308  0.7555  0.2981
  300TMC3    O1 4527   0.727   3.798   9.824 -0.6082 -0.6672  0.2974
  300TMC3    O2 4528   0.953   4.340  10.164  0.4183  0.1203  0.1440
  301MPD2     C 4529   3.111   4.427   2.003 -0.0210 -0.3641  0.1587
  301MPD2    C1 4530   3.048   4.409   1.884  0.9567 -0.4105 -0.3711
  301MPD2    C2 4531   3.095   4.299   1.814 -0.0520  0.0263 -0.3703
  301MPD2    C3 4532   3.215   4.229   1.848 -0.3714 -0.1122 -0.3957
  301MPD2    C4 4533   3.263   4.248   1.978 -0.6186  0.0710 -0.2476
  301MPD2    C5 4534   3.210   4.354   2.050 -0.1460 -0.5270  0.3923
  301MPD2     H 4535   3.040   4.281   1.723  0.8129  1.2948 -1.1308
  301MPD2    H1 4536   3.348   4.199   2.025 -0.4952  0.6627  0.1550
  301MPD2    H2 4537   3.078   4.498   2.078 -0.1729 -1.2221  0.9135
  301MPD2    H3 4538   3.254   4.375   2.147  0.8683 -1.4844  0.1406
  301MPD2     N 4539   3.269   4.121   1.763  0.4607  0.2781  0.1084
  301MPD2    H5 4540   3.356   4.080   1.795  1.5768  2.4433 -0.1485
  301MPD2    N1 4541   2.928   4.483   1.847  0.5802 -0.3291 -0.3678
  301MPD2    H7 4542   2.885   4.456   1.760 -1.3719 -0.8137  0.7484
  302TMC3    C1 4543   3.277   3.966   1.578 -0.3900 -1.3040 -0.2307
  302TMC3    C2 4544   3.412   3.969   1.573 -0.0493  0.3026 -0.8053
  302TMC3    C3 4545   3.467   3.896   1.467 -0.2753  0.0044  0.1260
  302TMC3    C4 4546   3.204   3.894   1.493 -0.4948 -0.3856  0.8033
  302TMC3    C5 4547   3.260   3.822   1.394  0.2599 -0.2815  0.0189
  302TMC3    C6 4548   3.397   3.811   1.382  0.2089 -0.2127 -0.1382
  302TMC3     C 4549   3.202   4.074   1.650 -0.4697  0.5293  0.0936
  302TMC3     O 4550   3.098   4.114   1.598  0.4834 -0.3342 -0.2043
  302TMC3     H 4551   3.465   4.039   1.636 -1.8778  0.9376  0.0282
  302TMC3    H1 4552   3.096   3.893   1.506 -0.5115  0.4145  0.7524
  302TMC3    H2 4553   3.442   3.732   1.324  1.5951 -0.3799  1.1828
  302TMC3    C7 4554   3.181   3.768   1.290  0.6379 -0.5201  0.6367
  302TMC3    C8 4555   3.613   3.880   1.467 -0.2901  0.0847  0.0198
  302TMC3    O1 4556   3.233   3.685   1.218 -0.1987 -0.2130  0.6994
  302TMC3    O2 4557   3.664   3.858   1.359 -0.2740  0.2656  0.8253
  303MPD2     C 4558   3.688   3.208   9.707 -0.4358  0.5825 -0.3145
  303MPD2    C1 4559   3.636   3.131   9.803  0.4144 -0.2354  0.7189
  303MPD2    C2 4560   3.594   3.006   9.763 -0.3195  0.4767 -0.7021
  303MPD2    C3 4561   3.626   2.945   9.647  0.2941  1.0420  0.0639
  303MPD2    C4 4562   3.675   3.029   9.550 -0.1246 -0.5802 -0.0222
  303MPD2    C5 4563   3.715   3.157   9.583 -0.5188  0.8497  0.4610
  303MPD2     H 4564   3.538   2.954   9.840 -2.1952  1.6304 -1.2985
  303MPD2    H1 4565   3.693   2.993   9.449  3.5000  0.3191  0.3323
  303MPD2    H2 4566   3.722   3.311   9.713 -0.9609  0.5824  2.5340
  303MPD2    H3 4567   3.774   3.215   9.513 -1.3363  1.5270  0.3406
  303MPD2     N 4568   3.611   2.807   9.617  0.4112 -0.6296  0.1920
  303MPD2    H5 4569   3.647   2.770   9.529  1.0027  0.4622 -0.0231
  303MPD2    N1 4570   3.630   3.178   9.941  0.0145  0.2383  0.7398
  303MPD2    H7 4571   3.653   3.275   9.958 -2.5943  1.3250 -1.9756
  304TMC3    C1 4572   3.528   3.200  10.138  0.7460 -0.1287  0.4074
  304TMC3    C2 4573   3.449   3.297  10.088 -0.3824  0.0886 -0.1222
  304TMC3    C3 4574   3.353   3.341  10.176  0.8969 -0.7092 -0.4106
  304TMC3    C4 4575   3.518   3.151  10.263 -0.2949  0.0864 -0.1818
  304TMC3    C5 4576   3.429   3.200  10.354  0.6846 -0.6396  0.2958
  304TMC3    C6 4577   3.336   3.289  10.306 -0.0612 -0.0248  0.1328
  304TMC3     C 4578   3.579   3.107  10.041  0.6819 -0.1602 -0.3113
  304TMC3     O 4579   3.569   2.987  10.057 -0.2803 -0.0172 -0.0586
  304TMC3     H 4580   3.438   3.312   9.981 -0.2321  0.3109 -0.1084
  304TMC3    H1 4581   3.572   3.061  10.287 -0.9600 -0.0739  0.6990
  304TMC3    H2 4582   3.264   3.333  10.373 -0.0029 -0.0803  0.2334
  304TMC3    C7 4583   3.360   3.104  10.434  0.1419  0.2716 -0.1605
  304TMC3    C8 4584   3.225   3.333  10.113 -0.8629  0.9392  0.0454
  304TMC3    O1 4585   3.237   3.109  10.426 -0.4970 -0.0024 -0.0528
  304TMC3    O2 4586   3.211   3.372   9.996 -0.3202 -0.4685 -0.4738
  305MPD2     C 4587   1.796   4.623  13.938 -0.2574 -0.0712 -0.2467
  305MPD2    C1 4588   1.934   4.631  13.935  0.1413  0.2683  0.2174
  305MPD2    C2 4589   1.992   4.690  13.827 -0.2737  0.1910  0.0030
  305MPD2    C3 4590   1.921   4.711  13.709 -0.6810  0.0999 -0.9720
  305MPD2    C4 4591   1.787   4.694  13.710  0.4118 -0.0604 -0.0753
  305MPD2    C5 4592   1.724   4.650  13.823  0.1616  0.3430 -0.3550
  305MPD2     H 4593   2.098   4.713  13.827 -1.1790  4.4056  2.0313
  305MPD2    H1 4594   1.731   4.721  13.621 -0.3146 -1.0158  0.1031
  305MPD2    H2 4595   1.740   4.590  14.025  2.0900 -2.1325  0.4734
  305MPD2    H3 4596   1.621   4.620  13.835  0.6620 -1.2229  0.0799
  305MPD2     N 4597   1.976   0.033  13.593 -0.1346 -0.1374  0.4797
  305MPD2    H5 4598   1.917   0.044  13.511  2.5377  1.1005 -1.2949
  305MPD2    N1 4599   2.005   4.594  14.054  0.3937 -1.0655 -0.2650
  305MPD2    H7 4600   1.951   4.583  14.139  1.2171  1.7202  0.6286
  306TMC3    C1 4601   2.182   4.587  14.193  0.7390 -0.1296  0.2874
  306TMC3    C2 4602   2.267   4.487  14.233  0.3756 -0.0958  0.2581
  306TMC3    C3 4603   2.278   4.457  14.362 -0.4946 -0.0360 -0.1562
  306TMC3    C4 4604   2.100   4.652  14.279 -0.5874 -0.1063 -0.5095
  306TMC3    C5 4605   2.118   4.629  14.408  0.2481  0.4226  0.5954
  306TMC3    C6 4606   2.202   4.531  14.453  0.0841 -0.0456 -0.1009
  306TMC3     C 4607   2.143   4.582  14.057 -0.2337 -0.0154 -0.1771
  306TMC3     O 4608   2.223   4.551  13.968  0.0998  0.0586 -0.1508
  306TMC3     H 4609   2.317   4.432  14.154  1.4712  0.6402  0.4299
  306TMC3    H1 4610   2.035   0.008  14.242 -0.8765 -0.0586  0.1089
  306TMC3    H2 4611   2.213   4.513  14.560  2.0451  0.5408 -0.2043
  306TMC3    C7 4612   2.087   0.010  14.503  0.2785 -0.2073 -0.0593
  306TMC3    C8 4613   2.349   4.339  14.401  0.2983 -0.8380  0.2554
  306TMC3    O1 4614   1.980   0.068  14.493  0.3681 -0.1147  0.4216
  306TMC3    O2 4615   2.412   4.286  14.316  0.2097  0.6134  0.1454
  307MPD2     C 4616   0.346   1.941   0.960 -0.5343 -0.5799  0.2788
  307MPD2    C1 4617   0.310   2.068   0.909 -0.0403 -0.0104 -0.4635
  307MPD2    C2 4618   0.191   2.129   0.935  0.8865  0.8900 -0.3873
  307MPD2    C3 4619   0.087   2.066   1.001 -0.4386 -0.0664 -0.0962
  307MPD2    C4 4620   0.115   1.937   1.042  0.0966  0.2237  0.4256
  307MPD2    C5 4621   0.242   1.876   1.025 -0.1697  0.2525  0.3258
  307MPD2     H 4622   0.178   2.233   0.906 -1.8992  0.9491  1.1612
  307MPD2    H1 4623   0.048   1.878   1.103  1.7736 -2.1229 -0.0230
  307MPD2    H2 4624   0.445   1.898   0.949 -0.2622 -0.0594  0.6497
  307MPD2    H3 4625   0.257   1.779   1.071 -1.7375 -0.0349  0.2610
  307MPD2     N 4626   4.694   2.136   1.028 -0.0283 -0.1983 -0.3033
  307MPD2    H5 4627   4.692   2.235   1.005  0.7899  0.0901  0.8372
  307MPD2    N1 4628   0.391   2.140   0.819  0.1884  0.4162  0.4818
  307MPD2    H7 4629   0.350   2.225   0.781 -0.7996 -0.2321  0.0758
  308TMC3    C1 4630   4.280   2.240   0.998  0.2255 -0.1936 -0.5748
  308TMC3    C2 4631   4.302   2.369   1.028 -0.8746 -0.4748 -0.0066
  308TMC3    C3 4632   4.427   2.397   1.074  0.7395 -0.0512  0.3900
  308TMC3    C4 4633   4.366   2.137   1.024 -0.4094 -0.5027  0.0830
  308TMC3    C5 4634   4.477   2.170   1.087  0.0871  0.3185 -0.4910
  308TMC3    C6 4635   4.517   2.298   1.110 -0.2400  0.4207 -0.2107
  308TMC3     C 4636   4.156   2.200   0.927  0.2345 -0.2913  0.5868
  308TMC3     O 4637   4.120   2.085   0.949  0.5658 -0.6084 -0.3495
  308TMC3     H 4638   4.231   2.451   1.029  0.7351  0.8881  2.1012
  308TMC3    H1 4639   4.333   2.038   0.994 -0.0289 -1.2453  2.1186
  308TMC3    H2 4640   4.611   2.322   1.157 -1.6110 -0.8961  3.1934
  308TMC3    C7 4641   4.583   2.077   1.073 -0.7193 -0.0834 -0.6032
  308TMC3    C8 4642   4.466   2.526   1.116  0.6045  0.1033 -0.7198
  308TMC3    O1 4643   4.553   1.960   1.076 -0.0383  0.0326 -0.1727
  308TMC3    O2 4644   4.535   2.537   1.216  0.0327 -0.0827  0.1178
  309MPD2     C 4645   4.102   3.197  17.306 -0.2470  0.4570 -0.4979
  309MPD2    C1 4646   4.032   3.187  17.191  0.7277 -0.3113 -0.0705
  309MPD2    C2 4647   3.895   3.168  17.200 -0.0420  0.2451 -0.5539
  309MPD2    C3 4648   3.830   3.148  17.320 -0.3287  0.0676  0.4689
  309MPD2    C4 4649   3.908   3.137  17.431 -0.0641 -0.1438 -0.5711
  309MPD2    C5 4650   4.042   3.172  17.426 -0.1505  0.2834  0.6515
  309MPD2     H 4651   3.845   3.186  17.106  1.9248  1.9602 -1.2705
  309MPD2    H1 4652   3.860   3.130  17.527  0.0406  1.4182 -0.4025
  309MPD2    H2 4653   4.207   3.225  17.312 -0.4366  1.5076 -1.9378
  309MPD2    H3 4654   4.095   3.192  17.519  0.1911 -0.0024  0.5189
  309MPD2     N 4655   3.691   3.139  17.329  0.6615  0.0166  0.1397
  309MPD2    H5 4656   3.651   3.162  17.419  2.7508 -1.1662  1.3679
  309MPD2    N1 4657   4.090   3.218  17.062  0.2955 -0.2599  0.1689
  309MPD2    H7 4658   4.023   3.241  16.990 -1.6523 -0.7879  1.7966
  310TMC3    C1 4659   4.271   3.268  16.912  0.1864  0.2401  0.6555
  310TMC3    C2 4660   4.192   3.345  16.833 -0.4790  0.3474 -0.1960
  310TMC3    C3 4661   4.237   3.374  16.708 -0.0930  0.1107 -0.1372
  310TMC3    C4 4662   4.396   3.236  16.877 -0.5442  0.7467 -0.4451
  310TMC3    C5 4663   4.442   3.272  16.756 -0.1480  0.6307  0.1283
  310TMC3    C6 4664   4.358   3.331  16.659  0.1722 -0.6601  0.0258
  310TMC3     C 4665   4.225   3.218  17.044  0.7731  0.1863  0.9749
  310TMC3     O 4666   4.313   3.178  17.117 -0.4079 -0.2627  0.2285
  310TMC3     H 4667   4.104   3.388  16.879 -0.3030  1.5613 -0.9895
  310TMC3    H1 4668   4.459   3.179  16.945 -0.2221 -0.7767 -2.0342
  310TMC3    H2 4669   4.393   3.367  16.563  1.1517 -0.1794  0.5673
  310TMC3    C7 4670   4.561   3.197  16.720  0.0663  0.0710  0.5745
  310TMC3    C8 4671   4.152   3.438  16.613  0.0914  0.0428 -0.3832
  310TMC3    O1 4672   4.630   3.161  16.812 -0.3801 -0.5137  0.1792
  310TMC3    O2 4673   4.206   3.490  16.516  1.0226 -0.2307  0.4629
  311MPD2     C 4674   1.263   0.323  12.495  0.2263 -0.2183  0.1498
  311MPD2    C1 4675   1.340   0.295  12.610 -0.6528  0.1893  0.6396
  311MPD2    C2 4676   1.268   0.279  12.725  0.1478 -0.3992  0.3543
  311MPD2    C3 4677   1.132   0.265  12.724  1.1301 -0.5739 -0.1342
  311MPD2    C4 4678   1.056   0.309  12.617  0.6507 -0.1888  0.6488
  311MPD2    C5 4679   1.129   0.329  12.499 -0.5967 -0.9435 -0.2927
  311MPD2     H 4680   1.330   0.264  12.813  0.1213 -1.4115  0.2038
  311MPD2    H1 4681   0.948   0.304  12.610  0.4576  1.2864  2.7643
  311MPD2    H2 4682   1.307   0.346  12.399 -1.8229  1.4150 -0.3870
  311MPD2    H3 4683   1.071   0.346  12.409  0.9479 -0.3972 -1.1671
  311MPD2     N 4684   1.067   0.231  12.844 -0.1786 -0.5085 -0.1823
  311MPD2    H5 4685   1.130   0.199  12.917 -2.0338 -0.7502  1.3079
  311MPD2    N1 4686   1.482   0.306  12.614 -0.6339 -0.1928 -0.0531
  311MPD2    H7 4687   1.525   0.315  12.705 -0.7345  0.1442 -0.0401
  312TMC3    C1 4688   0.889   0.175  13.000  0.2355  0.9683  0.8970
  312TMC3    C2 4689   0.755   0.139  12.994 -0.1018  0.0171  0.1184
  312TMC3    C3 4690   0.671   0.150  13.104 -0.2385 -0.3833 -0.0927
  312TMC3    C4 4691   0.947   0.219  13.124 -0.0498 -0.4597  0.0713
  312TMC3    C5 4692   0.860   0.219  13.233 -0.3142  0.3907 -0.1090
  312TMC3    C6 4693   0.730   0.175  13.228  0.6137 -0.4057  0.1755
  312TMC3     C 4694   0.932   0.208  12.863 -0.4507 -0.3925 -0.6636
  312TMC3     O 4695   0.838   0.242  12.793  0.0423  0.2947 -0.9141
  312TMC3     H 4696   0.716   0.107  12.898  1.0573 -1.2258  0.0729
  312TMC3    H1 4697   1.052   0.245  13.127 -0.4609  1.1891  0.1725
  312TMC3    H2 4698   0.662   0.216  13.302 -0.5467  0.1848 -1.2143
  312TMC3    C7 4699   0.899   0.305  13.344 -0.0923 -0.3694 -0.3377
  312TMC3    C8 4700   0.538   0.116  13.087  0.5512 -0.1028  0.0089
  312TMC3    O1 4701   0.991   0.386  13.328  0.3601  0.1753 -0.1652
  312TMC3    O2 4702   0.481   0.047  13.171  0.6477 -0.1290  0.0245
  313MPD2     C 4703   0.289   4.240  10.953  0.3935  0.0997  0.2041
  313MPD2    C1 4704   0.304   4.354  10.881 -0.0004 -0.2483 -0.4525
  313MPD2    C2 4705   0.280   4.362  10.743 -0.7897 -0.5254 -0.7066
  313MPD2    C3 4706   0.233   4.243  10.680  0.7197 -0.6975 -0.7011
  313MPD2    C4 4707   0.225   4.125  10.748 -0.1175  0.8748 -0.7401
  313MPD2    C5 4708   0.241   4.127  10.886 -0.3841 -0.5036 -0.1447
  313MPD2     H 4709   0.285   4.454  10.687 -1.6223 -0.6293 -0.9449
  313MPD2    H1 4710   0.208   4.027  10.705  0.9143  0.3349  0.0851
  313MPD2    H2 4711   0.323   4.210  11.051 -0.1532 -1.2109 -0.0007
  313MPD2    H3 4712   0.237   4.036  10.944  1.1187 -0.3875  0.1313
  313MPD2     N 4713   0.211   4.250  10.538  0.0206  1.2303 -0.1486
  313MPD2    H5 4714   0.219   4.338  10.488 -0.0427  0.9243 -0.7077
  313MPD2    N1 4715   0.351   4.477  10.948 -0.3285 -0.6461  0.7873
  313MPD2    H7 4716   0.365   4.555  10.884 -2.2346 -1.2253 -0.3397
  314TMC3    C1 4717   0.402   4.650  11.108 -0.1152 -0.6321 -0.3842
  314TMC3    C2 4718   0.534   4.677  11.088 -0.2969 -0.7786  0.5928
  314TMC3    C3 4719   0.565   0.049  11.000 -0.3733  0.4912  0.2089
  314TMC3    C4 4720   0.300   0.002  11.067  0.2269 -0.1082 -0.0990
  314TMC3    C5 4721   0.326   0.089  10.965 -0.2250  0.5461  0.1300
  314TMC3    C6 4722   0.463   0.112  10.939 -0.4196  0.4456 -0.7018
  314TMC3     C 4723   0.361   4.507  11.081  0.3420 -0.7523 -0.6109
  314TMC3     O 4724   0.362   4.423  11.172  0.3668  0.1829 -0.4048
  314TMC3     H 4725   0.607   4.605  11.124  0.2152 -0.7690 -0.4269
  314TMC3    H1 4726   0.201   4.689  11.092 -0.0089  0.7604  0.2245
  314TMC3    H2 4727   0.483   0.180  10.857  1.0442  1.8577  0.8244
  314TMC3    C7 4728   0.234   0.087  10.851 -0.7169  0.1222  0.2978
  314TMC3    C8 4729   0.700   0.097  10.971  0.0222 -0.9191  0.2461
  314TMC3    O1 4730   0.116   0.080  10.880 -0.1348 -0.0172  0.7259
  314TMC3    O2 4731   0.719   0.156  10.869  0.5125 -0.1806  0.4387
  315MPD2     C 4732   0.799   3.076   0.080  0.1372 -0.5030 -0.7035
  315MPD2    C1 4733   0.896   3.013   0.016  0.6286 -1.0408  0.3879
  315MPD2    C2 4734   0.933   3.055  17.585  0.4805  0.6261 -0.0802
  315MPD2    C3 4735   0.876   3.166  17.528 -0.8891  0.1506  0.7855
  315MPD2    C4 4736   0.768   3.229  17.589 -0.4367 -0.5940  0.3525
  315MPD2    C5 4737   0.741   3.183   0.021  0.3926  0.4243 -0.4476
  315MPD2     H 4738   1.014   3.005  17.533 -1.0963 -0.4378 -1.4599
  315MPD2    H1 4739   0.716   3.311  17.540 -2.7256 -1.0793  1.9986
  315MPD2    H2 4740   0.749   3.050   0.172 -0.0728 -1.1681 -1.0105
  315MPD2    H3 4741   0.670   3.237   0.081  0.6421 -1.5163  1.5846
  315MPD2     N 4742   0.929   3.215  17.410 -0.1196 -0.6544 -0.3630
  315MPD2    H5 4743   1.011   3.167  17.373 -1.3747 -0.3107 -3.5925
  315MPD2    N1 4744   0.969   2.901   0.070 -0.7372 -0.3132  0.1820
  315MPD2    H7 4745   1.046   2.860   0.018  0.1660 -3.0272  3.6907
  316TMC3    C1 4746   0.974   3.360  17.229 -0.3178  0.2461  0.6652
  316TMC3    C2 4747   1.111   3.347  17.239  0.4192 -0.3249  0.1896
  316TMC3    C3 4748   1.186   3.441  17.178 -0.2085 -0.0975 -0.0322
  316TMC3    C4 4749   0.922   3.460  17.155 -0.9362 -0.7239 -0.3611
  316TMC3    C5 4750   1.005   3.541  17.081  0.4049  0.3511  0.8419
  316TMC3    C6 4751   1.138   3.536  17.099 -0.2040  0.4519  0.5871
  316TMC3     C 4752   0.878   3.317  17.333 -0.2042 -0.6138  0.7715
  316TMC3     O 4753   0.775   3.380  17.346 -0.0336 -0.4545  0.5791
  316TMC3     H 4754   1.156   3.280  17.312  3.7054  0.5161 -1.0756
  316TMC3    H1 4755   0.815   3.476  17.160 -0.4278  2.1530  1.4632
  316TMC3    H2 4756   1.200   3.601  17.039  0.7598 -1.4768 -0.4871
  316TMC3    C7 4757   0.941   3.670  17.046 -0.2252 -0.3414 -0.5649
  316TMC3    C8 4758   1.331   3.422  17.181 -0.5008  0.3840  0.8300
  316TMC3    O1 4759   1.016   3.763  17.026  0.2205 -0.0959  0.2496
  316TMC3    O2 4760   1.395   3.525  17.164  0.0401 -0.6125 -0.6983
  317MPD2     C 4761   3.032   1.979  13.056  0.4427 -0.1626 -0.6335
  317MPD2    C1 4762   3.032   1.847  13.036  1.0575 -0.5325  0.1779
  317MPD2    C2 4763   3.083   1.768  13.134  0.5498  0.1814 -0.1772
  317MPD2    C3 4764   3.139   1.813  13.244 -0.3864 -0.7374 -0.0906
  317MPD2    C4 4765   3.158   1.951  13.260  0.0122  0.6219 -0.0414
  317MPD2    C5 4766   3.103   2.030  13.159 -0.7916  0.0126 -0.4113
  317MPD2     H 4767   3.096   1.662  13.118 -0.1087  0.2447 -1.1838
  317MPD2    H1 4768   3.200   1.993  13.351 -0.5008  2.5522 -0.6896
  317MPD2    H2 4769   2.985   2.044  12.984 -1.3066 -3.2069 -2.2071
  317MPD2    H3 4770   3.119   2.136  13.150  2.4016 -0.2218  2.4327
  317MPD2     N 4771   3.194   1.717  13.336  0.3516  0.0257  0.1442
  317MPD2    H5 4772   3.169   1.621  13.313  1.7008  0.1606 -1.8679
  317MPD2    N1 4773   2.983   1.778  12.926  0.5336 -0.4519  0.1953
  317MPD2    H7 4774   2.996   1.678  12.915 -0.6152 -0.6763  0.8248
  318TMC3    C1 4775   3.331   1.621  13.505 -0.8173 -0.4520  0.0647
  318TMC3    C2 4776   3.233   1.524  13.534  0.8007  0.6362  0.6843
  318TMC3    C3 4777   3.280   1.428  13.619  0.3021 -0.6131  0.3328
  318TMC3    C4 4778   3.455   1.621  13.568 -0.6421  0.0162 -0.1196
  318TMC3    C5 4779   3.501   1.513  13.637  0.6017  1.1335 -0.4481
  318TMC3    C6 4780   3.412   1.421  13.662  0.1842 -0.3607 -0.0895
  318TMC3     C 4781   3.292   1.738  13.434  0.1440 -0.0441  1.2633
  318TMC3     O 4782   3.362   1.840  13.445  0.5047 -0.7612 -0.1043
  318TMC3     H 4783   3.129   1.529  13.505  0.4309 -1.8663  1.5877
  318TMC3    H1 4784   3.531   1.691  13.536 -1.6327  1.4029  0.5543
  318TMC3    H2 4785   3.438   1.348  13.739  0.5191 -1.2655 -1.0495
  318TMC3    C7 4786   3.618   1.515  13.716 -0.1102 -0.4141  0.6823
  318TMC3    C8 4787   3.191   1.330  13.683  0.0013  0.6254  0.9043
  318TMC3    O1 4788   3.658   1.622  13.758 -0.1040 -0.0076  0.1283
  318TMC3    O2 4789   3.219   1.292  13.795 -0.0487 -0.8208  0.0749
  319MPD2     C 4790   3.932   2.740  15.998  0.3579  0.0246 -0.9569
  319MPD2    C1 4791   3.839   2.731  16.100  0.0804 -0.0149  0.6137
  319MPD2    C2 4792   3.717   2.667  16.082  0.5202 -0.3979  0.0919
  319MPD2    C3 4793   3.701   2.610  15.952 -0.2938 -0.9677 -0.4188
  319MPD2    C4 4794   3.788   2.627  15.851 -0.6271  0.5102 -0.0814
  319MPD2    C5 4795   3.908   2.689  15.874  0.0792  0.0403 -0.4124
  319MPD2     H 4796   3.647   2.658  16.164 -0.8433 -0.1987 -1.0462
  319MPD2    H1 4797   3.773   2.581  15.754 -0.0233  1.2998 -0.5485
  319MPD2    H2 4798   4.029   2.788  16.009 -0.2522  1.7121 -2.8534
  319MPD2    H3 4799   3.975   2.710  15.792  2.5815 -1.4233  1.2435
  319MPD2     N 4800   3.588   2.537  15.917 -0.1747  0.6229  0.0283
  319MPD2    H5 4801   3.567   2.527  15.818 -0.4390 -0.4582  0.1957
  319MPD2    N1 4802   3.863   2.786  16.230 -0.5006  0.0864 -0.6207
  319MPD2    H7 4803   3.800   2.772  16.308  0.5047 -3.6850 -0.4771
  320TMC3    C1 4804   3.374   2.434  15.939  0.0851  0.0312  0.7746
  320TMC3    C2 4805   3.317   2.502  15.841 -0.3228  0.4969 -0.2841
  320TMC3    C3 4806   3.195   2.462  15.804 -0.7767  0.2408 -0.1411
  320TMC3    C4 4807   3.316   2.331  16.005 -0.3851  0.1574  0.5260
  320TMC3    C5 4808   3.192   2.288  15.960  0.4664 -0.5549  0.3052
  320TMC3    C6 4809   3.136   2.346  15.852  0.1907 -0.3616 -0.6957
  320TMC3     C 4810   3.497   2.484  16.006 -0.3230  0.5207  0.2124
  320TMC3     O 4811   3.514   2.466  16.127 -0.4664  0.3723 -0.0634
  320TMC3     H 4812   3.361   2.595  15.807 -0.4047  0.9141  0.7762
  320TMC3    H1 4813   3.378   2.282  16.079 -0.2927  1.1325  1.1042
  320TMC3    H2 4814   3.043   2.306  15.815  0.1199 -0.4892 -0.3739
  320TMC3    C7 4815   3.122   2.176  16.023  0.3288  0.4021  0.2707
  320TMC3    C8 4816   3.111   2.569  15.748 -0.2982 -0.5059 -0.3803
  320TMC3    O1 4817   3.043   2.120  15.947  0.3873 -0.3402 -0.5693
  320TMC3    O2 4818   3.146   2.683  15.763 -0.1234 -0.7927  0.0997
  321TMC3    C1 4819   3.962   2.926  16.382  0.5884  0.5658  0.8339
  321TMC3    C2 4820   3.860   2.895  16.477 -0.3119  0.8862  0.6001
  321TMC3    C3 4821   3.857   2.964  16.594 -0.7075 -0.8075  0.5134
  321TMC3    C4 4822   4.063   3.008  16.413  0.1143 -0.7605  0.0091
  321TMC3    C5 4823   4.064   3.067  16.536 -0.8501 -0.6563 -0.3483
  321TMC3    C6 4824   3.955   3.059  16.615  0.0623 -0.6803 -0.6494
  321TMC3     C 4825   3.968   2.875  16.253  0.0704  0.1800 -0.0004
  321TMC3     O 4826   4.053   2.924  16.178  0.0385 -0.2019  0.2196
  321TMC3     H 4827   3.777   2.829  16.453  0.3672 -0.9226  3.1991
  321TMC3    H1 4828   4.153   3.023  16.355 -0.3135  2.5902  0.2145
  321TMC3    H2 4829   3.972   3.107  16.711  1.0347  0.1020 -1.2242
  321TMC3    C7 4830   4.189   3.031  16.607  1.1964  0.6082  0.1157
  321TMC3    C8 4831   3.826   2.893  16.715  0.1619 -0.6712  1.0037
  321TMC3    O1 4832   4.289   3.033  16.542 -0.0226  0.3016 -0.2134
  321TMC3    O2 4833   3.905   2.910  16.805 -0.0207  0.6354 -0.0053
  322MPD2     C 4834   2.276   4.168  13.372 -0.2433 -0.3025 -0.0285
  322MPD2    C1 4835   2.321   4.096  13.479 -0.4391  0.2291  0.3696
  322MPD2    C2 4836   2.335   3.961  13.468  0.6599  0.1075  0.4228
  322MPD2    C3 4837   2.326   3.900  13.342  0.5795  0.4563 -0.3668
  322MPD2    C4 4838   2.278   3.973  13.241  0.0579 -0.4781 -0.5945
  322MPD2    C5 4839   2.243   4.108  13.251  0.2207  0.1881  0.4322
  322MPD2     H 4840   2.370   3.902  13.552 -0.2123  1.0058  1.4393
  322MPD2    H1 4841   2.260   3.936  13.141  3.3563  0.5439 -1.5690
  322MPD2    H2 4842   2.281   4.276  13.379  4.1010 -0.6030  1.8727
  322MPD2    H3 4843   2.208   4.167  13.167  1.6504 -1.1215 -1.0796
  322MPD2     N 4844   2.377   3.769  13.326  0.3838  0.0769 -0.2529
  322MPD2    H5 4845   2.423   3.722  13.403  0.9112 -0.3943 -0.8616
  322MPD2    N1 4846   2.346   4.163  13.600 -0.1870  0.2480  0.3727
  322MPD2    H7 4847   2.346   4.264  13.588 -0.7399  0.1201 -0.6922
  323TMC3    C1 4848   2.403   4.194  13.835  0.4116 -0.0720  0.2023
  323TMC3    C2 4849   2.490   4.298  13.810 -0.0290  0.2261  0.0592
  323TMC3    C3 4850   2.583   4.335  13.902 -1.1664 -0.4618  0.0169
  323TMC3    C4 4851   2.413   4.129  13.957  0.2808 -0.6455  0.0205
  323TMC3    C5 4852   2.522   4.159  14.042  0.8059  0.1623 -0.0504
  323TMC3    C6 4853   2.606   4.262  14.014 -0.2521 -0.0246 -0.7640
  323TMC3     C 4854   2.370   4.105  13.727  0.6627  0.0255  0.1840
  323TMC3     O 4855   2.338   3.992  13.760  0.2276  0.5549 -0.4450
  323TMC3     H 4856   2.491   4.357  13.718  0.1780 -0.9834 -0.7165
  323TMC3    H1 4857   2.351   4.043  13.980  0.7528 -0.8398  0.5548
  323TMC3    H2 4858   2.691   4.283  14.078 -0.3099 -0.9327 -0.3937
  323TMC3    C7 4859   2.565   4.054  14.119  0.3092 -0.3111 -0.0469
  323TMC3    C8 4860   2.681   4.448  13.890  0.7277 -0.7737  0.6403
  323TMC3    O1 4861   2.477   3.996  14.182  0.7866 -0.3085 -0.1072
  323TMC3    O2 4862   2.791   4.444  13.942  0.2284 -0.2250 -0.4000
  324MPD2     C 4863   4.136   0.637  14.669 -0.0480 -0.0757  0.0390
  324MPD2    C1 4864   4.141   0.776  14.651 -0.0661 -0.4028  0.0486
  324MPD2    C2 4865   4.079   0.821  14.535  0.3243 -0.1513 -0.2513
  324MPD2    C3 4866   4.004   0.736  14.458  0.3271  0.0166 -0.2558
  324MPD2    C4 4867   3.994   0.606  14.484  0.1023 -0.3571  0.5894
  324MPD2    C5 4868   4.049   0.558  14.597 -0.4566  0.2488 -0.7711
  324MPD2     H 4869   4.089   0.927  14.515  1.6467 -0.5172 -1.5351
  324MPD2    H1 4870   3.943   0.540  14.415 -0.1244 -2.0079  2.3546
  324MPD2    H2 4871   4.168   0.597  14.764  0.4964  1.2956  0.4312
  324MPD2    H3 4872   4.031   0.454  14.623 -0.1428  0.7080  1.2465
  324MPD2     N 4873   3.932   0.787  14.345 -0.7947  0.2486  0.4843
  324MPD2    H5 4874   3.892   0.721  14.279 -0.3728  1.0254 -0.5629
  324MPD2    N1 4875   4.211   0.870  14.735  0.5130 -0.0492 -0.2593
  324MPD2    H7 4876   4.198   0.966  14.704  0.2511  0.9385  2.9032
  325TMC3    C1 4877   3.833   0.945  14.201 -0.4520 -0.2821  0.6825
  325TMC3    C2 4878   3.846   0.859  14.097 -0.1091  0.5241 -0.6164
  325TMC3    C3 4879   3.779   0.889  13.982  0.6821  0.4833  0.2651
  325TMC3    C4 4880   3.769   1.068  14.187 -0.1986 -0.2832  0.0031
  325TMC3    C5 4881   3.714   1.098  14.067  0.6538 -0.2336  0.1066
  325TMC3    C6 4882   3.715   1.006  13.967 -0.0924  0.1227 -0.1588
  325TMC3     C 4883   3.902   0.926  14.326  0.1064 -0.4206  0.2203
  325TMC3     O 4884   3.924   1.026  14.390  0.1868 -0.4030  0.2253
  325TMC3     H 4885   3.878   0.756  14.104  0.5144  0.8338  1.2776
  325TMC3    H1 4886   3.759   1.132  14.274  1.1646  0.7911 -0.6446
  325TMC3    H2 4887   3.648   1.024  13.883 -0.8886  1.3944  0.7539
  325TMC3    C7 4888   3.584   1.163  14.071  0.2200 -0.2358 -0.1313
  325TMC3    C8 4889   3.710   0.787  13.910 -0.3596  0.1728 -0.0104
  325TMC3    O1 4890   3.548   1.225  13.972 -0.2485 -0.7251  0.2452
  325TMC3    O2 4891   3.686   0.799  13.796 -0.2525  0.4844  0.2181
  326MPD2     C 4892   0.393   1.719  11.124 -0.1951 -0.3819  0.4602
  326MPD2    C1 4893   0.395   1.724  10.982 -0.1453  0.3570  0.8740
  326MPD2    C2 4894   0.484   1.814  10.928 -0.2288  1.0367 -0.7846
  326MPD2    C3 4895   0.571   1.893  11.007 -0.1894 -0.2034 -0.0097
  326MPD2    C4 4896   0.574   1.878  11.145  0.1009 -0.6106 -0.8156
  326MPD2    C5 4897   0.486   1.790  11.200  0.3443 -0.3344 -0.5175
  326MPD2     H 4898   0.476   1.830  10.821  1.3023  1.5302 -0.8310
  326MPD2    H1 4899   0.664   1.911  11.197 -0.1678 -0.1949 -0.6069
  326MPD2    H2 4900   0.328   1.650  11.178 -1.6515  0.7266  0.1232
  326MPD2    H3 4901   0.473   1.780  11.307  1.7641 -2.5495 -0.5490
  326MPD2     N 4902   0.655   1.991  10.949  0.5487 -0.3167 -0.3926
  326MPD2    H5 4903   0.717   2.036  11.016 -0.3011 -0.3279  0.4013
  326MPD2    N1 4904   0.316   1.648  10.898  0.1535 -0.7049  0.0757
  326MPD2    H7 4905   0.343   1.641  10.800 -1.8452  2.1249 -0.6711
  327TMC3    C1 4906   0.127   1.611  10.794 -0.6228 -0.2605 -0.3417
  327TMC3    C2 4907   0.044   1.714  10.761  0.3472 -0.0615 -0.1375
  327TMC3    C3 4908   0.043   1.743  10.625  0.8918  1.2318 -0.4206
  327TMC3    C4 4909   0.202   1.541  10.703 -0.0722  0.2932  0.6072
  327TMC3    C5 4910   0.205   1.581  10.575 -0.3871 -0.7303  0.5442
  327TMC3    C6 4911   0.126   1.682  10.533 -0.3433  0.2101 -0.1477
  327TMC3     C 4912   0.193   1.613  10.924  0.1201 -0.3532 -0.4747
  327TMC3     O 4913   0.120   1.645  11.019 -0.3396 -0.1774  0.0054
  327TMC3     H 4914   0.016   1.778  10.843 -0.1864  0.3716 -0.6547
  327TMC3    H1 4915   0.256   1.453  10.734  0.9464  1.1974  1.3808
  327TMC3    H2 4916   0.117   1.710  10.428  1.6656  0.3501 -0.2941
  327TMC3    C7 4917   0.342   1.588  10.530  0.3413  0.0928  0.0579
  327TMC3    C8 4918   4.707   1.867  10.575  0.5067 -0.4115 -0.5237
  327TMC3    O1 4919   0.422   1.603  10.622 -0.3036  0.2479  0.0698
  327TMC3    O2 4920   0.018   1.932  10.475 -0.1772  0.6743 -0.5376
  328MPD2     C 4921   2.715   0.519  17.342  0.0334 -0.2774 -0.3436
  328MPD2    C1 4922   2.722   0.509  17.206 -0.1987 -0.0340 -0.5606
  328MPD2    C2 4923   2.733   0.623  17.131 -0.6859 -0.0941  0.0858
  328MPD2    C3 4924   2.751   0.744  17.191  0.1862  0.0876  0.2438
  328MPD2    C4 4925   2.755   0.753  17.330  0.4317 -0.4379  0.9355
  328MPD2    C5 4926   2.723   0.640  17.408 -0.0486  1.0115  0.8386
  328MPD2     H 4927   2.736   0.620  17.023 -0.2309 -3.0942  0.1939
  328MPD2    H1 4928   2.757   0.848  17.382 -1.5750  1.5977 -2.6908
  328MPD2    H2 4929   2.715   0.427  17.400 -0.5621  1.0284  1.7511
  328MPD2    H3 4930   2.715   0.639  17.516  0.0879 -0.2838  0.8309
  328MPD2     N 4931   2.762   0.853  17.108  0.6878 -0.1366  0.1407
  328MPD2    H5 4932   2.739   0.839  17.010 -2.4968 -1.4525  1.0660
  328MPD2    N1 4933   2.703   0.375  17.150 -0.5244 -0.2417 -0.2849
  328MPD2    H7 4934   2.675   0.301  17.213  0.0060 -0.9967 -0.9406
  329TMC3    C1 4935   2.641   0.240  16.975  0.5365 -0.3461  0.4967
  329TMC3    C2 4936   2.512   0.257  17.017  0.4393 -0.4555 -0.1224
  329TMC3    C3 4937   2.411   0.222  16.927 -0.0815 -0.1990 -0.1045
  329TMC3    C4 4938   2.666   0.188  16.847 -0.2632 -0.1950  0.4794
  329TMC3    C5 4939   2.564   0.145  16.771  0.2856  0.7224  0.2880
  329TMC3    C6 4940   2.436   0.160  16.808  0.0652  0.0795  0.5467
  329TMC3     C 4941   2.717   0.348  17.019  0.2646 -1.1800  0.4959
  329TMC3     O 4942   2.775   0.413  16.934  0.7333 -0.0565  0.5825
  329TMC3     H 4943   2.486   0.291  17.117  1.6132  0.3641 -0.0994
  329TMC3    H1 4944   2.765   0.196  16.806  0.3426 -1.9962  1.5645
  329TMC3    H2 4945   2.356   0.137  16.739  1.0257 -2.2096  0.2005
  329TMC3    C7 4946   2.590   0.090  16.645 -0.4916  0.3506  0.5574
  329TMC3    C8 4947   2.289   0.296  16.933  0.1620 -0.8482  0.1474
  329TMC3    O1 4948   2.509   0.114  16.557  0.0314 -0.5225  0.5009
  329TMC3    O2 4949   2.231   0.297  16.828  0.0651  0.4470 -0.2354
  330TMC3    C1 4950   1.078   1.106   9.218  0.8138  0.0736  0.1745
  330TMC3    C2 4951   0.953   1.118   9.280 -0.7393  0.4557 -0.0467
  330TMC3    C3 4952   0.927   1.038   9.385  0.2555  0.1780 -0.6324
  330TMC3    C4 4953   1.160   1.004   9.262  0.4965  0.1441  0.1233
  330TMC3    C5 4954   1.114   0.911   9.343  0.4150 -0.2185  0.0349
  330TMC3    C6 4955   1.002   0.930   9.416  0.2610  0.5393  0.0145
  330TMC3     C 4956   1.145   1.220   9.159 -0.6107 -0.0754 -0.3929
  330TMC3     O 4957   1.265   1.227   9.167  0.1521 -0.4258 -0.2844
  330TMC3     H 4958   0.887   1.198   9.246 -1.4848 -1.5040 -3.2715
  330TMC3    H1 4959   1.260   1.006   9.221  0.6233  1.6978  0.4982
  330TMC3    H2 4960   0.985   0.881   9.511 -0.5666  1.1833  0.2013
  330TMC3    C7 4961   1.207   0.799   9.377 -0.5313 -0.2904  0.2763
  330TMC3    C8 4962   0.802   1.062   9.452  0.6057 -0.3964 -0.6440
  330TMC3    O1 4963   1.320   0.810   9.328  0.0774 -0.0806 -0.7217
  330TMC3    O2 4964   0.755   1.170   9.421 -0.1116 -0.0602  0.2208
  331MPD2     C 4965   3.261   4.494  13.016 -0.1387 -0.3744  0.2011
  331MPD2    C1 4966   3.391   4.499  12.973  0.9320 -0.1460  0.0609
  331MPD2    C2 4967   3.456   4.384  12.930 -0.0266  0.3747 -0.8056
  331MPD2    C3 4968   3.381   4.268  12.925  0.2945 -0.9240 -0.5393
  331MPD2    C4 4969   3.243   4.267  12.965 -0.0111  0.5942  0.5781
  331MPD2    C5 4970   3.186   4.380  13.009 -0.4585  0.9467 -0.0134
  331MPD2     H 4971   3.561   4.376  12.906  0.6241  1.6669  1.5704
  331MPD2    H1 4972   3.189   4.175  12.949  1.2900 -0.0914  0.1120
  331MPD2    H2 4973   3.227   4.576  13.078  1.7018 -0.7995  1.7710
  331MPD2    H3 4974   3.084   4.376  13.045 -0.0084  0.3914  1.2220
  331MPD2     N 4975   3.441   4.155  12.876 -0.4785 -0.5318 -0.0072
  331MPD2    H5 4976   3.543   4.159  12.873 -0.5400  0.8186 -0.5072
  331MPD2    N1 4977   3.449   4.629  12.987  0.0802 -0.3679 -0.6883
  331MPD2    H7 4978   3.399   4.705  13.033 -1.1387 -1.4841 -0.1554
  332TMC3    C1 4979   3.466   3.964  12.751  0.1234  0.5390 -0.3693
  332TMC3    C2 4980   3.483   4.001  12.615 -0.1875  0.0340  0.0827
  332TMC3    C3 4981   3.611   4.007  12.572 -0.0243 -0.2263  0.0378
  332TMC3    C4 4982   3.576   3.940  12.823  0.1867  0.0466 -0.9917
  332TMC3    C5 4983   3.704   3.942  12.772  0.9415  0.1562  0.3940
  332TMC3    C6 4984   3.723   3.985  12.641  0.8147  0.3564  0.1225
  332TMC3     C 4985   3.378   4.053  12.813  0.3290 -0.2687 -0.3235
  332TMC3     O 4986   3.262   4.041  12.781 -0.0851 -0.1463 -0.2099
  332TMC3     H 4987   3.394   4.037  12.566 -0.8958 -1.6922  0.0818
  332TMC3    H1 4988   3.572   3.920  12.930  1.6858 -0.6300 -1.0671
  332TMC3    H2 4989   3.821   3.978  12.595 -0.3429 -4.5225 -1.5964
  332TMC3    C7 4990   3.821   3.933  12.858 -0.3347  0.7562  0.2504
  332TMC3    C8 4991   3.637   4.077  12.446  0.3249  0.3592 -0.3306
  332TMC3    O1 4992   3.801   3.915  12.979 -0.7467 -0.3164  0.4041
  332TMC3    O2 4993   3.746   4.127  12.444 -0.1565 -0.2589  1.2067
  333MPD2     C 4994   3.621   0.443  10.695 -0.1044 -0.3177 -0.0421
  333MPD2    C1 4995   3.695   0.330  10.655 -0.4676  0.8455  0.1810
  333MPD2    C2 4996   3.659   0.200  10.692 -0.3638 -0.0482  0.1749
  333MPD2    C3 4997   3.554   0.189  10.788  0.8529 -0.3915 -0.2522
  333MPD2    C4 4998   3.483   0.304  10.828 -0.0394  0.4465  0.5305
  333MPD2    C5 4999   3.517   0.426  10.784  0.0755 -0.5172 -0.1558
  333MPD2     H 5000   3.717   0.112  10.667 -1.7529 -0.5858 -1.2183
  333MPD2    H1 5001   3.401   0.298  10.899  0.6625 -0.1964  1.2856
  333MPD2    H2 5002   3.633   0.540  10.648  0.2124 -0.9540 -1.2877
  333MPD2    H3 5003   3.462   0.511  10.823 -1.2876 -1.5281  0.1010
  333MPD2     N 5004   3.516   0.055  10.828  0.0682 -0.1520  0.2571
  333MPD2    H5 5005   3.563   4.706  10.776 -1.9138  0.8415 -2.9440
  333MPD2    N1 5006   3.804   0.365  10.567 -0.0088 -0.0014  0.0404
  333MPD2    H7 5007   3.821   0.463  10.546 -3.3850  0.6667  0.4277
  334TMC3    C1 5008   4.000   0.340  10.438 -0.1278  0.5785 -0.2758
  334TMC3    C2 5009   4.122   0.278  10.429 -0.5377 -0.0308  0.4235
  334TMC3    C3 5010   4.213   0.330  10.343  0.2952  0.0819 -0.0073
  334TMC3    C4 5011   3.968   0.447  10.359 -0.0595 -0.1931  0.4808
  334TMC3    C5 5012   4.063   0.499  10.283  0.0919  0.1636  0.2904
  334TMC3    C6 5013   4.187   0.439  10.269  0.2949  0.4266  0.5090
  334TMC3     C 5014   3.905   0.278  10.526  0.0760 -0.4663  0.3484
  334TMC3     O 5015   3.905   0.156  10.530 -0.4849  0.1116 -1.0126
  334TMC3     H 5016   4.144   0.189  10.488  0.6338 -0.9357 -1.3543
  334TMC3    H1 5017   3.872   0.495  10.372  0.0531 -0.3718  1.8970
  334TMC3    H2 5018   4.259   0.467  10.193 -0.0652 -2.3790 -0.8768
  334TMC3    C7 5019   4.049   0.623  10.208 -0.2987  0.2089 -0.1120
  334TMC3    C8 5020   4.331   0.254  10.316  0.4230 -0.3630  0.3773
  334TMC3    O1 5021   4.153   0.685  10.181 -0.2862  0.0746  0.2357
  334TMC3    O2 5022   4.343   0.142  10.364 -0.5475 -0.5119  0.0632
  335TMC3    C1 5023   3.555   1.348  17.383 -0.0486 -0.7459 -0.7351
  335TMC3    C2 5024   3.513   1.270  17.281  0.3879  1.2894 -0.5800
  335TMC3    C3 5025   3.573   1.296  17.161  0.1309 -0.0626 -0.1186
  335TMC3    C4 5026   3.635   1.455  17.360  0.5880  0.6015 -0.5166
  335TMC3    C5 5027   3.690   1.468  17.236 -0.6788  0.4843 -0.6108
  335TMC3    C6 5028   3.656   1.394  17.130 -0.1054  0.1283  0.3025
  335TMC3     C 5029   3.464   1.363  17.500 -0.0947  0.2384 -0.3747
  335TMC3     O 5030   3.372   1.282  17.505 -0.4261  0.1244  0.4340
  335TMC3     H 5031   3.440   1.191  17.295 -1.2003  2.7790 -0.5416
  335TMC3    H1 5032   3.679   1.513  17.441  0.0884  0.7427 -0.3479
  335TMC3    H2 5033   3.701   1.408  17.033 -1.2920 -2.1859 -0.5642
  335TMC3    C7 5034   3.829   1.521  17.228  0.5080  0.4631 -0.5361
  335TMC3    C8 5035   3.547   1.207  17.044 -0.8333  0.0528  0.5234
  335TMC3    O1 5036   3.899   1.461  17.149 -0.3735  0.7989 -0.0450
  335TMC3    O2 5037   3.574   1.259  16.937 -0.3739  0.6646 -0.2782
  336MPD2     C 5038   3.277   3.675  16.353 -1.1529  0.0137  0.0674
  336MPD2    C1 5039   3.351   3.669  16.235  0.0070  0.3924  0.4889
  336MPD2    C2 5040   3.430   3.559  16.218 -0.3760 -0.4090 -0.4812
  336MPD2    C3 5041   3.445   3.460  16.314 -0.0214  0.2373 -0.8196
  336MPD2    C4 5042   3.375   3.469  16.432 -0.2582 -0.0721  0.1662
  336MPD2    C5 5043   3.297   3.583  16.457 -0.5692 -0.6770  0.5852
  336MPD2     H 5044   3.482   3.539  16.124 -1.9752 -0.0993 -1.4201
  336MPD2    H1 5045   3.374   3.398  16.515  0.7027 -0.3074 -0.0291
  336MPD2    H2 5046   3.191   3.741  16.360 -0.3225  1.2776 -1.7189
  336MPD2    H3 5047   3.217   3.592  16.530 -1.6976  3.5037 -1.1461
  336MPD2     N 5048   3.515   3.341  16.294  0.7824  0.0761  0.4769
  336MPD2    H5 5049   3.500   3.255  16.346  1.4338  0.8390  1.9270
  336MPD2    N1 5050   3.330   3.752  16.130  0.2488  0.6263 -0.6159
  336MPD2    H7 5051   3.367   3.736  16.037  0.2565  0.9036 -0.6604
  337TMC3    C1 5052   3.220   3.904  15.993 -0.3334  0.1947  0.2821
  337TMC3    C2 5053   3.163   3.821  15.913  0.1838  0.2787  0.2023
  337TMC3    C3 5054   3.122   3.865  15.793  0.8871  0.6576  0.0378
  337TMC3    C4 5055   3.229   4.041  15.972  0.2245 -0.0297  0.1817
  337TMC3    C5 5056   3.202   4.082  15.846 -0.0263  0.5147  0.7036
  337TMC3    C6 5057   3.134   3.996  15.759  0.1345  0.4832  0.0018
  337TMC3     C 5058   3.239   3.853  16.124  0.1383 -0.2941 -0.3690
  337TMC3     O 5059   3.190   3.920  16.215  0.3239 -0.3044  0.1449
  337TMC3     H 5060   3.140   3.717  15.933  0.1877  0.4207  0.9513
  337TMC3    H1 5061   3.280   4.097  16.050 -0.2145 -2.2674  2.0759
  337TMC3    H2 5062   3.115   4.017  15.655 -0.8929  1.7502  0.4413
  337TMC3    C7 5063   3.234   4.220  15.800  0.1005 -0.2663 -0.5148
  337TMC3    C8 5064   3.003   3.795  15.736 -0.0961 -0.1914 -0.2696
  337TMC3    O1 5065   3.224   4.248  15.679 -0.2059  0.2229  0.2496
  337TMC3    O2 5066   2.979   3.681  15.774  0.1187 -0.8800  0.0834
  338MPD2     C 5067   3.861   3.209   0.878 -0.0100 -0.1945 -0.2842
  338MPD2    C1 5068   3.797   3.090   0.903  0.8906 -0.6768 -0.1839
  338MPD2    C2 5069   3.805   3.040   1.034  0.2992 -1.4289 -0.0616
  338MPD2    C3 5070   3.866   3.118   1.127  0.2827  0.0991 -0.4002
  338MPD2    C4 5071   3.931   3.239   1.095 -0.2316  0.2388  1.1849
  338MPD2    C5 5072   3.935   3.278   0.964  0.7680 -1.1419 -0.6713
  338MPD2     H 5073   3.762   2.943   1.056  0.2900 -0.9066  2.2529
  338MPD2    H1 5074   3.990   3.298   1.165  1.0124 -1.4642  1.5730
  338MPD2    H2 5075   3.873   3.229   0.772 -0.5741  0.5966 -0.1994
  338MPD2    H3 5076   3.994   3.363   0.932 -3.2639  1.7111 -0.5943
  338MPD2     N 5077   3.860   3.076   1.265 -0.4924 -0.3297  0.2403
  338MPD2    H5 5078   3.804   2.993   1.284 -1.6813  0.7038  1.2579
  338MPD2    N1 5079   3.737   3.011   0.804  0.5747 -0.5677 -0.6274
  338MPD2    H7 5080   3.709   2.916   0.826  0.1760 -1.0139 -3.0461
  339TMC3    C1 5081   3.881   3.095   1.497  0.5401  1.0605  0.0274
  339TMC3    C2 5082   3.873   2.955   1.512  0.3158 -0.8405  0.4331
  339TMC3    C3 5083   3.820   2.919   1.634 -0.0927 -0.3463 -0.8681
  339TMC3    C4 5084   3.844   3.188   1.596 -0.2356  0.0099 -0.2736
  339TMC3    C5 5085   3.791   3.142   1.718 -0.0063 -0.0392 -0.7943
  339TMC3    C6 5086   3.788   3.005   1.736 -0.2750 -0.4515  0.9563
  339TMC3     C 5087   3.895   3.154   1.374  0.0691  0.2854  0.3987
  339TMC3     O 5088   3.936   3.271   1.375  0.2966 -0.2707  0.8008
  339TMC3     H 5089   3.908   2.878   1.444 -2.2942 -0.2759 -1.5683
  339TMC3    H1 5090   3.849   3.296   1.592 -0.2861  0.1109  2.1800
  339TMC3    H2 5091   3.737   2.964   1.823  0.5675 -1.3749  1.0146
  339TMC3    C7 5092   3.655   3.190   1.732 -0.1747  0.2100  0.2484
  339TMC3    C8 5093   3.761   2.788   1.638 -0.3085 -0.1839 -0.2567
  339TMC3    O1 5094   3.555   3.118   1.735 -0.0180  0.0144  0.5800
  339TMC3    O2 5095   3.822   2.702   1.572  0.4149 -0.6225 -0.4970
  340MPD2     C 5096   3.749   0.671   8.551 -0.1188 -0.1299 -0.1111
  340MPD2    C1 5097   3.682   0.727   8.658  0.5951 -0.1911 -0.1841
  340MPD2    C2 5098   3.665   0.865   8.662  0.3611 -0.0745 -0.4222
  340MPD2    C3 5099   3.731   0.940   8.564 -0.1075  0.1239 -0.1909
  340MPD2    C4 5100   3.800   0.879   8.453 -0.0418  0.1423 -0.2725
  340MPD2    C5 5101   3.799   0.739   8.442 -0.1603 -0.8172  0.3787
  340MPD2     H 5102   3.624   0.910   8.752 -0.8628 -3.8474  0.9397
  340MPD2    H1 5103   3.853   0.937   8.379 -2.7153 -0.8822 -2.9898
  340MPD2    H2 5104   3.774   0.565   8.547 -0.4909 -0.2109 -0.2660
  340MPD2    H3 5105   3.867   0.693   8.372  0.2031  2.2205 -1.2579
  340MPD2     N 5106   3.754   1.075   8.597 -0.4538  0.8309 -0.5028
  340MPD2    H5 5107   3.717   1.108   8.686  0.0111  1.6989 -0.6276
  340MPD2    N1 5108   3.646   0.638   8.760 -0.1233 -0.3888 -0.0389
  340MPD2    H7 5109   3.670   0.540   8.751  2.1193  0.2433 -0.8298
  341TMC3    C1 5110   3.559   0.556   8.954 -0.6667 -0.2102 -0.6418
  341TMC3    C2 5111   3.431   0.522   8.998 -0.0112 -0.2540  0.7960
  341TMC3    C3 5112   3.419   0.483   9.131  0.1364  0.3223  0.0098
  341TMC3    C4 5113   3.664   0.552   9.033 -0.0506 -0.1864  0.3051
  341TMC3    C5 5114   3.652   0.518   9.163  0.1928 -0.4383  0.5709
  341TMC3    C6 5115   3.530   0.475   9.211  0.1679 -0.3531 -0.7820
  341TMC3     C 5116   3.566   0.666   8.864 -1.1399 -0.2136  0.0803
  341TMC3     O 5117   3.492   0.760   8.884  0.0156 -0.0020  0.3909
  341TMC3     H 5118   3.344   0.542   8.937  0.4829 -2.0715 -0.4836
  341TMC3    H1 5119   3.759   0.576   8.988 -0.6751 -1.4509 -1.6681
  341TMC3    H2 5120   3.528   0.449   9.316  1.3706  1.5774 -0.2819
  341TMC3    C7 5121   3.777   0.498   9.233  0.0686 -0.4524  0.7245
  341TMC3    C8 5122   3.291   0.444   9.184 -0.4064 -0.1940  0.0519
  341TMC3    O1 5123   3.868   0.581   9.225  0.3091 -0.1245  0.1079
  341TMC3    O2 5124   3.197   0.436   9.107  0.8304  0.1836  0.4136
  342MPD2     C 5125   1.394   3.949  16.721  0.5615  0.7357 -0.2113
  342MPD2    C1 5126   1.467   3.936  16.843  0.7476 -0.3000 -0.5300
  342MPD2    C2 5127   1.448   4.038  16.939 -0.2997  0.8734 -0.3017
  342MPD2    C3 5128   1.367   4.148  16.915 -1.0565  0.4067 -0.6976
  342MPD2    C4 5129   1.296   4.157  16.798  0.4414 -0.6471 -0.1450
  342MPD2    C5 5130   1.308   4.057  16.707  0.3555 -0.1510 -0.6226
  342MPD2     H 5131   1.501   4.032  17.033  0.0857  0.2253 -0.5621
  342MPD2    H1 5132   1.240   4.245  16.768  0.6819  0.1804  1.8920
  342MPD2    H2 5133   1.409   3.880  16.640  1.2642 -0.2041  0.7235
  342MPD2    H3 5134   1.254   4.061  16.613  0.6132 -1.6413 -0.8345
  342MPD2     N 5135   1.365   4.249  17.017  0.2692 -0.4435 -0.2421
  342MPD2    H5 5136   1.416   4.234  17.103  1.9949  3.1526 -0.6074
  342MPD2    N1 5137   1.548   3.827  16.879 -0.4706 -0.4136  0.5146
  342MPD2    H7 5138   1.592   3.825  16.971  0.0754 -1.6263  0.2365
  343TMC3    C1 5139   1.645   3.610  16.876  0.3086 -0.2154 -0.5479
  343TMC3    C2 5140   1.770   3.654  16.908 -0.2479 -0.1004 -0.1179
  343TMC3    C3 5141   1.867   3.559  16.920 -0.6060  0.1367  0.0379
  343TMC3    C4 5142   1.619   3.477  16.845 -0.2519 -0.0985 -0.0230
  343TMC3    C5 5143   1.722   3.385  16.863  0.4910 -0.1597  0.4331
  343TMC3    C6 5144   1.847   3.421  16.906  0.4594 -0.4029 -0.2094
  343TMC3     C 5145   1.554   3.702  16.814 -0.3297 -0.6279  0.0804
  343TMC3     O 5146   1.477   3.657  16.733  0.0222  0.1832 -0.0090
  343TMC3     H 5147   1.791   3.760  16.912  0.8978 -0.3978  1.4357
  343TMC3    H1 5148   1.517   3.454  16.816 -0.8417 -0.5103  2.3933
  343TMC3    H2 5149   1.923   3.345  16.923 -1.3921 -2.1556  0.2663
  343TMC3    C7 5150   1.678   3.242  16.858 -0.0948  0.2801  0.8326
  343TMC3    C8 5151   1.995   3.615  16.879  0.0078  0.7353  0.0156
  343TMC3    O1 5152   1.564   3.214  16.816  0.0140  0.2626 -0.0280
  343TMC3    O2 5153   2.020   3.729  16.908 -0.6041  0.2357  0.3278
  344MPD2     C 5154   2.109   4.583  10.539 -0.3242  0.8781 -0.2481
  344MPD2    C1 5155   2.047   4.538  10.423  1.3110  0.2343 -0.1147
  344MPD2    C2 5156   2.079   4.606  10.307 -0.2854 -0.2006 -0.5953
  344MPD2    C3 5157   2.184   4.696  10.307 -0.5760 -0.2979  0.6034
  344MPD2    C4 5158   2.243   0.010  10.420  0.0745  0.0002 -0.0117
  344MPD2    C5 5159   2.208   4.679  10.538 -0.4883 -0.6446 -0.0258
  344MPD2     H 5160   2.027   4.571  10.218  0.0244 -1.4231 -0.2952
  344MPD2    H1 5161   2.328   0.076  10.427 -0.6809  0.6035  3.7404
  344MPD2    H2 5162   2.087   4.544  10.638 -0.2073  3.3760  0.7575
  344MPD2    H3 5163   2.246   4.703  10.636 -2.5084  0.7329  0.4246
  344MPD2     N 5164   2.240   0.031  10.192  0.3251 -1.0131  0.0284
  344MPD2    H5 5165   2.317   0.097  10.195  0.1973 -1.0091  3.4867
  344MPD2    N1 5166   1.950   4.437  10.433 -0.3120 -0.8742 -0.9450
  344MPD2    H7 5167   1.895   4.419  10.349 -1.0064  2.0335 -1.1035
  345TMC3    C1 5168   2.275   0.064   9.959  0.2482 -0.0887  0.2574
  345TMC3    C2 5169   2.406   0.055   9.985 -0.2724  0.2568  0.8031
  345TMC3    C3 5170   2.490   0.111   9.895 -0.1516  0.0718  0.6588
  345TMC3    C4 5171   2.219   0.130   9.857 -0.1474  0.0262 -0.6212
  345TMC3    C5 5172   2.308   0.183   9.765  0.6192 -0.0012 -0.1560
  345TMC3    C6 5173   2.442   0.182   9.789  0.1933  0.2056 -0.1871
  345TMC3     C 5174   2.179   0.025  10.067  0.0709 -0.0151 -0.4452
  345TMC3     O 5175   2.065   4.712  10.036  0.6309 -0.2110 -0.1782
  345TMC3     H 5176   2.453   4.717  10.062 -1.1570 -2.1353 -0.5689
  345TMC3    H1 5177   2.111   0.130   9.845 -0.1788 -1.1189 -0.3071
  345TMC3    H2 5178   2.503   0.203   9.702  0.9881  1.5670  0.7003
  345TMC3    C7 5179   2.256   0.287   9.681  1.0593 -0.0564  0.5419
  345TMC3    C8 5180   2.614   0.154   9.954  0.6239 -0.3256 -0.0786
  345TMC3    O1 5181   2.343   0.355   9.633 -0.5336  0.4873  0.4542
  345TMC3    O2 5182   2.650   0.094  10.052 -0.9001 -1.0282 -0.2284
  346MPD2     C 5183   2.293   0.794  14.449 -0.3093  0.1981  1.0635
  346MPD2    C1 5184   2.391   0.736  14.374 -0.3804  0.6195 -0.6427
  346MPD2    C2 5185   2.522   0.723  14.417 -0.2964 -0.3680 -0.0762
  346MPD2    C3 5186   2.563   0.780  14.542 -0.5729  0.1782 -0.6368
  346MPD2    C4 5187   2.467   0.828  14.627 -0.2479  0.2531  0.0908
  346MPD2    C5 5188   2.336   0.834  14.572 -0.6112  0.1559  0.1274
  346MPD2     H 5189   2.594   0.672  14.353  0.8975 -1.0995  1.8585
  346MPD2    H1 5190   2.495   0.858  14.727 -0.2601  1.7862 -0.3594
  346MPD2    H2 5191   2.190   0.812  14.421 -0.2719 -1.2784 -0.0203
  346MPD2    H3 5192   2.256   0.873  14.634  1.3553  1.8495  1.5880
  346MPD2     N 5193   2.695   0.770  14.587 -0.5519  0.3955  0.0863
  346MPD2    H5 5194   2.752   0.726  14.515 -2.9413 -1.1531 -0.8487
  346MPD2    N1 5195   2.356   0.692  14.244  0.2161 -0.4159 -0.2547
  346MPD2    H7 5196   2.434   0.638  14.209 -0.2889 -1.4861  0.2551
  347TMC3    C1 5197   2.896   0.808  14.692  0.6443  0.6557  0.1468
  347TMC3    C2 5198   2.962   0.819  14.566 -0.4359 -0.0977  0.5126
  347TMC3    C3 5199   3.091   0.793  14.563 -0.4419  0.2911 -0.2002
  347TMC3    C4 5200   2.955   0.783  14.808 -0.5196  0.2232 -0.4500
  347TMC3    C5 5201   3.086   0.743  14.796 -0.2330  0.2942  0.3044
  347TMC3    C6 5202   3.155   0.743  14.675 -0.1432 -0.0976 -0.1802
  347TMC3     C 5203   2.752   0.819  14.704 -0.2627  0.2337  0.7233
  347TMC3     O 5204   2.709   0.882  14.800 -0.0477 -0.4888  0.0008
  347TMC3     H 5205   2.892   0.840  14.486  1.4933  2.6539 -0.4359
  347TMC3    H1 5206   2.905   0.770  14.903  1.2658 -4.2131 -0.1149
  347TMC3    H2 5207   3.261   0.717  14.675  0.1102  0.9084  1.6197
  347TMC3    C7 5208   3.145   0.653  14.898 -0.0434 -0.6906  0.4389
  347TMC3    C8 5209   3.180   0.834  14.451 -0.4648 -0.9190  0.1000
  347TMC3    O1 5210   3.062   0.602  14.972  0.5525 -0.4908 -0.2818
  347TMC3    O2 5211   3.297   0.801  14.461  0.2479  0.5447 -0.0057
  348MPD2     C 5212   0.832   0.765  11.566 -0.2743 -0.5713 -0.3900
  348MPD2    C1 5213   0.955   0.809  11.547 -0.9178 -0.5127  0.2786
  348MPD2    C2 5214   1.006   0.839  11.423 -0.3365  0.5781 -0.7503
  348MPD2    C3 5215   0.920   0.848  11.314 -0.3679  0.6170 -0.1215
  348MPD2    C4 5216   0.790   0.810  11.333 -0.4444  0.6130  0.3752
  348MPD2    C5 5217   0.752   0.767  11.459  0.0281 -0.4738  0.2826
  348MPD2     H 5218   1.104   0.884  11.411  0.4975 -1.8067 -2.8812
  348MPD2    H1 5219   0.713   0.823  11.258 -1.8550 -1.1435  1.5283
  348MPD2    H2 5220   0.792   0.726  11.658  0.7288 -1.6601 -0.4116
  348MPD2    H3 5221   0.645   0.749  11.471 -0.0958 -0.9751 -1.5755
  348MPD2     N 5222   0.972   0.888  11.187 -0.5302 -0.4565 -0.2230
  348MPD2    H5 5223   1.070   0.914  11.182 -0.9531  0.9940 -0.8940
  348MPD2    N1 5224   1.051   0.808  11.650  0.3345 -0.9459  0.0685
  348MPD2    H7 5225   1.148   0.816  11.621  0.1053  0.1707 -0.3597
  349TMC3    C1 5226   1.156   0.740  11.845  0.2329 -0.1233 -0.1330
  349TMC3    C2 5227   1.148   0.619  11.915 -0.1044 -0.0313 -0.6590
  349TMC3    C3 5228   1.255   0.539  11.905 -0.2917  0.3919 -0.3567
  349TMC3    C4 5229   1.275   0.772  11.783 -0.7031 -0.0432 -0.9091
  349TMC3    C5 5230   1.381   0.684  11.768  1.1389 -0.2541  0.1863
  349TMC3    C6 5231   1.362   0.565  11.826  0.5511  0.1581 -0.6921
  349TMC3     C 5232   1.028   0.780  11.780 -0.1240 -0.2259  0.0305
  349TMC3     O 5233   0.923   0.742  11.829  0.6810  0.5264 -0.3092
  349TMC3     H 5234   1.056   0.587  11.964  1.0689 -1.4335  0.6099
  349TMC3    H1 5235   1.277   0.870  11.738  0.7944  0.4921  0.3437
  349TMC3    H2 5236   1.440   0.489  11.829  1.3311  1.0585  2.0909
  349TMC3    C7 5237   1.408   0.661  11.628  0.1894  0.0764  0.6694
  349TMC3    C8 5238   1.253   0.417  11.987  0.0369 -0.4501  0.6497
  349TMC3    O1 5239   1.422   0.543  11.598  0.1621 -0.0384  0.4311
  349TMC3    O2 5240   1.349   0.395  12.056  0.3731 -0.3756 -0.2243
  350MPD2     C 5241   4.358   3.784   9.939  0.0054 -0.7294  0.1242
  350MPD2    C1 5242   4.484   3.744   9.900 -0.0929 -0.3026  0.0834
  350MPD2    C2 5243   4.594   3.825   9.930 -0.2669  0.1813 -0.4169
  350MPD2    C3 5244   4.575   3.948   9.995 -0.4696 -0.5542 -0.7408
  350MPD2    C4 5245   4.443   3.991  10.025  0.3863 -0.5155  0.4993
  350MPD2    C5 5246   4.336   3.914   9.994 -0.1617  0.3949 -0.3306
  350MPD2     H 5247   4.693   3.784   9.914 -0.7815 -1.2195  0.0305
  350MPD2    H1 5248   4.424   4.087  10.071  1.4904 -2.0938  4.2296
  350MPD2    H2 5249   4.268   3.728   9.917 -0.1201 -0.5209  0.0996
  350MPD2    H3 5250   4.241   3.951  10.030 -0.3387 -0.4048  0.0409
  350MPD2     N 5251   4.689   4.022  10.023 -0.7955  0.0219 -0.2795
  350MPD2    H5 5252   0.055   3.977  10.006  0.7010  2.9570 -0.0685
  350MPD2    N1 5253   4.513   3.622   9.836  0.0676  0.0579 -0.2779
  350MPD2    H7 5254   4.609   3.610   9.805  0.2477 -0.2611  0.4145
  351TMC3    C1 5255   4.495   3.397   9.790 -0.9341 -0.5340  0.9571
  351TMC3    C2 5256   4.620   3.401   9.736  0.1084 -0.1235  0.9168
  351TMC3    C3 5257   4.683   3.284   9.711  1.0115 -0.0083  0.5315
  351TMC3    C4 5258   4.432   3.287   9.816  0.1654  0.5181 -0.3174
  351TMC3    C5 5259   4.493   3.168   9.780  0.0055  0.7754  0.4253
  351TMC3    C6 5260   4.622   3.164   9.732 -0.1925 -0.0913 -0.1696
  351TMC3     C 5261   4.429   3.516   9.841  0.0683 -0.4131 -0.5573
  351TMC3     O 5262   4.327   3.499   9.907 -0.0859  0.7834  0.2371
  351TMC3     H 5263   4.671   3.492   9.704  0.8892 -0.5228  1.0382
  351TMC3    H1 5264   4.331   3.279   9.855  0.9637 -1.6315  1.3381
  351TMC3    H2 5265   4.672   3.070   9.714 -1.0946 -0.6777  0.4220
  351TMC3    C7 5266   4.440   3.040   9.813  0.1464 -0.2392  0.0560
  351TMC3    C8 5267   0.099   3.287   9.660  0.1278  0.1230  0.1771
  351TMC3    O1 5268   4.476   2.946   9.735  0.5755  0.8335 -0.3509
  351TMC3    O2 5269   0.165   3.182   9.663  0.6699 -0.2503 -0.5989
  352MPD2     C 5270   3.136   0.587   1.504  0.1094  0.3571  0.9187
  352MPD2    C1 5271   3.048   0.526   1.416 -0.3905 -0.0309  0.1873
  352MPD2    C2 5272   2.986   0.410   1.462 -0.4434  0.1699  1.1259
  352MPD2    C3 5273   3.004   0.358   1.582  0.2766 -1.1861  0.1695
  352MPD2    C4 5274   3.092   0.423   1.676 -0.3174 -0.0488  0.4746
  352MPD2    C5 5275   3.165   0.531   1.627 -0.0246  0.1619 -0.2210
  352MPD2     H 5276   2.905   0.364   1.405  0.1088  0.2740  0.2573
  352MPD2    H1 5277   3.119   0.375   1.769  0.3802 -0.5579  0.0015
  352MPD2    H2 5278   3.193   0.675   1.477  1.1056 -0.0394  1.7208
  352MPD2    H3 5279   3.229   0.583   1.697 -1.2326 -1.8140  2.3443
  352MPD2     N 5280   2.939   0.242   1.628  0.0377 -0.3252  0.4066
  352MPD2    H5 5281   2.967   0.215   1.722  0.8868 -0.2777  0.1701
  352MPD2    N1 5282   3.026   0.590   1.299 -0.4311  0.2044 -0.0564
  352MPD2    H7 5283   3.068   0.682   1.288 -0.5711  0.1405 -1.1319
  353TMC3    C1 5284   2.775   0.086   1.670 -0.4272  0.2106  0.2062
  353TMC3    C2 5285   2.840   0.039   1.781  0.4971  0.6752 -0.3365
  353TMC3    C3 5286   2.784   4.652   1.836 -0.1049 -0.1327 -0.3146
  353TMC3    C4 5287   2.670   0.021   1.614 -0.1084  0.4247 -0.0121
  353TMC3    C5 5288   2.628   4.628   1.665 -0.9943 -0.0413  0.4376
  353TMC3    C6 5289   2.687   4.575   1.779  0.0013 -0.3402  0.0058
  353TMC3     C 5290   2.835   0.178   1.577  0.1527  0.1966  0.1144
  353TMC3     O 5291   2.781   0.196   1.470 -0.4972  0.3389  0.7170
  353TMC3     H 5292   2.932   0.083   1.820  0.0253  0.9175  0.4942
  353TMC3    H1 5293   2.616   0.067   1.532 -1.1226 -1.1507 -0.2223
  353TMC3    H2 5294   2.649   4.482   1.818 -0.7479 -0.5309 -1.1746
  353TMC3    C7 5295   2.523   4.554   1.592  0.2044 -0.1609 -0.1500
  353TMC3    C8 5296   2.882   4.587   1.918 -0.1160  0.5209 -0.0799
  353TMC3    O1 5297   2.501   4.586   1.477  0.4247 -0.6407 -0.4425
  353TMC3    O2 5298   2.938   4.649   2.009  0.4732 -0.3957  0.2967
  354TMC3    C1 5299   0.881   1.832  13.211 -0.1194 -0.2560  0.9799
  354TMC3    C2 5300   0.919   1.959  13.227 -0.9018 -0.5744  0.3836
  354TMC3    C3 5301   0.921   2.038  13.108 -0.0349 -0.7817  0.0330
  354TMC3    C4 5302   0.838   1.775  13.085  0.6283  0.4398  0.2967
  354TMC3    C5 5303   0.835   1.857  12.978  0.3396 -0.3209  0.9275
  354TMC3    C6 5304   0.880   1.990  12.985 -0.7512  0.3130 -0.0318
  354TMC3     C 5305   0.850   1.772  13.339 -1.0005 -0.2787  0.1658
  354TMC3     O 5306   0.804   1.846  13.427  0.0333 -0.2285 -0.8465
  354TMC3     H 5307   0.956   1.994  13.322 -2.4238  0.7317  0.4998
  354TMC3    H1 5308   0.778   1.685  13.090  1.5786 -0.1382  1.3593
  354TMC3    H2 5309   0.847   2.060  12.909  0.2817  1.6639  0.7667
  354TMC3    C7 5310   0.789   1.807  12.852 -0.1109  0.3624 -0.0408
  354TMC3    C8 5311   0.979   2.180  13.123 -0.2740  0.3143 -0.0513
  354TMC3    O1 5312   0.692   1.734  12.845 -0.2600  0.5013 -0.6878
  354TMC3    O2 5313   1.008   2.212  13.237  0.8244 -0.0328  0.4068
  355MPD2     C 5314   0.377   2.629  11.783  0.5874 -0.5536  0.3989
  355MPD2    C1 5315   0.395   2.695  11.662  0.2689 -0.6546  0.0580
  355MPD2    C2 5316   0.511   2.760  11.632  0.7460 -0.0325  0.0815
  355MPD2    C3 5317   0.614   2.772  11.727  0.5120 -0.1856  0.5663
  355MPD2    C4 5318   0.598   2.704  11.847 -0.2195  0.4374 -0.2304
  355MPD2    C5 5319   0.482   2.634  11.873 -0.1085  0.4083  0.6488
  355MPD2     H 5320   0.526   2.802  11.533  0.7063  1.9146  0.9013
  355MPD2    H1 5321   0.672   2.694  11.927 -0.0643 -0.0605 -0.4401
  355MPD2    H2 5322   0.291   2.567  11.801 -0.6376  1.0259 -0.0447
  355MPD2    H3 5323   0.471   2.580  11.967  0.9417  0.0259  0.5446
  355MPD2     N 5324   0.737   2.839  11.713 -0.5260  0.2237 -0.4173
  355MPD2    H5 5325   0.793   2.845  11.798 -0.2251  1.0881 -0.6743
  355MPD2    N1 5326   0.283   2.700  11.575 -0.1089  0.0511 -0.1056
  355MPD2    H7 5327   0.217   2.625  11.593  1.2598 -0.6577  1.9779
  356TMC3    C1 5328   0.885   2.998  11.622  0.5103 -0.2581  0.5139
  356TMC3    C2 5329   0.886   3.084  11.516  0.0938  0.2938  0.4217
  356TMC3    C3 5330   0.910   3.215  11.539  0.1575  0.2159 -0.1666
  356TMC3    C4 5331   0.894   3.045  11.749  0.1977  0.1737 -0.0214
  356TMC3    C5 5332   0.911   3.184  11.767  0.3173  0.2956  0.1787
  356TMC3    C6 5333   0.920   3.274  11.666  0.4660  0.2963  0.9492
  356TMC3     C 5334   0.777   2.908  11.602  0.6063 -0.9571 -0.7547
  356TMC3     O 5335   0.721   2.917  11.490 -0.0007 -0.2418 -1.0986
  356TMC3     H 5336   0.891   3.052  11.412 -0.7610 -1.5969  0.9723
  356TMC3    H1 5337   0.906   2.984  11.837 -1.5286  0.3647  0.3449
  356TMC3    H2 5338   0.912   3.382  11.671  2.3734  0.4335  1.2783
  356TMC3    C7 5339   0.931   3.232  11.897  0.3335  0.1879 -0.2961
  356TMC3    C8 5340   0.909   3.297  11.417  0.0469 -0.2454 -0.1274
  356TMC3    O1 5341   0.894   3.156  11.985  0.0310  0.4904 -0.0938
  356TMC3    O2 5342   0.854   3.264  11.315 -0.6833  0.3193  0.1054
  357MPD2     C 5343   0.479   0.913   2.038 -0.7929 -0.5769 -0.5002
  357MPD2    C1 5344   0.502   1.041   1.990 -0.1570  0.1270  0.4354
  357MPD2    C2 5345   0.423   1.152   2.028 -0.9199 -0.2169  0.3533
  357MPD2    C3 5346   0.315   1.138   2.106 -0.2316  0.3093  0.2665
  357MPD2    C4 5347   0.293   1.011   2.164 -0.6571 -0.0309 -0.2383
  357MPD2    C5 5348   0.381   0.903   2.130 -0.7429  0.8442 -0.4021
  357MPD2     H 5349   0.455   1.255   2.023 -2.1680  0.1373 -0.5040
  357MPD2    H1 5350   0.210   0.997   2.232 -1.1506 -0.3045 -0.8877
  357MPD2    H2 5351   0.531   0.826   1.999  1.8096  0.3695  0.9033
  357MPD2    H3 5352   0.349   0.805   2.166  0.7331  0.5071 -0.0409
  357MPD2     N 5353   0.212   1.231   2.113 -0.2251  0.1255 -0.3515
  357MPD2    H5 5354   0.128   1.199   2.159  0.8344  0.3387  1.7038
  357MPD2    N1 5355   0.599   1.048   1.890  0.0331 -0.1601 -1.0356
  357MPD2    H7 5356   0.628   0.955   1.862  1.2860 -0.5878  1.6449
  358TMC3    C1 5357   0.666   1.125   1.678  0.5375  0.6696 -0.0761
  358TMC3    C2 5358   0.607   1.200   1.579  0.1385  0.1374 -0.2896
  358TMC3    C3 5359   0.640   1.161   1.449  0.0354 -0.9822  0.6644
  358TMC3    C4 5360   0.751   1.023   1.660 -0.5984 -0.3965 -0.2818
  358TMC3    C5 5361   0.785   0.992   1.532 -0.3702 -0.6464 -0.5303
  358TMC3    C6 5362   0.731   1.062   1.431 -0.3937  0.1997  0.2967
  358TMC3     C 5363   0.621   1.161   1.813 -0.2248  0.3987 -0.0196
  358TMC3     O 5364   0.578   1.269   1.833 -0.4076  0.1966  0.3606
  358TMC3     H 5365   0.530   1.269   1.611 -0.6788 -2.4421  3.2093
  358TMC3    H1 5366   0.796   0.975   1.746 -1.3523 -3.0674 -1.3915
  358TMC3    H2 5367   0.749   1.047   1.325 -1.8898 -0.9032  0.2087
  358TMC3    C7 5368   0.907   0.905   1.513 -0.6176 -0.4457 -0.1140
  358TMC3    C8 5369   0.578   1.223   1.336  0.4712  0.6425 -0.0790
  358TMC3    O1 5370   0.935   0.853   1.618 -0.3441 -0.3515 -0.4184
  358TMC3    O2 5371   0.625   1.219   1.223 -0.2442 -0.5056  0.1561
  359MPD2     C 5372   0.275   0.879  11.435  0.1383  0.0637 -0.2322
  359MPD2    C1 5373   0.314   0.987  11.509 -0.1345 -0.9460 -0.1710
  359MPD2    C2 5374   0.249   1.019  11.625  0.2473  0.0280  0.1946
  359MPD2    C3 5375   0.147   0.938  11.678  0.0063  0.2376  0.2196
  359MPD2    C4 5376   0.112   0.825  11.605  0.6836 -0.1954 -0.7686
  359MPD2    C5 5377   0.167   0.802  11.491 -0.2025 -0.1574 -0.0111
  359MPD2     H 5378   0.284   1.107  11.678  2.4583 -1.5590  1.3782
  359MPD2    H1 5379   0.034   0.756  11.638 -1.5982  1.4334 -2.7384
  359MPD2    H2 5380   0.331   0.847  11.348 -1.6868 -1.9099 -0.6693
  359MPD2    H3 5381   0.140   0.718  11.428 -0.8371 -1.6316  2.2334
  359MPD2     N 5382   0.098   0.954  11.809 -0.5784 -0.2054  0.7262
  359MPD2    H5 5383   0.029   0.888  11.843 -0.7809 -0.2263  0.2749
  359MPD2    N1 5384   0.428   1.059  11.475 -0.9082  0.1226 -0.8585
  359MPD2    H7 5385   0.464   1.118  11.548  2.0436 -0.6392 -1.7111
  360TMC3    C1 5386   0.626   1.108  11.361 -0.7961 -0.1897 -0.3294
  360TMC3    C2 5387   0.694   1.123  11.481 -0.4202  0.3780  0.1982
  360TMC3    C3 5388   0.809   1.187  11.485  0.5889  0.9865 -0.5316
  360TMC3    C4 5389   0.679   1.157  11.242  0.7316  0.0498 -0.0002
  360TMC3    C5 5390   0.804   1.213  11.256  0.3087  0.5116  0.1599
  360TMC3    C6 5391   0.875   1.237  11.373  0.8836 -0.6765 -0.0734
  360TMC3     C 5392   0.499   1.049  11.359  0.2001 -0.2857  0.9469
  360TMC3     O 5393   0.456   1.017  11.245  0.3113  0.0594  0.2815
  360TMC3     H 5394   0.644   1.100  11.575 -1.2631  1.9312  0.1245
  360TMC3    H1 5395   0.638   1.123  11.147 -1.1521  3.0825 -0.2600
  360TMC3    H2 5396   0.962   1.302  11.375  1.1530 -1.0146 -0.7497
  360TMC3    C7 5397   0.873   1.256  11.133  0.9479  0.3270  0.2867
  360TMC3    C8 5398   0.900   1.181  11.601 -0.1824 -0.5264 -0.2467
  360TMC3    O1 5399   0.983   1.308  11.140  0.1007  0.3389  0.3806
  360TMC3    O2 5400   0.841   1.174  11.714 -0.6656 -0.0948  0.2847
  361MPD2     C 5401   2.362   4.519  16.560  0.8396 -0.3423 -0.5364
  361MPD2    C1 5402   2.344   4.550  16.689 -0.2403 -0.1990  0.2371
  361MPD2    C2 5403   2.428   4.496  16.790 -0.4754 -0.3820  0.9753
  361MPD2    C3 5404   2.533   4.417  16.743 -0.3243 -0.0447  0.5304
  361MPD2    C4 5405   2.551   4.376  16.612  0.0327 -0.1562 -0.1712
  361MPD2    C5 5406   2.466   4.435  16.519  0.1704  0.5429 -0.5022
  361MPD2     H 5407   2.412   4.525  16.893  0.1294 -1.0038  1.2483
  361MPD2    H1 5408   2.636   4.318  16.578 -0.9769 -0.6640 -1.8350
  361MPD2    H2 5409   2.306   4.570  16.482 -0.2651  1.5559  1.5149
  361MPD2    H3 5410   2.473   4.398  16.417  3.2870 -1.2062  0.3504
  361MPD2     N 5411   2.628   4.365  16.837 -0.3472 -0.8905 -0.3365
  361MPD2    H5 5412   2.702   4.305  16.802 -1.3965 -2.2225 -0.2595
  361MPD2    N1 5413   2.236   4.633  16.727 -0.8909 -0.4843  0.1123
  361MPD2    H7 5414   2.178   4.673  16.654 -0.5950  0.4441  0.3784
  362TMC3    C1 5415   2.056   0.016  16.857 -0.3060 -0.4653  0.5879
  362TMC3    C2 5416   2.020   0.043  16.979  0.0862 -0.1558  0.4275
  362TMC3    C3 5417   1.941   0.150  17.000 -0.0490  0.3658  1.0806
  362TMC3    C4 5418   2.009   0.075  16.744  0.6450 -0.0395 -0.5380
  362TMC3    C5 5419   1.933   0.187  16.768  0.1145  0.3213  0.7751
  362TMC3    C6 5420   1.898   0.233  16.897  0.6393 -0.4448  0.0436
  362TMC3     C 5421   2.189   4.670  16.858  0.4210  0.4089 -0.7190
  362TMC3     O 5422   2.241   4.661  16.966  0.2099  0.6463 -0.4849
  362TMC3     H 5423   2.050   4.708  17.065  2.2374  1.4117  0.7245
  362TMC3    H1 5424   2.063   0.062  16.650  1.5902  0.4030 -0.0569
  362TMC3    H2 5425   1.839   0.323  16.910 -0.7214 -0.9291 -2.8487
  362TMC3    C7 5426   1.907   0.283  16.665 -0.5686  0.2052 -0.1722
  362TMC3    C8 5427   1.935   0.190  17.137  0.2160 -0.2296  0.0028
  362TMC3    O1 5428   1.909   0.404  16.686 -0.2549  0.5416  0.3837
  362TMC3    O2 5429   2.020   0.140  17.212 -0.4032  0.6616  0.3282
  363TMC3    C1 5430   1.657   3.515   9.547  0.8451 -0.6513 -0.1027
  363TMC3    C2 5431   1.754   3.433   9.592 -0.1246 -0.2108 -0.3274
  363TMC3    C3 5432   1.724   3.307   9.634 -0.3325 -0.1446 -0.6112
  363TMC3    C4 5433   1.537   3.471   9.514  0.2429 -0.2705 -0.0926
  363TMC3    C5 5434   1.508   3.341   9.550  0.0486 -0.1604 -0.0584
  363TMC3    C6 5435   1.599   3.259   9.611  0.0476 -0.1307  0.0326
  363TMC3     C 5436   1.697   3.653   9.512 -0.5030  0.4489  0.1871
  363TMC3     O 5437   1.820   3.672   9.498 -0.5300 -0.0227  0.1015
  363TMC3     H 5438   1.856   3.470   9.603 -0.6664  0.6275  1.9455
  363TMC3    H1 5439   1.472   3.527   9.447  0.5365  0.3772  0.1622
  363TMC3    H2 5440   1.567   3.163   9.650  0.4087  0.7076  2.4160
  363TMC3    C7 5441   1.380   3.292   9.496  0.0241 -0.6358  0.3852
  363TMC3    C8 5442   1.825   3.234   9.700 -0.1422 -0.3692  0.5939
  363TMC3    O1 5443   1.307   3.370   9.435 -0.6484 -0.4368 -0.5575
  363TMC3    O2 5444   1.921   3.289   9.749  0.4913 -0.0800  0.1376
  364MPD2     C 5445   4.379   2.242  10.694  0.0757  0.5986  0.1010
  364MPD2    C1 5446   4.501   2.245  10.638  0.1786  0.6654 -0.9215
  364MPD2    C2 5447   4.579   2.129  10.634 -0.5226 -0.5440  0.6165
  364MPD2    C3 5448   4.532   2.010  10.673  0.2218  0.7286 -0.4724
  364MPD2    C4 5449   4.411   2.005  10.726 -0.4191 -0.0003 -0.3743
  364MPD2    C5 5450   4.338   2.123  10.741  0.0396  0.7594  0.1744
  364MPD2     H 5451   4.683   2.130  10.604  0.0789 -2.1523  2.6144
  364MPD2    H1 5452   4.362   1.915  10.761  0.3793 -0.1524  0.3472
  364MPD2    H2 5453   4.324   2.335  10.706  3.7041  2.6422  0.8149
  364MPD2    H3 5454   4.239   2.106  10.782  0.1154 -1.3157 -0.4725
  364MPD2     N 5455   4.598   1.889  10.650 -0.1145 -0.2842  0.0967
  364MPD2    H5 5456   4.556   1.806  10.690 -1.5007 -0.3716 -1.5440
  364MPD2    N1 5457   4.546   2.377  10.608 -0.3215  0.6154 -0.1428
  364MPD2    H7 5458   4.481   2.454  10.620 -0.0212  1.2212 -2.3547
  365TMC3    C1 5459   4.701   2.547  10.553  0.3576  0.0208  0.6384
  365TMC3    C2 5460   0.037   2.601  10.443 -0.1991 -0.2660 -0.2187
  365TMC3    C3 5461   0.069   2.732  10.453 -0.1412 -0.1219  1.0135
  365TMC3    C4 5462   4.649   2.623  10.655 -0.8820 -0.0963  0.5584
  365TMC3    C5 5463   4.674   2.761  10.653 -0.2582  1.0817  0.0325
  365TMC3    C6 5464   0.031   2.814  10.555 -0.1774 -0.0651  0.9397
  365TMC3     C 5465   4.680   2.401  10.564  0.3583  0.1027 -0.3496
  365TMC3     O 5466   0.037   2.328  10.508 -0.5500  0.2684  0.0844
  365TMC3     H 5467   0.065   2.541  10.356 -2.2453 -1.2328 -0.2061
  365TMC3    H1 5468   4.595   2.580  10.739 -2.6706 -0.1921 -0.6394
  365TMC3    H2 5469   0.047   2.921  10.543 -1.6592  0.0583 -0.0464
  365TMC3    C7 5470   4.643   2.845  10.766 -0.1027 -0.5532  0.7463
  365TMC3    C8 5471   0.106   2.806  10.337 -0.4203  0.2063  0.4871
  365TMC3    O1 5472   4.666   2.961  10.744  0.1463  0.8002 -0.5433
  365TMC3    O2 5473   0.184   2.899  10.354  0.0410 -0.0817 -0.8507
  366MPD2     C 5474   3.705   2.535  15.387 -0.2082 -0.1809  0.2136
  366MPD2    C1 5475   3.585   2.570  15.328  0.2293  1.2099  0.3613
  366MPD2    C2 5476   3.568   2.575  15.193  0.0173 -0.2459  0.4852
  366MPD2    C3 5477   3.671   2.554  15.106 -0.4307 -0.2381  0.3892
  366MPD2    C4 5478   3.791   2.510  15.164 -0.1049 -0.2550  0.1946
  366MPD2    C5 5479   3.811   2.510  15.299  0.1244  0.2041  0.0177
  366MPD2     H 5480   3.474   2.605  15.146 -0.4869 -2.0778  0.3432
  366MPD2    H1 5481   3.870   2.476  15.098 -0.1380  0.2704 -0.1137
  366MPD2    H2 5482   3.725   2.540  15.493 -1.8718 -3.7122  0.6849
  366MPD2    H3 5483   3.913   2.503  15.337 -0.7767  2.6509  2.9566
  366MPD2     N 5484   3.656   2.569  14.968  0.1531 -0.2386 -1.1829
  366MPD2    H5 5485   3.716   2.520  14.902  0.0265 -1.3030 -0.5081
  366MPD2    N1 5486   3.480   2.614  15.408  0.2516  0.1167 -0.0173
  366MPD2    H7 5487   3.393   2.638  15.362 -0.1672 -0.6738  0.3586
  367TMC3    C1 5488   3.370   2.720  15.582  0.3730  0.1503 -0.3191
  367TMC3    C2 5489   3.407   2.828  15.654  0.2631  0.1158  0.3353
  367TMC3    C3 5490   3.328   2.938  15.651  0.0933 -0.0716 -0.1111
  367TMC3    C4 5491   3.268   2.720  15.487  0.4165 -0.5960  0.1207
  367TMC3    C5 5492   3.197   2.836  15.481 -0.1156 -0.1487 -0.1780
  367TMC3    C6 5493   3.221   2.941  15.561  0.7494  0.5116 -0.3838
  367TMC3     C 5494   3.483   2.644  15.540 -0.3790  0.5888 -0.1640
  367TMC3     O 5495   3.564   2.625  15.632 -0.0071 -0.1578  0.3147
  367TMC3     H 5496   3.482   2.810  15.731 -0.3381 -0.0858  0.8681
  367TMC3    H1 5497   3.235   2.632  15.434  0.3047  0.3023 -1.3225
  367TMC3    H2 5498   3.142   3.014  15.573 -0.1391 -0.9175  2.2812
  367TMC3    C7 5499   3.118   2.881  15.367 -0.6111 -0.1507  0.0302
  367TMC3    C8 5500   3.375   3.055  15.711 -0.1878 -0.3140  0.1774
  367TMC3    O1 5501   3.106   3.004  15.353  0.0335  0.1734  0.2833
  367TMC3    O2 5502   3.477   3.051  15.778  0.6279 -0.1196  0.4751
  368MPD2     C 5503   3.834   1.266  13.180  0.3676 -0.2071  0.3399
  368MPD2    C1 5504   3.850   1.227  13.046 -0.0917 -0.3548  0.0960
  368MPD2    C2 5505   3.959   1.149  13.006 -0.0147  0.7038  0.7274
  368MPD2    C3 5506   4.041   1.099  13.106  0.6489 -0.4352 -0.7648
  368MPD2    C4 5507   4.018   1.129  13.242  0.3570  0.2318  0.3987
  368MPD2    C5 5508   3.915   1.216  13.273 -0.4930  0.0870 -0.2993
  368MPD2     H 5509   3.978   1.123  12.903  1.4818  2.4844  0.5601
  368MPD2    H1 5510   4.081   1.096  13.324 -0.6482 -2.1605  0.2087
  368MPD2    H2 5511   3.746   1.319  13.216  0.5289  0.0766  0.3147
  368MPD2    H3 5512   3.903   1.241  13.377  0.9358 -0.0410 -0.1113
  368MPD2     N 5513   4.152   1.018  13.078  0.7772  0.1658 -0.1860
  368MPD2    H5 5514   4.201   0.991  13.163 -1.2231  1.1287  1.2476
  368MPD2    N1 5515   3.743   1.262  12.959 -0.2271 -0.2230 -0.3213
  368MPD2    H7 5516   3.655   1.284  13.004  0.8572 -0.9238  2.1174
  369TMC3    C1 5517   3.649   1.221  12.736 -0.0595  0.2797 -0.3450
  369TMC3    C2 5518   3.673   1.180  12.612 -0.1632  0.2657 -0.4988
  369TMC3    C3 5519   3.578   1.097  12.546  0.2143  0.1561 -0.1737
  369TMC3    C4 5520   3.529   1.199  12.797  1.1127  0.2968 -0.0730
  369TMC3    C5 5521   3.435   1.117  12.730  0.1758  0.3248 -0.1167
  369TMC3    C6 5522   3.455   1.065  12.602  0.1711 -0.2326 -0.0380
  369TMC3     C 5523   3.763   1.255  12.820  0.6580  0.6342 -0.2582
  369TMC3     O 5524   3.873   1.266  12.763 -0.2015 -0.3151 -0.1992
  369TMC3     H 5525   3.773   1.189  12.571 -0.2131  1.7971 -0.3028
  369TMC3    H1 5526   3.496   1.250  12.887 -1.3893  2.8028 -2.3995
  369TMC3    H2 5527   3.392   0.989  12.558  0.5458  0.7230 -2.2629
  369TMC3    C7 5528   3.340   1.047  12.818  0.8725 -0.3253  0.2628
  369TMC3    C8 5529   3.618   1.036  12.427 -1.1044 -0.4520 -0.0260
  369TMC3    O1 5530   3.360   1.040  12.940 -0.2994 -0.3477 -0.5432
  369TMC3    O2 5531   3.556   1.065  12.326 -0.0111 -0.0446 -0.1030
  370TMC3    C1 5532   3.605   0.679  16.403  0.1927  0.8362 -0.6398
  370TMC3    C2 5533   3.530   0.615  16.496 -0.4515  0.2794 -0.2932
  370TMC3    C3 5534   3.503   0.480  16.477 -0.1017  1.0062 -0.3743
  370TMC3    C4 5535   3.647   0.618  16.280  0.5354 -0.0885  0.5923
  370TMC3    C5 5536   3.602   0.490  16.259 -0.2015 -0.0759  0.0811
  370TMC3    C6 5537   3.541   0.419  16.361 -0.1942  0.2124  0.3447
  370TMC3     C 5538   3.714   0.740  16.476 -0.3550  0.4604  1.3375
  370TMC3     O 5539   3.725   0.698  16.590  0.2149 -0.0587  0.7292
  370TMC3     H 5540   3.483   0.664  16.581  0.2340 -0.5007  0.5303
  370TMC3    H1 5541   3.708   0.673  16.209 -2.8224  2.4171 -0.2999
  370TMC3    H2 5542   3.510   0.316  16.345 -1.1601  0.7212 -1.0385
  370TMC3    C7 5543   3.631   0.436  16.125 -0.0048  0.1301 -0.0176
  370TMC3    C8 5544   3.501   0.396  16.593  1.0501 -0.5143  0.4975
  370TMC3    O1 5545   3.645   0.517  16.033 -0.6847  0.6324  0.8149
  370TMC3    O2 5546   3.468   0.280  16.583 -0.1572  0.2235  0.0076
  371TMC3    C1 5547   0.284   3.951  15.306 -0.1549 -0.3127  0.5997
  371TMC3    C2 5548   0.146   3.928  15.315 -0.2599 -0.1654  0.5593
  371TMC3    C3 5549   0.067   4.029  15.341 -0.3923 -0.1651 -0.3072
  371TMC3    C4 5550   0.342   4.070  15.344  0.4490 -0.2876  0.5739
  371TMC3    C5 5551   0.261   4.173  15.376 -0.5332 -0.0847 -0.4061
  371TMC3    C6 5552   0.125   4.155  15.375  0.5811 -0.2249 -0.1829
  371TMC3     C 5553   0.378   3.834  15.297  0.0181 -0.3447  0.4416
  371TMC3     O 5554   0.493   3.850  15.262 -0.4146 -0.0880  0.2184
  371TMC3     H 5555   0.106   3.833  15.282  0.7609 -0.4109  0.0396
  371TMC3    H1 5556   0.451   4.072  15.347  0.5124 -1.3992 -0.4940
  371TMC3    H2 5557   0.061   4.242  15.368 -0.5481 -1.2657 -2.6429
  371TMC3    C7 5558   0.318   4.304  15.383  1.1828 -0.3879  0.2793
  371TMC3    C8 5559   4.651   4.003  15.356  0.3150  0.6439  0.0836
  371TMC3    O1 5560   0.237   4.394  15.413  0.3271 -0.2545 -0.2861
  371TMC3    O2 5561   4.606   3.921  15.276 -0.1628 -0.4491  0.2387
  372MPD2     C 5562   4.587   0.572  13.184  0.0140  0.1445 -0.4707
  372MPD2    C1 5563   4.657   0.584  13.298  0.3713  0.6758  0.2585
  372MPD2    C2 5564   4.608   0.530  13.418 -0.2032 -0.2026  0.3397
  372MPD2    C3 5565   4.497   0.450  13.409  0.1234  0.0265  0.0180
  372MPD2    C4 5566   4.440   0.425  13.289 -0.5502 -0.2485  0.3888
  372MPD2    C5 5567   4.485   0.485  13.173 -0.8678 -0.3523  0.1779
  372MPD2     H 5568   4.647   0.566  13.513 -0.9985 -1.4177  1.1291
  372MPD2    H1 5569   4.354   0.360  13.277 -0.5824  0.2814 -2.3251
  372MPD2    H2 5570   4.615   0.633  13.098 -0.6709  1.3234  0.1514
  372MPD2    H3 5571   4.436   0.473  13.078  2.4263  0.0379 -1.5779
  372MPD2     N 5572   4.441   0.391  13.524  0.1096 -0.4962  0.3458
  372MPD2    H5 5573   4.502   0.386  13.605 -0.6312  1.6389  1.0328
  372MPD2    N1 5574   0.044   0.679  13.306 -0.2394 -0.0733  0.0070
  372MPD2    H7 5575   0.071   0.699  13.402 -2.0758  1.4343  0.2161
  373TMC3    C1 5576   4.326   0.253  13.658  0.0751  0.9094  0.3044
  373TMC3    C2 5577   4.352   0.327  13.767 -0.3797 -0.8518 -1.1833
  373TMC3    C3 5578   4.374   0.259  13.883 -0.7367 -0.1678 -0.4213
  373TMC3    C4 5579   4.308   0.119  13.667 -1.0172  0.3570  0.2080
  373TMC3    C5 5580   4.340   0.052  13.781  0.6716 -0.0097 -0.7669
  373TMC3    C6 5581   4.376   0.123  13.892  0.1599 -0.6422 -0.4632
  373TMC3     C 5582   4.331   0.307  13.526 -0.0113  0.3345 -0.0999
  373TMC3     O 5583   4.248   0.277  13.441 -0.0295  0.4106  0.3723
  373TMC3     H 5584   4.334   0.434  13.771 -0.1692 -0.7062 -4.1850
  373TMC3    H1 5585   4.281   0.073  13.573 -3.4630  0.3053  0.9479
  373TMC3    H2 5586   4.406   0.090  13.991 -1.2158 -1.5732 -0.3663
  373TMC3    C7 5587   4.411   4.657  13.754  0.1134  0.2647 -0.5359
  373TMC3    C8 5588   4.423   0.342  13.990 -0.0699  0.6432 -0.9757
  373TMC3    O1 5589   4.409   4.623  13.639  0.6373  0.4875  0.5462
  373TMC3    O2 5590   4.467   0.450  13.960  0.3353  0.1520  0.1288
  374TMC3    C1 5591   0.061   1.778   9.402 -0.0980  0.7310 -0.4754
  374TMC3    C2 5592   0.190   1.801   9.378  0.3047  0.2929  0.4728
  374TMC3    C3 5593   0.262   1.703   9.322 -0.1617 -0.0878 -0.6223
  374TMC3    C4 5594   4.723   1.656   9.377 -0.6999  0.1739 -0.0039
  374TMC3    C5 5595   0.074   1.557   9.324  0.4214  1.2079  0.8264
  374TMC3    C6 5596   0.205   1.575   9.295  0.1135  0.0582 -1.0047
  374TMC3     C 5597   4.708   1.861   9.493  0.2039  0.0420  0.2057
  374TMC3     O 5598   4.593   1.840   9.521  0.2424 -0.4664 -0.3587
  374TMC3     H 5599   0.229   1.902   9.385 -2.4197  1.3594  0.1709
  374TMC3    H1 5600   4.618   1.645   9.402 -1.3879  0.8768 -2.5542
  374TMC3    H2 5601   0.270   1.495   9.259 -0.0274  0.2292 -1.6263
  374TMC3    C7 5602   0.009   1.434   9.291  0.2611  0.3408  0.7709
  374TMC3    C8 5603   0.404   1.729   9.312 -0.9264 -0.4924 -0.5408
  374TMC3    O1 5604   0.077   1.356   9.226  0.5587 -0.1168  0.2956
  374TMC3    O2 5605   0.436   1.846   9.287  0.1519  0.2282  0.2457
  375MPD2     C 5606   0.387   1.237  17.153 -0.2461  0.5605 -0.2719
  375MPD2    C1 5607   0.276   1.167  17.103  0.1513  0.1130  0.1271
  375MPD2    C2 5608   0.290   1.081  16.996 -0.4578 -0.6124  0.5105
  375MPD2    C3 5609   0.404   1.076  16.933  0.0773  0.0170  0.5247
  375MPD2    C4 5610   0.521   1.133  16.985  0.2234  0.3418 -0.0628
  375MPD2    C5 5611   0.509   1.214  17.095 -0.0360 -0.1854  0.2940
  375MPD2     H 5612   0.202   1.024  16.970 -0.9307  1.4713 -2.3982
  375MPD2    H1 5613   0.618   1.153  16.941  0.4160  0.1369  0.2715
  375MPD2    H2 5614   0.387   1.296  17.244 -0.3023 -0.3031  0.2885
  375MPD2    H3 5615   0.598   1.260  17.137  1.3752 -1.7206 -0.9953
  375MPD2     N 5616   0.414   1.004  16.817  0.2201  0.9245  0.4775
  375MPD2    H5 5617   0.500   1.002  16.764  0.9435  0.9797  1.6292
  375MPD2    N1 5618   0.152   1.164  17.170  0.0092  0.5842 -0.6113
  375MPD2    H7 5619   0.093   1.093  17.127 -1.5796  0.7439  1.3272
  376TMC3    C1 5620   0.344   0.896  16.617 -0.0839 -0.0997  0.1001
  376TMC3    C2 5621   0.463   0.828  16.623  0.2580  0.2932  0.5526
  376TMC3    C3 5622   0.513   0.793  16.500  0.5676 -0.1041  0.0251
  376TMC3    C4 5623   0.272   0.924  16.509  0.4038  0.2258  0.1046
  376TMC3    C5 5624   0.323   0.870  16.393  0.1819 -0.3538 -0.3471
  376TMC3    C6 5625   0.449   0.809  16.385 -0.5272 -0.3299 -0.7448
  376TMC3     C 5626   0.306   0.957  16.737 -0.1810 -0.6472 -0.3176
  376TMC3     O 5627   0.183   0.952  16.764  0.0527  0.3610  0.0207
  376TMC3     H 5628   0.524   0.819  16.712 -0.0376  2.0770  0.9400
  376TMC3    H1 5629   0.181   0.984  16.509  1.4061  1.7482  0.1463
  376TMC3    H2 5630   0.503   0.785  16.294 -1.0276 -0.1793 -1.0864
  376TMC3    C7 5631   0.257   0.916  16.273 -0.5321 -0.5428  0.2107
  376TMC3    C8 5632   0.647   0.755  16.476 -0.2647 -0.3191  0.4369
  376TMC3    O1 5633   0.336   0.944  16.181  0.5127 -0.1962  0.4651
  376TMC3    O2 5634   0.703   0.758  16.362 -0.8928 -0.3671  0.1281
  377MPD2     C 5635   3.048   0.998  12.062 -0.2366 -0.2250 -0.4260
  377MPD2    C1 5636   3.062   0.922  12.181  0.2733  0.0913 -0.8725
  377MPD2    C2 5637   2.955   0.922  12.269 -0.2002  0.2520  0.3341
  377MPD2    C3 5638   2.836   0.991  12.253 -1.1978  0.1488  0.0969
  377MPD2    C4 5639   2.831   1.070  12.141  0.4881 -0.9506 -0.0944
  377MPD2    C5 5640   2.930   1.071  12.051 -0.8559  0.0144 -0.4721
  377MPD2     H 5641   2.972   0.859  12.356  1.5777 -0.9019 -0.8690
  377MPD2    H1 5642   2.745   1.134  12.121 -0.3194 -2.0370 -0.0562
  377MPD2    H2 5643   3.115   0.992  11.977 -0.0083 -1.0422 -0.1862
  377MPD2    H3 5644   2.922   1.129  11.960  0.8528  0.2088 -0.4857
  377MPD2     N 5645   2.722   0.977  12.332 -0.8118  0.0802 -0.2270
  377MPD2    H5 5646   2.641   1.031  12.304 -1.6063 -1.1739 -0.3511
  377MPD2    N1 5647   3.188   0.855  12.195 -0.9356  0.2195 -0.0225
  377MPD2    H7 5648   3.250   0.859  12.115 -0.5864 -2.8198  0.1061
  378TMC3    C1 5649   3.503   0.636  12.127 -0.2543 -0.4872  0.3515
  378TMC3    C2 5650   3.382   0.682  12.155 -0.1867 -0.5433  0.3341
  378TMC3    C3 5651   3.355   0.730  12.283  0.5551  0.3782 -0.4340
  378TMC3    C4 5652   3.603   0.639  12.225  0.1258 -1.0379 -0.0901
  378TMC3    C5 5653   3.564   0.663  12.355 -0.1904 -0.0895  0.3722
  378TMC3    C6 5654   3.443   0.711  12.386 -0.2455  1.1099 -0.2063
  378TMC3     C 5655   3.544   0.616  11.984 -0.0855 -0.1172  0.4435
  378TMC3     O 5656   3.445   0.606  11.908 -0.2932  0.7102 -0.7744
  378TMC3     H 5657   3.307   0.681  12.077 -1.8709 -1.9998  1.9861
  378TMC3    H1 5658   3.700   0.593  12.207  1.1562  1.3428 -0.5338
  378TMC3    H2 5659   3.412   0.730  12.488 -0.5485 -1.0128  0.1008
  378TMC3    C7 5660   3.649   0.640  12.481  0.4725  0.6265  0.4279
  378TMC3    C8 5661   3.228   0.784  12.310  0.0576  0.9280  0.1216
  378TMC3    O1 5662   3.610   0.691  12.588  0.5619  0.1612 -0.2846
  378TMC3    O2 5663   3.187   0.780  12.425  0.0531 -0.1759  0.2414
  379MPD2     C 5664   3.696   3.643  16.505 -0.0480  0.0462  0.3440
  379MPD2    C1 5665   3.822   3.654  16.441  0.0723 -0.4179 -0.0680
  379MPD2    C2 5666   3.938   3.614  16.500 -0.4719  0.2184  0.0033
  379MPD2    C3 5667   3.932   3.546  16.621  0.0392  0.4640 -0.4605
  379MPD2    C4 5668   3.814   3.546  16.692  0.1183 -0.4510 -0.0974
  379MPD2    C5 5669   3.695   3.589  16.631  0.2246 -0.1180  0.7927
  379MPD2     H 5670   4.031   3.620  16.444  0.4118 -0.4530  1.3796
  379MPD2    H1 5671   3.803   3.506  16.792 -2.3421 -0.5128 -0.4099
  379MPD2    H2 5672   3.602   3.667  16.456 -2.3270 -0.2064  4.5866
  379MPD2    H3 5673   3.603   3.582  16.688 -0.3121  0.5468 -0.0005
  379MPD2     N 5674   4.029   3.461  16.667 -0.0603  0.3008 -0.2658
  379MPD2    H5 5675   3.998   3.412  16.750 -1.9130  0.4959 -0.8546
  379MPD2    N1 5676   3.825   3.692  16.299  0.2544  0.1377 -0.1796
  379MPD2    H7 5677   3.746   3.734  16.251  1.6338  2.6497 -0.2227
  380TMC3    C1 5678   3.882   3.678  16.077  1.2104 -0.4822 -0.4643
  380TMC3    C2 5679   3.986   3.678  15.981 -0.2572  0.4251  0.1432
  380TMC3    C3 5680   3.947   3.697  15.850 -0.3681 -0.0648 -0.0938
  380TMC3    C4 5681   3.751   3.676  16.043  0.4064  0.4948 -0.0688
  380TMC3    C5 5682   3.722   3.692  15.914 -0.3977 -0.7695 -0.4123
  380TMC3    C6 5683   3.815   3.701  15.817 -0.2581 -0.3027  0.1250
  380TMC3     C 5684   3.924   3.656  16.213 -0.1438  0.5296  0.3344
  380TMC3     O 5685   4.032   3.602  16.229  0.2393  0.8296  0.2232
  380TMC3     H 5686   4.083   3.688  16.028 -0.8484 -1.0643  1.6821
  380TMC3    H1 5687   3.669   3.660  16.112  0.7131 -1.7767 -0.2417
  380TMC3    H2 5688   3.775   3.714  15.717 -0.3887 -1.1908  0.0562
  380TMC3    C7 5689   3.592   3.667  15.878 -0.2469 -0.0220  0.5162
  380TMC3    C8 5690   4.014   3.624  15.755  0.0939 -0.3344  0.2487
  380TMC3    O1 5691   3.505   3.750  15.902 -0.3923 -0.1677  0.5155
  380TMC3    O2 5692   3.954   3.590  15.651 -1.2626 -0.4266  0.0218
  381TMC3    C1 5693   3.554   4.335  16.242 -0.1688 -0.2842  0.4436
  381TMC3    C2 5694   3.654   4.427  16.252 -0.2773  0.6655 -0.6614
  381TMC3    C3 5695   3.677   4.498  16.367 -0.2644  1.0156 -0.5043
  381TMC3    C4 5696   3.485   4.304  16.345  0.8328  0.0594 -0.2981
  381TMC3    C5 5697   3.509   4.375  16.464 -0.1814  0.2655  0.0871
  381TMC3    C6 5698   3.608   4.470  16.480  0.7143  0.2818  0.2222
  381TMC3     C 5699   3.545   4.246  16.121 -0.4238  0.3931 -0.2758
  381TMC3     O 5700   3.499   4.135  16.142  0.1121  0.0095  0.5717
  381TMC3     H 5701   3.708   4.462  16.164  0.1163 -2.8147 -1.8097
  381TMC3    H1 5702   3.403   4.234  16.333  0.1073  1.5808 -4.3486
  381TMC3    H2 5703   3.637   4.507  16.578 -0.1024  0.0758  0.5471
  381TMC3    C7 5704   3.414   4.355  16.571  0.5122  0.0187 -0.1064
  381TMC3    C8 5705   3.778   4.601  16.367  0.2739  0.2341 -0.4708
  381TMC3    O1 5706   3.350   4.247  16.565  0.5573  0.0857 -0.4215
  381TMC3    O2 5707   3.856   4.594  16.274 -0.3986 -0.2131  0.0797
  382MPD2     C 5708   3.076   1.499  17.448 -0.3791 -0.3928  0.4676
  382MPD2    C1 5709   2.952   1.529  17.510 -0.5565  0.3897  0.5222
  382MPD2    C2 5710   2.846   1.443  17.504 -0.4945  0.8808 -0.2576
  382MPD2    C3 5711   2.857   1.322  17.438 -0.4226  0.7171 -0.4391
  382MPD2    C4 5712   2.979   1.279  17.387 -0.2434  1.1676 -0.8965
  382MPD2    C5 5713   3.084   1.370  17.389  0.3851 -0.7510 -0.1237
  382MPD2     H 5714   2.763   1.457  17.572 -0.6706  2.3970 -0.7806
  382MPD2    H1 5715   3.007   1.187  17.337  1.2309  0.8219  0.5396
  382MPD2    H2 5716   3.163   1.562  17.453 -0.0468 -0.8509  0.4362
  382MPD2    H3 5717   3.178   1.334  17.350 -0.1119 -1.0513 -1.0530
  382MPD2     N 5718   2.748   1.234  17.429 -0.2446 -0.5399  0.8678
  382MPD2    H5 5719   2.765   1.155  17.368  0.0702  1.0181 -1.1070
  382MPD2    N1 5720   2.926   1.654  17.579 -0.1204 -0.3135 -0.5016
  382MPD2    H7 5721   2.835   1.676  17.617  1.9739  3.1348  2.5788
  383TMC3    C1 5722   2.562   1.113  17.479  0.5253 -0.1861 -0.6702
  383TMC3    C2 5723   2.548   1.086  17.347  0.4261  0.2219 -0.1021
  383TMC3    C3 5724   2.491   0.969  17.309  0.7714 -0.3901 -0.0791
  383TMC3    C4 5725   2.525   1.031  17.577  0.1130 -0.6860  0.0581
  383TMC3    C5 5726   2.474   0.908  17.535  0.2345 -0.5586  0.1497
  383TMC3    C6 5727   2.460   0.880  17.401 -0.6139 -0.7962 -0.6799
  383TMC3     C 5728   2.636   1.229  17.511  0.1104 -0.5114 -0.2051
  383TMC3     O 5729   2.617   1.292  17.618 -0.1367  0.3023  0.2746
  383TMC3     H 5730   2.571   1.163  17.274  0.3799 -1.3619 -1.7661
  383TMC3    H1 5731   2.540   1.055  17.681 -2.2970 -1.1627  0.5273
  383TMC3    H2 5732   2.415   0.788  17.364 -2.5004  0.2347 -0.8868
  383TMC3    C7 5733   2.481   0.791  17.627  0.1170 -0.3149  0.6253
  383TMC3    C8 5734   2.432   0.973  17.180  0.3700 -0.8278 -0.4916
  383TMC3    O1 5735   2.446   0.680  17.583  0.0135  0.4334 -0.2859
  383TMC3    O2 5736   2.422   1.085  17.136 -0.1269  0.2325 -0.1479
  384MPD2     C 5737   4.522   3.599  11.996  0.0965  0.3242  0.4857
  384MPD2    C1 5738   4.584   3.589  12.122  0.3318 -0.1146  0.3330
  384MPD2    C2 5739   4.630   3.461  12.164  0.5382 -0.0090  0.2946
  384MPD2    C3 5740   4.595   3.344  12.098  0.1864 -0.2636 -0.3584
  384MPD2    C4 5741   4.527   3.351  11.979  0.1029 -0.0261  0.2685
  384MPD2    C5 5742   4.502   3.480  11.935 -0.2969 -0.1728  0.4206
  384MPD2     H 5743   4.682   3.463  12.259 -0.3913 -0.5623  0.8122
  384MPD2    H1 5744   4.499   3.268  11.916 -0.2604  0.6689 -0.4992
  384MPD2    H2 5745   4.500   3.694  11.950  0.4497  0.6327  0.9522
  384MPD2    H3 5746   4.445   3.496  11.844 -0.6433 -0.5636  0.5693
  384MPD2     N 5747   4.621   3.217  12.158  0.3760 -0.5886  0.4056
  384MPD2    H5 5748   4.567   3.141  12.118  0.3117  0.3898 -1.3477
  384MPD2    N1 5749   4.599   3.710  12.202  0.5421 -0.0380  0.2073
  384MPD2    H7 5750   4.577   3.801  12.163  0.7985  0.4850  1.2727
  385TMC3    C1 5751   4.647   3.086  12.359 -0.1969  1.2909  0.6244
  385TMC3    C2 5752   4.525   3.031  12.337  0.4568 -0.2685 -0.6593
  385TMC3    C3 5753   4.442   2.989  12.435 -0.4301 -0.0628  0.2914
  385TMC3    C4 5754   4.690   3.095  12.492 -0.9580 -0.3722  0.6513
  385TMC3    C5 5755   4.602   3.069  12.591 -0.4963 -0.5632 -0.0303
  385TMC3    C6 5756   4.478   3.010  12.562 -0.1438  0.1498 -0.5478
  385TMC3     C 5757   4.694   3.195  12.272 -0.1449  0.0649 -0.5135
  385TMC3     O 5758   0.054   3.269  12.317 -0.3655  0.4803 -0.0558
  385TMC3     H 5759   4.510   3.002  12.233 -0.0974  0.7487 -0.8610
  385TMC3    H1 5760   0.064   3.136  12.516  0.1761 -1.5889 -1.8452
  385TMC3    H2 5761   4.405   2.980  12.636 -2.0663 -1.9580 -3.3105
  385TMC3    C7 5762   4.586   3.192  12.673  0.3037  0.0699 -0.3373
  385TMC3    C8 5763   4.367   2.867  12.405 -0.4389  0.0769 -0.0994
  385TMC3    O1 5764   4.654   3.285  12.635  0.1516 -0.1877  0.1724
  385TMC3    O2 5765   4.330   2.796  12.500 -0.5245 -0.2408  0.0464
  386TMC3    C1 5766   4.664   0.855  10.932 -0.2136  0.1763 -0.5481
  386TMC3    C2 5767   4.623   0.913  10.813 -0.6910 -0.3242  0.0170
  386TMC3    C3 5768   4.499   0.958  10.794  0.1300  0.0660 -0.1582
  386TMC3    C4 5769   4.581   0.839  11.034  0.6591  0.0652  0.1535
  386TMC3    C5 5770   4.455   0.889  11.013 -0.0562  0.0104  0.3684
  386TMC3    C6 5771   4.412   0.951  10.897  0.2911 -0.1584  0.3214
  386TMC3     C 5772   0.073   0.827  10.943  0.4947  0.0199 -0.0816
  386TMC3     O 5773   0.154   0.889  10.873  0.5743 -0.2963  0.2614
  386TMC3     H 5774   4.694   0.908  10.731  0.3185  2.2363  0.7616
  386TMC3    H1 5775   4.601   0.789  11.128 -2.4883  3.1088  2.4635
  386TMC3    H2 5776   4.312   0.994  10.894  0.5996  0.5315 -0.1223
  386TMC3    C7 5777   4.371   0.924  11.127 -0.2231  0.1425 -0.2228
  386TMC3    C8 5778   4.464   1.052  10.688  0.2390  0.6321 -0.0789
  386TMC3    O1 5779   4.249   0.924  11.114 -0.5274  0.2599  0.3808
  386TMC3    O2 5780   4.351   1.059  10.653  0.0815  0.1113  0.6764
  387MPD2     C 5781   1.945   1.684   9.279  0.6089  0.2610 -0.3567
  387MPD2    C1 5782   1.953   1.629   9.404 -0.4258  0.3531  0.2261
  387MPD2    C2 5783   1.937   1.491   9.403 -0.4452 -0.2805  0.3520
  387MPD2    C3 5784   1.896   1.414   9.291  0.3819  0.3045 -0.4121
  387MPD2    C4 5785   1.876   1.476   9.173 -0.4655  0.1072 -0.0936
  387MPD2    C5 5786   1.906   1.610   9.169  0.9232  0.0663  0.0141
  387MPD2     H 5787   1.934   1.448   9.503 -2.0994 -1.4084 -0.1895
  387MPD2    H1 5788   1.855   1.426   9.079 -2.8216  3.7111 -1.4996
  387MPD2    H2 5789   1.959   1.789   9.256 -0.3183  0.8537  1.6960
  387MPD2    H3 5790   1.901   1.662   9.075 -0.7344  1.1524  0.7038
  387MPD2     N 5791   1.888   1.275   9.310 -0.1518 -0.3725  0.4053
  387MPD2    H5 5792   1.886   1.240   9.405 -1.9432 -3.6312 -0.8332
  387MPD2    N1 5793   2.002   1.696   9.520  0.1340 -0.8021  0.3687
  387MPD2    H7 5794   2.004   1.647   9.609 -0.8611  0.9179  1.3354
  388TMC3    C1 5795   2.150   1.846   9.631  0.2670  0.0872  0.7921
  388TMC3    C2 5796   2.175   1.977   9.658 -0.4765 -0.5571 -0.0002
  388TMC3    C3 5797   2.278   1.985   9.749 -0.7405  0.1607  0.2743
  388TMC3    C4 5798   2.223   1.737   9.672 -0.0008  0.0191  0.0294
  388TMC3    C5 5799   2.326   1.758   9.755 -0.4058  0.7132 -0.2347
  388TMC3    C6 5800   2.355   1.881   9.803 -0.2981 -0.8801  0.5807
  388TMC3     C 5801   2.061   1.826   9.519  0.2259  0.3657  0.6685
  388TMC3     O 5802   2.058   1.922   9.438 -0.0291  0.6793 -0.1077
  388TMC3     H 5803   2.124   2.065   9.621  0.6449  0.0612 -0.0689
  388TMC3    H1 5804   2.192   1.636   9.647 -0.6032  0.6479 -1.7740
  388TMC3    H2 5805   2.447   1.889   9.859  1.5794 -0.2815 -2.6134
  388TMC3    C7 5806   2.392   1.641   9.806 -0.4160  0.2251  0.2560
  388TMC3    C8 5807   2.272   2.109   9.818  0.5785 -0.5598  0.1234
  388TMC3    O1 5808   2.431   1.639   9.921  0.5264  0.2403  0.0169
  388TMC3    O2 5809   2.218   2.207   9.768  0.1567 -0.6259 -0.3123
  389MPD2     C 5810   1.455   4.360  11.295 -0.5713 -0.2982 -0.0899
  389MPD2    C1 5811   1.343   4.336  11.215 -0.1660  0.5362  0.8123
  389MPD2    C2 5812   1.266   4.220  11.232 -0.2103  0.2343 -0.1929
  389MPD2    C3 5813   1.299   4.124  11.324  0.3681 -0.0742  0.8176
  389MPD2    C4 5814   1.411   4.149  11.408  0.1055  0.1844  0.4176
  389MPD2    C5 5815   1.478   4.264  11.392 -0.2249  0.1432 -0.8419
  389MPD2     H 5816   1.174   4.209  11.175 -0.5931 -1.5731  0.8020
  389MPD2    H1 5817   1.451   4.090  11.489 -2.2104 -1.1605  0.5604
  389MPD2    H2 5818   1.527   4.441  11.290  0.2363 -1.0070  0.0490
  389MPD2    H3 5819   1.572   4.286  11.442 -0.9079  1.3680 -0.1087
  389MPD2     N 5820   1.224   4.008  11.338 -0.3820  0.2561  0.3028
  389MPD2    H5 5821   1.226   3.978  11.435 -2.3371 -0.7682  0.0311
  389MPD2    N1 5822   1.308   4.439  11.127  0.1978  0.0907  0.0665
  389MPD2    H7 5823   1.364   4.523  11.133  0.6112 -0.2195  0.5680
  390TMC3    C1 5824   1.031   3.886  11.311  0.5366 -0.5352 -0.0336
  390TMC3    C2 5825   1.019   3.892  11.447  0.2407 -0.4067  0.2793
  390TMC3    C3 5826   0.899   3.885  11.502 -0.1553 -1.3676  0.0425
  390TMC3    C4 5827   0.918   3.876  11.232  0.3376  0.3454 -0.1471
  390TMC3    C5 5828   0.793   3.881  11.288 -0.2198  0.0881 -0.2021
  390TMC3    C6 5829   0.781   3.883  11.427 -0.2871 -0.1410  0.1110
  390TMC3     C 5830   1.138   3.955  11.243 -0.1968  0.1298  0.3436
  390TMC3     O 5831   1.124   3.978  11.123 -0.5723  0.6103 -0.4897
  390TMC3     H 5832   1.103   3.902  11.514 -1.1688 -0.9008  2.1355
  390TMC3    H1 5833   0.940   3.850  11.129  3.3880 -1.0082  0.8304
  390TMC3    H2 5834   0.687   3.898  11.479  1.7199  2.8333  2.8653
  390TMC3    C7 5835   0.708   3.784  11.221  0.7074  0.5210 -0.2686
  390TMC3    C8 5836   0.880   3.790  11.611 -0.0873  1.3425  0.3945
  390TMC3    O1 5837   0.754   3.716  11.133  0.5221 -0.2311  0.0446
  390TMC3    O2 5838   0.965   3.767  11.693 -0.0487  0.1727 -0.1231
  391MPD2     C 5839   0.679   0.855  10.496 -0.0634 -0.0962  0.3778
  391MPD2    C1 5840   0.810   0.872  10.483  0.5421  0.6965 -0.7398
  391MPD2    C2 5841   0.868   0.942  10.372  0.3025  0.4228 -0.0920
  391MPD2    C3 5842   0.780   0.979  10.274  0.2381  0.2626  0.2843
  391MPD2    C4 5843   0.641   0.964  10.286 -0.0523 -0.4629 -0.5649
  391MPD2    C5 5844   0.596   0.906  10.398 -0.6195  0.2048  0.8891
  391MPD2     H 5845   0.973   0.970  10.370 -0.0886  1.7583 -2.4269
  391MPD2    H1 5846   0.575   1.000  10.208  1.1972  0.5282 -1.1485
  391MPD2    H2 5847   0.637   0.791  10.572  0.9068 -0.7566  0.3474
  391MPD2    H3 5848   0.492   0.893  10.422 -0.4483  0.1093  1.5834
  391MPD2     N 5849   0.846   1.037  10.157 -0.1088 -0.3912 -0.1025
  391MPD2    H5 5850   0.942   1.067  10.172  0.0657 -1.3245  0.6750
  391MPD2    N1 5851   0.891   0.835  10.590  0.1494  0.1636 -0.6123
  391MPD2    H7 5852   0.862   0.759  10.651  0.1044  1.1152  0.5420
  392TMC3    C1 5853   0.865   1.159   9.959 -0.5239  0.4926  0.8081
  392TMC3    C2 5854   0.813   1.195   9.839  0.3714  0.1841 -0.2153
  392TMC3    C3 5855   0.881   1.283   9.762 -0.1393 -0.7101  0.0611
  392TMC3    C4 5856   0.982   1.214   9.994 -0.1499 -0.4012  0.6067
  392TMC3    C5 5857   1.058   1.295   9.912  0.0853 -0.2697  0.0349
  392TMC3    C6 5858   1.003   1.340   9.796 -0.7108 -0.8203 -0.5208
  392TMC3     C 5859   0.791   1.069  10.038 -0.3182  0.6204  0.0611
  392TMC3     O 5860   0.678   1.037   9.998  0.4375  0.3552 -0.2517
  392TMC3     H 5861   0.714   1.156   9.816 -0.5850  2.2845  0.3529
  392TMC3    H1 5862   1.023   1.189  10.091 -0.2747 -0.9890  0.5075
  392TMC3    H2 5863   1.055   1.413   9.734  0.1083  0.0639  1.2265
  392TMC3    C7 5864   1.184   1.353   9.965 -0.3831 -0.5336 -0.5781
  392TMC3    C8 5865   0.804   1.356   9.668  0.5349 -0.1158  0.4051
  392TMC3    O1 5866   1.197   1.360  10.083  0.1879  0.1012 -0.0692
  392TMC3    O2 5867   0.682   1.354   9.703  0.3576 -0.1571 -0.5549
  393TMC3    C1 5868   4.466   3.629  10.332 -0.0143  0.1441 -0.8175
  393TMC3    C2 5869   4.399   3.515  10.353  0.3979 -0.8014  0.4846
  393TMC3    C3 5870   4.461   3.388  10.311 -0.5176  0.5327  0.4832
  393TMC3    C4 5871   4.589   3.640  10.271  0.2450  0.6674  0.1723
  393TMC3    C5 5872   4.647   3.520  10.242 -0.2904 -0.1873 -0.6258
  393TMC3    C6 5873   4.589   3.404  10.263  0.0657 -0.4108 -0.4000
  393TMC3     C 5874   4.408   3.762  10.355 -0.0398  0.0564 -0.1356
  393TMC3     O 5875   4.296   3.773  10.308 -0.6548  0.1349 -0.3217
  393TMC3     H 5876   4.299   3.519  10.394  0.0489  1.5198 -0.5857
  393TMC3    H1 5877   4.623   3.731  10.222 -1.0575  1.3101  0.4690
  393TMC3    H2 5878   4.643   3.313  10.239  2.3755  0.3672  1.7684
  393TMC3    C7 5879   0.009   3.520  10.121 -0.5814 -0.2590  0.0349
  393TMC3    C8 5880   4.431   3.262  10.389 -0.2935 -0.3724 -0.8679
  393TMC3    O1 5881   4.717   3.429  10.040  0.7367  0.2973 -0.6727
  393TMC3    O2 5882   4.360   3.279  10.486 -0.4183  0.6691 -0.3343
  394TMC3    C1 5883   1.168   4.552  10.969  0.3626  0.5704  0.7405
  394TMC3    C2 5884   1.040   4.551  10.920 -0.2478 -0.4529 -0.4955
  394TMC3    C3 5885   1.018   4.578  10.790 -0.3605  1.0324 -0.0914
  394TMC3    C4 5886   1.275   4.586  10.891  0.4648  0.2390  0.8592
  394TMC3    C5 5887   1.247   4.613  10.757  0.4635 -0.3307  0.3669
  394TMC3    C6 5888   1.122   4.607  10.703  0.6383 -0.5426  0.4547
  394TMC3     C 5889   1.195   4.437  11.049  0.1203 -0.4368  0.5784
  394TMC3     O 5890   1.145   4.333  11.010 -0.2252  0.1309  0.3027
  394TMC3     H 5891   0.963   4.505  10.980 -0.3518 -0.5921 -0.7362
  394TMC3    H1 5892   1.377   4.565  10.921  0.2024  0.2728  1.7723
  394TMC3    H2 5893   1.099   4.616  10.597  3.5326  1.2406 -0.0143
  394TMC3    C7 5894   1.367   4.602  10.678  0.1428 -0.8599  0.5259
  394TMC3    C8 5895   0.893   4.527  10.744  0.2574 -0.3689 -0.3904
  394TMC3    O1 5896   1.468   4.660  10.721 -0.6124  0.5406 -0.2455
  394TMC3    O2 5897   0.790   4.539  10.812 -0.8735 -0.3560 -0.2279
  395TMC3    C1 5898   1.187   0.745  14.572  0.0988  0.5876 -0.2383
  395TMC3    C2 5899   1.056   0.739  14.517  0.4259  0.5533 -0.3657
  395TMC3    C3 5900   1.016   0.845  14.442 -0.4825  0.5430 -0.1093
  395TMC3    C4 5901   1.261   0.858  14.543 -0.0011 -0.7418  0.6422
  395TMC3    C5 5902   1.223   0.958  14.457  0.1748  0.4061 -0.6364
  395TMC3    C6 5903   1.093   0.957  14.411  0.0147 -0.0088 -0.2040
  395TMC3     C 5904   1.224   0.669  14.690 -0.1190  0.0716  0.0562
  395TMC3     O 5905   1.313   0.714  14.765 -0.2237 -0.3802 -0.0282
  395TMC3     H 5906   0.992   0.653  14.531  0.6646  1.0371  3.5457
  395TMC3    H1 5907   1.359   0.859  14.589  1.0261 -2.2194 -1.4639
  395TMC3    H2 5908   1.048   1.027  14.341 -0.2667 -0.5418 -0.5602
  395TMC3    C7 5909   1.293   1.080  14.474 -1.0946  0.6589  0.5117
  395TMC3    C8 5910   0.871   0.840  14.425  0.2976 -0.3263  0.4650
  395TMC3    O1 5911   1.413   1.076  14.468  0.0347  0.0102  0.8621
  395TMC3    O2 5912   0.800   0.830  14.526  0.2305 -0.1212 -0.6904
  396MPD2     C 5913   1.072   1.992  16.695 -0.1733  0.0269 -0.1940
  396MPD2    C1 5914   1.202   2.003  16.742 -0.6078  0.2315  0.8034
  396MPD2    C2 5915   1.291   2.065  16.661 -0.0913  0.3709  0.4483
  396MPD2    C3 5916   1.266   2.117  16.536 -0.6622 -0.5834  0.2327
  396MPD2    C4 5917   1.138   2.104  16.495  0.3242 -0.0763  0.2277
  396MPD2    C5 5918   1.040   2.051  16.574 -0.1140  0.0124  0.8688
  396MPD2     H 5919   1.393   2.079  16.696  0.4899  0.6102 -1.3187
  396MPD2    H1 5920   1.107   2.140  16.397  0.9556  1.5702  0.6305
  396MPD2    H2 5921   0.990   1.948  16.750  2.8969 -2.0765  2.7069
  396MPD2    H3 5922   0.939   2.057  16.532  0.8314  1.6765 -1.1973
  396MPD2     N 5923   1.366   2.197  16.468 -0.1078  0.4994  0.3731
  396MPD2    H5 5924   1.450   2.204  16.524 -1.0842  1.9585  1.6848
  396MPD2    N1 5925   1.218   1.959  16.876  0.1227  0.1773 -0.3192
  396MPD2    H7 5926   1.134   1.927  16.925  1.0969 -0.7821  0.7263
  397TMC3    C1 5927   1.296   1.927  17.090 -0.7269  0.8674 -0.1304
  397TMC3    C2 5928   1.388   1.822  17.116  0.4755  0.1371 -0.3879
  397TMC3    C3 5929   1.351   1.693  17.146 -0.3478 -0.8346 -0.3878
  397TMC3    C4 5930   1.162   1.894  17.120  0.2631  0.2128 -0.3580
  397TMC3    C5 5931   1.131   1.761  17.155  0.1194  0.5710 -0.1787
  397TMC3    C6 5932   1.225   1.662  17.169 -0.0658  0.0827 -0.0097
  397TMC3     C 5933   1.323   1.983  16.954 -0.9005  0.2310  0.1157
  397TMC3     O 5934   1.430   2.026  16.925 -0.4426 -0.1329  0.2084
  397TMC3     H 5935   1.487   1.838  17.074  1.4987 -0.4117  1.7846
  397TMC3    H1 5936   1.079   1.962  17.107 -0.0911  0.1498  1.5602
  397TMC3    H2 5937   1.200   1.559  17.190 -0.2034  0.0339 -0.4082
  397TMC3    C7 5938   0.989   1.733  17.160  0.8715  0.0654  0.5161
  397TMC3    C8 5939   1.447   1.597  17.185  0.4322 -0.3073 -0.0840
  397TMC3    O1 5940   0.916   1.801  17.091  0.1825 -0.4844  0.2353
  397TMC3    O2 5941   1.444   1.569  17.308 -0.2137  0.6121  0.1241
  398MPD2     C 5942   3.980   2.785   0.026  0.4934 -0.5493  0.2743
  398MPD2    C1 5943   4.027   2.734   0.148 -0.3939  1.2620 -0.3781
  398MPD2    C2 5944   4.139   2.791   0.210  0.2002 -0.2199  1.2691
  398MPD2    C3 5945   4.198   2.903   0.158 -0.0213 -0.4630  0.5644
  398MPD2    C4 5946   4.149   2.960   0.046 -0.3585 -0.0243 -0.1363
  398MPD2    C5 5947   4.043   2.897  17.671  0.4147 -0.0410 -0.2165
  398MPD2     H 5948   4.171   2.744   0.303 -0.4897  0.8355  2.0481
  398MPD2    H1 5949   4.199   3.043  17.692  1.3605  0.1695  1.9508
  398MPD2    H2 5950   3.902   2.733  17.668  0.5364 -0.8287  0.4831
  398MPD2    H3 5951   4.008   2.952  17.585 -0.0611  0.4087  0.2728
  398MPD2     N 5952   4.310   2.961   0.236 -0.1629  0.3437 -0.4088
  398MPD2    H5 5953   4.331   2.905   0.319 -0.5346  1.2411  0.2901
  398MPD2    N1 5954   3.966   2.632   0.222  0.3657  0.1977 -0.1849
  398MPD2    H7 5955   4.016   2.604   0.306 -1.1066 -0.4064  0.4876
  399TMC3    C1 5956   3.885   2.415   0.227  0.1485 -0.5054 -0.1567
  399TMC3    C2 5957   4.001   2.380   0.289 -0.4683  0.0306 -0.1923
  399TMC3    C3 5958   4.003   2.271   0.378  0.1328  0.1994  0.6202
  399TMC3    C4 5959   3.765   2.337   0.241 -0.2198 -0.8271 -0.5498
  399TMC3    C5 5960   3.772   2.241   0.347 -0.2885 -0.7350  0.0604
  399TMC3    C6 5961   3.889   2.203   0.406  0.2413 -0.1643 -0.1971
  399TMC3     C 5962   3.872   2.544   0.172  0.2724  0.1046 -0.0879
  399TMC3     O 5963   3.789   2.568   0.090  0.3474 -0.0552 -0.0148
  399TMC3     H 5964   4.099   2.416   0.258  0.0385  1.0491  2.6411
  399TMC3    H1 5965   3.666   2.363   0.205  0.6888  0.4745 -2.0768
  399TMC3    H2 5966   3.894   2.144   0.496 -0.0838 -1.7414 -1.2135
  399TMC3    C7 5967   3.651   2.160   0.370 -0.4918 -0.9752 -0.7524
  399TMC3    C8 5968   4.120   2.263   0.459  0.1998 -0.0252  0.3545
  399TMC3    O1 5969   3.547   2.218   0.350 -0.6092  0.0151 -0.3990
  399TMC3    O2 5970   4.192   2.358   0.447 -0.4686  0.3732 -0.5721
  400TMC3    C1 5971   2.799   1.064  17.028  0.2347 -0.1184 -0.0572
  400TMC3    C2 5972   2.692   1.064  16.941 -0.2666  0.0278  0.4638
  400TMC3    C3 5973   2.676   1.181  16.869  0.6627 -0.6208  0.9816
  400TMC3    C4 5974   2.879   1.174  17.045  0.0373  0.0619 -0.3733
  400TMC3    C5 5975   2.861   1.286  16.976  0.4658  0.0481 -0.3484
  400TMC3    C6 5976   2.758   1.285  16.888  0.7956  0.4744  0.1125
  400TMC3     C 5977   2.786   0.985  17.145 -0.0292 -0.2507 -0.1408
  400TMC3     O 5978   2.824   1.034  17.251  0.2160  0.4687  0.5739
  400TMC3     H 5979   2.610   0.993  16.934 -0.4050  0.2490 -0.1110
  400TMC3    H1 5980   2.970   1.165  17.104 -0.7983 -2.8540  0.4673
  400TMC3    H2 5981   2.742   1.368  16.820 -1.8509  0.0961  0.2645
  400TMC3    C7 5982   2.893   1.414  17.032 -0.4365 -0.1439 -0.0885
  400TMC3    C8 5983   2.545   1.230  16.834  0.1461 -0.3649  0.1852
  400TMC3    O1 5984   3.007   1.437  17.063 -0.1838  0.3040 -0.0064
  400TMC3    O2 5985   2.514   1.331  16.891  0.4045  0.1456 -0.0837
  401MPD2     C 5986   0.824   4.099  17.560  0.5943 -0.5620 -0.2491
  401MPD2    C1 5987   0.814   4.056  17.690  0.2905 -0.1601 -0.9856
  401MPD2    C2 5988   0.877   3.941   0.034  0.3772 -0.8275  0.1238
  401MPD2    C3 5989   0.950   3.863  17.637  0.3701  0.5454 -0.4023
  401MPD2    C4 5990   0.961   3.911  17.514  0.4163 -0.3581  1.0338
  401MPD2    C5 5991   0.898   4.026  17.471 -0.4383  0.6831  0.4454
  401MPD2     H 5992   0.860   3.903   0.134 -0.9411  1.2281  0.6780
  401MPD2    H1 5993   1.017   3.859  17.438  0.3243 -1.5323  1.7765
  401MPD2    H2 5994   0.782   4.188  17.515 -1.1594 -0.4249  1.6996
  401MPD2    H3 5995   0.928   4.060  17.373  0.4981 -1.7148 -0.1146
  401MPD2     N 5996   0.998   3.735  17.682 -0.3808  0.1952 -0.2257
  401MPD2    H5 5997   0.997   3.729   0.088  1.8492 -0.2081 -0.2327
  401MPD2    N1 5998   0.725   4.108   0.092  0.2413  0.6809  0.5793
  401MPD2    H7 5999   0.720   4.065   0.183 -1.8996 -0.6433 -0.1631
  402TMC3    C1 6000   1.043   3.506  17.695 -0.2768 -0.7096  0.6863
  402TMC3    C2 6001   0.954   3.497   0.104  0.2555  0.3900 -0.6729
  402TMC3    C3 6002   0.973   3.393   0.194  0.8820  0.0713  0.6628
  402TMC3    C4 6003   1.136   3.406  17.673 -0.3213  0.1108  0.4013
  402TMC3    C5 6004   1.127   3.296   0.066 -0.1794  0.8292  0.0583
  402TMC3    C6 6005   1.054   3.288   0.180  0.0931  0.1054 -0.1273
  402TMC3     C 6006   1.054   3.621  17.613 -0.2141  0.1546 -0.1769
  402TMC3     O 6007   1.091   3.620  17.498  0.1319  0.0027  0.8479
  402TMC3     H 6008   0.879   3.571   0.127  1.6946  0.8826  2.3825
  402TMC3    H1 6009   1.218   3.414  17.603 -0.4907  0.0409  0.1959
  402TMC3    H2 6010   1.061   3.202   0.246  0.3322  0.8471  0.8111
  402TMC3    C7 6011   1.211   3.186   0.015  0.3172 -0.4883 -0.2635
  402TMC3    C8 6012   0.881   3.386   0.310 -0.3727  0.8324  0.4218
  402TMC3    O1 6013   1.250   3.181  17.593 -0.0101  0.1674 -0.0366
  402TMC3    O2 6014   0.872   3.283   0.375 -0.1641 -0.1526  0.1909
  403MPD2     C 6015   3.987   3.644  13.271  0.0696  0.2353 -0.2581
  403MPD2    C1 6016   4.051   3.523  13.290 -0.1677  0.2988  0.7064
  403MPD2    C2 6017   4.172   3.526  13.361  0.6305  0.0633 -0.0120
  403MPD2    C3 6018   4.228   3.651  13.400 -0.5633  0.1207 -0.1539
  403MPD2    C4 6019   4.174   3.770  13.365 -0.0906 -0.3723  0.1633
  403MPD2    C5 6020   4.047   3.764  13.304  0.0809 -0.4190  0.0191
  403MPD2     H 6021   4.233   3.440  13.387 -0.1575 -0.4640  0.0885
  403MPD2    H1 6022   4.217   3.863  13.398  1.4560 -0.9103 -0.3419
  403MPD2    H2 6023   3.903   3.662  13.205 -1.9998 -2.9678  1.4819
  403MPD2    H3 6024   3.986   3.850  13.279  0.8777  0.2979  0.5196
  403MPD2     N 6025   4.358   3.643  13.461  0.5206  0.0076  0.3652
  403MPD2    H5 6026   4.392   3.547  13.453 -0.6422 -0.3287 -0.4952
  403MPD2    N1 6027   3.974   3.407  13.247 -0.1888 -0.6490 -0.8512
  403MPD2    H7 6028   3.896   3.412  13.183 -0.7265 -0.7259 -0.2042
  404TMC3    C1 6029   3.934   3.174  13.214  0.1303 -0.2005  0.0190
  404TMC3    C2 6030   3.907   3.061  13.281  0.6251 -0.4357  0.2193
  404TMC3    C3 6031   3.874   2.946  13.219 -0.5460 -0.0998 -0.5992
  404TMC3    C4 6032   3.931   3.167  13.078  0.5775 -0.6763  0.0760
  404TMC3    C5 6033   3.872   3.063  13.012  0.3064  0.4015 -0.0309
  404TMC3    C6 6034   3.844   2.951  13.079 -0.6397  0.7963  0.8381
  404TMC3     C 6035   4.010   3.278  13.283 -0.3918  0.8097  0.4808
  404TMC3     O 6036   4.090   3.237  13.368 -0.6127 -0.0339 -0.2176
  404TMC3     H 6037   3.924   3.069  13.388  4.0629 -0.8419 -0.2845
  404TMC3    H1 6038   3.958   3.254  13.019 -0.5420 -1.0566 -1.0036
  404TMC3    H2 6039   3.824   2.859  13.025 -0.9084  1.5452 -0.3368
  404TMC3    C7 6040   3.875   3.072  12.869  0.5174 -0.0517  0.2873
  404TMC3    C8 6041   3.875   2.817  13.291 -0.6698 -0.0744  0.5413
  404TMC3    O1 6042   3.972   3.125  12.821 -0.2147 -0.3910 -0.8680
  404TMC3    O2 6043   3.903   2.715  13.232 -0.4190  0.1334 -0.3959
  405MPD2     C 6044   4.255   3.822  14.490  0.3223 -0.1415  0.2097
  405MPD2    C1 6045   4.254   3.764  14.366 -0.2046  0.3724  0.0497
  405MPD2    C2 6046   4.199   3.832  14.253  0.0519  0.0396 -0.0002
  405MPD2    C3 6047   4.124   3.946  14.272 -1.0362 -0.1424 -0.0957
  405MPD2    C4 6048   4.130   4.003  14.395  0.6356  0.1352 -0.4735
  405MPD2    C5 6049   4.197   3.946  14.502  0.0787 -0.2024 -0.5634
  405MPD2     H 6050   4.210   3.779  14.159 -0.4365 -0.6116  0.3080
  405MPD2    H1 6051   4.069   4.092  14.409  0.2147 -0.0955 -0.8441
  405MPD2    H2 6052   4.298   3.781  14.581 -1.8924  0.2311  1.4347
  405MPD2    H3 6053   4.197   3.991  14.600  1.1526 -1.0581 -0.1664
  405MPD2     N 6054   4.039   3.984  14.164 -0.5981  1.4613 -0.4757
  405MPD2    H5 6055   4.049   3.936  14.075 -0.0290 -0.2748  0.5166
  405MPD2    N1 6056   4.318   3.633  14.360  0.2471  0.0932  0.1343
  405MPD2    H7 6057   4.369   3.605  14.443 -0.2248  1.3741  0.8611
  406TMC3    C1 6058   3.648   4.147  14.095 -0.3958 -0.5978  0.4120
  406TMC3    C2 6059   3.608   4.020  14.058  0.2429 -0.4561 -0.0286
  406TMC3    C3 6060   3.710   3.933  14.017  0.0703 -0.6231 -0.3699
  406TMC3    C4 6061   3.775   4.196  14.087  0.9278 -0.4094 -0.7951
  406TMC3    C5 6062   3.869   4.099  14.055 -0.2658  0.7300 -0.1321
  406TMC3    C6 6063   3.838   3.973  14.006 -0.4602 -0.2830 -0.1558
  406TMC3     C 6064   3.540   4.236  14.145 -0.4593 -0.8496  0.1235
  406TMC3     O 6065   3.538   4.358  14.127  0.0808  0.1224  0.9783
  406TMC3     H 6066   3.504   3.993  14.050 -0.2944  0.7445  2.7890
  406TMC3    H1 6067   3.805   4.295  14.120  0.2206 -0.0525 -1.2224
  406TMC3    H2 6068   3.906   3.933  13.932 -1.0571 -1.6037  0.0077
  406TMC3    C7 6069   3.963   4.095  14.168  0.0649 -0.4408 -0.5178
  406TMC3    C8 6070   3.679   3.792  14.010  0.1613  0.0371  0.6497
  406TMC3    O1 6071   3.960   4.186  14.248 -0.0015  0.0346 -1.2726
  406TMC3    O2 6072   3.561   3.761  14.040  0.3225 -0.1761  0.0212
  407MPD2     C 6073   1.701   0.680   9.402  0.9245 -0.7531  0.2448
  407MPD2    C1 6074   1.684   0.812   9.369 -0.3027  0.0590  0.0446
  407MPD2    C2 6075   1.747   0.905   9.455  0.6339 -0.5469 -0.8265
  407MPD2    C3 6076   1.802   0.870   9.581  0.5357 -0.0482  0.1639
  407MPD2    C4 6077   1.804   0.735   9.609  0.2192 -0.2716 -0.2136
  407MPD2    C5 6078   1.756   0.640   9.524 -0.1210  0.3216 -0.1481
  407MPD2     H 6079   1.746   1.010   9.429  0.2866 -0.5334 -0.7580
  407MPD2    H1 6080   1.854   0.702   9.700 -1.8324  1.8054  1.6468
  407MPD2    H2 6081   1.678   0.594   9.341  0.5841 -0.4377 -0.0698
  407MPD2    H3 6082   1.779   0.536   9.546  2.1805  1.3131  2.0710
  407MPD2     N 6083   1.856   0.962   9.674  0.4455  0.3392 -0.0079
  407MPD2    H5 6084   1.892   0.925   9.761  1.4615  1.7586  0.1674
  407MPD2    N1 6085   1.637   0.851   9.238 -0.5167 -0.5372 -0.0310
  407MPD2    H7 6086   1.600   0.783   9.172 -1.5621  0.7178 -0.7280
  408TMC3    C1 6087   1.576   0.986   9.064 -0.2033 -0.0324 -0.1138
  408TMC3    C2 6088   1.671   0.914   8.986  0.3074 -0.0130  0.4961
  408TMC3    C3 6089   1.734   0.986   8.890 -0.0702  0.1535  0.1588
  408TMC3    C4 6090   1.542   1.118   9.043  0.2421  0.2873  0.4516
  408TMC3    C5 6091   1.621   1.184   8.951 -0.2674  0.2523  0.0711
  408TMC3    C6 6092   1.716   1.119   8.869 -0.8345 -0.9514 -0.1856
  408TMC3     C 6093   1.587   0.967   9.208  0.3847 -0.2819  0.3035
  408TMC3     O 6094   1.581   1.074   9.272  0.2174 -0.7055 -0.5052
  408TMC3     H 6095   1.703   0.812   9.004 -0.1808 -0.4130 -0.8956
  408TMC3    H1 6096   1.470   1.170   9.106  0.3457 -0.5455  1.2621
  408TMC3    H2 6097   1.797   1.166   8.813  0.1440 -1.2243  0.9926
  408TMC3    C7 6098   1.612   1.323   8.939 -0.5796 -0.6299  0.7476
  408TMC3    C8 6099   1.863   0.927   8.851  0.0713  0.1168  0.3105
  408TMC3    O1 6100   1.642   1.373   8.834  0.3137 -0.4351  0.1094
  408TMC3    O2 6101   1.865   0.811   8.812  0.2062  0.9223 -0.1625
  409MPD2     C 6102   1.222   1.245  17.108 -0.4818 -0.2629 -0.8179
  409MPD2    C1 6103   1.348   1.188  17.122  0.6998 -0.2123 -0.1873
  409MPD2    C2 6104   1.449   1.208  17.027 -1.0684 -0.3676  0.0519
  409MPD2    C3 6105   1.425   1.282  16.911 -0.5546  0.3403 -0.6776
  409MPD2    C4 6106   1.302   1.342  16.890 -1.0606 -0.3245  0.0486
  409MPD2    C5 6107   1.206   1.328  16.994  0.4750 -0.0391 -0.2412
  409MPD2     H 6108   1.543   1.163  17.056 -0.8142 -1.2553 -2.2259
  409MPD2    H1 6109   1.281   1.380  16.791  0.4663 -1.3475 -0.6579
  409MPD2    H2 6110   1.132   1.240  17.169  0.5247  1.4617  0.8016
  409MPD2    H3 6111   1.110   1.378  16.982  0.3177 -0.3020 -0.0779
  409MPD2     N 6112   1.527   1.300  16.807 -0.8775  0.3447 -0.2963
  409MPD2    H5 6113   1.512   1.336  16.714 -0.5945  1.7376  0.1962
  409MPD2    N1 6114   1.379   1.095  17.220  0.4439  0.1890 -0.2817
  409MPD2    H7 6115   1.465   1.042  17.211 -0.6290 -1.7665  0.8599
  410TMC3    C1 6116   1.748   1.268  16.728 -1.3465 -0.4479  0.0347
  410TMC3    C2 6117   1.876   1.270  16.767  0.0204 -0.4176 -0.1944
  410TMC3    C3 6118   1.963   1.174  16.715 -0.1975  0.3969 -0.9530
  410TMC3    C4 6119   1.706   1.193  16.627 -0.2858  0.6850  0.2787
  410TMC3    C5 6120   1.792   1.112  16.563  0.2011  0.4555 -0.2544
  410TMC3    C6 6121   1.920   1.101  16.608 -0.9751 -0.0745  0.3098
  410TMC3     C 6122   1.655   1.285  16.843 -0.8071  0.1505 -0.7506
  410TMC3     O 6123   1.708   1.279  16.953  0.7645 -0.5053  0.0360
  410TMC3     H 6124   1.913   1.311  16.861 -0.8137  1.5284 -0.7246
  410TMC3    H1 6125   1.601   1.192  16.597 -0.3991 -2.2695  0.7978
  410TMC3    H2 6126   1.997   1.053  16.550 -2.0464 -1.1345 -0.2353
  410TMC3    C7 6127   1.771   1.109  16.421  0.8946 -0.0495 -0.6429
  410TMC3    C8 6128   2.071   1.126  16.792  0.1296  0.8372  0.4627
  410TMC3    O1 6129   1.807   1.015  16.357  0.0509 -0.1633  0.0111
  410TMC3    O2 6130   2.103   1.193  16.892  0.3156  0.4097  0.0537
  411MPD2     C 6131   1.798   1.553  14.437 -0.5208  0.2508  0.4661
  411MPD2    C1 6132   1.699   1.643  14.410 -0.4301 -0.5194 -0.3609
  411MPD2    C2 6133   1.584   1.591  14.349  0.5708 -0.2890 -0.4449
  411MPD2    C3 6134   1.563   1.455  14.328 -0.4348 -0.4657 -0.1871
  411MPD2    C4 6135   1.657   1.366  14.372  0.3506 -0.3542 -0.0701
  411MPD2    C5 6136   1.776   1.418  14.411  0.0157 -0.3777 -0.3186
  411MPD2     H 6137   1.503   1.661  14.335  0.8736 -0.2052 -1.7859
  411MPD2    H1 6138   1.647   1.263  14.338 -0.1942 -0.4963  0.5188
  411MPD2    H2 6139   1.899   1.588  14.455  0.5013 -1.8094 -1.2897
  411MPD2    H3 6140   1.861   1.353  14.429  0.9103  0.3963 -1.7904
  411MPD2     N 6141   1.448   1.396  14.263 -0.2480 -0.1520 -0.0340
  411MPD2    H5 6142   1.451   1.296  14.247 -1.2911  0.0991 -1.8368
  411MPD2    N1 6143   1.708   1.783  14.420 -0.5340 -0.5175  0.5743
  411MPD2    H7 6144   1.628   1.844  14.403  0.4944  0.5272 -0.5923
  412TMC3    C1 6145   1.270   1.385  14.124 -0.3342  0.2989 -0.6598
  412TMC3    C2 6146   1.155   1.451  14.081 -0.3851 -0.0277  0.0316
  412TMC3    C3 6147   1.122   1.442  13.950  0.3220  0.0090  0.1561
  412TMC3    C4 6148   1.345   1.326  14.024  0.4423  0.5593 -0.0069
  412TMC3    C5 6149   1.298   1.297  13.900  0.1011 -0.6899 -0.4794
  412TMC3    C6 6150   1.180   1.350  13.864  0.1719  0.1370 -0.3945
  412TMC3     C 6151   1.346   1.471  14.213  0.4490 -0.4136  0.7496
  412TMC3     O 6152   1.314   1.588  14.231  0.5077  0.1761  0.1822
  412TMC3     H 6153   1.104   1.529  14.136 -0.9664 -0.0970 -0.4030
  412TMC3    H1 6154   1.446   1.299  14.053  0.8084  1.9801  0.0659
  412TMC3    H2 6155   1.133   1.330  13.769 -0.8268 -0.8211  0.3108
  412TMC3    C7 6156   1.385   1.308  13.784  0.5393  0.0096 -0.7559
  412TMC3    C8 6157   1.089   1.563  13.881  0.2701  0.5166 -0.6407
  412TMC3    O1 6158   1.328   1.346  13.681  0.4660  0.3747  0.5150
  412TMC3    O2 6159   0.995   1.625  13.932 -0.1378  0.0415  0.7215
  413MPD2     C 6160   3.063   4.240  15.243 -0.4598 -0.1807 -0.0028
  413MPD2    C1 6161   3.073   4.365  15.191  0.7482 -0.4781 -0.2433
  413MPD2    C2 6162   3.183   4.412  15.130  0.6784  0.8947 -0.3626
  413MPD2    C3 6163   3.287   4.325  15.118 -0.5242 -0.4008 -0.5470
  413MPD2    C4 6164   3.273   4.198  15.166  0.9269 -0.2434  0.2085
  413MPD2    C5 6165   3.167   4.153  15.235 -0.3553 -0.5344  0.2307
  413MPD2     H 6166   3.191   4.514  15.096  0.8081  0.3688 -1.9178
  413MPD2    H1 6167   3.347   4.122  15.144  1.4952  0.1545  0.7538
  413MPD2    H2 6168   2.971   4.204  15.288  1.2533 -0.7519  3.0273
  413MPD2    H3 6169   3.153   4.051  15.270 -0.9448 -0.8963 -1.0695
  413MPD2     N 6170   3.404   4.358  15.043 -0.0697  0.1460  0.7088
  413MPD2    H5 6171   3.413   4.458  15.029 -2.3969  0.1207 -1.1048
  413MPD2    N1 6172   2.952   4.435  15.211  0.4882  0.1106  0.0154
  413MPD2    H7 6173   2.874   4.396  15.263  1.0498 -1.3328 -0.2419
  414TMC3    C1 6174   3.626   4.341  14.958  0.2953 -0.1624  0.3616
  414TMC3    C2 6175   3.718   4.254  14.885 -0.5084 -0.9097  0.0710
  414TMC3    C3 6176   3.834   4.314  14.849 -0.0482  0.0018  0.0972
  414TMC3    C4 6177   3.652   4.473  14.983  0.8662  0.1409 -0.1096
  414TMC3    C5 6178   3.768   4.527  14.936  0.1995 -0.3560  0.0206
  414TMC3    C6 6179   3.859   4.454  14.861 -0.2169  0.2204  0.1099
  414TMC3     C 6180   3.509   4.277  15.013  0.1722  0.0226 -0.6881
  414TMC3     O 6181   3.519   4.155  15.006 -0.3555 -0.2251 -0.1211
  414TMC3     H 6182   3.708   4.148  14.866  0.4739 -1.0000  0.0636
  414TMC3    H1 6183   3.580   4.535  15.035  0.7784 -2.7311  3.2138
  414TMC3    H2 6184   3.950   4.505  14.834  0.8421  0.0714  3.3688
  414TMC3    C7 6185   3.796   4.665  14.957  0.4711 -0.1590  0.8447
  414TMC3    C8 6186   3.930   4.216  14.800 -0.2730 -0.5452 -0.1934
  414TMC3    O1 6187   3.702   0.020  14.947 -0.3791 -0.3004  0.5577
  414TMC3    O2 6188   3.887   4.107  14.765  0.0747  0.2554  0.4852
  415TMC3    C1 6189   3.595   2.579   9.670 -0.4197 -1.0845  0.7843
  415TMC3    C2 6190   3.699   2.555   9.575  0.1839  0.2534 -0.4758
  415TMC3    C3 6191   3.721   2.423   9.560 -0.1337  0.3580 -0.2356
  415TMC3    C4 6192   3.518   2.485   9.736 -0.0533 -0.9260  0.4714
  415TMC3    C5 6193   3.556   2.348   9.704  0.2414 -0.2209 -0.0799
  415TMC3    C6 6194   3.653   2.319   9.614  0.1378  0.3570 -1.1950
  415TMC3     C 6195   3.589   2.722   9.718  0.6658  0.1137  0.4783
  415TMC3     O 6196   3.545   2.737   9.831 -0.4545  0.0422  0.4565
  415TMC3     H 6197   3.762   2.628   9.526  0.1423  0.6150  0.0108
  415TMC3    H1 6198   3.454   2.520   9.816  2.3524  1.2180  1.4841
  415TMC3    H2 6199   3.679   2.215   9.592 -0.4433  0.4550 -2.3386
  415TMC3    C7 6200   3.503   2.241   9.785 -0.6070  0.7591 -0.0569
  415TMC3    C8 6201   3.807   2.387   9.454 -0.2885  0.6322 -1.1478
  415TMC3    O1 6202   3.547   2.127   9.767  0.1960  0.3436  0.4297
  415TMC3    O2 6203   3.799   2.277   9.403 -0.2960 -0.2171 -0.4882
  416MPD2     C 6204   1.101   1.877  11.368  0.4347  0.4144  0.2115
  416MPD2    C1 6205   1.039   1.951  11.271  0.1565  0.8690 -0.2567
  416MPD2    C2 6206   1.056   1.916  11.134  0.0912  0.0044 -0.2167
  416MPD2    C3 6207   1.122   1.804  11.095  0.2241 -0.3509 -0.3139
  416MPD2    C4 6208   1.173   1.722  11.200 -0.5565 -0.1488  0.3751
  416MPD2    C5 6209   1.167   1.757  11.329  0.4241 -0.7507 -0.2087
  416MPD2     H 6210   1.008   1.978  11.059  0.2563 -0.8079 -0.9979
  416MPD2    H1 6211   1.243   1.642  11.177 -1.3260 -0.3287 -1.2790
  416MPD2    H2 6212   1.078   1.904  11.470 -2.7911  2.6273 -1.1156
  416MPD2    H3 6213   1.209   1.697  11.409  1.1173 -0.6770 -0.5190
  416MPD2     N 6214   1.139   1.766  10.959 -0.1805  0.1167  0.5463
  416MPD2    H5 6215   1.169   1.670  10.941  0.4832  0.4423 -0.0669
  416MPD2    N1 6216   0.952   2.052  11.320  0.6302 -0.3681 -0.9902
  416MPD2    H7 6217   0.929   2.053  11.419 -1.5738 -3.3082 -1.4606
  417TMC3    C1 6218   0.770   2.189  11.331  0.1408  0.8924  0.1647
  417TMC3    C2 6219   0.811   2.251  11.445 -0.2162 -0.0598  0.7928
  417TMC3    C3 6220   0.726   2.333  11.510  0.0730 -1.4936  0.5475
  417TMC3    C4 6221   0.646   2.201  11.280  0.1160  0.7380  0.3897
  417TMC3    C5 6222   0.557   2.272  11.353 -0.0078  0.2244  0.2068
  417TMC3    C6 6223   0.592   2.351  11.465 -0.1672 -0.1487  0.5156
  417TMC3     C 6224   0.860   2.114  11.245 -0.4040 -0.3311  0.4452
  417TMC3     O 6225   0.835   2.120  11.126 -0.1172 -0.5439  0.0138
  417TMC3     H 6226   0.907   2.229  11.490 -1.1266 -1.0683  2.2115
  417TMC3    H1 6227   0.626   2.155  11.184  1.2899  1.5026 -0.2095
  417TMC3    H2 6228   0.517   2.394  11.530  0.8843  0.7192  1.1425
  417TMC3    C7 6229   0.442   2.315  11.279  0.0789  0.3950  0.7438
  417TMC3    C8 6230   0.758   2.386  11.640 -0.2719  0.6788  0.0418
  417TMC3    O1 6231   0.427   2.438  11.282 -0.2910  0.0235  0.1066
  417TMC3    O2 6232   0.664   2.404  11.719  0.1245 -0.3590 -0.0453
  418TMC3    C1 6233   4.723   3.039   0.333  0.1658 -0.9157  0.6114
  418TMC3    C2 6234   4.638   3.074   0.243 -0.0841  0.2366 -0.0765
  418TMC3    C3 6235   4.506   3.065   0.287 -0.3826  0.0645  0.1302
  418TMC3    C4 6236   4.692   3.018   0.464  0.1044  0.2722  0.1254
  418TMC3    C5 6237   4.560   3.023   0.506 -0.4131  0.0067  0.9247
  418TMC3    C6 6238   4.465   3.035   0.416 -0.4295 -0.5318  0.0933
  418TMC3     C 6239   0.135   3.014   0.292 -0.4159 -0.5125  0.0165
  418TMC3     O 6240   0.178   3.105   0.221 -0.2908  0.0633 -0.3873
  418TMC3     H 6241   4.664   3.083   0.138  0.6497 -0.7092  0.0316
  418TMC3    H1 6242   0.043   3.000   0.541  1.0290 -0.9653 -1.0561
  418TMC3    H2 6243   4.365   3.060   0.449 -0.0569 -0.4640  1.1498
  418TMC3    C7 6244   4.524   2.960   0.628  0.0193  0.1119  0.2153
  418TMC3    C8 6245   4.401   3.054   0.191  0.3159  0.3585  0.5723
  418TMC3    O1 6246   4.424   2.894   0.616 -0.2028 -0.2969  0.5483
  418TMC3    O2 6247   4.414   3.111   0.083  0.4058 -0.4463 -0.0611
  419MPD2     C 6248   2.457   1.650  12.439  0.6285 -1.0513  0.6347
  419MPD2    C1 6249   2.484   1.789  12.450  0.1074 -0.1653  0.7529
  419MPD2    C2 6250   2.505   1.844  12.576  0.6909  0.4684  0.4180
  419MPD2    C3 6251   2.478   1.773  12.694 -0.0614  0.2498  0.1923
  419MPD2    C4 6252   2.442   1.644  12.686  0.3096  0.7915 -0.0381
  419MPD2    C5 6253   2.438   1.585  12.562  0.2165 -0.4446 -0.5062
  419MPD2     H 6254   2.516   1.951  12.582 -1.4573  0.7180  0.1006
  419MPD2    H1 6255   2.411   1.583  12.771  1.3513 -0.0171 -0.2364
  419MPD2    H2 6256   2.441   1.597  12.346  1.0500 -0.8937  0.4726
  419MPD2    H3 6257   2.417   1.479  12.558 -1.4609  0.0068 -3.1164
  419MPD2     N 6258   2.503   1.845  12.807 -0.0721 -0.4605  0.6616
  419MPD2    H5 6259   2.500   1.947  12.804  1.8104 -0.4369 -0.3389
  419MPD2    N1 6260   2.510   1.859  12.333  0.9097 -0.1224  0.3675
  419MPD2    H7 6261   2.528   1.959  12.341 -0.1461  0.1565 -0.6416
  420TMC3    C1 6262   2.553   1.868  13.031 -0.2671  0.2991 -0.6527
  420TMC3    C2 6263   2.498   1.993  13.030  0.0793  0.2535 -0.5250
  420TMC3    C3 6264   2.554   2.081  13.122  0.3811  0.3473 -0.0951
  420TMC3    C4 6265   2.657   1.829  13.110  0.2406  0.6037 -0.0575
  420TMC3    C5 6266   2.701   1.909  13.205  0.1610  0.1417 -0.3784
  420TMC3    C6 6267   2.649   2.038  13.216  0.5781  0.4626  0.7155
  420TMC3     C 6268   2.538   1.784  12.918 -0.4543  0.2907  0.5636
  420TMC3     O 6269   2.571   1.667  12.936 -0.1129  0.6036 -0.7653
  420TMC3     H 6270   2.417   2.019  12.963 -0.1196  1.4272  0.1754
  420TMC3    H1 6271   2.703   1.731  13.112 -1.9399 -0.4270 -0.1153
  420TMC3    H2 6272   2.678   2.110  13.292  2.0023  1.4423 -0.7480
  420TMC3    C7 6273   2.776   1.858  13.316  0.0366  0.3000  0.2406
  420TMC3    C8 6274   2.476   2.194  13.160  0.0605  0.1221  0.4521
  420TMC3    O1 6275   2.759   1.738  13.336  0.1946  0.0151  0.4377
  420TMC3    O2 6276   2.457   2.194  13.284  0.5494  0.1728  0.1974
  421TMC3    C1 6277   4.570   3.691  13.556 -0.4945  0.6320  0.1845
  421TMC3    C2 6278   4.632   3.770  13.645  0.5805  0.0320 -0.0429
  421TMC3    C3 6279   0.034   3.753  13.686  0.2635  0.7284  1.1061
  421TMC3    C4 6280   4.642   3.587  13.499  0.1924 -0.1150 -0.5298
  421TMC3    C5 6281   0.051   3.573  13.544  0.3856  0.2183 -0.0168
  421TMC3    C6 6282   0.114   3.659  13.627  0.5074  0.8038 -0.2978
  421TMC3     C 6283   4.439   3.736  13.507 -0.1056 -0.2540 -0.0927
  421TMC3     O 6284   4.422   3.861  13.515 -0.4488 -0.0255  0.3877
  421TMC3     H 6285   4.577   3.854  13.686  1.5217 -0.3917  2.0637
  421TMC3    H1 6286   4.602   3.523  13.421 -1.0777  2.2679 -1.8087
  421TMC3    H2 6287   0.215   3.645  13.664  0.7088  0.1732 -1.0877
  421TMC3    C7 6288   0.116   3.445  13.530  0.0920  0.3337 -0.0472
  421TMC3    C8 6289   0.078   3.805  13.811  0.5802  0.2645  0.6263
  421TMC3    O1 6290   0.222   3.432  13.586 -0.0755 -0.5330 -0.2653
  421TMC3    O2 6291   0.190   3.782  13.855  0.8052  0.2423 -0.2853
  422TMC3    C1 6292   1.898   0.366  12.400  0.1087  0.6946  0.6108
  422TMC3    C2 6293   1.947   0.433  12.508  0.0509 -0.1792  0.5074
  422TMC3    C3 6294   1.871   0.446  12.623  0.6096  0.4651 -0.3718
  422TMC3    C4 6295   1.769   0.315  12.397  0.2746  0.0257 -0.2559
  422TMC3    C5 6296   1.693   0.345  12.510  0.3315 -0.2573 -0.0087
  422TMC3    C6 6297   1.739   0.405  12.628  0.8127 -0.1596 -0.3997
  422TMC3     C 6298   1.967   0.389  12.276  0.1104 -0.1855 -0.1838
  422TMC3     O 6299   2.050   0.477  12.272  0.4282 -0.0219 -0.1909
  422TMC3     H 6300   2.049   0.469  12.518  1.0959 -2.1588 -3.1076
  422TMC3    H1 6301   1.719   0.280  12.308 -0.6361 -0.1377  0.3199
  422TMC3    H2 6302   1.670   0.456  12.695 -1.4779 -0.5480 -2.4836
  422TMC3    C7 6303   1.555   0.305  12.499 -0.2775 -0.3767  0.2731
  422TMC3    C8 6304   1.935   0.521  12.731  0.8117  0.3354  0.7717
  422TMC3    O1 6305   1.513   0.278  12.384  0.2817 -0.1855  0.3171
  422TMC3    O2 6306   2.007   0.615  12.703 -0.1654  0.4750 -0.0391
  423MPD2     C 6307   3.333   0.887   0.660  0.1580 -1.0859 -0.1586
  423MPD2    C1 6308   3.251   0.780   0.655 -0.0728  0.3300  0.3107
  423MPD2    C2 6309   3.251   0.700   0.546 -0.0102 -0.0925 -0.5464
  423MPD2    C3 6310   3.318   0.722   0.424  0.1834 -0.1205  0.3408
  423MPD2    C4 6311   3.401   0.826   0.429 -0.5858 -0.0007  0.4189
  423MPD2    C5 6312   3.413   0.902   0.550  0.8499 -0.5548 -0.5043
  423MPD2     H 6313   3.169   0.631   0.565  0.2385 -1.2604 -3.7207
  423MPD2    H1 6314   3.456   0.859   0.342  0.4259 -1.0767  0.6451
  423MPD2    H2 6315   3.328   0.956   0.743  0.0497 -0.4123 -0.7204
  423MPD2    H3 6316   3.469   0.994   0.556  1.0129 -0.6889  0.0056
  423MPD2     N 6317   3.286   0.642   0.306 -0.3301 -0.0533  0.1887
  423MPD2    H5 6318   3.322   0.677   0.218  1.3193 -0.8816  0.5191
  423MPD2    N1 6319   3.144   0.755   0.740  0.1728  0.1724  0.0320
  423MPD2    H7 6320   3.079   0.680   0.719 -1.5994  2.2946 -2.0627
  424TMC3    C1 6321   3.002   0.759   0.918  0.0659  0.2463  0.0652
  424TMC3    C2 6322   3.019   0.703   1.043 -0.1824  0.7730 -0.4509
  424TMC3    C3 6323   2.913   0.635   1.099  0.3669  0.3583  1.0088
  424TMC3    C4 6324   2.885   0.751   0.844  0.0044  0.8392 -0.3386
  424TMC3    C5 6325   2.789   0.676   0.905 -0.0418 -0.3116 -0.1767
  424TMC3    C6 6326   2.798   0.614   1.026  1.3199 -0.1921 -0.3836
  424TMC3     C 6327   3.115   0.822   0.859 -0.2320 -0.7551 -0.8350
  424TMC3     O 6328   3.192   0.884   0.930 -0.0753  0.2220 -0.1845
  424TMC3     H 6329   3.119   0.696   1.086 -0.2336 -2.7612 -0.8935
  424TMC3    H1 6330   2.877   0.794   0.745  0.3433 -2.1332 -1.6639
  424TMC3    H2 6331   2.730   0.546   1.075 -2.0465  1.6880 -2.4737
  424TMC3    C7 6332   2.664   0.653   0.835  0.6801  0.0386  0.6661
  424TMC3    C8 6333   2.942   0.540   1.203  0.1502 -0.2724  0.1403
  424TMC3    O1 6334   2.658   0.702   0.724 -0.0090 -0.2291 -0.7086
  424TMC3    O2 6335   2.894   0.427   1.196  0.3501 -0.1706 -0.0325
  425MPD2     C 6336   2.088   4.519  17.350  0.1809 -0.1440  0.7800
  425MPD2    C1 6337   2.051   4.483  17.229  0.4158 -0.3222  0.8219
  425MPD2    C2 6338   1.918   4.504  17.189 -0.7813 -0.8946  0.5222
  425MPD2    C3 6339   1.823   4.552  17.283  0.7149 -0.6740 -0.2680
  425MPD2    C4 6340   1.869   4.585  17.408 -0.3183  0.0117  0.1725
  425MPD2    C5 6341   1.999   4.565  17.440  0.5173  0.0933  0.1739
  425MPD2     H 6342   1.881   4.463  17.096  0.4460  0.8579 -0.7488
  425MPD2    H1 6343   1.814   4.626  17.491  0.4564  1.2316  0.0822
  425MPD2    H2 6344   2.193   4.507  17.377 -0.5322 -2.4726  2.4827
  425MPD2    H3 6345   2.037   4.590  17.538 -0.6464  0.9027  0.4160
  425MPD2     N 6346   1.684   4.563  17.254 -0.1128 -0.5221 -0.3709
  425MPD2    H5 6347   1.657   4.542  17.159 -0.0870 -1.0863 -0.2548
  425MPD2    N1 6348   2.153   4.426  17.147 -0.5333 -0.6903  0.3513
  425MPD2    H7 6349   2.243   4.428  17.193  0.3378 -2.4440 -1.2823
  426TMC3    C1 6350   2.245   4.277  16.986 -0.3643  1.1936  0.2428
  426TMC3    C2 6351   2.240   4.227  16.859 -0.1532 -0.1512  0.4915
  426TMC3    C3 6352   2.341   4.148  16.826 -0.3866 -0.0808 -0.2659
  426TMC3    C4 6353   2.343   4.243  17.073 -0.4599 -0.1600  0.5696
  426TMC3    C5 6354   2.433   4.145  17.044 -0.1815 -0.3399  0.6239
  426TMC3    C6 6355   2.438   4.102  16.911  0.8540  0.0892 -0.0941
  426TMC3     C 6356   2.138   4.360  17.028 -0.1089  0.1365  0.5362
  426TMC3     O 6357   2.045   4.366  16.954  0.0672  0.0622  0.3877
  426TMC3     H 6358   2.180   4.266  16.777  0.5593  0.8150  0.4325
  426TMC3    H1 6359   2.342   4.276  17.177 -0.3446  0.1413  0.4756
  426TMC3    H2 6360   2.495   4.013  16.888 -2.4513 -1.7279 -1.2242
  426TMC3    C7 6361   2.438   4.029  17.141 -0.3935  0.4265  0.4377
  426TMC3    C8 6362   2.334   4.067  16.709 -0.5727 -0.2218  0.5045
  426TMC3    O1 6363   2.539   3.957  17.121 -0.0534 -0.6006  0.1237
  426TMC3    O2 6364   2.441   4.039  16.657  0.2009  0.4210  0.2638
  427MPD2     C 6365   1.003   2.098  14.772 -0.0225 -0.1051  0.2609
  427MPD2    C1 6366   0.930   2.010  14.853 -0.2540 -0.2775 -0.0713
  427MPD2    C2 6367   0.812   2.050  14.906 -0.8813  0.1440  0.2688
  427MPD2    C3 6368   0.761   2.175  14.877 -0.3888 -0.1189 -0.1959
  427MPD2    C4 6369   0.834   2.267  14.806 -0.3360  1.4960 -0.1071
  427MPD2    C5 6370   0.951   2.223  14.749 -0.4968 -0.3648  0.1927
  427MPD2     H 6371   0.761   1.979  14.971 -0.3810 -0.5240 -0.0651
  427MPD2    H1 6372   0.796   2.369  14.799  1.6364  2.0686 -2.5423
  427MPD2    H2 6373   1.083   2.068  14.705  1.3521  1.7775  1.0873
  427MPD2    H3 6374   0.998   2.280  14.669 -0.5276  0.6690  0.9155
  427MPD2     N 6375   0.634   2.225  14.909  0.0682  0.6098 -0.4101
  427MPD2    H5 6376   0.604   2.320  14.889 -1.3563  0.3806  0.6038
  427MPD2    N1 6377   0.985   1.883  14.892  0.3436  0.1659 -0.6223
  427MPD2    H7 6378   0.935   1.828  14.961 -0.9060  0.2944 -1.4349
  428TMC3    C1 6379   1.160   1.728  14.933 -0.0900 -0.8745  0.0766
  428TMC3    C2 6380   1.072   1.632  14.989 -0.3806 -0.3984 -0.3811
  428TMC3    C3 6381   1.124   1.536  15.077 -0.4628 -1.3010  0.3051
  428TMC3    C4 6382   1.290   1.723  14.967 -0.2989  0.5344  0.4124
  428TMC3    C5 6383   1.335   1.627  15.057  0.0180  0.2526  0.1512
  428TMC3    C6 6384   1.252   1.547  15.116  0.5551  0.5168 -0.2715
  428TMC3     C 6385   1.107   1.833  14.846 -0.4116 -0.1136 -0.1723
  428TMC3     O 6386   1.188   1.872  14.763 -0.3775 -0.0941 -0.5066
  428TMC3     H 6387   0.967   1.635  14.962 -0.6444 -0.8578  0.5684
  428TMC3    H1 6388   1.357   1.802  14.937  1.9027 -1.0530  1.1055
  428TMC3    H2 6389   1.281   1.490  15.204  0.8289 -2.2364 -2.1501
  428TMC3    C7 6390   1.445   1.671  15.135 -0.2456 -0.0944 -0.1589
  428TMC3    C8 6391   1.032   1.448  15.151  0.3925 -0.2646 -0.3027
  428TMC3    O1 6392   1.442   1.651  15.256  0.3760 -0.5953 -0.3109
  428TMC3    O2 6393   1.083   1.407  15.253 -0.1665  0.6754  0.8548
  429MPD2     C 6394   1.960   2.075  17.669  0.0478 -0.6092  0.2033
  429MPD2    C1 6395   2.015   1.952  17.629 -0.3605 -0.2961  0.3833
  429MPD2    C2 6396   2.067   1.945  17.505 -0.1680  0.5377 -0.3158
  429MPD2    C3 6397   2.066   2.056  17.417 -0.7499  0.3947  0.3785
  429MPD2    C4 6398   2.011   2.177  17.458  0.4273  0.0768  0.1845
  429MPD2    C5 6399   1.966   2.184  17.584  0.5124  1.0686  0.1474
  429MPD2     H 6400   2.113   1.853  17.471  0.4835  0.5265  0.5827
  429MPD2    H1 6401   2.007   2.272  17.405  0.9394  0.5180  0.9209
  429MPD2    H2 6402   1.914   2.088   0.071  0.9730  0.8769  0.4416
  429MPD2    H3 6403   1.924   2.276  17.623 -0.3079 -0.0881  1.9368
  429MPD2     N 6404   2.121   2.047  17.289  0.2921  0.5213  0.0890
  429MPD2    H5 6405   2.158   1.959  17.253  0.2051  1.0536 -1.3171
  429MPD2    N1 6406   2.020   1.843   0.026  0.2978 -0.3473  0.3713
  429MPD2    H7 6407   2.051   1.755  17.680  1.8181  0.6700 -0.6720
  430TMC3    C1 6408   2.180   2.104  17.071 -0.1518 -0.1853 -0.0154
  430TMC3    C2 6409   2.117   2.137  16.954  0.9313 -0.3297 -0.0357
  430TMC3    C3 6410   2.179   2.105  16.845 -0.9143  0.0118  0.6976
  430TMC3    C4 6411   2.296   2.040  17.077  0.1081  0.7986 -0.5534
  430TMC3    C5 6412   2.358   2.001  16.960  0.5699 -0.2687  0.7257
  430TMC3    C6 6413   2.292   2.033  16.842  1.1800  0.0090  0.3463
  430TMC3     C 6414   2.100   2.138  17.189  0.0021 -0.0641 -0.4539
  430TMC3     O 6415   2.026   2.235  17.175 -0.0065 -0.2012  0.0305
  430TMC3     H 6416   2.019   2.182  16.944  1.3801  1.1142  2.1594
  430TMC3    H1 6417   2.346   2.013  17.169 -0.4023  1.2257 -0.1497
  430TMC3    H2 6418   2.334   1.992  16.751 -0.8641  0.9422 -1.0306
  430TMC3    C7 6419   2.450   1.894  16.961 -0.0591  0.0777  0.5071
  430TMC3    C8 6420   2.114   2.134  16.719  0.4520  0.1948 -0.2277
  430TMC3    O1 6421   2.472   1.814  16.866  0.3066 -0.4299 -0.3634
  430TMC3    O2 6422   1.994   2.104  16.716  0.1480  0.0773  0.4104
  431MPD2     C 6423   2.646   2.624  12.462 -0.8914 -0.0671 -0.7443
  431MPD2    C1 6424   2.732   2.607  12.357  0.3583 -0.3563 -0.1512
  431MPD2    C2 6425   2.706   2.509  12.264  0.0229 -0.4729  0.6598
  431MPD2    C3 6426   2.610   2.416  12.285 -0.0968  0.5928  0.5520
  431MPD2    C4 6427   2.533   2.423  12.399  0.0887 -0.2238  0.1343
  431MPD2    C5 6428   2.555   2.521  12.484  0.6034 -0.3938 -0.0430
  431MPD2     H 6429   2.774   2.493  12.181  0.8414  0.4164  1.1504
  431MPD2    H1 6430   2.459   2.344  12.412 -1.9920  1.1462 -3.4100
  431MPD2    H2 6431   2.658   2.699  12.539 -1.9094 -0.1952 -0.4635
  431MPD2    H3 6432   2.486   2.521  12.567  2.0878  2.7313  1.2085
  431MPD2     N 6433   2.590   2.298  12.210  0.1322  0.0424 -0.2980
  431MPD2    H5 6434   2.527   2.227  12.247  0.0925  0.9369  1.3606
  431MPD2    N1 6435   2.839   2.692  12.337 -0.0218  0.2493  0.8130
  431MPD2    H7 6436   2.887   2.691  12.248 -0.6706 -1.4269  0.4826
  432TMC3    C1 6437   2.640   2.129  12.072  0.1940 -0.8240  0.5951
  432TMC3    C2 6438   2.683   2.091  11.953  0.8296 -0.4955 -0.0086
  432TMC3    C3 6439   2.681   1.958  11.917  0.1159 -0.2149 -0.3852
  432TMC3    C4 6440   2.580   2.042  12.165  0.2105  0.3354 -0.5195
  432TMC3    C5 6441   2.555   1.909  12.113  0.0585 -0.5702 -0.6958
  432TMC3    C6 6442   2.614   1.867  11.991  0.1906 -0.2669 -0.5153
  432TMC3     C 6443   2.667   2.262  12.106 -0.5887  0.2644  0.1932
  432TMC3     O 6444   2.735   2.329  12.028  0.3844 -0.0180  0.3471
  432TMC3     H 6445   2.710   2.165  11.878  1.9468 -1.3882 -0.4894
  432TMC3    H1 6446   2.562   2.075  12.267 -1.1227 -2.7859  0.2690
  432TMC3    H2 6447   2.603   1.766  11.953 -0.8607 -0.3732  0.0674
  432TMC3    C7 6448   2.516   1.809  12.203  0.3264 -0.0270 -0.8500
  432TMC3    C8 6449   2.706   1.921  11.782  0.6393  0.3889 -0.3732
  432TMC3    O1 6450   2.527   1.696  12.159  0.0491 -0.3234  0.0814
  432TMC3    O2 6451   2.647   1.819  11.744  0.2507  0.5558 -0.2136
  433MPD2     C 6452   2.114   1.452  10.823 -0.0521  0.2630  0.4447
  433MPD2    C1 6453   1.998   1.376  10.819  0.0913 -0.3520  0.3065
  433MPD2    C2 6454   1.929   1.348  10.936 -0.5387  0.4610 -0.0679
  433MPD2    C3 6455   1.974   1.384  11.065 -0.0982 -0.3981  0.0998
  433MPD2    C4 6456   2.093   1.458  11.066  0.5157 -0.3555 -0.4010
  433MPD2    C5 6457   2.153   1.497  10.947 -0.5154 -0.1775 -0.1002
  433MPD2     H 6458   1.838   1.289  10.935  1.0478 -1.9696  0.3863
  433MPD2    H1 6459   2.134   1.509  11.153 -0.1820 -1.2045  0.4159
  433MPD2    H2 6460   2.174   1.464  10.733  1.3696  0.5798  1.4384
  433MPD2    H3 6461   2.247   1.549  10.964 -0.4654 -0.1442 -0.4892
  433MPD2     N 6462   1.904   1.346  11.183  0.2218  0.1517  0.3873
  433MPD2    H5 6463   1.814   1.301  11.171  1.1538 -1.2348 -1.2003
  433MPD2    N1 6464   1.959   1.331  10.686 -0.3980  0.0838  0.1174
  433MPD2    H7 6465   2.031   1.339  10.615 -0.7199 -1.7071 -0.4007
  434TMC3    C1 6466   1.880   1.177  10.542  0.4734 -0.1308 -0.1075
  434TMC3    C2 6467   1.887   1.045  10.563  0.3098  0.5118 -0.3389
  434TMC3    C3 6468   1.958   0.964  10.480 -0.3966  0.2044  0.6984
  434TMC3    C4 6469   1.935   1.226  10.430 -0.1393  0.5091 -0.6544
  434TMC3    C5 6470   1.986   1.144  10.331 -0.4355  0.3702 -0.7016
  434TMC3    C6 6471   2.014   1.013  10.363  0.0121 -0.3564  0.3199
  434TMC3     C 6472   1.849   1.262  10.655 -0.4475  0.0122 -0.4985
  434TMC3     O 6473   1.757   1.215  10.724  0.3029 -0.2249  0.2726
  434TMC3     H 6474   1.824   0.996  10.637 -0.6746  2.8323  0.3324
  434TMC3    H1 6475   1.911   1.327  10.399 -1.8809  0.5453  0.8454
  434TMC3    H2 6476   2.063   0.947  10.293 -1.0875 -0.9184  0.0736
  434TMC3    C7 6477   1.923   1.180  10.206 -0.6576 -0.1431 -0.9502
  434TMC3    C8 6478   2.044   0.876  10.560  0.1820  0.3499 -1.0720
  434TMC3    O1 6479   1.901   1.299  10.177  0.0132  0.5593 -0.2607
  434TMC3    O2 6480   2.017   0.890  10.678  0.3500  0.0441 -0.1538
  435MPD2     C 6481   3.772   0.656  15.563  0.2446  0.3678 -0.2186
  435MPD2    C1 6482   3.736   0.618  15.691 -0.0043 -0.3159  0.2159
  435MPD2    C2 6483   3.839   0.551  15.762 -0.1330  0.1030 -0.3904
  435MPD2    C3 6484   3.966   0.530  15.712 -0.1798 -0.0236 -0.3292
  435MPD2    C4 6485   3.995   0.568  15.583 -0.1694  0.4592  0.6864
  435MPD2    C5 6486   3.900   0.635  15.517  0.0636 -0.7461 -0.2841
  435MPD2     H 6487   3.826   0.530  15.867  1.5984  0.9752 -0.0028
  435MPD2    H1 6488   4.090   0.554  15.533  1.6662 -1.2887  4.7016
  435MPD2    H2 6489   3.700   0.700  15.495  1.8550  1.6604 -1.0990
  435MPD2    H3 6490   3.921   0.670  15.417 -0.8744  1.6120  0.3288
  435MPD2     N 6491   4.055   0.454  15.795 -0.1747  0.1875  0.6467
  435MPD2    H5 6492   4.029   0.444  15.893 -0.7057 -1.8494  0.3033
  435MPD2    N1 6493   3.605   0.633  15.745 -0.5229 -0.4665  0.2197
  435MPD2    H7 6494   3.590   0.567  15.821  2.4570  0.5203  1.6748
  436TMC3    C1 6495   3.237   0.592  15.917 -0.2696  0.3850 -0.3284
  436TMC3    C2 6496   3.358   0.620  15.869 -0.3717 -0.0428 -0.8183
  436TMC3    C3 6497   3.367   0.642  15.739  0.2035 -0.1844  0.1933
  436TMC3    C4 6498   3.125   0.581  15.843 -0.0849 -1.1054 -0.2049
  436TMC3    C5 6499   3.133   0.598  15.709  0.1039  0.3900  0.5595
  436TMC3    C6 6500   3.259   0.629  15.654 -0.0815  0.2893  0.7051
  436TMC3     C 6501   3.228   0.568  16.060 -0.2777  0.8403 -0.0189
  436TMC3     O 6502   3.329   0.522  16.118 -0.0398 -0.4534  0.1650
  436TMC3     H 6503   3.444   0.644  15.931 -1.1090 -0.4221  0.3473
  436TMC3    H1 6504   3.028   0.567  15.888 -0.6874  1.0096 -0.8949
  436TMC3    H2 6505   3.272   0.640  15.547 -4.0844 -1.8266  0.0189
  436TMC3    C7 6506   3.013   0.567  15.628  0.3996 -0.1246 -0.1506
  436TMC3    C8 6507   3.495   0.688  15.683  0.8606 -0.2688  0.4395
  436TMC3    O1 6508   2.918   0.533  15.698 -0.1096  0.4336  0.2156
  436TMC3    O2 6509   3.502   0.766  15.585 -0.0452  0.7408 -0.0854
  437TMC3    C1 6510   2.565   3.139  12.355  0.7259  0.4641  0.2961
  437TMC3    C2 6511   2.442   3.191  12.381 -0.0739  0.0554 -0.2522
  437TMC3    C3 6512   2.413   3.304  12.304 -0.1954 -0.0526  0.0706
  437TMC3    C4 6513   2.648   3.182  12.260 -0.0727  0.3301  0.3300
  437TMC3    C5 6514   2.625   3.297  12.197  0.2158  0.3550  0.1898
  437TMC3    C6 6515   2.504   3.361  12.213 -0.4956  0.1899 -0.5257
  437TMC3     C 6516   2.623   3.074  12.467  0.3359  0.7168  0.0839
  437TMC3     O 6517   2.731   3.124  12.507  0.2292  0.2837  0.0730
  437TMC3     H 6518   2.378   3.155  12.461  1.3911 -0.6383  0.6208
  437TMC3    H1 6519   2.744   3.131  12.255  0.3381  1.0353  1.0378
  437TMC3    H2 6520   2.481   3.450  12.156 -0.3177  0.7410  0.2508
  437TMC3    C7 6521   2.727   3.368  12.122  0.2095  0.4360 -0.0734
  437TMC3    C8 6522   2.299   3.373  12.358 -0.2515 -0.2056  0.5762
  437TMC3    O1 6523   2.701   3.442  12.028 -0.1688 -0.3579 -0.1621
  437TMC3    O2 6524   2.230   3.319  12.443  0.5806 -0.0825  0.2544
  438MPD2     C 6525   0.050   3.531  16.394  0.6414 -0.0770  0.2092
  438MPD2    C1 6526   0.152   3.487  16.477  0.1232 -0.7511  0.3298
  438MPD2    C2 6527   0.136   3.489  16.605 -0.8143  0.9147  0.0286
  438MPD2    C3 6528   0.022   3.537  16.667  0.3766  0.2238  0.2344
  438MPD2    C4 6529   4.655   3.597  16.586  0.7158 -0.5167  0.1849
  438MPD2    C5 6530   4.669   3.597  16.450 -0.3752 -0.7268  0.1595
  438MPD2     H 6531   0.216   3.443  16.662 -1.7193 -0.0418  0.5167
  438MPD2    H1 6532   4.566   3.647  16.622  0.8174  0.1558 -0.5021
  438MPD2    H2 6533   0.067   3.544  16.288 -1.3434  0.1938 -0.0805
  438MPD2    H3 6534   4.601   3.646  16.382  0.7270  1.7133  0.8278
  438MPD2     N 6535   0.004   3.517  16.804 -0.4382 -0.3416 -0.8570
  438MPD2    H5 6536   4.647   3.568  16.839 -2.1914 -1.5414 -3.1002
  438MPD2    N1 6537   0.261   3.415  16.432 -0.5112  0.1773 -0.4026
  438MPD2    H7 6538   0.330   3.388  16.501 -1.9912 -3.8817 -0.4492
  439TMC3    C1 6539   0.407   3.312  16.307 -0.2690  0.2569 -0.1258
  439TMC3    C2 6540   0.493   3.332  16.205  0.1801 -0.4094 -0.2480
  439TMC3    C3 6541   0.587   3.236  16.184  0.0034 -0.0151 -0.2570
  439TMC3    C4 6542   0.426   3.212  16.401 -0.2266  0.1845 -0.9884
  439TMC3    C5 6543   0.522   3.123  16.377 -0.0290  0.1722 -0.2075
  439TMC3    C6 6544   0.593   3.125  16.263 -0.5017 -0.2749  0.4803
  439TMC3     C 6545   0.293   3.396  16.303  0.0731  0.2258 -0.1147
  439TMC3     O 6546   0.267   3.460  16.196 -0.6193 -0.1202 -0.1677
  439TMC3     H 6547   0.494   3.429  16.156 -2.5794  0.9010  2.3237
  439TMC3    H1 6548   0.369   3.203  16.493 -1.9712  0.5041 -2.0320
  439TMC3    H2 6549   0.672   3.058  16.235 -0.4749  0.6916 -1.6996
  439TMC3    C7 6550   0.587   3.049  16.489  0.0493  0.0724 -0.3813
  439TMC3    C8 6551   0.654   3.228  16.058  0.1009 -0.0838  0.0800
  439TMC3    O1 6552   0.685   2.983  16.458 -0.2818  0.3521  0.2117
  439TMC3    O2 6553   0.758   3.161  16.053 -0.1381 -0.0426  0.4331
  440MPD2     C 6554   3.807   3.795  14.399  0.4541 -0.5738 -0.6911
  440MPD2    C1 6555   3.815   3.848  14.521  0.2259 -0.5486  0.2945
  440MPD2    C2 6556   3.891   3.793  14.618  0.7185  0.1204 -0.2924
  440MPD2    C3 6557   3.959   3.676  14.588 -0.0754  0.3430 -0.5209
  440MPD2    C4 6558   3.956   3.620  14.461 -0.4107 -0.2416 -0.7042
  440MPD2    C5 6559   3.863   3.674  14.376 -0.0517  0.4993 -0.1820
  440MPD2     H 6560   3.891   3.843  14.713  2.0796  4.5882 -2.6692
  440MPD2    H1 6561   4.003   3.526  14.434 -0.1581 -0.5807  0.8920
  440MPD2    H2 6562   3.741   3.843  14.328  1.1684 -0.8614 -1.5616
  440MPD2    H3 6563   3.863   3.640  14.273  2.7385  1.7811 -0.6132
  440MPD2     N 6564   4.050   3.619  14.689  0.4359  0.1995 -0.3168
  440MPD2    H5 6565   4.104   3.538  14.660 -0.6603 -0.0326 -1.6889
  440MPD2    N1 6566   3.755   3.977  14.534 -0.1215  0.0906 -0.0048
  440MPD2    H7 6567   3.791   4.039  14.606 -2.3838  0.7364  0.5846
  441TMC3    C1 6568   4.145   3.573  14.897 -0.4039 -0.2429 -0.0292
  441TMC3    C2 6569   4.263   3.617  14.851  0.8422 -0.0444  0.0839
  441TMC3    C3 6570   4.357   3.667  14.929  0.4759 -0.3360 -0.0107
  441TMC3    C4 6571   4.126   3.572  15.028  0.4513 -0.2756  0.9277
  441TMC3    C5 6572   4.223   3.618  15.112  0.3869  0.3381  0.2421
  441TMC3    C6 6573   4.339   3.670  15.063  0.1436 -0.8978 -0.2599
  441TMC3     C 6574   4.043   3.641  14.828 -0.0772 -0.2614 -0.3673
  441TMC3     O 6575   3.985   3.724  14.894 -0.4789 -0.1939 -0.1096
  441TMC3     H 6576   4.279   3.625  14.744  0.6874  0.1044  0.0719
  441TMC3    H1 6577   4.037   3.522  15.065  0.3390 -1.0195 -0.3585
  441TMC3    H2 6578   4.409   3.711  15.136 -0.3671  0.8158 -0.7307
  441TMC3    C7 6579   4.213   3.583  15.257 -0.4556  0.4765  0.2491
  441TMC3    C8 6580   4.407   3.789  14.876 -0.0618 -0.3215  0.2438
  441TMC3    O1 6581   4.102   3.543  15.292 -1.0095  0.0734 -0.1017
  441TMC3    O2 6582   4.459   3.782  14.763 -0.4855 -0.3198  0.1724
  442MPD2     C 6583   1.982   4.399  16.478  0.3043 -0.7137  0.2412
  442MPD2    C1 6584   1.879   4.381  16.387 -0.3708  0.1306 -0.3508
  442MPD2    C2 6585   1.875   4.267  16.314  1.0091  0.2743  0.1039
  442MPD2    C3 6586   1.962   4.170  16.339  0.7309  0.6105  0.3710
  442MPD2    C4 6587   2.062   4.191  16.426  0.3367 -0.0914  0.1947
  442MPD2    C5 6588   2.076   4.304  16.497  0.0174 -0.1611 -0.0099
  442MPD2     H 6589   1.795   4.249  16.243 -0.2591 -2.8439  2.3038
  442MPD2    H1 6590   2.132   4.109  16.438  0.8259  0.6547  2.3944
  442MPD2    H2 6591   1.994   4.486  16.541 -0.3334 -0.9864  0.7345
  442MPD2    H3 6592   2.155   4.321  16.569  0.2169 -1.8495  0.1527
  442MPD2     N 6593   1.957   4.045  16.271 -0.8503 -0.4256  0.0767
  442MPD2    H5 6594   2.034   3.982  16.290 -0.8021 -0.7750 -1.2378
  442MPD2    N1 6595   1.770   4.478  16.376 -0.8153  0.0070  0.1349
  442MPD2    H7 6596   1.695   4.452  16.313 -1.1608  0.7744  0.2359
  443TMC3    C1 6597   1.640   4.675  16.413 -0.0223 -0.1597 -0.1008
  443TMC3    C2 6598   1.627   0.000  16.284  0.0078  0.7992 -0.0481
  443TMC3    C3 6599   1.559   0.119  16.263  0.4144  0.1811 -0.5155
  443TMC3    C4 6600   1.585   0.027  16.520  0.0699 -0.0108 -0.2674
  443TMC3    C5 6601   1.519   0.138  16.487  0.9784  0.6437  0.2467
  443TMC3    C6 6602   1.511   0.193  16.362  0.5376  0.0393 -0.1964
  443TMC3     C 6603   1.749   4.584  16.459  0.1923  0.5655  0.8531
  443TMC3     O 6604   1.811   4.625  16.565 -0.3396 -0.3856 -0.0123
  443TMC3     H 6605   1.672   4.671  16.201 -4.1740 -4.1060  0.8202
  443TMC3    H1 6606   1.588   4.717  16.623 -1.9159 -1.8493 -0.7997
  443TMC3    H2 6607   1.445   0.278  16.349  1.9631  1.1152 -0.4575
  443TMC3    C7 6608   1.418   0.187  16.579  1.0345 -0.1527 -0.3401
  443TMC3    C8 6609   1.507   0.148  16.135 -0.3095 -0.0476  0.3697
  443TMC3    O1 6610   1.404   0.307  16.585  0.7709  0.0130 -0.0372
  443TMC3    O2 6611   1.496   0.268  16.105  0.4413 -0.9048  0.3728
  444MPD2     C 6612   2.286   3.653  16.835  0.5643 -0.3203 -0.3807
  444MPD2    C1 6613   2.210   3.548  16.790  0.0278 -0.3534 -0.2562
  444MPD2    C2 6614   2.274   3.444  16.725 -0.6944  0.2072 -0.9201
  444MPD2    C3 6615   2.409   3.448  16.696  0.6707 -0.1443  0.3300
  444MPD2    C4 6616   2.481   3.559  16.752  0.7545  0.0744  0.4526
  444MPD2    C5 6617   2.421   3.662  16.813  0.2025 -0.7606 -1.0842
  444MPD2     H 6618   2.222   3.358  16.685 -1.7684  0.9348 -1.0889
  444MPD2    H1 6619   2.589   3.562  16.737  0.5140  1.7621 -0.9163
  444MPD2    H2 6620   2.243   3.739  16.886 -2.1431 -1.9467  0.1196
  444MPD2    H3 6621   2.473   3.746  16.857  0.2253 -2.7751  2.6909
  444MPD2     N 6622   2.463   3.345  16.622 -0.8110  0.2376  0.3084
  444MPD2    H5 6623   2.393   3.287  16.577  0.1456 -0.6208 -0.0795
  444MPD2    N1 6624   2.077   3.525  16.822 -0.2780 -0.1469 -0.1480
  444MPD2    H7 6625   2.036   3.441  16.783  0.9362  0.1271 -2.0268
  445TMC3    C1 6626   2.592   3.204  16.487 -0.6398 -0.8002  0.2563
  445TMC3    C2 6627   2.476   3.149  16.434 -0.9096 -0.5497  0.3932
  445TMC3    C3 6628   2.494   3.068  16.329 -0.7130  0.1998  0.3788
  445TMC3    C4 6629   2.714   3.151  16.471 -0.0046 -0.4393  0.1362
  445TMC3    C5 6630   2.718   3.050  16.380  0.6092 -0.2946  0.2651
  445TMC3    C6 6631   2.607   3.004  16.308  0.3821  0.6237  0.2033
  445TMC3     C 6632   2.585   3.322  16.574 -0.3564 -0.7070  0.0362
  445TMC3     O 6633   2.688   3.389  16.580  0.7712 -0.0043  0.0043
  445TMC3     H 6634   2.381   3.199  16.448 -0.5938 -0.0395  0.7522
  445TMC3    H1 6635   2.805   3.191  16.514 -0.5978  0.5708  0.4518
  445TMC3    H2 6636   2.616   2.945  16.218 -0.9473 -0.6140  0.8770
  445TMC3    C7 6637   2.845   3.022  16.324  0.1600 -0.2661  0.3010
  445TMC3    C8 6638   2.380   3.046  16.240 -0.5994  0.9978  0.1364
  445TMC3    O1 6639   2.924   3.113  16.337  0.0631  0.1104 -0.7733
  445TMC3    O2 6640   2.290   3.131  16.226  0.0042  0.0021 -0.3253
  446MPD2     C 6641   1.699   0.746  11.108 -0.3664 -0.2594 -0.0089
  446MPD2    C1 6642   1.705   0.779  10.976 -0.3190 -0.1778  0.1082
  446MPD2    C2 6643   1.786   0.883  10.937  0.2235  0.6220  0.3069
  446MPD2    C3 6644   1.884   0.933  11.022  0.5192 -0.3151  0.5527
  446MPD2    C4 6645   1.866   0.911  11.154 -0.6778 -0.0381 -0.1886
  446MPD2    C5 6646   1.778   0.811  11.195 -0.1013  0.5925  0.1844
  446MPD2     H 6647   1.789   0.906  10.831  0.0744 -0.1833  0.1217
  446MPD2    H1 6648   1.923   0.956  11.235  0.2564 -2.8546  0.7043
  446MPD2    H2 6649   1.633   0.666  11.139  0.9842 -1.3326  0.1142
  446MPD2    H3 6650   1.771   0.777  11.297 -0.3024 -0.6323 -0.2385
  446MPD2     N 6651   1.994   1.003  10.968  0.0143 -0.3043 -0.4062
  446MPD2    H5 6652   2.003   1.019  10.868 -1.2185 -1.0115 -0.6320
  446MPD2    N1 6653   1.623   0.710  10.885 -0.4227  0.3818 -1.0857
  446MPD2    H7 6654   1.599   0.755  10.797  0.1376  1.1726 -0.8315
  447TMC3    C1 6655   2.217   1.076  10.980  1.1310 -0.2261  0.6532
  447TMC3    C2 6656   2.211   1.120  10.848 -0.1168  0.7958  0.1317
  447TMC3    C3 6657   2.332   1.134  10.784 -0.1234  0.3267 -1.0110
  447TMC3    C4 6658   2.331   1.085  11.053 -0.0005  0.1849  0.7176
  447TMC3    C5 6659   2.445   1.106  10.979 -0.7549  0.3541  0.0635
  447TMC3    C6 6660   2.454   1.128  10.847 -0.1219  0.0002  1.1423
  447TMC3     C 6661   2.100   1.027  11.052  0.5240  0.1323 -0.2431
  447TMC3     O 6662   2.123   0.998  11.166  0.1826  0.4591 -0.0344
  447TMC3     H 6663   2.120   1.126  10.790  0.4198 -0.3285 -0.8254
  447TMC3    H1 6664   2.337   1.053  11.157 -1.3354 -0.9868  0.4261
  447TMC3    H2 6665   2.549   1.112  10.797  0.3008  0.8642  1.6850
  447TMC3    C7 6666   2.574   1.087  11.044 -0.2212  0.4458 -0.5828
  447TMC3    C8 6667   2.345   1.154  10.634 -0.1943 -0.0793 -0.5040
  447TMC3    O1 6668   2.668   1.043  10.980 -0.2376 -0.3143  0.1644
  447TMC3    O2 6669   2.255   1.210  10.576  0.0812  0.1839 -0.1330
  448TMC3    C1 6670   3.884   3.962  17.420 -0.6130  0.0005  0.4708
  448TMC3    C2 6671   4.000   4.011  17.351  1.2989 -0.2810  0.4937
  448TMC3    C3 6672   4.101   3.930  17.338  0.2103  0.0846 -0.4225
  448TMC3    C4 6673   3.895   3.841  17.480  0.5229  0.0801  0.5854
  448TMC3    C5 6674   4.003   3.764  17.469 -0.4458  0.4737  0.1715
  448TMC3    C6 6675   4.109   3.812  17.409 -0.3893  0.2012  0.4485
  448TMC3     C 6676   3.766   4.044  17.433 -0.3925  0.3021  0.9147
  448TMC3     O 6677   3.744   4.126  17.342  0.2497  0.1128  0.1699
  448TMC3     H 6678   4.000   4.106  17.297 -0.7587 -1.6285 -1.8633
  448TMC3    H1 6679   3.813   3.801  17.538 -0.1007  1.1590  0.4284
  448TMC3    H2 6680   4.196   3.749  17.406  0.7349  1.7540  0.5417
  448TMC3    C7 6681   4.009   3.647  17.548 -0.3068  0.1597 -0.1426
  448TMC3    C8 6682   4.204   3.942  17.241  0.7759 -0.2805 -0.2476
  448TMC3    O1 6683   3.905   3.579  17.558  0.2530 -0.3740  0.3419
  448TMC3    O2 6684   4.307   3.876  17.242 -0.1401  0.3561 -0.4493
  449MPD2     C 6685   1.697   3.261  13.549  0.5728  0.0888  0.3041
  449MPD2    C1 6686   1.572   3.276  13.503 -0.1259 -0.0246 -0.0772
  449MPD2    C2 6687   1.471   3.215  13.573  0.1589  0.5080  0.0691
  449MPD2    C3 6688   1.498   3.125  13.668 -0.0647 -0.5565  0.2799
  449MPD2    C4 6689   1.625   3.104  13.712  0.1528  0.2652 -0.5423
  449MPD2    C5 6690   1.730   3.174  13.647 -0.1843  0.0757 -0.2635
  449MPD2     H 6691   1.368   3.237  13.549  0.4764  0.1417 -1.6938
  449MPD2    H1 6692   1.652   3.022  13.777 -1.5248 -0.5869 -0.9213
  449MPD2    H2 6693   1.780   3.311  13.501 -0.2311  0.1864 -0.9754
  449MPD2    H3 6694   1.831   3.151  13.679  0.5280  2.3409 -0.8805
  449MPD2     N 6695   1.387   3.055  13.717 -0.3221  0.0367 -0.7061
  449MPD2    H5 6696   1.301   3.070  13.665  0.0232  0.6846 -1.0880
  449MPD2    N1 6697   1.540   3.364  13.397  0.2042 -0.6533  0.4449
  449MPD2    H7 6698   1.442   3.362  13.371  0.9070 -1.2812 -2.1648
  450TMC3    C1 6699   1.554   3.502  13.217 -0.2389  0.3258  0.5217
  450TMC3    C2 6700   1.589   3.420  13.114 -0.0428  0.0953  0.1223
  450TMC3    C3 6701   1.490   3.377  13.025 -0.0498  0.6801  0.7737
  450TMC3    C4 6702   1.419   3.523  13.239  0.4048 -0.1930  0.2048
  450TMC3    C5 6703   1.323   3.485  13.147 -0.3744  0.6478  0.0648
  450TMC3    C6 6704   1.361   3.412  13.041  0.0409 -0.7316 -0.3440
  450TMC3     C 6705   1.625   3.461  13.337 -0.2802  0.7472  0.5045
  450TMC3     O 6706   1.748   3.483  13.343 -0.6029 -0.1948 -0.1897
  450TMC3     H 6707   1.695   3.407  13.098 -0.2889 -2.8341  0.9936
  450TMC3    H1 6708   1.389   3.561  13.336 -0.0375  0.5453 -0.2190
  450TMC3    H2 6709   1.289   3.369  12.973  0.3986  0.7328 -1.6354
  450TMC3    C7 6710   1.206   3.438  13.207 -0.1149  0.6808 -0.3250
  450TMC3    C8 6711   1.541   3.360  12.888  0.2438 -0.0564 -0.8148
  450TMC3    O1 6712   1.201   3.315  13.208  0.3456 -0.2628 -0.1657
  450TMC3    O2 6713   1.456   3.389  12.806 -0.0490 -0.1085  0.0124
  451MPD2     C 6714   3.091   2.042   1.355  0.2287  0.1067  0.3126
  451MPD2    C1 6715   2.962   2.004   1.336 -0.2342 -0.1822  0.4043
  451MPD2    C2 6716   2.925   1.877   1.371 -0.7596 -0.1691  0.1759
  451MPD2    C3 6717   3.018   1.787   1.434  0.2565  0.3636  0.2145
  451MPD2    C4 6718   3.149   1.827   1.444 -0.3391 -0.3683  0.3050
  451MPD2    C5 6719   3.185   1.950   1.399  0.1512 -0.1775  0.1793
  451MPD2     H 6720   2.819   1.857   1.359 -0.7447 -0.0981 -0.0740
  451MPD2    H1 6721   3.217   1.760   1.496  1.5410  0.4767 -1.0892
  451MPD2    H2 6722   3.119   2.142   1.323  3.1756 -0.6600  0.5159
  451MPD2    H3 6723   3.289   1.979   1.388  0.0706  0.0854  0.1244
  451MPD2     N 6724   2.984   1.650   1.451  0.2645 -0.3874  0.3503
  451MPD2    H5 6725   3.054   1.580   1.474 -0.1895 -1.0986 -0.4402
  451MPD2    N1 6726   2.873   2.100   1.288  1.2202  0.4916 -0.8943
  451MPD2    H7 6727   2.907   2.195   1.294  0.6954  0.6402 -0.2908
  452TMC3    C1 6728   2.859   1.458   1.460  0.0508 -0.1285  0.3672
  452TMC3    C2 6729   2.738   1.400   1.506  0.2711 -0.1912 -0.1233
  452TMC3    C3 6730   2.681   1.297   1.438  0.8982 -0.7301 -0.2888
  452TMC3    C4 6731   2.896   1.429   1.330 -0.0230 -0.1769 -0.0465
  452TMC3    C5 6732   2.812   1.355   1.249 -0.3576 -0.0627 -0.6343
  452TMC3    C6 6733   2.709   1.283   1.302  0.0320 -0.5875  0.0697
  452TMC3     C 6734   2.855   1.603   1.468  0.2632  0.2866 -0.6590
  452TMC3     O 6735   2.744   1.659   1.482 -0.3891 -0.0292  0.2308
  452TMC3     H 6736   2.702   1.430   1.604 -0.3962 -0.1511 -0.3864
  452TMC3    H1 6737   2.981   1.478   1.283 -0.3205  0.4530  0.0720
  452TMC3    H2 6738   2.656   1.206   1.247 -2.4286  0.0741  1.4724
  452TMC3    C7 6739   2.797   1.404   1.113 -0.5236 -0.6620 -0.1129
  452TMC3    C8 6740   2.614   1.188   1.511  0.1496 -0.0332  0.3340
  452TMC3    O1 6741   2.899   1.451   1.070 -0.0408 -0.0121 -0.3171
  452TMC3    O2 6742   2.632   1.167   1.627  0.2283  0.5550 -0.2798
  453TMC3    C1 6743   3.812   4.103  11.883 -0.7532  0.6397  1.1313
  453TMC3    C2 6744   3.726   4.007  11.928  0.5933  0.4982 -0.6642
  453TMC3    C3 6745   3.631   3.960  11.835 -0.6677  0.6053 -0.0074
  453TMC3    C4 6746   3.809   4.146  11.756 -0.2240 -0.2386  0.0177
  453TMC3    C5 6747   3.707   4.094  11.677 -0.3029 -0.0569 -1.0731
  453TMC3    C6 6748   3.609   4.004  11.707 -0.1924  0.7291  0.4686
  453TMC3     C 6749   3.931   4.140  11.959  0.5721 -0.3197  0.1510
  453TMC3     O 6750   4.008   4.218  11.905  0.1695 -0.7624  0.5114
  453TMC3     H 6751   3.733   3.958  12.024  1.2480  0.0852 -0.9199
  453TMC3    H1 6752   3.867   4.229  11.716 -1.2802  0.9496  0.9400
  453TMC3    H2 6753   3.529   3.972  11.641  0.6700  0.0804 -0.2531
  453TMC3    C7 6754   3.700   4.142  11.539 -1.0406 -0.7452  0.2399
  453TMC3    C8 6755   3.586   3.822  11.877 -0.2358 -0.2684  0.4375
  453TMC3    O1 6756   3.684   4.058  11.455  0.1726  0.0071 -0.7193
  453TMC3    O2 6757   3.640   3.768  11.975 -0.0505 -0.5384  0.4295
  454MPD2     C 6758   3.183   3.258  15.943  0.3731  0.2247 -0.1351
  454MPD2    C1 6759   3.087   3.357  15.927  0.1630  0.3694 -0.4449
  454MPD2    C2 6760   3.063   3.450  16.028  0.6015 -0.0404  0.2969
  454MPD2    C3 6761   3.098   3.421  16.157 -0.0355 -0.3009  0.2569
  454MPD2    C4 6762   3.180   3.313  16.179 -0.5067 -0.4052 -0.2629
  454MPD2    C5 6763   3.221   3.239  16.071 -1.0850  0.2030  0.1820
  454MPD2     H 6764   3.002   3.534  15.996  1.5620  1.0428  1.3250
  454MPD2    H1 6765   3.214   3.281  16.277 -1.7999 -0.8050  0.0426
  454MPD2    H2 6766   3.215   3.185  15.870  1.1564 -0.7608  1.1897
  454MPD2    H3 6767   3.279   3.149  16.088 -0.0210  0.6848 -0.8847
  454MPD2     N 6768   3.035   3.486  16.268  0.2198 -0.4243  0.5627
  454MPD2    H5 6769   3.051   3.449  16.362 -0.7917  0.8106  1.2221
  454MPD2    N1 6770   3.018   3.386  15.809 -0.5283 -0.0619  0.6420
  454MPD2    H7 6771   2.971   3.475  15.792 -2.8915 -1.1573  1.4069
  455TMC3    C1 6772   2.827   3.537  16.319  0.0622 -0.4130 -0.3957
  455TMC3    C2 6773   2.738   3.635  16.341 -1.0168 -0.6424  0.8413
  455TMC3    C3 6774   2.606   3.623  16.299  0.7926 -0.1740 -0.1456
  455TMC3    C4 6775   2.791   3.418  16.265 -0.2887  0.6135  0.2977
  455TMC3    C5 6776   2.657   3.401  16.233  0.2414 -0.3393 -0.0837
  455TMC3    C6 6777   2.564   3.503  16.248 -0.2037  0.0821  0.4828
  455TMC3     C 6778   2.940   3.582  16.254  0.3129  0.4475  0.8074
  455TMC3     O 6779   2.921   3.666  16.163  0.1087  0.4735  0.2510
  455TMC3     H 6780   2.775   3.733  16.372  0.3164 -0.8877  0.0165
  455TMC3    H1 6781   2.864   3.338  16.262 -0.4888  0.4269  0.4296
  455TMC3    H2 6782   2.468   3.499  16.198 -1.4067 -0.4444  2.8441
  455TMC3    C7 6783   2.623   3.311  16.132  0.2109  0.4153 -0.2999
  455TMC3    C8 6784   2.508   3.704  16.368 -0.4905  0.4851 -0.3923
  455TMC3    O1 6785   2.504   3.305  16.105  0.5825 -0.4646 -0.0531
  455TMC3    O2 6786   2.554   3.805  16.421  0.6120  0.1309  0.5440
  456MPD2     C 6787   0.306   3.892  15.954  0.1235 -0.3857 -0.0943
  456MPD2    C1 6788   0.389   3.823  16.049  0.6225  0.3859 -0.4469
  456MPD2    C2 6789   0.361   3.820  16.186  0.2623 -0.5630 -0.3198
  456MPD2    C3 6790   0.243   3.878  16.233  0.0311  0.2548  0.2249
  456MPD2    C4 6791   0.154   3.942  16.138  0.4053  0.4652 -0.5133
  456MPD2    C5 6792   0.186   3.939  16.004  0.4307  0.2219 -0.4186
  456MPD2     H 6793   0.436   3.771  16.247 -0.7588  0.4679  1.7838
  456MPD2    H1 6794   0.055   3.979  16.165  0.4226 -0.5941  1.0004
  456MPD2    H2 6795   0.328   3.895  15.848  1.4564  1.6478  0.2421
  456MPD2    H3 6796   0.117   3.990  15.938 -0.3209 -0.8475 -0.4589
  456MPD2     N 6797   0.217   3.858  16.369  0.4137  0.4163 -0.3207
  456MPD2    H5 6798   0.294   3.825  16.427  0.5398  0.5799 -0.3919
  456MPD2    N1 6799   0.511   3.791  16.002  1.1653 -0.2717 -0.4368
  456MPD2    H7 6800   0.523   3.819  15.905 -0.4676  2.2012  0.0857
  457TMC3    C1 6801   0.104   3.890  16.578  0.2767 -0.3408 -0.2374
  457TMC3    C2 6802   0.000   3.933  16.654  0.4236 -0.2171  0.0028
  457TMC3    C3 6803   0.007   3.910  16.788  0.1381  0.5066  0.1390
  457TMC3    C4 6804   0.215   3.826  16.638 -0.2978  0.1696  0.0408
  457TMC3    C5 6805   0.211   3.814  16.775  0.2331  0.4733 -0.6937
  457TMC3    C6 6806   0.107   3.853  16.856  0.3461 -0.0793 -0.4369
  457TMC3     C 6807   0.098   3.896  16.432  0.6369  0.4190 -0.2123
  457TMC3     O 6808   4.723   3.932  16.377 -0.2531  0.2677 -0.5708
  457TMC3     H 6809   4.647   3.984  16.597 -0.8689 -2.2045 -0.0525
  457TMC3    H1 6810   0.292   3.775  16.581 -0.5072 -2.3615  2.0416
  457TMC3    H2 6811   0.111   3.863  16.964  2.2022  0.5442 -0.5495
  457TMC3    C7 6812   0.327   3.761  16.849 -0.1728  0.3663 -0.1916
  457TMC3    C8 6813   4.620   3.943  16.878 -0.0905 -0.2080 -0.0470
  457TMC3    O1 6814   0.381   3.667  16.794  0.2836 -0.2906  0.2033
  457TMC3    O2 6815   4.609   3.891  16.988  0.6758  0.2792  0.6200
  458MPD2     C 6816   3.243   3.454  12.084 -0.2300  0.2679  0.7869
  458MPD2    C1 6817   3.209   3.410  12.213  0.0415 -0.1997  0.2038
  458MPD2    C2 6818   3.072   3.376  12.247 -0.1301  1.2707 -0.1830
  458MPD2    C3 6819   2.979   3.390  12.144  0.2265  0.3549  0.7676
  458MPD2    C4 6820   3.007   3.436  12.018  0.2702  0.4287  0.7500
  458MPD2    C5 6821   3.138   3.472  11.994 -0.1792  0.0470 -0.1803
  458MPD2     H 6822   3.043   3.351  12.349  1.4075 -0.2396 -0.1112
  458MPD2    H1 6823   2.937   3.443  11.936 -0.3446  1.9040  1.4045
  458MPD2    H2 6824   3.343   3.453  12.042 -0.5233 -0.5494  0.1085
  458MPD2    H3 6825   3.161   3.510  11.895  0.8013  3.0230  1.1926
  458MPD2     N 6826   2.850   3.343  12.180  0.4087 -0.2547  0.6812
  458MPD2    H5 6827   2.844   3.292  12.267 -0.3377 -2.0854 -0.4460
  458MPD2    N1 6828   3.318   3.393  12.305 -0.1097 -0.0671 -0.0747
  458MPD2    H7 6829   3.406   3.430  12.271 -0.3727  0.0709 -0.6158
  459TMC3    C1 6830   3.406   3.347  12.520  0.1072  0.1077 -0.2506
  459TMC3    C2 6831   3.509   3.428  12.482  0.1117  0.2797  0.1350
  459TMC3    C3 6832   3.605   3.457  12.586 -0.4056 -0.5024  0.4681
  459TMC3    C4 6833   3.390   3.300  12.650 -0.2890 -0.5153 -0.7460
  459TMC3    C5 6834   3.487   3.328  12.745 -0.0639  0.6330  0.4565
  459TMC3    C6 6835   3.590   3.417  12.714  0.3289  0.7308 -0.7014
  459TMC3     C 6836   3.306   3.322  12.420  0.0191 -0.2403  0.1614
  459TMC3     O 6837   3.209   3.267  12.465  0.1567 -0.6588 -0.2630
  459TMC3     H 6838   3.524   3.469  12.382  1.0021  0.2051  0.2363
  459TMC3    H1 6839   3.305   3.233  12.661 -0.0346 -0.7465 -0.1690
  459TMC3    H2 6840   3.672   3.432  12.784  1.6135 -1.6531 -1.7259
  459TMC3    C7 6841   3.481   3.264  12.874 -0.0575  0.0214 -0.2181
  459TMC3    C8 6842   3.734   3.523  12.558  0.6124  0.2058  0.3756
  459TMC3    O1 6843   3.391   3.181  12.886  0.0363 -0.1499  0.5738
  459TMC3    O2 6844   3.801   3.574  12.647 -0.1139 -0.1964 -0.9672
  460MPD2     C 6845   2.544   0.972  10.383  0.0367 -0.6012 -0.0496
  460MPD2    C1 6846   2.456   1.065  10.430 -0.6873  0.0118 -0.6884
  460MPD2    C2 6847   2.373   1.128  10.334  0.0935 -0.4131 -0.5123
  460MPD2    C3 6848   2.372   1.098  10.199  0.1467 -0.0655 -0.0149
  460MPD2    C4 6849   2.464   1.000  10.157  0.2787 -0.3274 -0.1014
  460MPD2    C5 6850   2.550   0.944  10.249 -0.3290  0.2057  0.1493
  460MPD2     H 6851   2.295   1.197  10.362  0.8718  0.1345  0.3270
  460MPD2    H1 6852   2.463   0.953  10.060  2.7092 -1.1153  0.2431
  460MPD2    H2 6853   2.609   0.914  10.448 -0.2797  0.3760  1.1434
  460MPD2    H3 6854   2.625   0.874  10.214 -1.9249 -0.5288 -1.7445
  460MPD2     N 6855   2.267   1.152  10.113 -0.1727  1.1266  0.3930
  460MPD2    H5 6856   2.224   1.236  10.150 -0.0408  1.6450 -0.6179
  460MPD2    N1 6857   2.444   1.080  10.569 -0.5048 -0.1164  0.3619
  460MPD2    H7 6858   2.509   1.021  10.620 -0.7751 -1.0489 -0.3623
  461TMC3    C1 6859   2.119   1.156   9.928  0.4118  0.1237  0.1692
  461TMC3    C2 6860   2.045   1.096   9.833  1.0290 -0.1823  0.2549
  461TMC3    C3 6861   1.953   1.161   9.754  0.2216  0.6777  0.0214
  461TMC3    C4 6862   2.117   1.290   9.930 -0.7432 -0.7541 -0.3588
  461TMC3    C5 6863   2.033   1.357   9.844 -0.0463 -0.1040  0.1408
  461TMC3    C6 6864   1.944   1.296   9.759  0.2570  0.5878 -0.0030
  461TMC3     C 6865   2.212   1.087  10.007 -0.3239 -0.0808 -0.9824
  461TMC3     O 6866   2.241   0.977   9.965 -0.2544 -0.0983  0.2647
  461TMC3     H 6867   2.053   0.988   9.832  1.5735 -0.1412 -0.1059
  461TMC3    H1 6868   2.178   1.345  10.001 -0.7068 -1.6722  0.3227
  461TMC3    H2 6869   1.871   1.351   9.700  0.9239 -0.2531 -1.6279
  461TMC3    C7 6870   2.019   1.497   9.863  1.0266 -0.4489 -0.6468
  461TMC3    C8 6871   1.866   1.099   9.657 -0.1253  0.0532  0.3910
  461TMC3    O1 6872   1.982   1.548   9.758 -0.1803 -0.0871 -0.0723
  461TMC3    O2 6873   1.826   1.173   9.568 -0.5275 -0.0813 -0.2947
  462TMC3    C1 6874   2.086   0.950   0.011 -0.6544 -0.6170  0.1831
  462TMC3    C2 6875   2.088   0.931  17.573 -0.8642 -0.6880 -0.0146
  462TMC3    C3 6876   2.044   0.809  17.528 -0.2373 -0.2208 -0.1245
  462TMC3    C4 6877   2.043   0.858   0.103  0.2450 -0.8885 -0.0003
  462TMC3    C5 6878   2.023   0.732   0.056 -0.0147  0.1882 -0.1340
  462TMC3    C6 6879   2.014   0.708  17.614 -0.3010  0.1742  0.6898
  462TMC3     C 6880   2.144   1.077   0.059  0.5499 -0.2059 -0.6432
  462TMC3     O 6881   2.141   1.170  17.670  0.1895  0.5993 -0.1066
  462TMC3     H 6882   2.124   1.012  17.510 -1.1854 -0.5785 -0.0571
  462TMC3    H1 6883   2.018   0.889   0.204 -0.7097 -1.8261  0.0565
  462TMC3    H2 6884   1.963   0.621  17.576 -0.4891  1.2062 -1.4313
  462TMC3    C7 6885   1.929   0.660   0.136 -0.1048  0.5535 -0.0148
  462TMC3    C8 6886   2.012   0.790  17.393  0.2604  0.5856 -0.3101
  462TMC3    O1 6887   1.825   0.630   0.072  0.0859 -0.1482 -0.3122
  462TMC3    O2 6888   1.965   0.893  17.339  0.1608  0.2803  0.2990
  463MPD2     C 6889   2.456   0.079   2.009 -0.6837  0.4142 -0.0259
  463MPD2    C1 6890   2.407   0.110   1.885  1.1504  0.4780 -0.2582
  463MPD2    C2 6891   2.470   0.216   1.817  0.3071 -0.5534 -0.4534
  463MPD2    C3 6892   2.570   0.287   1.865  0.1686 -0.2376 -0.4417
  463MPD2    C4 6893   2.619   0.248   1.990 -0.8579  0.1319  0.3681
  463MPD2    C5 6894   2.564   0.143   2.056 -0.2017  0.2584  0.5671
  463MPD2     H 6895   2.415   0.262   1.735 -0.8549 -0.4013  0.4246
  463MPD2    H1 6896   2.697   0.306   2.038 -0.6078 -0.1785  0.3381
  463MPD2    H2 6897   2.412   4.717   2.060 -1.9124  1.2479  0.3033
  463MPD2    H3 6898   2.605   0.122   2.154  0.1564  0.5407  0.4787
  463MPD2     N 6899   2.637   0.398   1.804 -0.2781 -0.5080  0.4747
  463MPD2    H5 6900   2.717   0.429   1.858  2.1853 -1.7753 -2.4608
  463MPD2    N1 6901   2.295   0.039   1.824 -0.7328 -0.1299 -0.0399
  463MPD2    H7 6902   2.286   0.043   1.723  2.0668 -3.2874 -0.4300
  464TMC3    C1 6903   2.113   4.619   1.795 -0.4022 -0.0176 -0.3423
  464TMC3    C2 6904   2.130   4.610   1.659 -0.0386 -0.1385  0.9938
  464TMC3    C3 6905   2.029   4.546   1.585 -0.4782  0.3701  0.6080
  464TMC3    C4 6906   1.993   4.581   1.852 -0.6314 -0.0877  0.3323
  464TMC3    C5 6907   1.907   4.514   1.774 -0.3446  0.0855  1.3296
  464TMC3    C6 6908   1.923   4.485   1.644  0.9587  0.5929  0.0173
  464TMC3     C 6909   2.211   4.677   1.888 -0.5251  0.6518 -0.0404
  464TMC3     O 6910   2.201   4.638   2.002  0.1741  0.1917  0.1144
  464TMC3     H 6911   2.228   4.631   1.617 -1.2084  2.3208 -0.5446
  464TMC3    H1 6912   1.979   4.582   1.959  2.8624 -2.9402  0.8383
  464TMC3    H2 6913   1.854   4.435   1.577  0.7484  0.0786  0.6213
  464TMC3    C7 6914   1.774   4.479   1.829 -0.0555 -0.2322  0.9705
  464TMC3    C8 6915   2.052   4.561   1.438 -0.0895 -0.3788  0.4703
  464TMC3    O1 6916   1.748   4.522   1.940 -0.2629  0.0076 -0.1463
  464TMC3    O2 6917   2.159   4.610   1.403 -0.3228  0.6487 -0.4525
  465MPD2     C 6918   3.828   2.994   0.255 -0.0862  0.1979  0.0080
  465MPD2    C1 6919   3.864   3.120   0.295  0.1680 -0.3784  0.9760
  465MPD2    C2 6920   3.800   3.228   0.239  0.4599 -0.1219  0.1560
  465MPD2    C3 6921   3.717   3.215   0.128 -0.5504  0.1104 -0.0676
  465MPD2    C4 6922   3.683   3.084   0.085  0.2743 -0.1363  0.1382
  465MPD2    C5 6923   3.742   2.985   0.151 -0.6148 -0.2375 -0.1174
  465MPD2     H 6924   3.821   3.325   0.283  0.0423  0.0707 -0.0736
  465MPD2    H1 6925   3.624   3.054  17.695  0.2726  3.8361 -1.2575
  465MPD2    H2 6926   3.856   2.899   0.300 -1.6104  0.1013  0.7554
  465MPD2    H3 6927   3.698   2.888   0.130 -1.7342  0.4605 -0.9818
  465MPD2     N 6928   3.655   3.329   0.058 -0.5666  0.0224  0.6181
  465MPD2    H5 6929   3.673   3.423   0.091  1.1158 -0.7457  1.8824
  465MPD2    N1 6930   3.946   3.143   0.409  0.6974 -0.1219  0.5708
  465MPD2    H7 6931   3.959   3.241   0.432  0.4860  0.3597 -1.3314
  466TMC3    C1 6932   3.449   3.655  17.667 -0.0291  0.7321 -0.3503
  466TMC3    C2 6933   3.448   3.693  17.537  0.1922 -0.0165 -0.3492
  466TMC3    C3 6934   3.487   3.610  17.443 -1.0724 -0.1527  0.0169
  466TMC3    C4 6935   3.479   3.523   0.006  0.7102  0.2029 -0.7018
  466TMC3    C5 6936   3.515   3.441  17.599 -0.6151 -0.0981 -0.0297
  466TMC3    C6 6937   3.525   3.488  17.471 -0.9900  0.1042  0.2801
  466TMC3     C 6938   3.536   3.736   0.054 -0.3755  0.3500 -0.3968
  466TMC3     O 6939   3.624   3.787  17.686  0.3060 -0.2397  0.0856
  466TMC3     H 6940   3.433   3.800  17.526 -2.2657 -0.2683  0.5076
  466TMC3    H1 6941   3.488   3.487   0.108  0.3378 -0.9451 -1.0715
  466TMC3    H2 6942   3.549   3.412  17.397 -0.0608  0.7761 -0.1006
  466TMC3    C7 6943   3.568   3.312  17.644 -0.7819 -0.8110 -0.4506
  466TMC3    C8 6944   3.507   3.659  17.310 -0.2730 -1.2109  0.4396
  466TMC3    O1 6945   3.575   3.223  17.561  0.3618  0.3608 -0.5625
  466TMC3    O2 6946   3.562   3.582  17.234 -0.1436 -0.3576 -0.0134
  467TMC3    C1 6947   0.278   2.334  13.636  0.4530 -0.5597 -0.7576
  467TMC3    C2 6948   0.311   2.325  13.506 -0.4766 -0.7167 -0.5853
  467TMC3    C3 6949   0.251   2.421  13.418 -1.1625 -1.0148 -0.1251
  467TMC3    C4 6950   0.183   2.420  13.682 -0.2629  0.2141  0.0599
  467TMC3    C5 6951   0.114   2.498  13.594 -0.5587 -0.0261  0.4565
  467TMC3    C6 6952   0.151   2.503  13.462 -0.1868 -0.0322 -0.2719
  467TMC3     C 6953   0.394   2.338  13.711  0.7263 -0.4731  0.1743
  467TMC3     O 6954   0.443   2.445  13.736 -0.8753  0.0554 -0.0380
  467TMC3     H 6955   0.379   2.252  13.464  2.1046  0.0067  2.3551
  467TMC3    H1 6956   0.160   2.426  13.788  1.5868  0.0330  0.4592
  467TMC3    H2 6957   0.111   2.572  13.389 -2.2689 -3.1369 -2.0452
  467TMC3    C7 6958   4.717   2.564  13.628 -0.0841 -0.1508 -1.1050
  467TMC3    C8 6959   0.320   2.462  13.295  0.5782 -0.6191  0.4266
  467TMC3    O1 6960   4.703   2.675  13.579  0.4504 -0.3869  0.2464
  467TMC3    O2 6961   0.366   2.370  13.225  0.2342  0.6714  0.2017
  468MPD2     C 6962   3.782   1.006   9.993 -0.2558  0.2739  0.4918
  468MPD2    C1 6963   3.908   1.011  10.047  1.0876 -1.2055  0.6663
  468MPD2    C2 6964   3.962   0.896  10.100 -0.4124  0.4378 -0.4766
  468MPD2    C3 6965   3.889   0.775  10.108 -0.1843  0.2173 -0.2392
  468MPD2    C4 6966   3.753   0.781  10.063 -0.1221 -0.8283 -0.5582
  468MPD2    C5 6967   3.710   0.895  10.002 -0.2283 -0.4296  0.8231
  468MPD2     H 6968   4.061   0.901  10.144 -0.9218 -0.5828  0.7852
  468MPD2    H1 6969   3.689   0.693  10.067 -0.9120 -0.3258 -2.1374
  468MPD2    H2 6970   3.726   1.089   9.951  1.1546 -0.1875 -2.3049
  468MPD2    H3 6971   3.615   0.896   9.950  1.0019 -2.7241 -1.4241
  468MPD2     N 6972   3.920   0.654  10.171 -0.2705  0.4257 -0.4570
  468MPD2    H5 6973   3.853   0.578  10.168 -0.5581  0.5707  1.9111
  468MPD2    N1 6974   3.988   1.134  10.043  0.1207  0.1556 -0.7465
  468MPD2    H7 6975   4.077   1.130  10.090 -0.7056 -2.1320  0.6167
  469TMC3    C1 6976   4.022   1.378  10.029  0.0979 -0.2740 -0.1506
  469TMC3    C2 6977   4.150   1.358  10.073  0.5108 -0.0901 -0.0995
  469TMC3    C3 6978   4.218   1.471  10.115  0.0368  0.0602  0.4265
  469TMC3    C4 6979   3.962   1.498  10.026 -0.2281  0.3362  0.2103
  469TMC3    C5 6980   4.032   1.608  10.072 -0.4586 -0.0052  0.1191
  469TMC3    C6 6981   4.162   1.595  10.115  0.2624  0.3553  0.1526
  469TMC3     C 6982   3.944   1.257   9.996 -0.5220 -0.6423  0.1637
  469TMC3     O 6983   3.828   1.288   9.961 -0.0658  0.0678  0.1516
  469TMC3     H 6984   4.208   1.266  10.072  1.0260  0.2385 -0.3125
  469TMC3    H1 6985   3.862   1.517   9.991  1.0577  1.0755 -3.0113
  469TMC3    H2 6986   4.209   1.676  10.171 -0.4053 -1.6671  3.6410
  469TMC3    C7 6987   3.977   1.741  10.060 -0.8532 -0.2005  0.3693
  469TMC3    C8 6988   4.350   1.466  10.175  0.2592  0.2838  0.0510
  469TMC3    O1 6989   3.860   1.744  10.023 -0.5340  0.1317  0.3721
  469TMC3    O2 6990   4.419   1.563  10.155  0.3132  0.2311  0.4891
  470TMC3    C1 6991   1.470   0.960   0.469  0.0146  0.3169 -0.4257
  470TMC3    C2 6992   1.531   1.088   0.464  0.4390 -0.3467 -0.2879
  470TMC3    C3 6993   1.622   1.120   0.561  0.5732  0.1465 -0.1440
  470TMC3    C4 6994   1.499   0.876   0.573 -0.0747 -0.1054 -1.1264
  470TMC3    C5 6995   1.590   0.920   0.668 -0.2878 -0.4496  0.3703
  470TMC3    C6 6996   1.640   1.041   0.665 -0.3932 -0.4355 -0.1891
  470TMC3     C 6997   1.337   0.943   0.401  0.2837  0.3516 -0.1176
  470TMC3     O 6998   1.316   1.029   0.316 -0.1447  0.0599  0.3667
  470TMC3     H 6999   1.503   1.152   0.381 -1.4062 -1.2371 -0.3460
  470TMC3    H1 7000   1.476   0.771   0.576  2.7233 -0.6780  0.5438
  470TMC3    H2 7001   1.715   1.062   0.740  2.3572 -0.5230 -2.9248
  470TMC3    C7 7002   1.638   0.836   0.769  0.5554 -0.0177 -0.3348
  470TMC3    C8 7003   1.632   1.263   0.601  0.1627 -0.1781  0.2526
  470TMC3    O1 7004   1.757   0.849   0.792 -0.1604  0.0259  0.5626
  470TMC3    O2 7005   1.625   1.292   0.721  0.8683  0.6746 -0.0816
  471MPD2     C 7006   2.121   2.153  16.211  0.8780  0.0298  0.2111
  471MPD2    C1 7007   2.024   2.106  16.304 -0.5699 -1.1295 -0.1876
  471MPD2    C2 7008   2.047   2.112  16.437  0.2373 -0.5197  0.6000
  471MPD2    C3 7009   2.172   2.151  16.480  0.3046 -0.1084  0.7623
  471MPD2    C4 7010   2.277   2.176  16.390  0.5085 -0.2925  0.3839
  471MPD2    C5 7011   2.248   2.173  16.254  0.4275  0.5068 -0.4502
  471MPD2     H 7012   1.970   2.076  16.505 -1.6240  5.3123  1.6179
  471MPD2    H1 7013   2.376   2.208  16.419  0.8776 -1.0742 -0.0319
  471MPD2    H2 7014   2.110   2.159  16.103  2.1406  1.2365  0.1595
  471MPD2    H3 7015   2.328   2.191  16.184 -0.3970  3.9677 -0.4836
  471MPD2     N 7016   2.205   2.157  16.621 -0.3308 -0.5330 -0.2535
  471MPD2    H5 7017   2.293   2.195  16.653 -0.6389  0.1373 -0.2054
  471MPD2    N1 7018   1.897   2.052  16.265 -0.6621 -0.6535  0.6512
  471MPD2    H7 7019   1.838   2.021  16.341 -0.6436 -2.6548 -0.1448
  472TMC3    C1 7020   1.720   1.989  16.111  0.2104  0.2926 -0.1534
  472TMC3    C2 7021   1.637   2.054  16.026  0.2808  0.6118 -0.4523
  472TMC3    C3 7022   1.537   1.981  15.973  0.5690  0.6891  0.0323
  472TMC3    C4 7023   1.710   1.861  16.158  0.5099 -0.3214 -0.6224
  472TMC3    C5 7024   1.619   1.788  16.085 -0.1341 -0.3661 -0.6510
  472TMC3    C6 7025   1.531   1.845  15.989 -0.1130 -0.3733 -0.2648
  472TMC3     C 7026   1.853   2.061  16.134  0.4282 -0.7204 -0.2276
  472TMC3     O 7027   1.894   2.136  16.048  0.3366  0.2311 -0.0249
  472TMC3     H 7028   1.671   2.149  15.986 -1.8867  0.8929 -1.6452
  472TMC3    H1 7029   1.788   1.809  16.213  0.1673 -0.8745 -0.6637
  472TMC3    H2 7030   1.449   1.791  15.941  0.2761 -1.4946  0.3448
  472TMC3    C7 7031   1.590   1.660  16.154  0.5285  0.9151  0.3152
  472TMC3    C8 7032   1.495   2.020  15.839  0.1855  0.0996 -0.0697
  472TMC3    O1 7033   1.639   1.651  16.266  0.3529 -0.0219 -0.2507
  472TMC3    O2 7034   1.587   2.061  15.766  0.3056 -0.3368 -0.1028
  473MPD2     C 7035   2.247   0.231  13.851 -0.8318 -0.1609  0.2779
  473MPD2    C1 7036   2.131   0.307  13.888 -0.1133  0.1333 -0.5618
  473MPD2    C2 7037   2.076   0.311  14.018 -0.2518 -0.2889  0.0435
  473MPD2    C3 7038   2.160   0.265  14.119  0.1416 -0.2573 -0.1003
  473MPD2    C4 7039   2.280   0.205  14.092  0.8416  0.3787 -0.0665
  473MPD2    C5 7040   2.324   0.183  13.960 -0.3667  0.4751  0.5425
  473MPD2     H 7041   1.981   0.355  14.045  0.3316  1.3387 -0.5837
  473MPD2    H1 7042   2.350   0.173  14.168  1.1745  0.5224 -0.3149
  473MPD2    H2 7043   2.286   0.218  13.751  0.0418  3.5378  0.1343
  473MPD2    H3 7044   2.420   0.137  13.943  0.3170  2.2571 -0.4087
  473MPD2     N 7045   2.135   0.281  14.264 -0.0464 -0.3589 -0.4016
  473MPD2    H5 7046   2.217   0.252  14.316 -1.6833 -2.9243  0.7489
  473MPD2    N1 7047   2.049   0.371  13.796  0.0295  0.1059 -0.1056
  473MPD2    H7 7048   1.956   0.385  13.833  0.2826 -0.3016  0.6738
  474TMC3    C1 7049   2.034   0.364  14.462  0.2055  0.3057  0.0860
  474TMC3    C2 7050   1.952   0.466  14.498  0.2820  0.3036 -0.2378
  474TMC3    C3 7051   1.995   0.564  14.580 -0.1199 -0.2991 -0.2002
  474TMC3    C4 7052   2.152   0.343  14.530  0.3115  0.2106  0.1046
  474TMC3    C5 7053   2.183   0.433  14.623  0.0642 -0.0743 -0.0834
  474TMC3    C6 7054   2.118   0.553  14.640  0.5855 -1.0180  0.6841
  474TMC3     C 7055   2.027   0.344  14.317  0.1602 -0.5065 -0.4227
  474TMC3     O 7056   1.929   0.382  14.257  0.0593 -0.1839  0.0557
  474TMC3     H 7057   1.856   0.471  14.447 -0.5638 -1.3199  1.2148
  474TMC3    H1 7058   2.223   0.266  14.501  0.3278  0.0842  0.4911
  474TMC3    H2 7059   2.165   0.626  14.705  1.4734 -1.8946  1.0225
  474TMC3    C7 7060   2.322   0.429  14.665 -0.4944 -0.8846 -0.6146
  474TMC3    C8 7061   1.938   0.699  14.570 -0.1112  0.1835  0.2582
  474TMC3    O1 7062   2.404   0.364  14.608  0.3937 -0.4953 -0.1120
  474TMC3    O2 7063   2.016   0.794  14.580  0.0480  0.0337  0.4229
  475MPD2     C 7064   0.372   3.766   9.841  0.1318  0.3045  0.1165
  475MPD2    C1 7065   0.368   3.827   9.964 -0.1728  0.2000  1.0263
  475MPD2    C2 7066   0.275   3.778  10.057  0.3787 -0.2562  0.5979
  475MPD2    C3 7067   0.188   3.664  10.030  0.6744  0.2272  0.5895
  475MPD2    C4 7068   0.196   3.617   9.899  0.7652 -0.4284 -0.0115
  475MPD2    C5 7069   0.281   3.666   9.809  0.0097  0.7348 -0.5482
  475MPD2     H 7070   0.267   3.805  10.162 -2.7705  1.2417 -0.0298
  475MPD2    H1 7071   0.126   3.542   9.863  1.5735 -1.4034  0.4416
  475MPD2    H2 7072   0.432   3.795   9.756 -0.0609  0.8548  0.1725
  475MPD2    H3 7073   0.290   3.616   9.714  1.7801  2.1853 -1.1346
  475MPD2     N 7074   0.107   3.615  10.134  0.3498 -0.2786 -0.2433
  475MPD2    H5 7075   0.112   3.658  10.226  0.3422 -2.7747  0.9158
  475MPD2    N1 7076   0.461   3.936   9.987 -0.0721  0.1024 -0.2298
  475MPD2    H7 7077   0.546   3.942   9.932  0.2263 -2.8586 -0.0530
  476TMC3    C1 7078   0.309   4.059  10.136  0.4057  0.1181  0.4682
  476TMC3    C2 7079   0.206   4.096  10.060 -0.6103  0.0981 -0.2203
  476TMC3    C3 7080   0.101   4.171  10.122 -1.1107 -0.0576  0.1275
  476TMC3    C4 7081   0.326   4.112  10.264 -0.2792  0.7405 -0.1263
  476TMC3    C5 7082   0.222   4.178  10.318  0.2526  0.4190 -0.0475
  476TMC3    C6 7083   0.103   4.202  10.252  0.1381 -0.0790 -0.5920
  476TMC3     C 7084   0.440   4.035  10.081 -0.6393  0.0202  0.3343
  476TMC3     O 7085   0.527   4.113  10.126 -0.6957 -0.3153  0.1976
  476TMC3     H 7086   0.216   4.090   9.952  0.0285  0.7867 -0.2005
  476TMC3    H1 7087   0.400   4.068  10.330 -0.6486 -0.0963 -0.2813
  476TMC3    H2 7088   0.030   4.260  10.307 -0.4018 -2.5458  1.3048
  476TMC3    C7 7089   0.207   4.140  10.458 -0.0062 -0.4314 -0.2945
  476TMC3    C8 7090   4.690   4.148  10.069  0.4635  0.2961 -1.0069
  476TMC3    O1 7091   0.213   4.022  10.481 -0.5166  0.6079  0.8270
  476TMC3    O2 7092   4.603   4.232  10.084  0.2741 -0.5767 -0.0650
  477MPD2     C 7093   2.756   0.584  11.507 -0.5543 -0.4425  0.1859
  477MPD2    C1 7094   2.728   0.454  11.474 -0.2714  0.5319  0.4520
  477MPD2    C2 7095   2.778   0.356  11.560  0.0559 -0.0582  0.3555
  477MPD2    C3 7096   2.859   0.388  11.670  0.0858 -0.5837 -0.1933
  477MPD2    C4 7097   2.881   0.522  11.699 -0.1715 -0.1854 -0.9056
  477MPD2    C5 7098   2.827   0.615  11.615  0.7340  0.5566  0.3837
  477MPD2     H 7099   2.762   0.250  11.546  0.5807 -0.2958  1.5375
  477MPD2    H1 7100   2.940   0.543  11.788 -1.1069  1.2883 -0.6380
  477MPD2    H2 7101   2.723   0.668  11.447  0.2109 -1.2724 -1.3903
  477MPD2    H3 7102   2.840   0.721  11.633  1.3409  0.2423  1.8109
  477MPD2     N 7103   2.909   0.280  11.753  0.1040  0.5644 -0.1805
  477MPD2    H5 7104   2.897   0.184  11.724  3.1978  0.9259 -2.6800
  477MPD2    N1 7105   2.636   0.437  11.368 -0.2472 -0.0209  0.0464
  477MPD2    H7 7106   2.611   0.516  11.310 -0.8814 -0.8815 -0.8642
  478TMC3    C1 7107   2.465   0.316  11.254 -0.0284 -1.1176  0.4504
  478TMC3    C2 7108   2.337   0.285  11.293  0.1749 -0.3087  0.4496
  478TMC3    C3 7109   2.231   0.350  11.232 -0.0893 -0.5441  0.4316
  478TMC3    C4 7110   2.489   0.398  11.150  0.1947  0.5570 -0.1587
  478TMC3    C5 7111   2.383   0.456  11.089  0.3883 -0.0785 -0.7570
  478TMC3    C6 7112   2.251   0.442  11.134  0.7471 -0.1072 -0.4101
  478TMC3     C 7113   2.563   0.319  11.362  0.5360  0.0652  0.4324
  478TMC3     O 7114   2.547   0.239  11.452  0.3864 -0.1805 -0.3125
  478TMC3     H 7115   2.317   0.222  11.379  1.1911 -1.5889 -0.2670
  478TMC3    H1 7116   2.591   0.415  11.120  0.4288 -0.8227 -0.1642
  478TMC3    H2 7117   2.174   0.499  11.083 -0.9081 -0.6658  1.4429
  478TMC3    C7 7118   2.423   0.530  10.975  0.0535 -0.0265 -0.0603
  478TMC3    C8 7119   2.118   0.356  11.320 -0.4002  0.1344  0.4868
  478TMC3    O1 7120   2.545   0.545  10.955  0.3263 -0.1846 -0.3496
  478TMC3    O2 7121   2.085   0.255  11.383  0.2779 -0.4303  0.0905
  479MPD2     C 7122   1.753   1.842  15.026  0.2840  0.1548  0.0163
  479MPD2    C1 7123   1.678   1.771  15.115  0.3344 -0.1021 -0.3752
  479MPD2    C2 7124   1.710   1.773  15.249 -0.4441 -0.5623  0.2377
  479MPD2    C3 7125   1.821   1.842  15.289 -0.0461 -0.4803  0.7376
  479MPD2    C4 7126   1.907   1.898  15.193 -0.3092  0.1659  0.3793
  479MPD2    C5 7127   1.876   1.893  15.063 -0.6290 -0.3511  0.3664
  479MPD2     H 7128   1.659   1.717  15.327 -1.5984  0.6739  0.3743
  479MPD2    H1 7129   1.993   1.954  15.229  0.2086 -0.5662  0.2956
  479MPD2    H2 7130   1.724   1.856  14.923 -0.4785  2.4378  0.5257
  479MPD2    H3 7131   1.936   1.948  14.991 -1.9044 -0.2856 -0.6455
  479MPD2     N 7132   1.862   1.878  15.429  0.1089 -0.1103 -0.5944
  479MPD2    H5 7133   1.956   1.913  15.438  0.4180 -0.8617 -0.9240
  479MPD2    N1 7134   1.555   1.721  15.061 -0.3536  0.5509  0.4001
  479MPD2    H7 7135   1.541   1.727  14.960  1.4315 -1.1097  0.0623
  480TMC3    C1 7136   1.455   1.731  15.623  0.5813  0.0644 -0.3824
  480TMC3    C2 7137   1.380   1.802  15.535  0.5355  0.5071 -0.0262
  480TMC3    C3 7138   1.439   1.897  15.451  0.2585  0.5933  0.3977
  480TMC3    C4 7139   1.593   1.751  15.621 -0.5072  0.2569 -0.0293
  480TMC3    C5 7140   1.648   1.845  15.537  0.5307 -0.6372  0.4708
  480TMC3    C6 7141   1.576   1.923  15.453 -0.0425  0.2835  0.0232
  480TMC3     C 7142   1.404   1.645  15.731  0.5019  0.2255 -0.1881
  480TMC3     O 7143   1.489   1.590  15.798 -0.3010  0.7210  0.7024
  480TMC3     H 7144   1.278   1.766  15.529  0.5252  0.4135  0.7200
  480TMC3    H1 7145   1.659   1.698  15.689  0.7494  1.8206 -0.0478
  480TMC3    H2 7146   1.626   1.996  15.390 -3.2328  2.7151  0.2701
  480TMC3    C7 7147   1.793   1.857  15.544 -0.9107 -0.4507  0.0612
  480TMC3    C8 7148   1.355   1.946  15.341  0.6408 -0.8043  0.4519
  480TMC3    O1 7149   1.836   1.844  15.659  0.2062 -0.0774 -0.1433
  480TMC3    O2 7150   1.236   1.933  15.353 -0.2413 -0.2940  0.4593
  481MPD2     C 7151   3.350   1.676  14.312  0.8667 -0.1354  0.0760
  481MPD2    C1 7152   3.242   1.600  14.356 -0.4342 -0.2681 -0.2040
  481MPD2    C2 7153   3.215   1.591  14.491 -0.1743  0.2402 -0.2671
  481MPD2    C3 7154   3.299   1.654  14.579  0.0817  0.8651  0.0563
  481MPD2    C4 7155   3.401   1.741  14.542  0.7437  0.2081 -0.2011
  481MPD2    C5 7156   3.422   1.753  14.408 -0.0409  0.7103  0.2600
  481MPD2     H 7157   3.137   1.524  14.525  1.7202 -0.7851  2.1080
  481MPD2    H1 7158   3.455   1.796  14.618 -2.8914  1.9985  1.0933
  481MPD2    H2 7159   3.384   1.688  14.210  1.3860  1.1708  0.4012
  481MPD2    H3 7160   3.506   1.813  14.373 -1.5745  3.1249  0.6892
  481MPD2     N 7161   3.289   1.621  14.721 -0.3968  0.5321  0.2173
  481MPD2    H5 7162   3.364   1.656  14.779 -1.1042  0.9378  0.8846
  481MPD2    N1 7163   3.165   1.547  14.249  0.2417  0.4655 -0.0281
  481MPD2    H7 7164   3.196   1.558  14.153  0.9994 -1.0903  0.0217
  482TMC3    C1 7165   2.989   1.450  14.124 -0.7162 -0.3818 -0.5813
  482TMC3    C2 7166   2.876   1.364  14.137 -0.4080  0.0695  0.3765
  482TMC3    C3 7167   2.787   1.351  14.031 -0.8937  0.1557 -0.6648
  482TMC3    C4 7168   3.003   1.538  14.015  0.4972 -0.1362 -0.2051
  482TMC3    C5 7169   2.902   1.528  13.917 -0.4217 -0.2432 -0.5718
  482TMC3    C6 7170   2.800   1.434  13.919 -0.8984 -0.4477  0.0817
  482TMC3     C 7171   3.042   1.483  14.257 -0.0023  1.3569  0.8093
  482TMC3     O 7172   2.994   1.433  14.360  0.1548 -0.4382 -0.6417
  482TMC3     H 7173   2.843   1.313  14.227 -2.0602  0.8994  0.2269
  482TMC3    H1 7174   3.070   1.624  14.013  1.0112 -0.5473 -0.5154
  482TMC3    H2 7175   2.726   1.427  13.840 -0.4543  1.8019 -0.5415
  482TMC3    C7 7176   2.910   1.613  13.792  0.0579 -0.8398 -0.2459
  482TMC3    C8 7177   2.683   1.247  14.031  0.0484  0.3132  0.3398
  482TMC3    O1 7178   2.817   1.585  13.716 -0.2095  0.6064 -0.2713
  482TMC3    O2 7179   2.696   1.149  14.109  0.2762 -0.6248 -0.3701
  483TMC3    C1 7180   0.573   4.259   0.177  0.6231 -0.4415 -0.3589
  483TMC3    C2 7181   0.566   4.389   0.212 -0.2174  0.8018  0.1392
  483TMC3    C3 7182   0.554   4.414   0.353 -0.4983  0.2429  0.2588
  483TMC3    C4 7183   0.527   4.161   0.267 -0.0285  0.3513 -0.8705
  483TMC3    C5 7184   0.495   4.192   0.392  0.1588 -0.0962 -0.1815
  483TMC3    C6 7185   0.518   4.321   0.442  0.5167  0.1918 -0.4492
  483TMC3     C 7186   0.660   4.226   0.072  0.4426 -0.4981 -0.1007
  483TMC3     O 7187   0.651   4.289  17.663  0.0380  0.1320 -0.3737
  483TMC3     H 7188   0.601   4.467   0.146 -1.3167  0.1091 -1.2488
  483TMC3    H1 7189   0.512   4.058   0.236  2.9488 -0.3560 -0.0044
  483TMC3    H2 7190   0.510   4.345   0.547 -1.9956  0.9092 -0.7955
  483TMC3    C7 7191   0.551   4.098   0.478 -0.2343  0.1963 -0.2884
  483TMC3    C8 7192   0.609   4.542   0.401 -0.7310  0.2727 -0.3937
  483TMC3    O1 7193   0.618   4.009   0.428 -0.2722 -0.3244  1.0252
  483TMC3    O2 7194   0.669   4.600   0.311  0.3881  0.2350  0.5533
  484MPD2     C 7195   3.917   3.470  12.236 -0.3015  0.3524  0.5534
  484MPD2    C1 7196   3.894   3.541  12.359 -0.2030  0.2210  0.7440
  484MPD2    C2 7197   3.984   3.633  12.403 -0.0877  0.2634  0.6148
  484MPD2    C3 7198   4.091   3.672  12.324  0.3996  0.2022 -0.3372
  484MPD2    C4 7199   4.113   3.609  12.203  0.1102  0.0237 -0.0899
  484MPD2    C5 7200   4.024   3.510  12.159 -0.5084  0.8406 -0.6010
  484MPD2     H 7201   3.963   3.691  12.492  2.0636 -0.8529  1.8609
  484MPD2    H1 7202   4.196   3.622  12.134 -0.9539 -0.8412 -1.5410
  484MPD2    H2 7203   3.852   3.386  12.212 -1.1927  1.3505 -0.5544
  484MPD2    H3 7204   4.041   3.474  12.059 -2.3963  0.2185 -0.6891
  484MPD2     N 7205   4.197   3.756  12.360 -0.0878  0.2159 -0.1918
  484MPD2    H5 7206   4.273   3.767  12.294 -0.2537  0.8738 -0.2738
  484MPD2    N1 7207   3.770   3.505  12.425 -0.3369 -0.0217  0.0920
  484MPD2    H7 7208   3.712   3.435  12.379 -0.7866  1.8431 -2.2308
  485TMC3    C1 7209   4.359   3.862  12.492  0.4452 -0.3101 -0.0241
  485TMC3    C2 7210   4.403   3.852  12.619 -0.5540  0.2286 -0.5406
  485TMC3    C3 7211   4.530   3.829  12.643  0.1956 -0.3396  0.6343
  485TMC3    C4 7212   4.445   3.854  12.386  0.5920 -0.7846 -0.6929
  485TMC3    C5 7213   4.579   3.824  12.407  0.2595  0.1192 -0.0685
  485TMC3    C6 7214   4.618   3.820  12.536  0.9282  0.4620  0.6143
  485TMC3     C 7215   4.219   3.821  12.479 -0.1571  0.2153 -0.4374
  485TMC3     O 7216   4.144   3.824  12.575 -0.0401  0.3749  0.0642
  485TMC3     H 7217   4.323   3.858  12.691 -0.9394 -2.3316 -0.7613
  485TMC3    H1 7218   4.414   3.873  12.284 -0.7849 -0.6832 -0.2561
  485TMC3    H2 7219   0.000   3.799  12.545  0.6990  0.3002  2.8334
  485TMC3    C7 7220   4.616   3.704  12.334 -0.1087 -0.3579  0.6638
  485TMC3    C8 7221   4.552   3.728  12.745 -0.2434  0.1604 -0.2865
  485TMC3    O1 7222   4.667   3.625  12.407  0.0420  0.1981  0.4887
  485TMC3    O2 7223   4.659   3.673  12.737 -0.1923  0.1044  0.4816
  486MPD2     C 7224   1.359   2.561  12.620 -0.3796 -0.5846  0.2667
  486MPD2    C1 7225   1.307   2.562  12.492  0.3289 -0.9253 -0.4050
  486MPD2    C2 7226   1.235   2.669  12.439 -0.4233 -0.6614  0.8769
  486MPD2    C3 7227   1.205   2.773  12.515  0.4897 -0.0134 -0.6663
  486MPD2    C4 7228   1.257   2.784  12.642  0.3072  0.4660 -0.3867
  486MPD2    C5 7229   1.333   2.678  12.691 -0.3487 -0.1325 -0.2053
  486MPD2     H 7230   1.198   2.669  12.337  0.8307  2.5151  0.4291
  486MPD2    H1 7231   1.229   2.859  12.714  0.1235  0.2147 -0.1946
  486MPD2    H2 7232   1.416   2.486  12.674  0.1709  2.1373  3.4919
  486MPD2    H3 7233   1.364   2.685  12.795 -0.6005 -1.0956 -0.0690
  486MPD2     N 7234   1.119   2.871  12.461 -0.2988  0.0967  0.6847
  486MPD2    H5 7235   1.070   2.845  12.376  0.7999  0.3406 -0.0248
  486MPD2    N1 7236   1.330   2.440  12.417  0.8749 -0.5661 -0.3911
  486MPD2    H7 7237   1.379   2.365  12.465  1.8818 -0.1116 -0.7008
  487TMC3    C1 7238   1.268   2.258  12.259  0.0520 -0.0659  0.2723
  487TMC3    C2 7239   1.156   2.221  12.193 -0.1197 -0.4700 -0.1347
  487TMC3    C3 7240   1.136   2.090  12.174  0.2275 -0.0518 -0.4756
  487TMC3    C4 7241   1.367   2.172  12.311 -0.1241  0.2132  0.2070
  487TMC3    C5 7242   1.342   2.037  12.285 -0.2086 -0.3136 -0.6004
  487TMC3    C6 7243   1.231   1.997  12.211  0.0707 -0.2504  0.1950
  487TMC3     C 7244   1.264   2.399  12.304  0.0396  0.2768 -0.1580
  487TMC3     O 7245   1.184   2.469  12.245 -0.6825  0.1953 -0.0715
  487TMC3     H 7246   1.080   2.289  12.157  0.5870  0.0529 -0.6417
  487TMC3    H1 7247   1.447   2.208  12.375  1.8842 -0.1513 -2.1241
  487TMC3    H2 7248   1.195   1.895  12.216 -1.6071  0.1542 -3.9713
  487TMC3    C7 7249   1.415   1.945  12.377  0.3386 -0.2190  0.1874
  487TMC3    C8 7250   1.001   2.050  12.208  0.5008  0.4990 -0.7123
  487TMC3    O1 7251   1.471   1.996  12.472 -0.0725 -0.1289 -0.3641
  487TMC3    O2 7252   0.915   2.035  12.123  0.1978 -0.0122  0.4501
  488MPD2     C 7253   1.010   3.794  16.186 -0.5826 -0.7576  0.8940
  488MPD2    C1 7254   1.052   3.926  16.192  0.0953 -0.0618  0.1452
  488MPD2    C2 7255   1.015   4.006  16.298  0.4019 -0.1094  0.2519
  488MPD2    C3 7256   0.958   3.944  16.411  0.1877  0.0467 -0.2688
  488MPD2    C4 7257   0.917   3.814  16.404  0.4092 -0.0109  0.2634
  488MPD2    C5 7258   0.938   3.743  16.292 -0.1521 -0.0778 -0.8683
  488MPD2     H 7259   1.030   4.114  16.303 -2.1092  0.2378  0.6995
  488MPD2    H1 7260   0.871   3.759  16.486  0.1992  0.9106  0.7680
  488MPD2    H2 7261   1.020   3.730  16.099  0.8900  0.7959 -0.0656
  488MPD2    H3 7262   0.901   3.642  16.281  0.8595 -0.4648 -0.7197
  488MPD2     N 7263   0.937   4.031  16.522  0.0982 -0.1232 -0.6750
  488MPD2    H5 7264   0.966   4.129  16.519 -0.4152  0.0130 -1.1875
  488MPD2    N1 7265   1.126   3.985  16.086 -0.1274 -0.4443  0.2961
  488MPD2    H7 7266   1.146   4.084  16.100 -1.4486 -0.1355 -0.0586
  489TMC3    C1 7267   0.900   4.097  16.741 -0.0495 -0.6447 -0.3659
  489TMC3    C2 7268   0.883   4.231  16.703 -0.1267  0.6126  0.7864
  489TMC3    C3 7269   0.911   4.341  16.787 -0.0541 -0.6098  0.0231
  489TMC3    C4 7270   0.935   4.075  16.870 -0.3664  0.6804 -0.5711
  489TMC3    C5 7271   0.963   4.184  16.954  0.2845  0.3678  0.4715
  489TMC3    C6 7272   0.948   4.319  16.916  0.2111  0.1958  0.0897
  489TMC3     C 7273   0.883   3.995  16.643  0.4079 -0.1930 -0.2734
  489TMC3     O 7274   0.840   3.884  16.674  0.6443  0.3958 -0.3660
  489TMC3     H 7275   0.858   4.261  16.602  2.0022 -0.0138  0.0566
  489TMC3    H1 7276   0.938   3.975  16.912 -2.2826  1.1360  0.6057
  489TMC3    H2 7277   0.981   4.392  16.988 -1.0851  0.9961 -0.1259
  489TMC3    C7 7278   1.023   4.161  17.086  0.4662 -0.0331 -0.0325
  489TMC3    C8 7279   0.972   4.457  16.733  0.2781 -0.0166  0.2909
  489TMC3    O1 7280   1.000   4.246  17.176 -0.2091 -0.2843 -0.1721
  489TMC3    O2 7281   1.017   4.435  16.619  0.3531 -0.1918  0.5725
  490MPD2     C 7282   2.880   2.714  17.091  0.0061 -0.0905  0.1589
  490MPD2    C1 7283   2.768   2.761  17.162  0.1737  0.5147 -0.0915
  490MPD2    C2 7284   2.789   2.841  17.270 -0.3683 -0.6010 -0.2264
  490MPD2    C3 7285   2.917   2.870  17.320 -0.3250 -0.0782 -0.8715
  490MPD2    C4 7286   3.024   2.818  17.257  0.1315  0.3150  0.2867
  490MPD2    C5 7287   3.009   2.743  17.142  0.4955  0.0874  0.3227
  490MPD2     H 7288   2.699   2.870  17.322 -1.1170 -0.7539 -1.4284
  490MPD2    H1 7289   3.125   2.836  17.293  0.5321 -0.2613 -0.5590
  490MPD2    H2 7290   2.871   2.648  17.005 -1.8576  2.3167 -1.4856
  490MPD2    H3 7291   3.097   2.721  17.083 -1.7246  0.4362 -3.1572
  490MPD2     N 7292   2.945   2.946  17.441  0.1609  0.0972  0.1099
  490MPD2    H5 7293   3.039   2.941  17.480  0.2349  0.6464  0.0016
  490MPD2    N1 7294   2.629   2.723  17.133 -0.3714  0.0482  0.3526
  490MPD2    H7 7295   2.561   2.778  17.185 -1.6460 -0.2939 -0.9634
  491TMC3    C1 7296   2.448   2.602  17.046  0.2759  0.3571 -0.4090
  491TMC3    C2 7297   2.369   2.597  17.158  0.3528  0.3944  0.3505
  491TMC3    C3 7298   2.241   2.564  17.141 -0.2540  0.4476  0.5423
  491TMC3    C4 7299   2.393   2.583  16.926 -0.1312  0.1114 -0.1488
  491TMC3    C5 7300   2.261   2.554  16.916 -0.6577 -0.3926 -0.0612
  491TMC3    C6 7301   2.180   2.538  17.022 -0.5047 -0.4046  0.9637
  491TMC3     C 7302   2.588   2.633  17.039 -0.8391 -0.3542  0.0445
  491TMC3     O 7303   2.652   2.576  16.953  0.2448  0.4072  0.0191
  491TMC3     H 7304   2.403   2.638  17.253  2.7789  0.0324 -0.3568
  491TMC3    H1 7305   2.456   2.603  16.840  3.2860 -2.3284  1.7593
  491TMC3    H2 7306   2.082   2.493  17.015 -0.4062 -0.8336  2.3213
  491TMC3    C7 7307   2.192   2.516  16.791  0.1622  0.8117  0.2750
  491TMC3    C8 7308   2.161   2.567  17.257 -0.4996  0.4071  0.2720
  491TMC3    O1 7309   2.084   2.463  16.798  0.3796 -0.9767 -0.4504
  491TMC3    O2 7310   2.059   2.633  17.254 -0.0616 -0.0572 -0.2692
  492MPD2     C 7311   2.052   3.897  10.914  0.7215 -0.8590  0.2662
  492MPD2    C1 7312   1.916   3.876  10.898  0.6391 -0.1516  0.0536
  492MPD2    C2 7313   1.841   3.800  10.989  0.4216 -0.2743  0.0856
  492MPD2    C3 7314   1.908   3.729  11.085 -0.5239  0.2958  0.2642
  492MPD2    C4 7315   2.041   3.751  11.105 -0.4103 -0.0332 -0.0137
  492MPD2    C5 7316   2.106   3.838  11.028  0.0891 -0.8552  0.1175
  492MPD2     H 7317   1.733   3.798  10.976  0.3507  1.6647  0.4511
  492MPD2    H1 7318   2.098   3.715  11.190  0.7753 -0.1005 -0.8349
  492MPD2    H2 7319   2.110   3.965  10.852  1.6276 -0.7038  1.2814
  492MPD2    H3 7320   2.212   3.857  11.045 -0.1424 -1.3855  2.1178
  492MPD2     N 7321   1.853   3.634  11.178  0.4611  0.3105 -0.4117
  492MPD2    H5 7322   1.912   3.591  11.248  1.1199  1.5698 -0.1862
  492MPD2    N1 7323   1.870   3.943  10.785  0.0128 -0.8569  0.0726
  492MPD2    H7 7324   1.937   4.010  10.749 -0.2513 -0.6873 -0.1005
  493TMC3    C1 7325   1.747   4.042  10.620  0.6594 -0.2026  0.3803
  493TMC3    C2 7326   1.858   4.124  10.604 -0.2291 -0.1428 -0.6241
  493TMC3    C3 7327   1.842   4.238  10.525  0.7021 -0.1933 -0.5073
  493TMC3    C4 7328   1.629   4.070  10.554  0.2104  0.7426 -0.3388
  493TMC3    C5 7329   1.634   4.161  10.447  0.0644  0.3333 -0.0124
  493TMC3    C6 7330   1.733   4.254  10.439 -0.1885  0.3145 -0.5090
  493TMC3     C 7331   1.747   3.956  10.729 -0.3081  0.5600 -0.0409
  493TMC3     O 7332   1.641   3.901  10.765 -0.2249  0.1319  0.2938
  493TMC3     H 7333   1.962   4.107  10.630 -0.0365  0.7171 -0.8580
  493TMC3    H1 7334   1.540   4.010  10.567 -0.3565  1.4849 -0.8084
  493TMC3    H2 7335   1.738   4.331  10.363 -2.3691  2.5721  1.6553
  493TMC3    C7 7336   1.547   4.150  10.339  0.0615 -0.0075 -0.1057
  493TMC3    C8 7337   1.955   4.336  10.527  0.1214 -0.4501  0.3328
  493TMC3    O1 7338   1.439   4.104  10.369 -0.0196 -0.2428 -0.4319
  493TMC3    O2 7339   2.037   4.326  10.615 -0.0404  0.3681  0.8403
  494TMC3    C1 7340   2.854   0.376   0.495 -0.3164  0.6503  0.1330
  494TMC3    C2 7341   2.856   0.238   0.499  0.2729  0.0171  0.2793
  494TMC3    C3 7342   2.806   0.163   0.393 -0.5176 -0.6230 -0.3017
  494TMC3    C4 7343   2.801   0.430   0.382 -0.6868 -0.0656  0.6523
  494TMC3    C5 7344   2.749   0.356   0.277  0.7021  0.6294  0.2150
  494TMC3    C6 7345   2.757   0.226   0.286  0.7760 -0.4294  0.1471
  494TMC3     C 7346   2.907   0.455   0.604  0.0254 -0.6425  0.6404
  494TMC3     O 7347   2.926   0.572   0.591  0.1543  0.1657 -0.3200
  494TMC3     H 7348   2.905   0.186   0.580 -0.1638 -0.3004  0.3419
  494TMC3    H1 7349   2.797   0.539   0.380 -0.6811 -0.0807 -0.3569
  494TMC3    H2 7350   2.736   0.171   0.195 -0.9058 -0.3591  0.4830
  494TMC3    C7 7351   2.793   0.405   0.146  0.2447 -0.4245 -0.0490
  494TMC3    C8 7352   2.726   0.058   0.450  0.2599 -0.3083 -0.2026
  494TMC3    O1 7353   2.776   0.344   0.041  0.0146  0.0556  0.6322
  494TMC3    O2 7354   2.773   4.716   0.541 -0.2947  0.8898 -0.7483
  495TMC3    C1 7355   1.773   1.987  14.487 -0.2925 -0.0403  0.2284
  495TMC3    C2 7356   1.701   2.033  14.381  0.4080 -0.2100  0.2663
  495TMC3    C3 7357   1.618   2.136  14.407 -0.3936  0.0374  0.2211
  495TMC3    C4 7358   1.785   2.052  14.606  0.0512 -0.3270 -0.6924
  495TMC3    C5 7359   1.691   2.153  14.632 -0.2059 -0.7277  0.0970
  495TMC3    C6 7360   1.612   2.192  14.533 -0.9320  0.1105  0.1542
  495TMC3     C 7361   1.817   1.853  14.479  0.1861 -0.5163 -0.2263
  495TMC3     O 7362   1.910   1.806  14.545 -0.2534 -0.6780  1.1595
  495TMC3     H 7363   1.711   1.984  14.285 -1.5200  1.3373 -0.6891
  495TMC3    H1 7364   1.851   2.010  14.681 -0.2958 -1.4747 -1.0287
  495TMC3    H2 7365   1.543   2.274  14.553  1.0197  1.6339  0.6040
  495TMC3    C7 7366   1.646   2.143  14.768  0.6301 -0.2610 -0.2120
  495TMC3    C8 7367   1.508   2.158  14.323  0.0570 -0.1263  0.1737
  495TMC3    O1 7368   1.730   2.100  14.839 -0.0984  0.0838 -0.0558
  495TMC3    O2 7369   1.433   2.243  14.356  0.2116 -0.4722 -0.2254
  496MPD2     C 7370   3.754   2.255  15.591  0.0078  0.5389 -0.7912
  496MPD2    C1 7371   3.629   2.210  15.556  0.1666 -0.0396 -0.2788
  496MPD2    C2 7372   3.545   2.153  15.648 -0.3175  0.3475  0.0048
  496MPD2    C3 7373   3.593   2.137  15.782  0.0834  0.4937  0.6065
  496MPD2    C4 7374   3.710   2.199  15.813 -0.0611  0.0244  0.4602
  496MPD2    C5 7375   3.796   2.250  15.720  0.9043  0.2550  0.2857
  496MPD2     H 7376   3.454   2.102  15.619 -0.5156 -0.1115  1.4387
  496MPD2    H1 7377   3.750   2.203  15.914  2.4132  1.7046 -0.5851
  496MPD2    H2 7378   3.821   2.273  15.508  0.8979  1.6653  0.1808
  496MPD2    H3 7379   3.896   2.262  15.760  1.4138 -2.0205 -0.2865
  496MPD2     N 7380   3.527   2.061  15.882  0.6144 -0.1177 -0.5540
  496MPD2    H5 7381   3.578   2.045  15.969  0.0778  1.3824  0.0420
  496MPD2    N1 7382   3.597   2.197  15.421  0.0040 -0.1278 -0.6438
  496MPD2    H7 7383   3.677   2.202  15.358 -1.0349  1.4960 -1.8110
  497TMC3    C1 7384   3.365   1.911  15.974 -0.4671 -0.4553 -0.2402
  497TMC3    C2 7385   3.293   1.802  15.929  0.7370  0.1181  0.5597
  497TMC3    C3 7386   3.263   1.711  16.027  0.2569 -0.5433 -0.4775
  497TMC3    C4 7387   3.399   1.930  16.109  0.2372 -0.4426 -0.9960
  497TMC3    C5 7388   3.379   1.826  16.196  0.9555 -0.6872  0.2492
  497TMC3    C6 7389   3.298   1.720  16.153 -0.2561 -0.1378 -0.1274
  497TMC3     C 7390   3.402   2.005  15.865  0.3398  0.5361 -0.4775
  497TMC3     O 7391   3.323   1.997  15.774  0.2921  0.0067  0.5400
  497TMC3     H 7392   3.269   1.790  15.824  2.8984 -1.2973  0.2404
  497TMC3    H1 7393   3.441   2.023  16.145 -0.4299 -0.5635  0.0924
  497TMC3    H2 7394   3.265   1.646  16.225 -1.7794  1.9463  1.2963
  497TMC3    C7 7395   3.399   1.847  16.337 -0.9927 -0.1296  0.5113
  497TMC3    C8 7396   3.196   1.598  15.980  0.7163 -0.1620  0.1991
  497TMC3    O1 7397   3.344   1.764  16.406  0.6282  0.0349 -0.6262
  497TMC3    O2 7398   3.215   1.493  16.044 -0.2995 -0.4441  0.2315
  498MPD2     C 7399   4.286   2.418   9.263 -0.1606 -0.2953 -0.7664
  498MPD2    C1 7400   4.253   2.537   9.323  0.9313  0.7997  0.2603
  498MPD2    C2 7401   4.127   2.556   9.369 -0.1315 -0.2607  0.6184
  498MPD2    C3 7402   4.032   2.456   9.366  0.4090 -0.0278  0.6878
  498MPD2    C4 7403   4.064   2.340   9.306 -0.2226  0.2806  0.3398
  498MPD2    C5 7404   4.183   2.328   9.258  0.1713 -0.2625 -0.4482
  498MPD2     H 7405   4.102   2.652   9.413 -0.9730  0.1849 -0.8215
  498MPD2    H1 7406   4.000   2.253   9.309  1.4956 -1.0314 -1.0474
  498MPD2    H2 7407   4.384   2.385   9.229  1.7618  2.0565  2.4813
  498MPD2    H3 7408   4.200   2.225   9.230 -0.2600 -0.4558 -0.0080
  498MPD2     N 7409   3.914   2.474   9.447  0.3168  0.0028 -0.8959
  498MPD2    H5 7410   3.908   2.548   9.516 -0.7007 -0.7726 -0.1697
  498MPD2    N1 7411   4.348   2.643   9.343  0.7892  0.4774  0.2515
  498MPD2    H7 7412   4.316   2.727   9.389 -0.6727  0.2884 -0.4143
  499TMC3    C1 7413   4.537   2.763   9.321 -0.0181  0.6189 -0.2927
  499TMC3    C2 7414   4.673   2.756   9.333  0.5089 -0.8454 -0.7831
  499TMC3    C3 7415   0.020   2.869   9.365  0.6359  0.0078  0.4168
  499TMC3    C4 7416   4.472   2.877   9.347  1.0306 -0.4449 -0.4497
  499TMC3    C5 7417   4.547   2.982   9.392  0.3521  0.8968 -0.7618
  499TMC3    C6 7418   4.683   2.981   9.400  0.0362 -0.2846 -0.2038
  499TMC3     C 7419   4.474   2.633   9.300 -0.5694  0.6107  0.0223
  499TMC3     O 7420   4.542   2.551   9.242  0.5545  0.1982 -0.3347
  499TMC3     H 7421   0.006   2.668   9.302 -0.6631 -1.8715 -0.0253
  499TMC3    H1 7422   4.363   2.879   9.346  0.9772 -3.2257  1.5118
  499TMC3    H2 7423   0.013   3.063   9.448 -2.1792 -0.0721  1.9044
  499TMC3    C7 7424   4.490   3.118   9.422 -0.1087  0.5868 -0.0850
  499TMC3    C8 7425   0.154   2.832   9.428  0.0545 -0.8964 -0.1773
  499TMC3    O1 7426   4.561   3.217   9.404  0.6747 -0.3545 -0.4026
  499TMC3    O2 7427   0.170   2.716   9.460  0.0165 -0.5350 -0.3039
  500MPD2     C 7428   0.889   0.415   9.911  0.5266  0.4455  0.7049
  500MPD2    C1 7429   0.982   0.319   9.948 -0.3806 -0.5157  0.7850
  500MPD2    C2 7430   0.927   0.192   9.974  0.5395  0.6533 -0.5644
  500MPD2    C3 7431   0.783   0.172   9.968 -0.0164  0.6959 -0.1826
  500MPD2    C4 7432   0.699   0.270   9.937  0.8193  0.3560  0.4751
  500MPD2    C5 7433   0.753   0.394   9.906  0.1550 -0.4469  0.4558
  500MPD2     H 7434   0.998   0.119  10.011  0.0282  0.8926  0.8988
  500MPD2    H1 7435   0.592   0.256   9.922  0.6516  1.3853  0.7201
  500MPD2    H2 7436   0.921   0.518   9.893 -0.3573  0.4734 -0.6686
  500MPD2    H3 7437   0.686   0.465   9.860 -0.4468 -0.0743  1.8967
  500MPD2     N 7438   0.718   0.052  10.003  0.2192 -0.3658  0.1190
  500MPD2    H5 7439   0.617   0.052  10.003  0.2165  0.9230  1.6599
  500MPD2    N1 7440   1.115   0.349   9.974  0.1504 -0.2439  0.4856
  500MPD2    H7 7441   1.170   0.269  10.004  2.7473  1.0674 -0.8247
  501TMC3    C1 7442   1.322   0.459   9.994 -0.8249  0.1833 -0.5383
  501TMC3    C2 7443   1.404   0.542   9.926  0.3477 -0.5359  0.0340
  501TMC3    C3 7444   1.540   0.528   9.944  0.2967 -0.4031  0.4441
  501TMC3    C4 7445   1.359   0.381  10.102 -0.0563 -0.2944  0.2688
  501TMC3    C5 7446   1.494   0.373  10.113  0.2688  0.0222 -0.5846
  501TMC3    C6 7447   1.586   0.433  10.032 -0.1059 -0.3077  0.5781
  501TMC3     C 7448   1.184   0.462   9.947 -0.1795  0.4809 -0.1194
  501TMC3     O 7449   1.137   0.568   9.900 -0.2480  0.1533  0.3067
  501TMC3     H 7450   1.365   0.605   9.847  0.5569 -0.6344 -0.1480
  501TMC3    H1 7451   1.295   0.317  10.162 -0.3054 -1.9052 -1.7000
  501TMC3    H2 7452   1.692   0.420  10.049  0.7144  2.6018 -2.2178
  501TMC3    C7 7453   1.546   0.343  10.247 -0.7725 -0.2769 -0.7830
  501TMC3    C8 7454   1.613   0.650   9.972 -0.1786 -0.4647 -0.0977
  501TMC3    O1 7455   1.510   0.248  10.315  0.0965  0.1989 -0.0191
  501TMC3    O2 7456   1.696   0.637  10.060  0.0829  0.1056 -0.1017
  502TMC3    C1 7457   1.060   3.230  14.550  0.6099 -0.2624  0.1159
  502TMC3    C2 7458   1.058   3.367  14.564  0.9000 -0.8055  0.3078
  502TMC3    C3 7459   0.958   3.423  14.632  0.3255  0.0520  0.3323
  502TMC3    C4 7460   0.956   3.157  14.596 -0.0911 -0.2495 -0.9950
  502TMC3    C5 7461   0.858   3.221  14.667 -0.3363  0.7777 -0.3211
  502TMC3    C6 7462   0.860   3.356  14.692  0.2685 -0.0247  0.0169
  502TMC3     C 7463   1.187   3.173  14.582 -0.2515 -0.2915 -0.3301
  502TMC3     O 7464   1.297   3.221  14.543 -0.5997 -0.2710  0.2803
  502TMC3     H 7465   1.133   3.426  14.512  1.9577 -2.8349 -0.4782
  502TMC3    H1 7466   0.949   3.049  14.584  2.8807 -0.5713  0.0779
  502TMC3    H2 7467   0.779   3.404  14.745 -0.2651  0.3626 -1.1581
  502TMC3    C7 7468   0.812   3.136  14.778 -0.5286 -0.2053  0.3235
  502TMC3    C8 7469   0.951   3.569  14.627 -0.9748  0.9455  0.5132
  502TMC3    O1 7470   0.891   3.050  14.817  0.4388  0.3514 -0.6394
  502TMC3    O2 7471   1.038   3.622  14.563 -0.2911  0.2758 -0.5084
  503MPD2     C 7472   3.179   3.871  16.829  0.2932 -0.6225 -0.0836
  503MPD2    C1 7473   3.118   3.846  16.954 -0.2302  0.6527  0.2343
  503MPD2    C2 7474   3.139   3.733  17.037  0.2009  0.0733 -0.0499
  503MPD2    C3 7475   3.225   3.638  16.985  0.0872  0.4111 -0.5147
  503MPD2    C4 7476   3.286   3.663  16.864 -0.7575 -0.5223  0.0334
  503MPD2    C5 7477   3.252   3.769  16.782  0.6319  0.0636  0.3933
  503MPD2     H 7478   3.084   3.718  17.129 -0.0466  0.4689 -0.1350
  503MPD2    H1 7479   3.343   3.583  16.818 -1.2124 -0.5169 -0.5328
  503MPD2    H2 7480   3.179   3.962  16.770  0.6749  0.4821  1.6334
  503MPD2    H3 7481   3.290   3.772  16.680 -0.3227 -0.5985  0.0243
  503MPD2     N 7482   3.239   3.521  17.058 -0.9521  0.8851 -0.1318
  503MPD2    H5 7483   3.188   3.511  17.145  0.2411 -3.8895  0.0280
  503MPD2    N1 7484   3.034   3.948  17.006 -0.1016 -0.4492  0.1450
  503MPD2    H7 7485   3.001   3.929  17.100 -0.0331 -2.2664 -0.2022
  504TMC3    C1 7486   3.333   3.308  17.121  0.3981 -0.2859 -0.1969
  504TMC3    C2 7487   3.252   3.315  17.236  0.8284  0.0815 -0.3539
  504TMC3    C3 7488   3.276   3.222  17.338  0.0196 -0.5319 -0.4751
  504TMC3    C4 7489   3.437   3.227  17.112 -0.3649  0.1611 -0.5487
  504TMC3    C5 7490   3.469   3.151  17.219 -0.2271 -0.3490 -0.0206
  504TMC3    C6 7491   3.393   3.146  17.336  0.4038 -0.2815 -0.2346
  504TMC3     C 7492   3.324   3.416  17.019  0.0533 -0.5293 -0.1418
  504TMC3     O 7493   3.400   3.404  16.923 -0.8080  0.2197  0.0233
  504TMC3     H 7494   3.168   3.384  17.234  1.3011  0.6522 -0.3983
  504TMC3    H1 7495   3.496   3.238  17.022 -1.7293  1.5659 -1.2697
  504TMC3    H2 7496   3.430   3.087  17.419  0.5555 -0.3176 -0.3286
  504TMC3    C7 7497   3.610   3.103  17.223  0.8219 -0.4774  0.0862
  504TMC3    C8 7498   3.202   3.250  17.458 -0.1183 -0.7784 -0.2515
  504TMC3    O1 7499   3.645   3.047  17.116  0.0451 -0.1278 -0.1023
  504TMC3    O2 7500   3.134   3.355  17.467 -0.6350 -0.2083 -0.5414
  505MPD2     C 7501   2.824   3.015  10.050 -0.6761  0.3394 -0.4692
  505MPD2    C1 7502   2.885   2.981  10.168  0.0088 -0.2905  0.5825
  505MPD2    C2 7503   2.995   3.058  10.210  0.5397 -0.7000 -0.3876
  505MPD2    C3 7504   3.037   3.163  10.137 -0.5651  0.6117 -0.3580
  505MPD2    C4 7505   2.965   3.203  10.030 -0.0295 -0.1710  0.6349
  505MPD2    C5 7506   2.858   3.128   9.989 -0.2066  0.3442  0.4227
  505MPD2     H 7507   3.047   3.037  10.303  0.8091 -0.3762 -0.4689
  505MPD2    H1 7508   2.996   3.288   9.971 -1.0816  0.8455  1.5579
  505MPD2    H2 7509   2.726   2.975  10.025  0.4301 -1.4585 -1.8810
  505MPD2    H3 7510   2.802   3.151   9.898 -0.4260  0.4742  0.5909
  505MPD2     N 7511   3.153   3.234  10.185  0.3071 -0.3810  0.1336
  505MPD2    H5 7512   3.197   3.189  10.264  0.6425 -0.4020 -0.0648
  505MPD2    N1 7513   2.839   2.868  10.238  0.4685 -0.1418  0.1628
  505MPD2    H7 7514   2.745   2.833  10.224  0.0737  0.0704  2.3112
  506TMC3    C1 7515   2.845   2.683  10.379 -0.0369 -0.2039 -0.3794
  506TMC3    C2 7516   2.864   2.586  10.282  0.1935  0.4818  0.0537
  506TMC3    C3 7517   2.930   2.473  10.310  1.0402 -0.6088  0.2352
  506TMC3    C4 7518   2.878   2.651  10.506  0.2338 -0.0970  0.0472
  506TMC3    C5 7519   2.955   2.544  10.533  0.3171  0.9458 -0.4587
  506TMC3    C6 7520   2.972   2.444  10.441  0.1345 -0.4446  0.5584
  506TMC3     C 7521   2.900   2.809  10.347 -0.3302  0.4173 -0.0715
  506TMC3     O 7522   2.995   2.849  10.412  0.0993  0.0521  0.2254
  506TMC3     H 7523   2.833   2.611  10.181  1.3737  0.8188 -0.2140
  506TMC3    H1 7524   2.881   2.726  10.585 -0.0615 -0.8598  0.7831
  506TMC3    H2 7525   3.037   2.362  10.468  1.6378 -0.2633 -2.5758
  506TMC3    C7 7526   3.064   2.563  10.626 -0.1363  0.1925 -0.1891
  506TMC3    C8 7527   3.026   2.433  10.212 -0.1659 -0.0357  0.5036
  506TMC3    O1 7528   3.115   2.462  10.678 -0.4264  0.0842 -0.6460
  506TMC3    O2 7529   3.030   2.501  10.112  0.2067 -0.4220  0.2999
  507TMC3    C1 7530   4.274   3.270  14.430  0.4897 -0.0285  0.6679
  507TMC3    C2 7531   4.239   3.179  14.330 -0.1499  0.4684 -0.3090
  507TMC3    C3 7532   4.260   3.222  14.198  0.1403 -0.8048 -0.4356
  507TMC3    C4 7533   4.339   3.384  14.404 -0.7060 -1.2431 -0.6158
  507TMC3    C5 7534   4.363   3.422  14.276  0.6125  0.2620  0.2112
  507TMC3    C6 7535   4.331   3.339  14.175 -0.6398 -0.1409  0.0859
  507TMC3     C 7536   4.164   3.287  14.521 -0.4010  0.5482  0.1680
  507TMC3     O 7537   4.184   3.379  14.600 -0.3298  0.0447 -0.1101
  507TMC3     H 7538   4.194   3.083  14.352 -1.6931  1.2614 -0.0091
  507TMC3    H1 7539   4.372   3.452  14.482  0.7540 -1.1139 -1.3350
  507TMC3    H2 7540   4.349   3.362  14.071 -0.3684 -0.9857 -0.0532
  507TMC3    C7 7541   4.327   3.556  14.249 -0.4083  0.6546 -0.1423
  507TMC3    C8 7542   4.130   3.217  14.137  0.1275  0.0284 -0.7782
  507TMC3    O1 7543   4.284   3.574  14.135  0.0126  0.4612  0.0528
  507TMC3    O2 7544   4.062   3.126  14.178 -0.4704  0.3135  0.1051
  508MPD2     C 7545   4.623   0.888  16.188  0.3051  0.1955  0.0110
  508MPD2    C1 7546   0.027   0.939  16.179  0.1276  0.5584  0.2496
  508MPD2    C2 7547   0.054   1.016  16.073  0.0135  0.6966 -0.6711
  508MPD2    C3 7548   4.684   1.059  15.975  0.1692  0.0656 -0.6748
  508MPD2    C4 7549   4.567   0.999  15.980 -0.8254 -0.4681 -0.4626
  508MPD2    C5 7550   4.542   0.906  16.076  1.5291 -0.9443  0.4882
  508MPD2     H 7551   0.154   1.058  16.076 -0.2215  1.3191 -1.5566
  508MPD2    H1 7552   4.487   1.016  15.910  0.0962  1.2785 -1.0954
  508MPD2    H2 7553   4.587   0.827  16.270 -1.8423 -1.1699 -1.9497
  508MPD2    H3 7554   4.442   0.864  16.086  0.4934  1.4860  0.5027
  508MPD2     N 7555   0.007   1.155  15.887  0.7356 -0.4612  0.3122
  508MPD2    H5 7556   0.101   1.193  15.888  0.8974 -0.8384 -0.6710
  508MPD2    N1 7557   0.123   0.898  16.274 -0.5121  0.1014 -0.0537
  508MPD2    H7 7558   0.080   0.858  16.357  1.8766 -2.5168 -0.1052
  509TMC3    C1 7559   4.674   1.498  15.551 -0.0444 -0.7169  0.3898
  509TMC3    C2 7560   0.084   1.492  15.513 -0.1679 -0.1881  0.0931
  509TMC3    C3 7561   0.157   1.389  15.570 -0.2486 -0.3740  0.4192
  509TMC3    C4 7562   4.624   1.418  15.647  0.5619 -0.4906 -0.3255
  509TMC3    C5 7563   4.707   1.325  15.704  0.5118  0.5402 -0.2320
  509TMC3    C6 7564   0.112   1.313  15.678 -0.3274  0.2911 -0.0056
  509TMC3     C 7565   4.581   1.597  15.491  0.4852 -0.0790 -0.4974
  509TMC3     O 7566   4.462   1.586  15.507 -0.0110 -0.4967 -0.3799
  509TMC3     H 7567   0.115   1.545  15.424  0.7551  1.0085  1.1485
  509TMC3    H1 7568   4.517   1.422  15.666  0.9834  1.9463  1.4719
  509TMC3    H2 7569   0.176   1.237  15.721  0.6288  0.7211 -0.6588
  509TMC3    C7 7570   4.647   1.224  15.795 -0.2755  0.0211  1.2534
  509TMC3    C8 7571   0.302   1.375  15.537 -0.2285 -0.2124  1.0261
  509TMC3    O1 7572   4.527   1.222  15.789  0.5548 -0.2074 -0.6807
  509TMC3    O2 7573   0.360   1.277  15.564 -0.2039 -0.3088 -0.0337
  510MPD2     C 7574   2.986   2.558  14.254  0.7290  0.9094 -0.3482
  510MPD2    C1 7575   3.058   2.504  14.360 -0.0807  0.2988  0.2978
  510MPD2    C2 7576   3.193   2.538  14.369 -0.1289 -0.0252 -0.4399
  510MPD2    C3 7577   3.257   2.622  14.286  0.1169 -0.1703 -0.5060
  510MPD2    C4 7578   3.171   2.682  14.189  0.5908 -0.3664 -0.7968
  510MPD2    C5 7579   3.043   2.648  14.168  0.8624  0.4937  0.2227
  510MPD2     H 7580   3.256   2.489  14.442 -0.1516  0.8549  0.1757
  510MPD2    H1 7581   3.205   2.757  14.118 -1.4697  1.2602 -0.0598
  510MPD2    H2 7582   2.878   2.554  14.254  0.6483  2.9064 -0.6627
  510MPD2    H3 7583   2.983   2.698  14.092  0.4125 -1.7144 -0.8771
  510MPD2     N 7584   3.395   2.648  14.301 -0.1066  0.1665  0.4449
  510MPD2    H5 7585   3.438   2.608  14.383 -0.8917  0.5772  1.0559
  510MPD2    N1 7586   2.987   2.426  14.449  0.3108  0.0614  0.7260
  510MPD2    H7 7587   2.888   2.414  14.432  0.2438 -0.0332  1.1826
  511TMC3    C1 7588   2.945   2.311  14.636  0.3227 -0.1327  0.2154
  511TMC3    C2 7589   2.893   2.344  14.760  0.4794  0.9738  0.0167
  511TMC3    C3 7590   2.780   2.274  14.807 -0.4141 -1.2052  0.5923
  511TMC3    C4 7591   2.880   2.226  14.549  0.7489  0.4679 -0.3752
  511TMC3    C5 7592   2.775   2.164  14.597 -0.5037 -0.3439 -0.2040
  511TMC3    C6 7593   2.722   2.177  14.725 -0.1535  0.8941  0.5828
  511TMC3     C 7594   3.037   2.391  14.573  0.0960  0.8326  0.3965
  511TMC3     O 7595   3.131   2.441  14.638  0.1303 -0.2856  0.0883
  511TMC3     H 7596   2.945   2.414  14.824  0.4431  0.9086  0.1182
  511TMC3    H1 7597   2.907   2.204  14.446  0.3779  2.1672 -0.8446
  511TMC3    H2 7598   2.635   2.118  14.749  1.2577 -0.3896  2.4950
  511TMC3    C7 7599   2.709   2.073  14.498 -0.2751 -0.1554  0.1683
  511TMC3    C8 7600   2.728   2.299  14.936  0.2145  0.0534 -0.1373
  511TMC3    O1 7601   2.719   2.106  14.382  0.5035 -0.1266  0.4876
  511TMC3    O2 7602   2.776   2.393  14.994 -0.0635 -0.4662 -0.1870
  512TMC3    C1 7603   2.044   2.056  13.018  0.4462 -0.6652  0.3216
  512TMC3    C2 7604   2.086   2.065  13.149  0.2266 -0.8244  0.3200
  512TMC3    C3 7605   2.178   1.971  13.193  0.9247  0.3836  0.0455
  512TMC3    C4 7606   2.070   1.943  12.941 -0.0982  0.4541  0.9377
  512TMC3    C5 7607   2.146   1.840  12.997 -0.4272  0.1097 -0.3582
  512TMC3    C6 7608   2.193   1.854  13.123  0.6868 -0.1295  0.2930
  512TMC3     C 7609   1.960   2.156  12.951 -0.0274 -0.7853 -0.6875
  512TMC3     O 7610   1.959   2.156  12.831 -0.6780  0.1976  0.1445
  512TMC3     H 7611   2.052   2.140  13.220 -0.4054  0.8241 -1.6931
  512TMC3    H1 7612   2.021   1.919  12.847 -1.4759  1.3604  1.4072
  512TMC3    H2 7613   2.267   1.782  13.157  0.4063 -0.2651  0.6225
  512TMC3    C7 7614   2.173   1.738  12.904 -0.4385 -0.0199 -0.1209
  512TMC3    C8 7615   2.191   1.949  13.339  0.8868 -0.3433  0.3211
  512TMC3    O1 7616   2.159   1.765  12.785 -0.2682 -0.2928  0.0136
  512TMC3    O2 7617   2.172   1.839  13.388 -0.9576 -0.4254  0.0575
  513MPD2     C 7618   3.756   1.515  12.462 -0.4111  0.2453 -0.6457
  513MPD2    C1 7619   3.861   1.457  12.394  0.0039 -0.7615 -0.2949
  513MPD2    C2 7620   3.987   1.479  12.433  0.4121  0.2330  0.4307
  513MPD2    C3 7621   4.011   1.552  12.543 -0.2550 -0.1390  1.0936
  513MPD2    C4 7622   3.904   1.601  12.622 -0.1286  0.1166  0.6634
  513MPD2    C5 7623   3.777   1.583  12.573  0.0623 -0.1569  0.1423
  513MPD2     H 7624   4.071   1.454  12.369 -0.6962  0.3548 -1.0973
  513MPD2    H1 7625   3.921   1.661  12.710 -0.1521 -1.4718  1.7419
  513MPD2    H2 7626   3.651   1.499  12.439 -0.0632  0.0596 -2.1609
  513MPD2    H3 7627   3.693   1.624  12.628 -1.0700 -1.1231 -0.8849
  513MPD2     N 7628   4.145   1.573  12.575 -0.5118 -0.6022  0.3979
  513MPD2    H5 7629   4.213   1.547  12.504  0.2974  0.6945  0.7077
  513MPD2    N1 7630   3.829   1.374  12.280  0.1539 -0.3893  0.2236
  513MPD2    H7 7631   3.731   1.375  12.255 -0.0147  0.5060  0.9468
  514TMC3    C1 7632   3.874   1.231  12.100  0.2757  0.4141  0.1525
  514TMC3    C2 7633   3.770   1.281  12.033 -0.0557 -0.1417 -0.2757
  514TMC3    C3 7634   3.783   1.303  11.902  0.1962 -0.4733 -0.0612
  514TMC3    C4 7635   3.976   1.183  12.025  0.0120 -0.2461 -0.1079
  514TMC3    C5 7636   3.988   1.200  11.892  0.1549  0.3969  0.1247
  514TMC3    C6 7637   3.890   1.263  11.826 -0.5282 -0.2449  0.3726
  514TMC3     C 7638   3.916   1.294  12.220  0.2249  0.7799 -0.0582
  514TMC3     O 7639   4.038   1.281  12.240  0.1021 -0.4155 -0.0039
  514TMC3     H 7640   3.687   1.330  12.083  2.9697  4.4420  0.2284
  514TMC3    H1 7641   4.046   1.116  12.073  1.7360  0.9885 -0.8836
  514TMC3    H2 7642   3.897   1.280  11.719 -0.3760 -0.9325  0.2766
  514TMC3    C7 7643   4.111   1.246  11.852 -0.1203 -0.8467  0.3232
  514TMC3    C8 7644   3.651   1.329  11.837  0.0078  0.0670  0.5907
  514TMC3    O1 7645   4.145   1.238  11.737 -0.0453  0.6758 -0.0468
  514TMC3    O2 7646   3.547   1.302  11.893 -0.2781 -0.2680 -0.2964
  515MPD2     C 7647   2.002   3.634  14.658 -0.4718  0.0421  0.1742
  515MPD2    C1 7648   2.041   3.502  14.658  0.1611  0.5406 -0.3620
  515MPD2    C2 7649   2.118   3.448  14.759 -0.1293  0.4319 -0.5747
  515MPD2    C3 7650   2.177   3.533  14.853  0.5428  0.5992  0.6505
  515MPD2    C4 7651   2.150   3.666  14.844 -0.0790  0.2067  0.9482
  515MPD2    C5 7652   2.067   3.714  14.741  0.0873  0.1049 -0.2820
  515MPD2     H 7653   2.127   3.342  14.775  1.8230  0.7591  0.4906
  515MPD2    H1 7654   2.200   3.738  14.908  0.9373 -0.3232  0.7492
  515MPD2    H2 7655   1.936   3.683  14.587 -0.2546 -1.0615 -0.7888
  515MPD2    H3 7656   2.054   3.822  14.734  1.4808  0.1818 -1.8705
  515MPD2     N 7657   2.267   3.500  14.956  0.2514  0.4439  0.2494
  515MPD2    H5 7658   2.302   3.575  15.014 -0.9777  0.0838  1.4455
  515MPD2    N1 7659   1.988   3.412  14.558  0.5625 -0.3485 -0.9229
  515MPD2    H7 7660   2.018   3.315  14.564  0.6072 -0.3825 -1.6998
  516TMC3    C1 7661   1.844   3.326  14.393  0.8570 -0.1996  0.7493
  516TMC3    C2 7662   1.755   3.359  14.292 -0.7491 -0.3717  0.7587
  516TMC3    C3 7663   1.670   3.251  14.250 -0.2969 -0.7122  0.3424
  516TMC3    C4 7664   1.851   3.197  14.448  0.6078  0.2509 -0.5218
  516TMC3    C5 7665   1.777   3.099  14.390  0.2258 -0.3673 -0.7048
  516TMC3    C6 7666   1.678   3.126  14.296 -0.1536  0.1379  0.3109
  516TMC3     C 7667   1.896   3.446  14.464  0.0889  0.1682  0.1168
  516TMC3     O 7668   1.862   3.554  14.421  0.3050  0.0341  0.2860
  516TMC3     H 7669   1.747   3.457  14.247  0.5866 -1.0958 -1.0636
  516TMC3    H1 7670   1.906   3.176  14.539  1.2323 -0.3641 -1.0450
  516TMC3    H2 7671   1.613   3.052  14.249 -0.7761  0.1019  1.2303
  516TMC3    C7 7672   1.775   2.968  14.456 -0.0845 -0.2332 -0.8032
  516TMC3    C8 7673   1.575   3.283  14.155 -1.1782 -0.8778 -0.1743
  516TMC3    O1 7674   1.836   2.960  14.562  0.6331 -1.3457 -0.0652
  516TMC3    O2 7675   1.464   3.234  14.170 -0.5825  0.1054 -0.0614
  517MPD2     C 7676   0.944   0.201  17.414  0.0781 -0.1046  0.5212
  517MPD2    C1 7677   1.054   0.153  17.474  0.4945 -0.1819  0.3828
  517MPD2    C2 7678   1.084   0.188  17.601 -1.0356 -0.6206 -0.6676
  517MPD2    C3 7679   1.006   0.282  17.662 -0.4775 -0.0436  0.0878
  517MPD2    C4 7680   0.896   0.333  17.598  0.7115  0.4113 -0.6514
  517MPD2    C5 7681   0.862   0.293  17.477  0.6406 -0.5785  0.0107
  517MPD2     H 7682   1.164   0.142  17.658 -2.7797 -1.4326  1.1172
  517MPD2    H1 7683   0.824   0.398  17.647  0.9686 -0.2655  0.6256
  517MPD2    H2 7684   0.910   0.181  17.313 -1.7170 -1.7050  1.4437
  517MPD2    H3 7685   0.769   0.326  17.432  0.4279 -0.4978  0.5175
  517MPD2     N 7686   1.049   0.322   0.099  0.1392 -0.1066 -0.7169
  517MPD2    H5 7687   0.974   0.355   0.159 -0.9019 -1.0141 -1.5122
  517MPD2    N1 7688   1.148   0.067  17.409  0.8928 -0.6757  0.0839
  517MPD2    H7 7689   1.234   0.036  17.454  1.3454  0.5129  0.0351
  518TMC3    C1 7690   1.234   4.640  17.264  0.3337 -0.2563 -0.7994
  518TMC3    C2 7691   1.211   4.547  17.164 -0.0718 -0.4217 -0.4492
  518TMC3    C3 7692   1.312   4.459  17.134  0.4320  0.0903 -0.5407
  518TMC3    C4 7693   1.356   4.661  17.311 -0.2021 -0.7407 -0.0822
  518TMC3    C5 7694   1.458   4.578  17.265 -0.3193 -0.1945 -0.3368
  518TMC3    C6 7695   1.435   4.465  17.183  0.3402 -0.1776  0.7177
  518TMC3     C 7696   1.126   0.002  17.292  0.1695 -0.0636 -0.0474
  518TMC3     O 7697   1.024   4.712  17.223 -0.4679 -0.6596  0.5676
  518TMC3     H 7698   1.112   4.532  17.123 -0.2287 -1.4168  0.2753
  518TMC3    H1 7699   1.386   0.020  17.375  0.6551 -1.3648  0.3077
  518TMC3    H2 7700   1.528   4.415  17.157  0.1528  0.3993 -1.0996
  518TMC3    C7 7701   1.580   4.594  17.336  0.0465 -0.2162 -0.7798
  518TMC3    C8 7702   1.289   4.368  17.020  0.4100 -0.7698 -0.0722
  518TMC3    O1 7703   1.574   4.621  17.456  0.0827  0.5269  0.4668
  518TMC3    O2 7704   1.221   4.416  16.928  0.2691 -0.0224  0.2284
  519MPD2     C 7705   2.982   3.101  14.400  0.6130  0.9065  0.6399
  519MPD2    C1 7706   2.961   3.172  14.276 -1.1364  0.4367  0.4683
  519MPD2    C2 7707   3.048   3.153  14.168 -0.0464 -0.0149  0.0847
  519MPD2    C3 7708   3.146   3.051  14.182 -0.4755  0.3167  0.4464
  519MPD2    C4 7709   3.163   2.988  14.303  0.4373 -0.6056  0.9844
  519MPD2    C5 7710   3.078   3.011  14.402  0.0361  0.2682 -0.0598
  519MPD2     H 7711   3.032   3.204  14.074  0.8104  0.9306  0.4615
  519MPD2    H1 7712   3.246   2.922  14.325  0.7495  0.3565  2.6857
  519MPD2    H2 7713   2.921   3.101  14.490  0.2571 -0.7884  0.3895
  519MPD2    H3 7714   3.102   2.960  14.494 -0.7865 -1.6057 -0.8698
  519MPD2     N 7715   3.220   3.019  14.071  0.0325  0.5439 -0.3858
  519MPD2    H5 7716   3.302   2.961  14.084 -2.1155 -2.4710 -0.4485
  519MPD2    N1 7717   2.854   3.274  14.262 -0.0085  0.1287  0.7116
  519MPD2    H7 7718   2.785   3.282  14.336 -0.1927  0.4454  0.5046
  520TMC3    C1 7719   3.283   3.024  13.846 -0.1585 -0.2953  0.8346
  520TMC3    C2 7720   3.256   3.085  13.725  0.3814 -0.0737 -0.0212
  520TMC3    C3 7721   3.350   3.172  13.675 -0.3879 -0.1392 -0.3261
  520TMC3    C4 7722   3.408   3.011  13.891 -0.4321  0.6851  0.3682
  520TMC3    C5 7723   3.509   3.088  13.832 -1.1568  0.8537 -0.1762
  520TMC3    C6 7724   3.477   3.176  13.732  0.2537 -0.2801 -0.3755
  520TMC3     C 7725   3.177   3.038  13.943 -0.1186  0.6862 -0.0623
  520TMC3     O 7726   3.064   3.059  13.899  0.2081  0.7056  0.1034
  520TMC3     H 7727   3.155   3.085  13.686  0.8900 -1.3408 -1.3192
  520TMC3    H1 7728   3.432   2.956  13.981 -0.2543 -0.6463 -0.4956
  520TMC3    H2 7729   3.544   3.246  13.683 -2.0450  0.9120 -1.8448
  520TMC3    C7 7730   3.646   3.067  13.873  0.6929 -0.1098  0.4446
  520TMC3    C8 7731   3.325   3.253  13.556 -0.5072  1.2328  0.3374
  520TMC3    O1 7732   3.660   2.996  13.970  0.2613 -0.6573 -0.0242
  520TMC3    O2 7733   3.407   3.333  13.518 -0.6927 -0.0950 -0.3662
  521MPD2     C 7734   4.018   1.779  17.413  0.0837  0.3064 -0.6199
  521MPD2    C1 7735   3.996   1.660  17.349  0.0037  0.2896  0.0000
  521MPD2    C2 7736   4.100   1.573  17.334 -0.1719 -0.0296 -0.2199
  521MPD2    C3 7737   4.224   1.602  17.381 -1.1755 -0.2262 -0.6388
  521MPD2    C4 7738   4.246   1.720  17.447 -0.0476 -0.4628 -0.8166
  521MPD2    C5 7739   4.144   1.810  17.461  0.1398  0.0175 -0.2818
  521MPD2     H 7740   4.072   1.474  17.301 -0.2019  0.5737 -2.0103
  521MPD2    H1 7741   4.343   1.753  17.484 -1.4454  1.1357  1.4019
  521MPD2    H2 7742   3.942   1.855  17.422 -0.8917 -0.3321 -3.4443
  521MPD2    H3 7743   4.171   1.902  17.511 -0.0397  0.6271 -1.3074
  521MPD2     N 7744   4.320   1.494  17.364  0.3504  0.2137 -0.1297
  521MPD2    H5 7745   4.278   1.408  17.333  2.2752 -0.5330 -0.6562
  521MPD2    N1 7746   3.860   1.628  17.311 -0.3630 -0.1891  0.1847
  521MPD2    H7 7747   3.782   1.681  17.348 -1.0255 -0.1895 -1.2280
  522TMC3    C1 7748   4.518   1.365  17.358  0.7447  0.3225  0.4800
  522TMC3    C2 7749   4.653   1.367  17.343 -0.6818  0.0278  0.4815
  522TMC3    C3 7750   4.704   1.251  17.298  0.0025  0.0225 -0.1164
  522TMC3    C4 7751   4.433   1.265  17.320  0.6090 -0.1429  0.4794
  522TMC3    C5 7752   4.494   1.152  17.280 -0.0929 -0.0067 -0.3236
  522TMC3    C6 7753   4.625   1.140  17.285  0.2956  0.8039  0.1492
  522TMC3     C 7754   4.453   1.491  17.400  0.0187  0.6900  0.4170
  522TMC3     O 7755   4.525   1.584  17.441 -0.0397  0.4687 -0.2218
  522TMC3     H 7756   4.702   1.464  17.338  0.8380 -0.8148 -1.1407
  522TMC3    H1 7757   4.328   1.278  17.341  0.9171  3.6016 -0.3423
  522TMC3    H2 7758   4.659   1.049  17.236 -0.9242 -1.4239  3.4028
  522TMC3    C7 7759   4.406   1.043  17.232  0.1191  0.0212 -0.2215
  522TMC3    C8 7760   0.118   1.256  17.267 -0.0559 -0.0417 -0.7685
  522TMC3    O1 7761   4.449   0.928  17.234 -0.5023 -0.0331  0.3717
  522TMC3    O2 7762   0.180   1.354  17.310 -0.0178  0.2977 -0.4588
  523MPD2     C 7763   2.129   1.719  10.120 -0.0634 -0.2859 -0.3752
  523MPD2    C1 7764   2.057   1.688  10.010  0.2849 -0.4723  0.3499
  523MPD2    C2 7765   1.991   1.787   9.940 -0.1265  0.5366  0.3376
  523MPD2    C3 7766   1.989   1.919   9.988  0.3951 -0.1214 -0.8272
  523MPD2    C4 7767   2.060   1.950  10.100 -0.0387  0.1939 -0.2138
  523MPD2    C5 7768   2.131   1.852  10.158 -0.4076  0.3488  0.2815
  523MPD2     H 7769   1.928   1.753   9.859  3.1238 -0.1062 -1.9128
  523MPD2    H1 7770   2.059   2.041  10.159  1.6900  0.5005 -0.6699
  523MPD2    H2 7771   2.180   1.655  10.190 -0.6811  1.8451  2.0369
  523MPD2    H3 7772   2.189   1.885  10.244 -0.5404 -1.2859  0.9813
  523MPD2     N 7773   1.928   2.027   9.924 -0.0203  0.0297  0.4917
  523MPD2    H5 7774   1.949   2.117   9.968 -0.8367  1.2874 -1.6706
  523MPD2    N1 7775   2.069   1.553   9.979  0.3841  0.4317  0.1808
  523MPD2    H7 7776   2.109   1.491  10.049  1.1843  2.2577  1.3322
  524TMC3    C1 7777   1.794   2.154   9.778  0.8686 -0.4058  0.5608
  524TMC3    C2 7778   1.712   2.161   9.673  0.4391 -0.2828  0.3061
  524TMC3    C3 7779   1.691   2.288   9.620  0.2319 -0.1484 -0.0734
  524TMC3    C4 7780   1.849   2.269   9.834  0.1590 -0.1356 -0.3801
  524TMC3    C5 7781   1.815   2.394   9.787 -0.9367  0.1572 -0.0383
  524TMC3    C6 7782   1.730   2.405   9.682 -0.1374  0.3194 -0.1592
  524TMC3     C 7783   1.837   2.021   9.817  0.2898 -0.4993 -0.3994
  524TMC3     O 7784   1.794   1.923   9.758 -0.1571 -0.2803  0.3542
  524TMC3     H 7785   1.698   2.077   9.606 -1.8628 -1.2952  2.0619
  524TMC3    H1 7786   1.916   2.260   9.919  0.6985 -1.0398 -0.8914
  524TMC3    H2 7787   1.713   2.497   9.626 -1.6549 -0.2088 -0.5630
  524TMC3    C7 7788   1.899   2.503   9.822 -0.2016 -0.0366  0.0958
  524TMC3    C8 7789   1.591   2.300   9.507 -0.1709  0.5171 -0.3774
  524TMC3    O1 7790   2.009   2.487   9.867 -0.1143 -0.2793  0.1875
  524TMC3    O2 7791   1.570   2.408   9.451  0.2462  0.3431  0.3576
  525MPD2     C 7792   4.592   3.042  14.305 -0.0959 -0.4051  0.0007
  525MPD2    C1 7793   4.708   3.058  14.373 -0.3133 -0.2491 -0.3656
  525MPD2    C2 7794   0.061   3.168  14.348 -0.3067 -0.0994 -0.5486
  525MPD2    C3 7795   0.029   3.260  14.243  0.6766  0.4884  0.1991
  525MPD2    C4 7796   4.644   3.218  14.164 -0.0210 -0.4363 -0.0774
  525MPD2    C5 7797   4.566   3.112  14.194 -0.2147  0.6280  0.6042
  525MPD2     H 7798   0.154   3.180  14.403 -0.3487 -0.4844 -0.3989
  525MPD2    H1 7799   4.616   3.285  14.084  1.0068 -0.1862 -0.2337
  525MPD2    H2 7800   4.526   2.956  14.319  0.0133 -0.1341  2.1781
  525MPD2    H3 7801   4.486   3.094  14.123  0.0663  1.5335  0.0678
  525MPD2     N 7802   0.096   3.383  14.226 -0.1138 -0.3461  0.5771
  525MPD2    H5 7803   0.055   3.447  14.159 -1.7066 -2.4135 -0.4461
  525MPD2    N1 7804   0.021   2.988  14.490 -0.0773 -0.1006  0.4849
  525MPD2    H7 7805   0.096   3.028  14.544 -0.5397  2.0330 -0.4825
  526TMC3    C1 7806   0.018   2.832  14.671 -0.3385 -0.5846 -1.2623
  526TMC3    C2 7807   4.662   2.769  14.765 -0.0974 -0.5513 -0.4705
  526TMC3    C3 7808   0.002   2.696  14.863  0.9235 -0.7234 -0.9463
  526TMC3    C4 7809   0.155   2.834  14.679  0.4715 -0.3932 -0.2425
  526TMC3    C5 7810   0.214   2.767  14.781  0.1944 -0.0793 -0.3936
  526TMC3    C6 7811   0.138   2.700  14.868 -0.0133  0.2689 -0.2683
  526TMC3     C 7812   4.674   2.893  14.559  0.7619  0.0887  0.1897
  526TMC3     O 7813   4.558   2.856  14.541  0.2924 -0.5743  0.0271
  526TMC3     H 7814   4.558   2.756  14.737 -0.8963  0.8723  1.8075
  526TMC3    H1 7815   0.203   2.866  14.587 -2.2041  0.6160 -1.2858
  526TMC3    H2 7816   0.187   2.643  14.946  0.1879 -0.9959 -1.3223
  526TMC3    C7 7817   0.357   2.734  14.772 -0.1829  0.3149  0.4301
  526TMC3    C8 7818   4.659   2.680  14.996  0.8213  0.4618 -0.5324
  526TMC3    O1 7819   0.401   2.646  14.845  0.1588  0.1843  0.0356
  526TMC3    O2 7820   0.021   2.666  15.087 -0.2556  0.3200 -0.2069
  527MPD2     C 7821   2.174   0.482   0.779  0.5317 -0.0356 -0.1043
  527MPD2    C1 7822   2.223   0.426   0.896 -0.7264  0.5163  0.5565
  527MPD2    C2 7823   2.356   0.452   0.934 -0.8629 -0.3446 -0.3294
  527MPD2    C3 7824   2.439   0.536   0.861  0.3152  0.4775  0.5810
  527MPD2    C4 7825   2.381   0.584   0.748 -0.5571 -0.2135  0.4359
  527MPD2    C5 7826   2.252   0.561   0.710  0.2260 -0.4105  0.1386
  527MPD2     H 7827   2.402   0.405   1.020 -0.0377  2.4490  0.7698
  527MPD2    H1 7828   2.430   0.661   0.689 -1.3879 -0.4475 -0.5685
  527MPD2    H2 7829   2.072   0.477   0.744  0.4972  0.8315 -0.1330
  527MPD2    H3 7830   2.210   0.614   0.626  1.9367  0.6942 -0.0251
  527MPD2     N 7831   2.573   0.567   0.901 -0.1234 -0.0944 -0.2032
  527MPD2    H5 7832   2.607   0.528   0.988  0.0540 -1.3475 -0.8362
  527MPD2    N1 7833   2.147   0.353   0.981  0.5121 -0.8026  0.7580
  527MPD2    H7 7834   2.189   0.313   1.064 -1.1067  0.0527  1.9882
  528TMC3    C1 7835   1.964   0.232   1.060 -0.2466 -0.7542 -0.0291
  528TMC3    C2 7836   2.023   0.237   1.183  0.4754 -0.0284  0.4869
  528TMC3    C3 7837   1.958   0.176   1.289 -0.9657 -1.0445 -0.1223
  528TMC3    C4 7838   1.846   0.174   1.038 -0.2602  0.2907  0.5906
  528TMC3    C5 7839   1.796   0.105   1.146 -0.1279  0.0634 -0.5015
  528TMC3    C6 7840   1.847   0.097   1.273 -0.5883  0.3350  0.7531
  528TMC3     C 7841   2.014   0.314   0.956  0.1947  0.0998  0.1088
  528TMC3     O 7842   1.945   0.329   0.855 -0.5747 -0.7240 -0.2761
  528TMC3     H 7843   2.098   0.311   1.210 -0.1951  0.6764  0.3953
  528TMC3    H1 7844   1.813   0.152   0.937 -0.2280  1.3613  0.3483
  528TMC3    H2 7845   1.784   0.060   1.354 -2.0979  0.9743 -0.1299
  528TMC3    C7 7846   1.662   0.046   1.136 -0.4619  0.0269 -0.4656
  528TMC3    C8 7847   2.016   0.188   1.416 -0.0144  0.2839  0.0359
  528TMC3    O1 7848   1.633   4.668   1.200  0.2161 -0.3138 -0.2359
  528TMC3    O2 7849   2.127   0.232   1.422 -0.7656  0.0317 -0.1397
  529MPD2     C 7850   0.405   2.891   0.784 -0.1349  0.3944 -0.1480
  529MPD2    C1 7851   0.316   2.964   0.849 -0.5882  0.4495  0.4024
  529MPD2    C2 7852   0.243   3.062   0.787 -0.1075 -0.2063 -0.4787
  529MPD2    C3 7853   0.268   3.096   0.653 -0.7868 -1.2650 -1.0007
  529MPD2    C4 7854   0.359   3.025   0.582 -0.3734  0.0950  0.5339
  529MPD2    C5 7855   0.415   2.920   0.647 -0.1370  0.6601 -0.1494
  529MPD2     H 7856   0.185   3.126   0.852 -0.7778 -1.4698  0.1697
  529MPD2    H1 7857   0.388   3.054   0.481  2.7227 -2.2752  0.7320
  529MPD2    H2 7858   0.457   2.807   0.828 -1.3036 -0.5658 -0.5928
  529MPD2    H3 7859   0.495   2.868   0.597 -0.6275 -0.1810 -0.0561
  529MPD2     N 7860   0.216   3.211   0.587  0.5835  0.3533  0.1358
  529MPD2    H5 7861   0.252   3.243   0.498  1.7495 -0.3352  0.3553
  529MPD2    N1 7862   0.309   2.953   0.990 -0.3283 -1.0576 -0.4734
  529MPD2    H7 7863   0.270   3.026   1.049  1.1246 -0.4287 -0.2981
  530TMC3    C1 7864   0.349   2.861   1.211  0.4597  0.2375  0.5555
  530TMC3    C2 7865   0.396   2.753   1.281 -0.9593  0.3526 -0.4982
  530TMC3    C3 7866   0.446   2.776   1.411 -0.5318  0.7188  0.3670
  530TMC3    C4 7867   0.356   2.981   1.267  0.6891  0.6176 -1.0309
  530TMC3    C5 7868   0.407   2.998   1.392  0.8796  0.4541  0.4767
  530TMC3    C6 7869   0.458   2.898   1.466 -0.4195  0.2258  0.7723
  530TMC3     C 7870   0.349   2.843   1.062 -0.2482  1.6158 -0.3584
  530TMC3     O 7871   0.373   2.732   1.021  0.3623  0.4170 -0.2531
  530TMC3     H 7872   0.401   2.656   1.233 -0.8908  1.2255 -2.2326
  530TMC3    H1 7873   0.333   3.072   1.212  0.4516  0.2395 -1.5572
  530TMC3    H2 7874   0.504   2.917   1.562  3.9507 -0.7239 -1.1078
  530TMC3    C7 7875   0.416   3.127   1.453 -0.0374 -0.0780  0.0833
  530TMC3    C8 7876   0.533   2.671   1.463 -0.6088  1.4485 -0.1403
  530TMC3    O1 7877   0.503   3.142   1.537  0.4584 -0.0422  0.2945
  530TMC3    O2 7878   0.498   2.557   1.460 -0.5005  0.0034  0.4153
  531MPD2     C 7879   4.540   1.487  12.005  0.4724 -0.2269 -0.0532
  531MPD2    C1 7880   4.452   1.472  12.113  0.3713  0.5301  0.3492
  531MPD2    C2 7881   4.336   1.404  12.100  0.8397  0.8803  1.0243
  531MPD2    C3 7882   4.302   1.354  11.977 -0.1075 -0.3390 -0.0659
  531MPD2    C4 7883   4.386   1.371  11.867  1.1462  0.2551 -0.0174
  531MPD2    C5 7884   4.505   1.438  11.878 -0.1241 -0.7386 -0.4054
  531MPD2     H 7885   4.260   1.401  12.178  0.1600  1.0841  0.3659
  531MPD2    H1 7886   4.358   1.345  11.766 -1.1847  0.6145  0.5348
  531MPD2    H2 7887   4.636   1.531  12.029  1.1377 -1.6939 -0.0431
  531MPD2    H3 7888   4.573   1.453  11.794  0.4903  0.9934  0.3955
  531MPD2     N 7889   4.177   1.296  11.962 -0.3811 -0.1110 -0.2037
  531MPD2    H5 7890   4.126   1.299  12.050 -0.4287  2.0781 -0.2963
  531MPD2    N1 7891   4.500   1.530  12.233  0.1321 -0.1853 -0.2392
  531MPD2    H7 7892   4.588   1.582  12.233  0.4975 -0.8054 -0.5593
  532TMC3    C1 7893   4.471   1.592  12.474  0.4570  0.3305 -1.0976
  532TMC3    C2 7894   4.394   1.559  12.584 -0.0339 -0.3075  0.0525
  532TMC3    C3 7895   4.345   1.664  12.651  0.5314  0.2688 -0.1942
  532TMC3    C4 7896   4.516   1.719  12.444  0.0763 -0.7038 -0.6457
  532TMC3    C5 7897   4.471   1.822  12.523  1.2221 -0.0508  0.2774
  532TMC3    C6 7898   4.379   1.797  12.626 -0.0775 -0.0285 -0.0340
  532TMC3     C 7899   4.428   1.507  12.356  0.3596 -0.8290  0.3113
  532TMC3     O 7900   4.336   1.430  12.383  0.5892  0.2938  0.3019
  532TMC3     H 7901   4.362   1.456  12.598  0.5772 -0.3341  1.2509
  532TMC3    H1 7902   4.571   1.740  12.353  0.2440  1.3930 -0.0728
  532TMC3    H2 7903   4.324   1.875  12.678  1.5315  0.6370  0.6587
  532TMC3    C7 7904   4.503   1.956  12.481  0.0374 -0.1303 -0.4491
  532TMC3    C8 7905   4.195   1.649  12.682  0.8846  0.4348  0.0364
  532TMC3    O1 7906   4.527   1.972  12.363 -0.2584  0.3247  0.1784
  532TMC3    O2 7907   4.126   1.720  12.755  0.4729  0.1584  0.5374
  533TMC3    C1 7908   0.240   3.560  14.250  0.2785 -0.7817  0.3543
  533TMC3    C2 7909   0.370   3.574  14.286 -0.4487  0.1141 -0.0102
  533TMC3    C3 7910   0.405   3.681  14.369 -0.8803 -0.4436  0.1398
  533TMC3    C4 7911   0.142   3.640  14.302  0.1547  0.1257 -0.3572
  533TMC3    C5 7912   0.167   3.727  14.400 -0.2154  0.1374 -0.5027
  533TMC3    C6 7913   0.304   3.760  14.416  0.4466  0.2334 -0.1014
  533TMC3     C 7914   0.212   3.420  14.271 -0.1748  0.4163  0.2677
  533TMC3     O 7915   0.300   3.360  14.324  0.3544  0.4516 -0.0403
  533TMC3     H 7916   0.442   3.516  14.229  0.8260 -0.1700  1.8656
  533TMC3    H1 7917   0.036   3.620  14.286 -0.2791 -0.1288  2.7448
  533TMC3    H2 7918   0.343   3.842  14.477 -1.5624  2.0842 -1.3417
  533TMC3    C7 7919   0.112   3.688  14.531  0.9719 -0.5446  0.1501
  533TMC3    C8 7920   0.542   3.740  14.361  0.2822  0.6348 -0.5513
  533TMC3    O1 7921   0.062   3.578  14.549  0.6802  0.4839  0.3411
  533TMC3    O2 7922   0.547   3.860  14.384 -0.5290  0.5558 -0.1726
  534MPD2     C 7923   1.490   4.377   1.895  0.4552  0.5788  0.3329
  534MPD2    C1 7924   1.578   4.327   1.795  0.0024  0.8516  0.4074
  534MPD2    C2 7925   1.530   4.235   1.708  0.7143  0.0802 -0.2856
  534MPD2    C3 7926   1.402   4.183   1.721  0.5054  0.3521 -0.1855
  534MPD2    C4 7927   1.324   4.227   1.825 -0.6229 -0.0713  0.1942
  534MPD2    C5 7928   1.364   4.332   1.902 -0.7030 -0.1991  0.7929
  534MPD2     H 7929   1.598   4.217   1.625 -0.7425  1.1173 -1.7108
  534MPD2    H1 7930   1.225   4.185   1.835  0.0944 -1.8364 -0.1659
  534MPD2    H2 7931   1.525   4.463   1.950  0.6095  1.2601 -0.8226
  534MPD2    H3 7932   1.300   4.378   1.977  1.1427 -1.7240  3.2899
  534MPD2     N 7933   1.367   4.069   1.657 -0.7730 -0.2933  0.4848
  534MPD2    H5 7934   1.269   4.045   1.662 -0.8149 -0.0445  0.8848
  534MPD2    N1 7935   1.711   4.373   1.766  0.9237  0.4628  0.3805
  534MPD2    H7 7936   1.749   4.343   1.676  1.1209  1.1026  0.2486
  535TMC3    C1 7937   1.380   3.889   1.503 -0.9434  0.3244  0.0026
  535TMC3    C2 7938   1.261   3.837   1.537 -0.3102  0.2495 -0.5738
  535TMC3    C3 7939   1.223   3.726   1.469 -0.0430 -0.2037  0.0103
  535TMC3    C4 7940   1.457   3.828   1.409  0.5787 -0.6706 -0.7585
  535TMC3    C5 7941   1.416   3.713   1.347  0.1404 -0.1026  0.0580
  535TMC3    C6 7942   1.290   3.669   1.367 -0.5276 -0.4185 -0.5680
  535TMC3     C 7943   1.445   4.008   1.563 -0.3527 -0.2249 -0.2714
  535TMC3     O 7944   1.568   4.000   1.558 -0.5407 -0.5036 -0.1831
  535TMC3     H 7945   1.197   3.866   1.620  1.4599  1.9316  0.1846
  535TMC3    H1 7946   1.547   3.875   1.370 -0.1920  1.2270 -0.2276
  535TMC3    H2 7947   1.256   3.586   1.305 -0.1413  2.3947 -4.5542
  535TMC3    C7 7948   1.493   3.671   1.232  0.2889 -0.2151 -0.1930
  535TMC3    C8 7949   1.087   3.678   1.486  0.6485  0.3964 -0.6303
  535TMC3    O1 7950   1.611   3.700   1.231 -0.3750  0.5637  0.5927
  535TMC3    O2 7951   1.066   3.558   1.468  0.2389  0.2807  0.7712
  536MPD2     C 7952   1.778   2.520  15.695 -0.0377  0.4561 -0.2120
  536MPD2    C1 7953   1.667   2.540  15.773  0.2580  0.1403  0.3913
  536MPD2    C2 7954   1.567   2.621  15.730  0.3659  0.8882  0.5317
  536MPD2    C3 7955   1.569   2.691  15.608 -0.8941 -0.4840  0.3620
  536MPD2    C4 7956   1.680   2.665  15.531 -0.2312  0.4945 -0.1593
  536MPD2    C5 7957   1.779   2.576  15.572 -0.3789  0.1488  0.0263
  536MPD2     H 7958   1.478   2.631  15.791 -1.8293  0.1172 -2.5027
  536MPD2    H1 7959   1.690   2.690  15.426  0.6925 -1.5365 -0.5400
  536MPD2    H2 7960   1.860   2.455  15.724  0.7384  0.7304 -1.7564
  536MPD2    H3 7961   1.863   2.570  15.503 -0.0417 -1.7129  0.5851
  536MPD2     N 7962   1.463   2.772  15.566 -0.4490  0.4766  0.5389
  536MPD2    H5 7963   1.472   2.813  15.473 -0.8150 -1.6865 -0.4537
  536MPD2    N1 7964   1.661   2.488  15.910  0.1015 -0.7580  0.7316
  536MPD2    H7 7965   1.742   2.437  15.943  0.1710 -0.9358  0.2734
  537TMC3    C1 7966   1.581   2.415  16.115  0.5226  0.3011  0.1680
  537TMC3    C2 7967   1.700   2.427  16.174 -0.1296 -0.3435 -0.0574
  537TMC3    C3 7968   1.712   2.367  16.297 -1.1361 -0.2699 -0.0051
  537TMC3    C4 7969   1.480   2.340  16.169 -0.0408  0.3547 -0.1312
  537TMC3    C5 7970   1.494   2.282  16.287 -0.2896 -0.7654 -1.1550
  537TMC3    C6 7971   1.614   2.294  16.363 -0.7424 -0.2682  0.9562
  537TMC3     C 7972   1.547   2.476  15.988 -0.1833 -0.0097  0.0228
  537TMC3     O 7973   1.428   2.495  15.962  0.1193 -0.2735  0.2803
  537TMC3     H 7974   1.773   2.498  16.138  0.3935 -0.7077  0.2944
  537TMC3    H1 7975   1.385   2.335  16.118 -0.2808  0.9336  0.2658
  537TMC3    H2 7976   1.647   2.223  16.438  1.0327  0.4079  0.8343
  537TMC3    C7 7977   1.364   2.225  16.334  0.3448 -0.4972 -0.0967
  537TMC3    C8 7978   1.819   2.405  16.388 -0.0926 -0.5170 -0.3232
  537TMC3    O1 7979   1.273   2.217  16.254  0.1727 -0.0150 -0.0543
  537TMC3    O2 7980   1.789   2.405  16.508 -0.1987 -0.9961  0.3418
  538TMC3    C1 7981   2.808   1.310  10.780 -0.0215 -0.1717  0.2724
  538TMC3    C2 7982   2.868   1.241  10.677 -0.0648  0.0312 -0.3127
  538TMC3    C3 7983   2.795   1.244  10.559 -0.7677 -0.4352  0.3678
  538TMC3    C4 7984   2.695   1.387  10.768 -0.5220 -0.1313  0.3102
  538TMC3    C5 7985   2.631   1.389  10.647 -0.9567  0.7636 -0.0808
  538TMC3    C6 7986   2.690   1.328  10.537  0.0200 -0.2197  0.0020
  538TMC3     C 7987   2.868   1.315  10.910  0.1109 -0.6268  0.4212
  538TMC3     O 7988   2.821   1.397  10.989  0.3033  0.7466 -0.0581
  538TMC3     H 7989   2.968   1.201  10.687  1.8257  3.6648 -4.9723
  538TMC3    H1 7990   2.668   1.452  10.850  1.0629 -0.5117  1.1375
  538TMC3    H2 7991   2.649   1.343  10.438 -0.3041 -3.3577 -0.3132
  538TMC3    C7 7992   2.504   1.463  10.626  0.2517 -0.1716  0.3225
  538TMC3    C8 7993   2.877   1.233  10.446 -0.9511  0.1328  0.0901
  538TMC3    O1 7994   2.457   1.457  10.511  0.3094 -0.4785  0.0202
  538TMC3    O2 7995   2.973   1.157  10.445  0.1208  0.6332 -0.6739
  539MPD2     C 7996   1.883   0.451  11.475  0.3657  0.1180 -0.7565
  539MPD2    C1 7997   1.988   0.534  11.423 -0.3875  0.3079 -0.0626
  539MPD2    C2 7998   1.981   0.667  11.457  0.1121 -0.1503 -0.7917
  539MPD2    C3 7999   1.876   0.717  11.535  0.1347 -0.2362  1.0062
  539MPD2    C4 8000   1.780   0.628  11.587 -0.4002 -1.0118  0.4347
  539MPD2    C5 8001   1.790   0.497  11.557  0.2438  0.4159  0.4371
  539MPD2     H 8002   2.060   0.728  11.414  1.8262 -0.2156  2.2627
  539MPD2    H1 8003   1.699   0.661  11.650 -0.7448 -1.2502  0.1187
  539MPD2    H2 8004   1.872   0.349  11.438  0.9024 -0.8462  1.7885
  539MPD2    H3 8005   1.706   0.437  11.591 -1.0759  0.5073 -2.6267
  539MPD2     N 8006   1.851   0.855  11.563 -0.8807  0.5212 -0.1158
  539MPD2    H5 8007   1.772   0.878  11.623 -0.2869  1.5858  0.2540
  539MPD2    N1 8008   2.087   0.489  11.342 -0.0804 -0.2051 -0.3373
  539MPD2    H7 8009   2.136   0.560  11.289  1.6147 -1.1348 -0.0074
  540TMC3    C1 8010   1.863   1.092  11.535 -0.5130 -0.6110 -0.5556
  540TMC3    C2 8011   1.933   1.197  11.492  0.0475 -0.7278  0.6000
  540TMC3    C3 8012   1.873   1.292  11.413  0.1591  0.7928  0.4407
  540TMC3    C4 8013   1.730   1.092  11.532  0.3875 -0.4505  0.4857
  540TMC3    C5 8014   1.670   1.195  11.464 -0.5101  1.0930  0.3717
  540TMC3    C6 8015   1.738   1.296  11.398  0.0627 -0.1273  0.6448
  540TMC3     C 8016   1.926   0.961  11.517 -1.0854 -0.0920 -0.1428
  540TMC3     O 8017   2.040   0.968  11.470  0.8786 -0.8419  0.2055
  540TMC3     H 8018   2.041   1.203  11.506 -0.1826  1.9498  1.2218
  540TMC3    H1 8019   1.669   1.003  11.539  1.4209 -1.2412 -0.7960
  540TMC3    H2 8020   1.694   1.360  11.322 -0.5561 -0.3392  0.8269
  540TMC3    C7 8021   1.532   1.224  11.499  0.6429  0.0636  0.0540
  540TMC3    C8 8022   1.960   1.341  11.305  0.7469  0.1192 -0.6381
  540TMC3    O1 8023   1.464   1.284  11.415 -0.0309 -0.2421  0.2360
  540TMC3    O2 8024   2.076   1.360  11.332 -0.1605 -0.1175  0.2664
  541MPD2     C 8025   0.963   2.479  13.099  0.8607 -1.2950 -0.4667
  541MPD2    C1 8026   0.960   2.389  13.000 -0.2384 -0.1607  0.3916
  541MPD2    C2 8027   0.964   2.436  12.865  0.2629  0.3554  0.0755
  541MPD2    C3 8028   0.953   2.571  12.843 -0.2797 -0.5531 -0.0736
  541MPD2    C4 8029   0.935   2.661  12.948 -0.0791 -0.9405  0.2936
  541MPD2    C5 8030   0.948   2.614  13.074 -0.0981 -0.2301 -0.6315
  541MPD2     H 8031   0.969   2.358  12.789  1.9755  0.6408 -0.1023
  541MPD2    H1 8032   0.926   2.767  12.933  0.8701 -0.9906 -0.6496
  541MPD2    H2 8033   0.983   2.447  13.201  0.9470 -0.7669 -0.3204
  541MPD2    H3 8034   0.945   2.691  13.150 -3.2981 -0.6803 -0.3065
  541MPD2     N 8035   0.947   2.631  12.720  0.4377  0.1219 -0.1413
  541MPD2    H5 8036   0.913   2.726  12.707  1.3353  0.5634  0.7639
  541MPD2    N1 8037   0.962   2.252  13.012 -0.1081 -0.2690 -0.2446
  541MPD2    H7 8038   0.949   2.198  12.928  1.7009 -0.2468 -0.5401
  542TMC3    C1 8039   0.866   2.627  12.495 -0.3197  0.5103 -0.2621
  542TMC3    C2 8040   0.891   2.579  12.367  0.3905 -0.6605 -0.6945
  542TMC3    C3 8041   0.788   2.558  12.288  0.5153 -0.8544  0.4836
  542TMC3    C4 8042   0.733   2.634  12.536 -0.6144 -0.3188 -0.0876
  542TMC3    C5 8043   0.633   2.593  12.454 -0.1281 -0.0986  0.7146
  542TMC3    C6 8044   0.656   2.557  12.325  0.2539  0.4998 -0.4577
  542TMC3     C 8045   0.949   2.564  12.598  1.0951 -0.4513 -0.3290
  542TMC3     O 8046   0.995   2.463  12.557  0.5126 -0.0665  0.1704
  542TMC3     H 8047   0.995   2.582  12.338  1.8060 -2.3131  4.2540
  542TMC3    H1 8048   0.707   2.656  12.639  1.6849 -2.9877  1.0609
  542TMC3    H2 8049   0.572   2.549  12.257  0.3754 -0.3042 -0.5109
  542TMC3    C7 8050   0.497   2.628  12.495  0.1266 -0.8677 -0.4723
  542TMC3    C8 8051   0.809   2.527  12.149  0.1497  0.2657  1.0628
  542TMC3    O1 8052   0.483   2.690  12.601  0.1468 -0.0422 -0.0878
  542TMC3    O2 8053   0.715   2.487  12.085  0.4509 -0.2563 -0.3970
  543TMC3    C1 8054   0.025   3.442  17.026  0.3458  0.0612 -0.3008
  543TMC3    C2 8055   0.023   3.317  17.076  0.4972  0.3310  0.0444
  543TMC3    C3 8056   4.643   3.291  17.160  0.5079 -0.6197 -0.3306
  543TMC3    C4 8057   4.643   3.532  17.055  0.4479  0.3445  0.8155
  543TMC3    C5 8058   4.536   3.493  17.127  0.1173  0.8689 -0.3243
  543TMC3    C6 8059   4.538   3.369  17.191 -0.1768  1.2477  0.6284
  543TMC3     C 8060   0.084   3.445  16.895  1.0856  0.1266  0.3872
  543TMC3     O 8061   0.191   3.388  16.881  0.1758 -0.0305 -0.0500
  543TMC3     H 8062   0.111   3.254  17.068 -0.3498 -0.8860  0.2075
  543TMC3    H1 8063   4.651   3.633  17.017 -1.1947 -0.0806 -0.6622
  543TMC3    H2 8064   4.474   3.354  17.277 -1.9558 -1.2480 -1.1323
  543TMC3    C7 8065   4.417   3.543  17.063  0.2632  0.7616 -0.6896
  543TMC3    C8 8066   4.646   3.171  17.250  0.2578  0.8488 -0.0098
  543TMC3    O1 8067   4.424   3.566  16.942  0.2635  0.3742  0.0751
  543TMC3    O2 8068   0.036   3.134  17.273  0.2817  0.0800  0.1199
  544MPD2     C 8069   4.426   2.816  17.552  0.0376 -0.0898  0.1159
  544MPD2    C1 8070   4.561   2.856  17.547  0.0676 -0.2577  0.5224
  544MPD2    C2 8071   4.583   2.969  17.467 -0.2475 -0.1253  0.3626
  544MPD2    C3 8072   4.492   3.017  17.377  0.7119 -0.0592 -0.3330
  544MPD2    C4 8073   4.364   2.964  17.378  0.4140  0.1654  0.0068
  544MPD2    C5 8074   4.333   2.875  17.469 -0.1234  0.0643 -0.5909
  544MPD2     H 8075   4.685   3.003  17.451 -0.2463 -1.3673 -2.2360
  544MPD2    H1 8076   4.288   2.986  17.303 -0.4218 -0.0319  0.7874
  544MPD2    H2 8077   4.386   2.735  17.612  0.6945 -1.2569 -1.0324
  544MPD2    H3 8078   4.232   2.836  17.469  0.1310 -0.5925  2.0776
  544MPD2     N 8079   4.519   3.116  17.272  0.4703 -0.6767  0.1529
  544MPD2    H5 8080   4.440   3.152  17.221  0.4402  2.1562  2.2110
  544MPD2    N1 8081   4.659   2.781  17.615 -0.2450  0.1431  0.7982
  544MPD2    H7 8082   4.624   2.693  17.651  0.7956 -0.5883  0.0338
  545TMC3    C1 8083   0.150   2.706  17.678 -0.1465  0.7489 -0.4105
  545TMC3    C2 8084   0.273   2.698  17.622 -0.5472  0.6446 -0.5815
  545TMC3    C3 8085   0.344   2.591  17.667  0.4409 -0.1878  0.1090
  545TMC3    C4 8086   0.099   2.625   0.076 -0.0387 -0.3644 -0.8940
  545TMC3    C5 8087   0.180   2.520   0.118  0.1695 -0.0323  0.5149
  545TMC3    C6 8088   0.304   2.501   0.063  0.4738  0.1800  0.1039
  545TMC3     C 8089   0.064   2.811  17.624  0.6963  0.1184  0.0682
  545TMC3     O 8090   0.127   2.911  17.583 -0.5254  0.1012  0.0666
  545TMC3     H 8091   0.298   2.752  17.532  2.1670 -1.7384 -1.2821
  545TMC3    H1 8092   0.001   2.641   0.118 -0.2704 -1.1593 -1.1336
  545TMC3    H2 8093   0.376   2.423   0.088  1.9924  1.3983 -0.4445
  545TMC3    C7 8094   0.148   2.463   0.242 -0.5170  0.5953  0.4467
  545TMC3    C8 8095   0.475   2.572  17.620 -0.0493  0.5231 -0.0917
  545TMC3    O1 8096   0.067   2.532   0.304  0.1337  0.1847  0.1486
  545TMC3    O2 8097   0.512   2.455  17.604  0.5344  0.1164  0.4390
  546MPD2     C 8098   1.772   2.740  16.884  0.3179  0.2676 -0.4573
  546MPD2    C1 8099   1.662   2.809  16.849  0.2310  0.1292  0.3410
  546MPD2    C2 8100   1.663   2.949  16.854 -0.0746  0.3657  0.1487
  546MPD2    C3 8101   1.772   3.015  16.896 -0.1766 -0.6413 -0.0912
  546MPD2    C4 8102   1.883   2.943  16.926 -0.5954 -0.0413  0.1114
  546MPD2    C5 8103   1.884   2.808  16.924 -0.0513  0.0559  0.1504
  546MPD2     H 8104   1.577   3.000  16.813 -0.1010  1.7045  1.8715
  546MPD2    H1 8105   1.972   2.987  16.968 -1.7492  2.2401  0.1502
  546MPD2    H2 8106   1.782   2.632  16.883  2.0847  0.4263 -0.9364
  546MPD2    H3 8107   1.976   2.756  16.950 -0.3161 -1.2361 -1.5249
  546MPD2     N 8108   1.782   3.157  16.889 -0.1675 -0.5097 -0.6014
  546MPD2    H5 8109   1.872   3.195  16.914 -0.1673 -0.1242 -1.1764
  546MPD2    N1 8110   1.552   2.726  16.819 -0.2210 -0.8024 -0.0818
  546MPD2    H7 8111   1.555   2.625  16.826  1.6680 -0.7909 -0.5968
  547TMC3    C1 8112   1.325   2.680  16.801 -0.4163 -0.2763 -0.4264
  547TMC3    C2 8113   1.206   2.719  16.745 -1.0310  0.0371 -0.0363
  547TMC3    C3 8114   1.092   2.702  16.819  0.5705  0.2621  0.1542
  547TMC3    C4 8115   1.328   2.628  16.927  0.1984  0.0414  0.4379
  547TMC3    C5 8116   1.216   2.609  16.995 -0.0578 -0.9727  0.2687
  547TMC3    C6 8117   1.098   2.655  16.949  0.0829 -0.4315  0.4405
  547TMC3     C 8118   1.427   2.774  16.784 -0.3062 -0.0508 -0.6634
  547TMC3     O 8119   1.386   2.888  16.751  0.7414 -0.1119 -0.5301
  547TMC3     H 8120   1.201   2.753  16.642 -0.9409  2.9020  0.9141
  547TMC3    H1 8121   1.423   2.612  16.978 -0.5971 -0.1194  1.8463
  547TMC3    H2 8122   1.007   2.638  17.006  1.1010 -0.6896  1.9889
  547TMC3    C7 8123   1.227   2.586  17.135  0.6167  0.4241  0.2582
  547TMC3    C8 8124   0.968   2.764  16.774 -0.6187 -0.1056  0.4867
  547TMC3    O1 8125   1.158   2.660  17.203  0.9071  0.2541  0.2628
  547TMC3    O2 8126   0.964   2.792  16.658  0.1208  0.1605 -0.3902
  548MPD2     C 8127   1.095   4.351  12.146  0.1113  0.1158 -0.4116
  548MPD2    C1 8128   1.130   4.279  12.263  0.1076 -0.2388  0.9641
  548MPD2    C2 8129   1.252   4.221  12.275 -0.0288  0.3085  0.2425
  548MPD2    C3 8130   1.330   4.214  12.157 -0.7844 -0.5770 -0.5883
  548MPD2    C4 8131   1.293   4.286  12.044  0.1831 -0.3567  0.1485
  548MPD2    C5 8132   1.174   4.350  12.041 -0.7767 -0.5995  0.0886
  548MPD2     H 8133   1.278   4.166  12.365 -2.2913  0.4651  0.9878
  548MPD2    H1 8134   1.358   4.297  11.958  1.8858 -0.7106  1.3865
  548MPD2    H2 8135   1.001   4.406  12.144 -1.2126 -2.0416  3.2088
  548MPD2    H3 8136   1.144   4.405  11.953  0.9248  1.0137  0.5306
  548MPD2     N 8137   1.448   4.130  12.157  0.2552 -0.3907 -0.4139
  548MPD2    H5 8138   1.475   4.091  12.247  0.0971 -0.7033 -0.5026
  548MPD2    N1 8139   1.034   4.288  12.373  0.0610 -0.2573  0.0240
  548MPD2    H7 8140   0.958   4.354  12.362  1.0559  0.4437 -2.6084
  549TMC3    C1 8141   0.932   4.227  12.568  0.3272  0.1412  0.0660
  549TMC3    C2 8142   0.897   4.359  12.604  0.8631  0.3379 -0.0604
  549TMC3    C3 8143   0.792   4.371  12.689  0.0945  0.6591  0.3702
  549TMC3    C4 8144   0.872   4.119  12.621 -0.0827  0.4371 -0.3796
  549TMC3    C5 8145   0.768   4.133  12.704 -0.2729  0.3385  0.1709
  549TMC3    C6 8146   0.716   4.260  12.722  0.5928  0.9626  0.0855
  549TMC3     C 8147   1.047   4.209  12.484 -0.0724 -0.1833 -0.7930
  549TMC3     O 8148   1.102   4.101  12.501  0.0468  0.2398  0.5075
  549TMC3     H 8149   0.942   4.446  12.557  0.3956 -0.0222 -1.1733
  549TMC3    H1 8150   0.912   4.022  12.592 -1.1705  0.7222 -2.8195
  549TMC3    H2 8151   0.631   4.267  12.788  0.7350  1.1330  0.2512
  549TMC3    C7 8152   0.687   4.019  12.742 -0.2370 -0.1206 -0.0477
  549TMC3    C8 8153   0.726   4.500  12.689 -0.3231  0.3777  0.1488
  549TMC3    O1 8154   0.575   4.057  12.771 -0.1301  0.1476 -0.1970
  549TMC3    O2 8155   0.795   4.599  12.700 -0.7348  0.5308  0.2096
  550TMC3    C1 8156   3.957   1.801  12.362  0.4550  0.6060 -0.7159
  550TMC3    C2 8157   3.993   1.881  12.462  0.3535  0.4088 -0.5872
  550TMC3    C3 8158   3.917   1.989  12.498  0.3050  0.0055  0.8557
  550TMC3    C4 8159   3.839   1.835  12.291 -0.1305  0.5880  0.6163
  550TMC3    C5 8160   3.778   1.950  12.328 -0.2330 -0.1479 -0.0680
  550TMC3    C6 8161   3.815   2.031  12.427  0.0344 -0.1165  0.7810
  550TMC3     C 8162   4.073   1.768  12.282 -0.6145 -0.0381  0.0605
  550TMC3     O 8163   4.181   1.802  12.326 -0.4284 -0.1210  0.4378
  550TMC3     H 8164   4.079   1.854  12.522 -1.8016 -1.0952  1.8209
  550TMC3    H1 8165   3.801   1.772  12.211  0.4744  0.4590  0.4280
  550TMC3    H2 8166   3.751   2.114  12.456 -0.0667 -0.3387  1.1886
  550TMC3    C7 8167   3.717   2.016  12.213 -0.4246  0.1759  0.2894
  550TMC3    C8 8168   3.973   2.073  12.605 -0.1000  0.0022  0.7813
  550TMC3    O1 8169   3.662   1.942  12.138 -0.0759  0.4436 -0.1006
  550TMC3    O2 8170   3.945   2.190  12.596 -0.3808  0.1008  0.1658
  551TMC3    C1 8171   2.090   0.136  13.197  0.0966 -0.8474  0.0976
  551TMC3    C2 8172   2.195   0.216  13.188  0.0928  0.5411  0.2512
  551TMC3    C3 8173   2.287   0.217  13.292  0.7356  0.2821  0.0557
  551TMC3    C4 8174   2.056   0.078  13.322  0.4243  0.4592 -0.6467
  551TMC3    C5 8175   2.140   0.085  13.430  0.4159 -0.2682 -0.8787
  551TMC3    C6 8176   2.263   0.147  13.413 -0.7487  0.1481  0.3582
  551TMC3     C 8177   2.004   0.098  13.077  0.7481 -0.1519  0.2006
  551TMC3     O 8178   1.904   0.035  13.105 -0.1589  0.3967  0.0571
  551TMC3     H 8179   2.209   0.281  13.103 -1.3183  0.4428 -0.0450
  551TMC3    H1 8180   1.978   0.004  13.329  0.3911  0.5886  0.4313
  551TMC3    H2 8181   2.342   0.153  13.487 -1.8271 -0.6326  1.5585
  551TMC3    C7 8182   2.110   0.048  13.566  1.1592 -0.0208 -0.4316
  551TMC3    C8 8183   2.420   0.272  13.266  0.2710  0.3332  0.6106
  551TMC3    O1 8184   2.205   0.027  13.634 -0.3743  0.2422 -0.2097
  551TMC3    O2 8185   2.516   0.212  13.318  0.4174 -0.2867  0.0937
  552MPD2     C 8186   4.373   1.908  14.237 -0.1503  0.0757  0.2332
  552MPD2    C1 8187   4.336   1.800  14.318  0.3939  0.2474  0.1299
  552MPD2    C2 8188   4.356   1.811  14.453  0.1935  0.0482  0.2232
  552MPD2    C3 8189   4.416   1.921  14.505  0.8684  0.3113  0.7252
  552MPD2    C4 8190   4.440   2.029  14.424  1.0344 -0.4060  0.3425
  552MPD2    C5 8191   4.415   2.021  14.287 -0.1184  0.2615 -0.0568
  552MPD2     H 8192   4.322   1.724  14.508 -0.2624  0.9230  1.3475
  552MPD2    H1 8193   4.478   2.123  14.462 -0.6001 -0.3807  1.9143
  552MPD2    H2 8194   4.379   1.906  14.129 -0.6588  1.5209  0.1905
  552MPD2    H3 8195   4.426   2.108  14.223  0.2387 -0.1901 -0.6043
  552MPD2     N 8196   4.443   1.929  14.643 -0.0495  0.8173 -0.6452
  552MPD2    H5 8197   4.473   2.020  14.677  0.6195  0.6661 -0.8215
  552MPD2    N1 8198   4.297   1.675  14.264  0.1409 -0.1333 -0.7521
  552MPD2    H7 8199   4.282   1.599  14.329  3.0198  0.8103  0.9921
  553TMC3    C1 8200   4.260   1.516  14.104 -0.5044  0.3774  0.1902
  553TMC3    C2 8201   4.224   1.500  13.976  0.1666 -0.7943 -0.6369
  553TMC3    C3 8202   4.291   1.401  13.902  0.0857  0.2308  0.2027
  553TMC3    C4 8203   4.365   1.443  14.156 -0.1260 -0.5074 -0.0985
  553TMC3    C5 8204   4.435   1.352  14.083  0.0762 -0.4755  0.4105
  553TMC3    C6 8205   4.394   1.328  13.956  0.2045 -0.1355  0.2445
  553TMC3     C 8206   4.276   1.654  14.130  0.1058  0.7547 -0.9296
  553TMC3     O 8207   4.278   1.716  14.023 -0.1935 -0.2462 -0.0484
  553TMC3     H 8208   4.135   1.545  13.932 -0.5724 -1.2814  0.3436
  553TMC3    H1 8209   4.404   1.471  14.253  1.5830  2.6851 -1.6832
  553TMC3    H2 8210   4.451   1.257  13.896 -2.2856 -1.9035 -0.0253
  553TMC3    C7 8211   4.578   1.344  14.116  0.1238  0.7544 -0.9232
  553TMC3    C8 8212   4.276   1.378  13.757 -0.1634 -0.2947  0.2434
  553TMC3    O1 8213   4.658   1.371  14.025 -0.7250  0.0568  0.4160
  553TMC3    O2 8214   4.365   1.319  13.695  0.7045 -0.5675  0.4171
  554TMC3    C1 8215   1.003   0.918  10.964 -0.6021  0.3972  1.2085
  554TMC3    C2 8216   0.965   0.860  10.848  0.2614  0.7734 -0.1620
  554TMC3    C3 8217   1.063   0.848  10.748  0.2594  0.0007  0.2382
  554TMC3    C4 8218   1.133   0.958  10.981 -0.0139  0.4646  0.6622
  554TMC3    C5 8219   1.223   0.948  10.879 -0.0322 -0.1120  0.0799
  554TMC3    C6 8220   1.192   0.882  10.770  0.5416  0.0860  0.3265
  554TMC3     C 8221   0.909   0.898  11.066 -0.0734 -0.5402 -0.6879
  554TMC3     O 8222   0.791   0.872  11.034 -0.5710 -0.1166  0.0679
  554TMC3     H 8223   0.861   0.835  10.830 -0.6125  2.4119  2.5189
  554TMC3    H1 8224   1.151   1.012  11.073  1.6195 -0.5960  0.9591
  554TMC3    H2 8225   1.270   0.876  10.695 -0.0155 -1.2387 -0.1383
  554TMC3    C7 8226   1.335   1.033  10.873  0.5364  0.2825 -0.2709
  554TMC3    C8 8227   1.018   0.879  10.610 -0.7331 -0.9951 -0.2126
  554TMC3    O1 8228   1.418   1.018  10.788 -0.5271  0.4309 -0.8367
  554TMC3    O2 8229   1.107   0.932  10.540 -0.4038 -0.3718  0.4727
  555TMC3    C1 8230   0.377   0.450  15.412 -0.4027 -0.4379  0.0887
  555TMC3    C2 8231   0.309   0.499  15.519 -0.0056  0.4671 -0.2371
  555TMC3    C3 8232   0.293   0.416  15.627 -0.3597  0.4361 -0.3068
  555TMC3    C4 8233   0.418   0.328  15.398  0.0695 -0.1128 -0.6933
  555TMC3    C5 8234   0.405   0.240  15.501 -0.1606 -0.6058  0.2405
  555TMC3    C6 8235   0.337   0.281  15.613  0.3125 -0.3521 -0.0138
  555TMC3     C 8236   0.409   0.533  15.295 -0.1468  0.9894  0.6641
  555TMC3     O 8237   0.505   0.505  15.229  0.1629  0.0505 -0.1487
  555TMC3     H 8238   0.289   0.605  15.528 -1.5049  0.3234 -1.8506
  555TMC3    H1 8239   0.442   0.284  15.302  0.2233 -0.3585 -0.5435
  555TMC3    H2 8240   0.318   0.213  15.695 -1.6450 -0.0124 -0.1658
  555TMC3    C7 8241   0.426   0.097  15.478  0.4221  0.6537  0.2976
  555TMC3    C8 8242   0.252   0.466  15.752  0.6279 -0.6938 -0.0914
  555TMC3    O1 8243   0.390   0.021  15.561  0.1633  0.4144  0.5479
  555TMC3    O2 8244   0.184   0.569  15.745  0.1682  0.1720  0.7076
  556MPD2     C 8245   2.628   2.463  10.633 -0.6124  0.5244  0.0834
  556MPD2    C1 8246   2.674   2.335  10.664 -1.0507  0.2236  0.2021
  556MPD2    C2 8247   2.688   2.239  10.564  0.8469 -0.1733 -0.5706
  556MPD2    C3 8248   2.652   2.266  10.433 -0.1205  0.2878 -0.6857
  556MPD2    C4 8249   2.605   2.394  10.405  0.5379  0.2657 -0.2564
  556MPD2    C5 8250   2.582   2.484  10.506  0.3859  0.6177  0.3564
  556MPD2     H 8251   2.740   2.145  10.579 -0.3924 -0.8239 -0.4183
  556MPD2    H1 8252   2.585   2.431  10.305  1.4031 -1.3433 -1.0304
  556MPD2    H2 8253   2.610   2.543  10.704 -0.4074  1.0586 -0.4755
  556MPD2    H3 8254   2.521   2.572  10.488  0.1171  0.1721 -0.9027
  556MPD2     N 8255   2.673   2.167  10.333  0.0825  0.1268  0.2678
  556MPD2    H5 8256   2.691   2.076  10.374  0.4446  0.3194  0.5319
  556MPD2    N1 8257   2.720   2.290  10.792 -0.1540 -1.0388 -0.0633
  556MPD2    H7 8258   2.710   2.190  10.802  0.6713 -1.0339  0.8613
  557TMC3    C1 8259   2.708   2.084  10.116  0.8250  0.1608  0.5196
  557TMC3    C2 8260   2.682   2.095   9.984  0.4869 -0.0061  0.3109
  557TMC3    C3 8261   2.735   1.999   9.900 -0.3896  0.1670 -0.0674
  557TMC3    C4 8262   2.767   1.977  10.181 -0.2422 -0.1728 -0.3551
  557TMC3    C5 8263   2.829   1.899  10.088 -0.1810 -0.0143  0.1797
  557TMC3    C6 8264   2.819   1.905   9.952  0.0905 -0.4618 -0.6385
  557TMC3     C 8265   2.678   2.193  10.199  0.0524 -0.5988  0.4244
  557TMC3     O 8266   2.656   2.294  10.135  0.1455  0.3016 -0.3766
  557TMC3     H 8267   2.617   2.176   9.952 -0.4070  0.2978  2.8918
  557TMC3    H1 8268   2.785   1.964  10.287  3.1520 -0.0179 -0.9057
  557TMC3    H2 8269   2.860   1.830   9.885 -0.2301 -2.7260  1.7035
  557TMC3    C7 8270   2.907   1.797  10.152  0.6240  0.6730  0.4245
  557TMC3    C8 8271   2.675   1.987   9.768  0.0896 -0.1206 -0.0373
  557TMC3    O1 8272   2.926   1.804  10.274 -0.5271 -0.0001 -0.5252
  557TMC3    O2 8273   2.618   2.089   9.733  0.0026 -0.6243 -0.0948
  558TMC3    C1 8274   0.677   4.540  10.021 -0.5454 -0.0007 -0.2939
  558TMC3    C2 8275   0.576   4.569  10.103 -0.0251  0.6150  0.5008
  558TMC3    C3 8276   0.458   4.493  10.099  0.5652 -0.5754 -0.0880
  558TMC3    C4 8277   0.670   4.444   9.927 -0.3981  0.2743 -0.1063
  558TMC3    C5 8278   0.550   4.375   9.911  0.2328 -0.5729 -0.1686
  558TMC3    C6 8279   0.448   4.396  10.002  0.1557 -0.0107  0.6679
  558TMC3     C 8280   0.781   4.648  10.007  0.2136  0.0203 -0.3248
  558TMC3     O 8281   0.898   4.622   9.978 -0.0678  0.3335 -0.1704
  558TMC3     H 8282   0.593   4.645  10.178 -0.2091  0.3300  0.8286
  558TMC3    H1 8283   0.749   4.440   9.853 -0.1970 -1.0518  0.1754
  558TMC3    H2 8284   0.349   4.352  10.000  0.3858 -0.5623  1.7693
  558TMC3    C7 8285   0.533   4.285   9.803 -0.3360 -0.0760  0.4670
  558TMC3    C8 8286   0.342   4.510  10.189  0.2566  0.7744  0.1182
  558TMC3    O1 8287   0.638   4.247   9.752  0.0850 -0.3409  0.6031
  558TMC3    O2 8288   0.237   4.464  10.148  0.4790 -0.0162  0.2100
  559MPD2     C 8289   1.028   0.789  10.080  0.2142 -0.6660 -0.0616
  559MPD2    C1 8290   0.946   0.709  10.158  0.3893  0.5997 -0.1354
  559MPD2    C2 8291   1.012   0.633  10.256  1.0390 -0.0870 -0.9996
  559MPD2    C3 8292   1.147   0.659  10.300  0.1599 -0.2207 -0.1534
  559MPD2    C4 8293   1.217   0.755  10.231  0.0434 -0.2992  0.2918
  559MPD2    C5 8294   1.158   0.815  10.122 -0.1480  0.1445 -0.2378
  559MPD2     H 8295   0.957   0.551  10.300  0.5421  0.9645  0.3556
  559MPD2    H1 8296   1.322   0.778  10.249 -0.6086  1.9363  1.3006
  559MPD2    H2 8297   0.985   0.836   9.992  0.1672 -0.4366  0.0823
  559MPD2    H3 8298   1.220   0.881  10.062 -1.4096  1.1536 -0.4215
  559MPD2     N 8299   1.200   0.590  10.413  0.4198  0.2280 -0.4131
  559MPD2    H5 8300   1.136   0.528  10.461  3.3735 -1.7963  0.8419
  559MPD2    N1 8301   0.806   0.697  10.125 -0.2112  0.1268  0.0068
  559MPD2    H7 8302   0.783   0.746  10.039  0.6410 -0.8901 -0.8112
  560TMC3    C1 8303   1.338   0.547  10.605  0.1803 -0.1527  0.0644
  560TMC3    C2 8304   1.262   0.437  10.645  0.3914 -0.1007 -0.5062
  560TMC3    C3 8305   1.279   0.386  10.770 -0.3295 -0.1227  0.1344
  560TMC3    C4 8306   1.431   0.604  10.685 -0.5979  0.0642  0.4050
  560TMC3    C5 8307   1.458   0.540  10.805 -0.0986 -0.0406 -0.4383
  560TMC3    C6 8308   1.376   0.439  10.853  0.3595  0.2431  0.4925
  560TMC3     C 8309   1.317   0.619  10.475  0.4955  0.0571 -0.0086
  560TMC3     O 8310   1.397   0.711  10.462  0.0712 -0.0611 -0.0241
  560TMC3     H 8311   1.180   0.397  10.586 -1.3312 -1.0061  2.4691
  560TMC3    H1 8312   1.501   0.677  10.647 -2.1690  2.0087  1.2378
  560TMC3    H2 8313   1.376   0.412  10.958 -2.3131  0.6973  0.6125
  560TMC3    C7 8314   1.555   0.591  10.904 -0.2907 -0.3372 -0.6559
  560TMC3    C8 8315   1.171   0.301  10.817 -0.5381  0.6380  0.3358
  560TMC3    O1 8316   1.571   0.515  11.000 -0.1269 -0.4689 -0.3842
  560TMC3    O2 8317   1.062   0.305  10.762 -0.1876  0.3146 -0.4656
  561TMC3    C1 8318   3.324   4.402  10.852 -0.0430 -0.3987 -0.3549
  561TMC3    C2 8319   3.324   4.351  10.976 -0.2474 -0.2874  0.0352
  561TMC3    C3 8320   3.346   4.429  11.088  0.0101  0.4124 -0.3304
  561TMC3    C4 8321   3.365   4.535  10.834 -0.1726  0.5510 -0.1999
  561TMC3    C5 8322   3.392   4.611  10.952 -0.4372  0.2143 -0.8417
  561TMC3    C6 8323   3.377   4.562  11.077  0.1244  0.0158  0.3994
  561TMC3     C 8324   3.221   4.356  10.757 -0.0553 -0.1094  0.0038
  561TMC3     O 8325   3.141   4.277  10.812 -0.6063  0.1172 -0.4199
  561TMC3     H 8326   3.312   4.244  10.988  0.0973 -0.1956  1.1721
  561TMC3    H1 8327   3.372   4.593  10.743  0.4339  2.0118  0.7774
  561TMC3    H2 8328   3.404   4.625  11.161  1.9890 -0.1291 -0.0744
  561TMC3    C7 8329   3.433   0.031  10.941  0.3294 -0.0007 -0.2867
  561TMC3    C8 8330   3.328   4.376  11.214  0.1261 -0.6327  0.4187
  561TMC3    O1 8331   3.385   0.104  11.025  0.0618  0.1255 -0.1587
  561TMC3    O2 8332   3.305   4.256  11.214  0.2579  0.1094  0.0456
  562TMC3    C1 8333   4.665   0.316  16.511 -0.5742  0.3593 -0.3691
  562TMC3    C2 8334   4.554   0.389  16.483 -0.7530  0.6698  0.0803
  562TMC3    C3 8335   4.529   0.424  16.360  0.1772 -0.5245  0.0973
  562TMC3    C4 8336   0.023   0.271  16.407 -0.1333 -0.2207 -0.1720
  562TMC3    C5 8337   4.707   0.307  16.283 -0.0880  0.1296 -0.3815
  562TMC3    C6 8338   4.603   0.388  16.257  0.1548 -0.6377  0.1907
  562TMC3     C 8339   4.719   0.324  16.642 -0.4658 -0.7097 -0.2273
  562TMC3     O 8340   4.659   0.398  16.719 -0.4618  0.2646 -0.2682
  562TMC3     H 8341   4.488   0.417  16.564 -1.1692 -1.9773  0.6533
  562TMC3    H1 8342   0.127   0.244  16.417 -0.0291  0.9935  2.1499
  562TMC3    H2 8343   4.564   0.391  16.156 -0.4509  0.0533  0.4460
  562TMC3    C7 8344   0.042   0.239  16.165 -0.2066 -0.2374 -0.3385
  562TMC3    C8 8345   4.402   0.490  16.343 -0.2647 -0.2419  0.5262
  562TMC3    O1 8346   0.013   0.294  16.060 -0.6554 -0.4171 -0.1279
  562TMC3    O2 8347   4.320   0.465  16.429 -0.3696  0.4918  0.0379
  563MPD2     C 8348   2.326   1.636  15.609  0.4305  0.3959 -0.5006
  563MPD2    C1 8349   2.369   1.736  15.688 -0.0690  0.0257 -0.4872
  563MPD2    C2 8350   2.480   1.715  15.772 -0.0323  0.1239 -0.0533
  563MPD2    C3 8351   2.547   1.596  15.766  0.7511 -0.4455 -0.2159
  563MPD2    C4 8352   2.513   1.507  15.666  0.4140 -0.1021 -0.2651
  563MPD2    C5 8353   2.403   1.527  15.588 -0.7025  0.4534 -0.6115
  563MPD2     H 8354   2.505   1.777  15.857 -0.4540  1.1463 -0.6660
  563MPD2    H1 8355   2.587   1.434  15.634  1.9717  1.0384  0.7081
  563MPD2    H2 8356   2.249   1.664  15.537  0.5795  1.5819 -0.2021
  563MPD2    H3 8357   2.382   1.451  15.514  3.1514  1.2401 -2.5237
  563MPD2     N 8358   2.656   1.572  15.850 -0.4024 -0.0664 -0.4087
  563MPD2    H5 8359   2.692   1.647  15.908  2.2835  0.3554 -2.6185
  563MPD2    N1 8360   2.276   1.833  15.715 -0.7065 -0.4561 -0.2111
  563MPD2    H7 8361   2.186   1.824  15.669 -1.5312  1.5395  1.0332
  564TMC3    C1 8362   2.202   1.944  15.911  0.0981 -0.3306 -0.2115
  564TMC3    C2 8363   2.082   1.881  15.891 -0.2984  0.2170 -0.6317
  564TMC3    C3 8364   2.024   1.803  15.987 -0.0113  0.0985  0.4279
  564TMC3    C4 8365   2.267   1.916  16.027 -0.1006  0.4657  0.4258
  564TMC3    C5 8366   2.207   1.836  16.121  0.4704  0.0620  0.3838
  564TMC3    C6 8367   2.087   1.779  16.106  0.4102 -0.4580  0.5861
  564TMC3     C 8368   2.296   1.935  15.803 -0.0815 -0.1801 -0.1508
  564TMC3     O 8369   2.404   1.992  15.828  0.3889 -0.3033 -0.3433
  564TMC3     H 8370   2.035   1.909  15.798 -2.2568 -0.0198  0.2837
  564TMC3    H1 8371   2.368   1.953  16.043  1.2452 -0.9203 -4.7046
  564TMC3    H2 8372   2.054   1.720  16.191 -2.0742  0.2564  0.1171
  564TMC3    C7 8373   2.306   1.731  16.154  0.4601  0.2695  0.3079
  564TMC3    C8 8374   1.933   1.695  15.958  0.5963  0.4070  0.2884
  564TMC3    O1 8375   2.399   1.749  16.231 -0.0931 -0.0489 -0.3812
  564TMC3    O2 8376   1.896   1.622  16.051 -0.6534  0.0732  0.0368
  565TMC3    C1 8377   2.100   3.690   9.719 -0.2495 -0.1045 -0.0058
  565TMC3    C2 8378   2.189   3.603   9.782 -0.2536 -0.2130  0.3054
  565TMC3    C3 8379   2.136   3.513   9.878  0.2070  0.0054 -0.0921
  565TMC3    C4 8380   1.968   3.701   9.758  0.1189  1.0127 -0.7663
  565TMC3    C5 8381   1.920   3.620   9.860 -0.6947  0.0440  0.3356
  565TMC3    C6 8382   2.000   3.517   9.911  0.5728  0.5867  0.1501
  565TMC3     C 8383   2.148   3.775   9.607 -0.3409  0.4211  0.1889
  565TMC3     O 8384   2.266   3.763   9.589  0.4514  0.2858 -0.6672
  565TMC3     H 8385   2.295   3.605   9.758 -0.5537 -1.2354 -1.0802
  565TMC3    H1 8386   1.896   3.769   9.714  0.4652  0.4606 -2.1819
  565TMC3    H2 8387   1.954   3.439   9.971 -2.1381  1.1111 -1.2692
  565TMC3    C7 8388   1.776   3.613   9.887  0.3688  0.3488  0.1140
  565TMC3    C8 8389   2.228   3.435   9.967 -0.5694 -0.4417  0.2777
  565TMC3    O1 8390   1.740   3.525   9.965  0.0471  0.1230 -0.1136
  565TMC3    O2 8391   2.339   3.478   9.988 -0.2487 -0.3530  0.2625
  566MPD2     C 8392   4.405   0.515  14.471 -0.1406  0.5429 -0.2716
  566MPD2    C1 8393   4.469   0.569  14.357 -0.4517  0.1386  0.2164
  566MPD2    C2 8394   4.472   0.489  14.245 -0.3647 -0.8718  0.3869
  566MPD2    C3 8395   4.407   0.363  14.238  0.2663  0.3123  0.1974
  566MPD2    C4 8396   4.343   0.317  14.347 -0.0912  0.8279 -0.3043
  566MPD2    C5 8397   4.348   0.389  14.469  0.5226  0.2004 -0.3496
  566MPD2     H 8398   4.524   0.518  14.154  0.4573  1.6761  1.6433
  566MPD2    H1 8399   4.292   0.222  14.352  1.2661  0.2115  1.8955
  566MPD2    H2 8400   4.400   0.564  14.567  1.9107 -2.6573  1.4403
  566MPD2    H3 8401   4.315   0.340  14.559 -0.2798  1.1405 -0.1334
  566MPD2     N 8402   4.386   0.300  14.116 -0.0995 -0.0314 -0.4954
  566MPD2    H5 8403   4.327   0.218  14.127  2.4270 -1.9488 -1.3072
  566MPD2    N1 8404   4.532   0.700  14.359 -0.0718  0.0426 -0.9949
  566MPD2    H7 8405   4.540   0.738  14.452 -0.7607  1.0230 -1.3289
  567TMC3    C1 8406   4.678   0.874  14.284 -0.2355  0.1444  0.1891
  567TMC3    C2 8407   4.714   0.956  14.184 -0.4367 -0.0700 -0.4438
  567TMC3    C3 8408   0.113   1.014  14.196 -0.6583  0.5874 -0.0395
  567TMC3    C4 8409   0.031   0.857  14.400 -0.0461  0.1271  0.4776
  567TMC3    C5 8410   0.144   0.930  14.420  0.0403 -0.1026  0.6063
  567TMC3    C6 8411   0.187   1.001  14.311 -0.1213  0.3804 -0.0596
  567TMC3     C 8412   4.591   0.760  14.252  0.2195 -0.6477 -0.7171
  567TMC3     O 8413   4.568   0.748  14.133 -0.1536  0.7728  0.5603
  567TMC3     H 8414   4.648   0.973  14.100 -1.1047 -0.0397  0.0919
  567TMC3    H1 8415   0.018   0.768  14.460  0.3111 -0.4973 -0.3873
  567TMC3    H2 8416   0.279   1.055  14.330  0.0592 -0.5750  1.8068
  567TMC3    C7 8417   0.250   0.890  14.508  0.6182 -0.2563  0.6350
  567TMC3    C8 8418   0.183   1.023  14.068  0.2682 -0.1152  0.3299
  567TMC3    O1 8419   0.364   0.909  14.479 -0.3269 -0.1306  0.2886
  567TMC3    O2 8420   0.114   1.048  13.970 -0.1767  0.5059  0.1405
  568MPD2     C 8421   1.922   0.193  16.313  0.3749  0.3277  0.3172
  568MPD2    C1 8422   1.919   0.280  16.418  0.6427  0.0192 -0.5126
  568MPD2    C2 8423   1.924   0.414  16.386 -0.0207  0.3533  0.1621
  568MPD2    C3 8424   1.944   0.453  16.253 -0.3236 -0.0898  0.8474
  568MPD2    C4 8425   1.947   0.362  16.151 -0.8792  1.0363  0.0115
  568MPD2    C5 8426   1.930   0.229  16.184  0.1182  0.6882 -0.0239
  568MPD2     H 8427   1.920   0.486  16.467 -1.3840 -0.0581  0.4528
  568MPD2    H1 8428   1.957   0.390  16.047  1.4364  0.1286  0.0054
  568MPD2    H2 8429   1.907   0.087  16.334  2.7693  0.3067  1.8475
  568MPD2    H3 8430   1.928   0.156  16.104 -1.1416 -0.1279  0.7445
  568MPD2     N 8431   1.956   0.592  16.227  0.3880 -0.1449 -0.2788
  568MPD2    H5 8432   1.943   0.662  16.299  1.3640 -0.1592 -0.0760
  568MPD2    N1 8433   1.912   0.219  16.545 -0.7642  0.0707  0.3046
  568MPD2    H7 8434   1.907   0.117  16.547 -0.9264  0.1053  2.2300
  569TMC3    C1 8435   1.996   0.788  16.112  0.4856 -0.6493 -0.1767
  569TMC3    C2 8436   2.088   0.818  16.206 -0.1735 -0.5981 -0.0627
  569TMC3    C3 8437   2.153   0.939  16.188  0.5548 -0.2312 -0.4698
  569TMC3    C4 8438   1.980   0.864  15.995  0.0098  0.2416  0.2220
  569TMC3    C5 8439   2.048   0.981  15.987  0.0239 -0.6086 -0.0874
  569TMC3    C6 8440   2.130   1.028  16.083 -0.3493  0.2959 -0.1626
  569TMC3     C 8441   1.960   0.650  16.104  0.3687 -0.9530  0.0686
  569TMC3     O 8442   1.918   0.610  15.997 -0.4909  0.2975 -0.1236
  569TMC3     H 8443   2.121   0.745  16.279 -0.3899 -0.9399 -0.3027
  569TMC3    H1 8444   1.907   0.832  15.922  0.3156  1.5706 -0.6710
  569TMC3    H2 8445   2.193   1.114  16.068  0.1046  0.2033  1.2324
  569TMC3    C7 8446   2.031   1.062  15.870  0.0273  0.0674 -0.3488
  569TMC3    C8 8447   2.216   0.983  16.307  0.3815  0.0203  0.3027
  569TMC3    O1 8448   2.022   0.995  15.763 -0.1539 -0.3403 -0.1628
  569TMC3    O2 8449   2.260   0.901  16.384  0.8185  0.1276  0.3115
  570TMC3    C1 8450   1.235   4.014  15.883 -0.0377  0.2994  0.2677
  570TMC3    C2 8451   1.348   3.972  15.820  0.0996  0.1524 -0.2457
  570TMC3    C3 8452   1.413   4.066  15.739 -0.1227 -1.2156  0.0708
  570TMC3    C4 8453   1.187   4.137  15.868 -0.2497 -0.7040 -0.2587
  570TMC3    C5 8454   1.244   4.225  15.776 -0.3325 -0.9138  0.1032
  570TMC3    C6 8455   1.363   4.189  15.719 -0.7844  0.1663 -0.0571
  570TMC3     C 8456   1.175   3.924  15.974  0.3816  0.0082 -0.8360
  570TMC3     O 8457   1.164   3.810  15.937  0.1645  0.3982  0.0758
  570TMC3     H 8458   1.387   3.875  15.848  0.3316 -0.0710 -1.3352
  570TMC3    H1 8459   1.100   4.170  15.924 -0.6807  0.6171 -1.6961
  570TMC3    H2 8460   1.421   4.244  15.646 -0.8466 -0.6434 -0.7203
  570TMC3    C7 8461   1.243   4.364  15.823 -0.0964  0.1686 -0.5347
  570TMC3    C8 8462   1.555   4.063  15.745 -0.1655  0.2857  0.0384
  570TMC3    O1 8463   1.206   4.395  15.936  0.0215  0.1174 -0.3124
  570TMC3    O2 8464   1.614   4.171  15.736  0.3874  0.4974 -0.0131
  571MPD2     C 8465   0.039   1.294   0.051  0.2517 -0.1765 -0.6347
  571MPD2    C1 8466   4.670   1.216  17.687  0.8565 -0.1311  0.0592
  571MPD2    C2 8467   4.536   1.250  17.690  0.6018 -0.6151  0.0297
  571MPD2    C3 8468   4.498   1.373   0.059 -0.7039  1.3906  0.3165
  571MPD2    C4 8469   4.596   1.447   0.120  0.3311 -0.7667 -0.2022
  571MPD2    C5 8470   0.007   1.411   0.107 -0.2240 -0.7612 -0.2941
  571MPD2     H 8471   4.459   1.192  17.640  1.5945 -0.6275 -1.4779
  571MPD2    H1 8472   4.576   1.541   0.171 -0.0775 -1.9435  1.7993
  571MPD2    H2 8473   0.145   1.273   0.042  0.6719  1.2793  1.0057
  571MPD2    H3 8474   0.087   1.471   0.149 -1.9246  0.5439  1.0945
  571MPD2     N 8475   4.369   1.414   0.071  0.2658 -1.2490 -0.0929
  571MPD2    H5 8476   4.350   1.502   0.118  0.3682 -1.5255  0.4634
  571MPD2    N1 8477   0.006   1.106  17.625 -0.3315  0.0914  0.5771
  571MPD2    H7 8478   0.106   1.092  17.630 -0.2482  0.9522  1.2707
  572TMC3    C1 8479   4.138   1.425   0.032  0.9272  0.2722  0.4489
  572TMC3    C2 8480   4.026   1.353   0.011 -0.4625 -0.0745 -0.1222
  572TMC3    C3 8481   3.911   1.421   0.039  0.1763  0.4062 -0.0852
  572TMC3    C4 8482   4.138   1.560   0.057 -0.3101 -0.0990  0.0115
  572TMC3    C5 8483   4.015   1.628   0.067 -0.9697 -0.2141 -0.0528
  572TMC3    C6 8484   3.900   1.555   0.067 -0.3290 -0.5395 -0.0507
  572TMC3     C 8485   4.265   1.361   0.004 -0.6150 -1.2398  1.2718
  572TMC3     O 8486   4.247   1.257  17.645  0.0083  0.3069  0.3377
  572TMC3     H 8487   4.025   1.246   0.028 -1.0701  0.0559  0.6883
  572TMC3    H1 8488   4.230   1.616   0.060  0.1051 -0.9014  2.3889
  572TMC3    H2 8489   3.801   1.601   0.067 -0.2083 -0.2912 -1.7316
  572TMC3    C7 8490   4.000   1.773   0.064  1.3430 -0.1526  0.1275
  572TMC3    C8 8491   3.795   1.342   0.034  0.8119  0.6139  0.8329
  572TMC3    O1 8492   3.894   1.822   0.030 -0.2640 -0.2241  0.1371
  572TMC3    O2 8493   3.790   1.258  17.637  0.9781 -0.8291 -0.0538
  573MPD2     C 8494   0.283   1.424   1.377 -0.1596  0.4133 -0.2819
  573MPD2    C1 8495   0.391   1.381   1.305 -0.2996  0.2001 -0.3704
  573MPD2    C2 8496   0.409   1.412   1.174  0.3002 -0.0525  0.4092
  573MPD2    C3 8497   0.308   1.486   1.102 -0.1935 -0.7328  0.7832
  573MPD2    C4 8498   0.201   1.529   1.172  0.1740 -0.2634 -0.2215
  573MPD2    C5 8499   0.192   1.507   1.307  0.6506 -0.7767  0.0203
  573MPD2     H 8500   0.481   1.363   1.109  2.7246 -0.7078  3.6392
  573MPD2    H1 8501   0.123   1.595   1.135  0.7677  0.9494  0.6790
  573MPD2    H2 8502   0.259   1.416   1.483 -1.0004  1.3485 -0.4091
  573MPD2    H3 8503   0.107   1.550   1.360  1.4609 -0.0474  0.7220
  573MPD2     N 8504   0.319   1.514   0.961 -0.1503 -0.3645 -0.9183
  573MPD2    H5 8505   0.245   1.576   0.928  0.5358  0.4388 -0.9570
  573MPD2    N1 8506   0.469   1.296   1.380 -0.7830 -0.2633 -0.0720
  573MPD2    H7 8507   0.432   1.280   1.474 -1.1522 -1.1013 -0.3545
  574TMC3    C1 8508   0.408   1.537   0.738 -0.0145 -0.5846  0.6079
  574TMC3    C2 8509   0.310   1.634   0.719 -0.6890 -0.1517  0.6454
  574TMC3    C3 8510   0.312   1.711   0.603  0.3062  0.4964 -0.2225
  574TMC3    C4 8511   0.512   1.529   0.646  0.1461 -0.5814 -0.2145
  574TMC3    C5 8512   0.514   1.614   0.537 -0.7536  0.4508  0.3640
  574TMC3    C6 8513   0.409   1.701   0.509 -0.0930  0.2557 -0.0329
  574TMC3     C 8514   0.420   1.482   0.874  0.6846 -0.1334 -0.8295
  574TMC3     O 8515   0.517   1.412   0.900 -0.7849 -0.0384  0.0280
  574TMC3     H 8516   0.247   1.671   0.799  1.3428  1.4686  1.5099
  574TMC3    H1 8517   0.596   1.463   0.663  0.3946 -1.5423 -5.2926
  574TMC3    H2 8518   0.408   1.766   0.423  1.1708  0.9698  0.4831
  574TMC3    C7 8519   0.644   1.621   0.461 -0.1970 -1.0855  0.5287
  574TMC3    C8 8520   0.228   1.830   0.602 -0.0231  0.4650 -0.0560
  574TMC3    O1 8521   0.735   1.555   0.510  0.6123  0.1430 -0.1179
  574TMC3    O2 8522   0.131   1.826   0.680 -0.5060 -0.0922 -0.1039
  575TMC3    C1 8523   2.913   3.311  10.459  0.4611 -0.4526  0.7625
  575TMC3    C2 8524   2.934   3.211  10.543  0.0482 -0.3040 -0.5028
  575TMC3    C3 8525   2.839   3.115  10.558 -1.1801 -0.0770  0.5847
  575TMC3    C4 8526   2.795   3.326  10.397 -0.1396  0.2627  0.2102
  575TMC3    C5 8527   2.703   3.224  10.411 -0.1501  0.5901 -0.2242
  575TMC3    C6 8528   2.719   3.121  10.490  0.6443 -0.3606  0.4273
  575TMC3     C 8529   3.019   3.405  10.447  0.1021 -0.6904  0.6333
  575TMC3     O 8530   3.112   3.385  10.528 -0.0284 -0.5008  0.4981
  575TMC3     H 8531   3.012   3.213  10.619  0.0119  1.6245 -0.5216
  575TMC3    H1 8532   2.775   3.412  10.335  0.4800 -0.7489 -1.3915
  575TMC3    H2 8533   2.636   3.053  10.505  0.1108  0.1206 -0.4015
  575TMC3    C7 8534   2.596   3.234  10.312 -0.0325 -0.4778 -0.3470
  575TMC3    C8 8535   2.845   2.999  10.650 -0.7732 -0.0766  0.1731
  575TMC3    O1 8536   2.606   3.319  10.225  0.5016  0.3197  0.3942
  575TMC3    O2 8537   2.748   2.925  10.651 -0.0670 -1.3462  0.2855
  576MPD2     C 8538   3.226   4.698  12.580 -0.3883 -0.2197  0.1461
  576MPD2    C1 8539   3.111   0.012  12.512 -0.2288 -0.4637  0.2292
  576MPD2    C2 8540   2.997   0.032  12.585 -0.0772  0.3280 -0.4798
  576MPD2    C3 8541   2.995   0.001  12.723  0.2423  0.4594  0.3790
  576MPD2    C4 8542   3.119   4.709  12.780  1.2644  0.1574 -0.5324
  576MPD2    C5 8543   3.229   4.694  12.713 -0.5696 -0.4188  0.4294
  576MPD2     H 8544   2.914   0.074  12.530 -1.1466 -0.9561  0.1287
  576MPD2    H1 8545   3.120   4.708  12.888 -2.1727 -1.5657 -0.5030
  576MPD2    H2 8546   3.318   4.671  12.530  0.7224 -0.1929  2.1795
  576MPD2    H3 8547   3.323   4.678  12.765 -1.2216 -1.3649  1.3313
  576MPD2     N 8548   2.876   0.014  12.797  0.2303  0.4867  0.4411
  576MPD2    H5 8549   2.789   0.034  12.748  0.4660  0.5124  0.0325
  576MPD2    N1 8550   3.123   0.034  12.374 -0.0529  0.3544 -0.1305
  576MPD2    H7 8551   3.218   0.017  12.342 -0.7551 -0.7979 -1.5710
  577TMC3    C1 8552   3.049   0.069  12.149 -0.9075 -0.4790  0.2973
  577TMC3    C2 8553   3.129   4.703  12.089  0.5654  0.1174 -0.5274
  577TMC3    C3 8554   3.133   4.702  11.947  0.1042  0.9380  0.3850
  577TMC3    C4 8555   2.992   0.169  12.082 -0.9622  0.1596  0.3719
  577TMC3    C5 8556   2.988   0.167  11.951  0.2760 -0.7141  0.4068
  577TMC3    C6 8557   3.055   0.075  11.876  0.1119  0.5235 -0.3933
  577TMC3     C 8558   3.021   0.065  12.290  0.0015  0.1213  0.7921
  577TMC3     O 8559   2.903   0.095  12.318 -0.6088 -0.1131 -0.5566
  577TMC3     H 8560   3.184   4.625  12.142 -1.2984 -0.1746  0.9533
  577TMC3    H1 8561   2.926   0.241  12.130 -0.4836  1.1982 -0.5250
  577TMC3    H2 8562   3.046   0.069  11.768  0.9884  1.5347 -0.5157
  577TMC3    C7 8563   2.943   0.292  11.887 -0.2844  0.5567  0.5387
  577TMC3    C8 8564   3.209   4.597  11.893  0.3170 -0.6658  0.3515
  577TMC3    O1 8565   2.910   0.385  11.963 -0.4695 -0.3980  0.3782
  577TMC3    O2 8566   3.271   4.520  11.965  0.3579 -0.1113  0.6287
  578MPD2     C 8567   0.645   3.646   0.429  0.4546 -0.3186  0.1697
  578MPD2    C1 8568   0.700   3.519   0.427 -0.2132 -0.1926  0.4252
  578MPD2    C2 8569   0.666   3.430   0.528 -0.6361  0.2246  0.0281
  578MPD2    C3 8570   0.553   3.460   0.605  0.4851  0.1926 -0.7207
  578MPD2    C4 8571   0.498   3.583   0.599  0.8242 -0.6401  0.3210
  578MPD2    C5 8572   0.541   3.677   0.511 -0.2233  0.8121  0.1141
  578MPD2     H 8573   0.712   3.333   0.545  1.1311  0.9379 -0.5896
  578MPD2    H1 8574   0.417   3.605   0.668  0.7645 -0.7526  0.2860
  578MPD2    H2 8575   0.670   3.719   0.352 -1.4617 -1.4965 -1.5510
  578MPD2    H3 8576   0.504   3.779   0.522 -0.7846  0.7598 -1.3627
  578MPD2     N 8577   0.518   3.372   0.713  1.1367 -0.3831 -0.4863
  578MPD2    H5 8578   0.581   3.295   0.734  1.4053 -0.1019 -0.2514
  578MPD2    N1 8579   0.807   3.501   0.331  0.0458 -0.6105  0.4994
  578MPD2    H7 8580   0.831   3.582   0.275  2.1647 -1.1147  0.6726
  579TMC3    C1 8581   0.433   3.339   0.930  0.3547 -0.0956 -0.0711
  579TMC3    C2 8582   0.424   3.440   1.017  0.9651  0.2339 -0.3190
  579TMC3    C3 8583   0.492   3.432   1.131 -0.0640  0.1563 -0.2527
  579TMC3    C4 8584   0.520   3.235   0.952 -0.5501 -0.3989  0.0163
  579TMC3    C5 8585   0.583   3.236   1.074  0.3795  0.0871 -0.8775
  579TMC3    C6 8586   0.575   3.334   1.170  0.1190  0.2067  0.0039
  579TMC3     C 8587   0.407   3.383   0.795  0.9438 -0.4442 -0.1283
  579TMC3     O 8588   0.305   3.454   0.782 -0.0944 -0.4101 -0.0406
  579TMC3     H 8589   0.353   3.519   0.993 -0.0565 -1.2001 -1.9668
  579TMC3    H1 8590   0.509   3.147   0.889  0.6096  1.2020 -2.3914
  579TMC3    H2 8591   0.615   3.329   1.270 -2.2678 -4.1329  0.7315
  579TMC3    C7 8592   0.655   3.113   1.107  0.0087  0.3024  0.4185
  579TMC3    C8 8593   0.509   3.559   1.201  0.4126 -0.8244 -0.0331
  579TMC3    O1 8594   0.683   3.100   1.225 -0.1843  0.1783 -0.0887
  579TMC3    O2 8595   0.439   3.657   1.174 -0.4306  0.1902 -0.3746
  580TMC3    C1 8596   0.116   3.626  11.824  0.0744 -0.3669  0.0832
  580TMC3    C2 8597   0.085   3.572  11.706 -0.0431  0.0814  0.3917
  580TMC3    C3 8598   0.110   3.439  11.686 -0.4717 -0.0413  0.4255
  580TMC3    C4 8599   0.149   3.539  11.926 -0.2386 -0.6620  0.5703
  580TMC3    C5 8600   0.170   3.400  11.901  0.0336 -0.5448  0.1600
  580TMC3    C6 8601   0.153   3.350  11.783 -0.2688 -0.4928 -0.4752
  580TMC3     C 8602   0.143   3.770  11.824 -0.2671 -0.1449  0.0495
  580TMC3     O 8603   0.161   3.819  11.713 -0.1910 -0.3031  0.3010
  580TMC3     H 8604   0.046   3.634  11.626 -1.2767 -0.2531  0.7418
  580TMC3    H1 8605   0.163   3.587  12.023 -2.7385 -2.4770  1.8437
  580TMC3    H2 8606   0.194   3.251  11.765  1.9771  0.0174  1.8233
  580TMC3    C7 8607   0.231   3.324  12.011 -0.5155 -0.5200 -0.0420
  580TMC3    C8 8608   0.153   3.417  11.549  0.2542  1.1234 -0.1722
  580TMC3    O1 8609   0.300   3.386  12.090 -0.3950  0.0891  0.1525
  580TMC3    O2 8610   0.141   3.306  11.505  0.0422  0.0355  0.0754
  581MPD2     C 8611   2.960   2.776  14.743 -0.1038  0.8160  0.1319
  581MPD2    C1 8612   3.015   2.889  14.811 -0.0240  0.4956 -0.4207
  581MPD2    C2 8613   2.938   3.004  14.811 -0.0173 -0.1681 -0.3352
  581MPD2    C3 8614   2.813   3.010  14.758  0.1918 -1.0700  0.5346
  581MPD2    C4 8615   2.763   2.894  14.694  0.3331  0.2826 -0.2618
  581MPD2    C5 8616   2.836   2.784  14.678  1.0765 -0.2698  0.0870
  581MPD2     H 8617   2.970   3.096  14.858  1.3467 -0.0726 -1.4430
  581MPD2    H1 8618   2.665   2.896  14.648 -1.0944  1.2410  2.8214
  581MPD2    H2 8619   3.015   2.683  14.737  0.2777  1.1171 -0.9703
  581MPD2    H3 8620   2.790   2.704  14.621  0.0754 -1.0290  1.9592
  581MPD2     N 8621   2.727   3.128  14.756 -0.3857  0.4556  0.5572
  581MPD2    H5 8622   2.762   3.217  14.790 -0.4962  1.3532 -1.6624
  581MPD2    N1 8623   3.138   2.868  14.870  0.0317 -0.2686 -0.4535
  581MPD2    H7 8624   3.174   2.773  14.865  1.1165  0.1605 -0.7502
  582TMC3    C1 8625   3.329   2.915  14.992  0.0032  0.2274 -0.0189
  582TMC3    C2 8626   3.390   2.972  15.099  0.1575 -0.5013  0.0914
  582TMC3    C3 8627   3.517   2.940  15.133 -0.1062 -0.4934 -0.2758
  582TMC3    C4 8628   3.391   2.810  14.921 -0.1452 -0.6810 -0.6411
  582TMC3    C5 8629   3.519   2.779  14.966  0.2406  0.3530 -0.3464
  582TMC3    C6 8630   3.590   2.852  15.060  0.1968  0.4812  0.2067
  582TMC3     C 8631   3.201   2.961  14.954 -0.2543  0.3077  0.2717
  582TMC3     O 8632   3.174   3.078  14.973  0.1744 -0.0060 -0.0497
  582TMC3     H 8633   3.335   3.046  15.156 -0.8244 -0.3875 -1.0156
  582TMC3    H1 8634   3.353   2.768  14.829 -1.4520 -0.5922 -0.1514
  582TMC3    H2 8635   3.682   2.803  15.090 -0.9479 -2.0144 -0.3653
  582TMC3    C7 8636   3.562   2.651  14.908  1.1544  0.3332  0.2091
  582TMC3    C8 8637   3.567   2.980  15.263  0.3192 -0.3363  0.1235
  582TMC3    O1 8638   3.530   2.635  14.791 -0.0973 -0.2887 -0.0383
  582TMC3    O2 8639   3.496   3.033  15.347  0.0150 -0.3274  0.1599
  583MPD2     C 8640   3.221   4.390  16.792 -0.5793  0.2953 -0.2344
  583MPD2    C1 8641   3.278   4.490  16.719 -0.4277 -0.3408 -0.4987
  583MPD2    C2 8642   3.245   4.617  16.755  0.6963  0.4037  0.2186
  583MPD2    C3 8643   3.153   4.654  16.855  0.1127  0.4961 -0.0558
  583MPD2    C4 8644   3.097   4.542  16.923 -0.1267 -0.6096  1.1381
  583MPD2    C5 8645   3.131   4.415  16.890 -0.5573  0.4121 -0.4823
  583MPD2     H 8646   3.312   4.695  16.719  0.5947 -0.1369 -1.1250
  583MPD2    H1 8647   3.023   4.551  17.002  1.2160  1.1662  2.1963
  583MPD2    H2 8648   3.248   4.285  16.786  2.0597  0.9511 -0.0560
  583MPD2    H3 8649   3.101   4.331  16.951 -1.2574  0.5734 -0.5983
  583MPD2     N 8650   3.128   0.068  16.889 -0.7153 -0.4820 -0.0770
  583MPD2    H5 8651   3.158   0.144  16.829 -3.2520  1.3146  0.8935
  583MPD2    N1 8652   3.374   4.473  16.629  0.0759 -0.3606  0.7563
  583MPD2    H7 8653   3.407   4.558  16.584 -0.2495 -0.1635  0.8902
  584TMC3    C1 8654   3.101   0.245  17.040  0.0242  0.1345  0.0877
  584TMC3    C2 8655   3.185   0.334  16.980  0.5659 -0.0116 -0.4992
  584TMC3    C3 8656   3.204   0.454  17.027  0.1523  0.0103 -1.3463
  584TMC3    C4 8657   3.047   0.281  17.164  0.4524  0.0690  0.2079
  584TMC3    C5 8658   3.075   0.406  17.220 -0.2793  0.3478  0.0211
  584TMC3    C6 8659   3.155   0.490  17.147 -0.8267 -0.4051  0.3552
  584TMC3     C 8660   3.072   0.106  17.005 -0.6269 -0.1923 -0.3043
  584TMC3     O 8661   3.040   0.044  17.103  0.1548  0.0775  0.4708
  584TMC3     H 8662   3.224   0.315  16.881  0.0773 -2.4598 -0.2082
  584TMC3    H1 8663   2.988   0.213  17.224  0.3535 -0.1005 -0.0781
  584TMC3    H2 8664   3.176   0.590  17.181 -0.1149 -0.0944 -1.0273
  584TMC3    C7 8665   3.019   0.438  17.349  0.0508  0.2966 -0.1667
  584TMC3    C8 8666   3.255   0.551  16.936  0.1316 -0.2001  0.5098
  584TMC3    O1 8667   2.945   0.354  17.400 -0.7870  0.2640  0.0584
  584TMC3    O2 8668   3.260   0.524  16.817 -0.3229  0.4897  0.4198
  585MPD2     C 8669   2.149   3.234   0.236 -0.3348  0.1623  0.0904
  585MPD2    C1 8670   2.250   3.271   0.321 -0.2407  0.8165 -0.4937
  585MPD2    C2 8671   2.376   3.228   0.295 -0.5155  0.6914  0.4987
  585MPD2    C3 8672   2.413   3.165   0.172  0.1975  0.0169 -0.0230
  585MPD2    C4 8673   2.312   3.141   0.080 -0.1450 -0.4782 -0.2955
  585MPD2    C5 8674   2.184   3.177   0.118  0.1871  0.4870 -0.4921
  585MPD2     H 8675   2.451   3.247   0.371  0.2238 -1.0862  0.2089
  585MPD2    H1 8676   2.326   3.099  17.676  2.7734 -2.0514  0.7857
  585MPD2    H2 8677   2.043   3.253   0.247 -0.4466  1.3460 -2.8147
  585MPD2    H3 8678   2.110   3.148   0.045 -0.2977 -2.1960  1.0748
  585MPD2     N 8679   2.548   3.116   0.142  0.5238  0.0105  0.2197
  585MPD2    H5 8680   2.560   3.060   0.058 -0.6015 -0.0904  0.1289
  585MPD2    N1 8681   2.201   3.336   0.431 -0.1848  0.0351 -0.2136
  585MPD2    H7 8682   2.103   3.364   0.437 -0.0385  0.0386  2.1984
  586TMC3    C1 8683   2.775   3.074   0.152 -0.4191  0.3705  0.1509
  586TMC3    C2 8684   2.854   2.988   0.222 -0.1682 -0.3005  0.1756
  586TMC3    C3 8685   2.946   2.917   0.150 -0.0516  0.1898  0.5504
  586TMC3    C4 8686   2.790   3.093   0.021  0.2216 -0.2126  0.5323
  586TMC3    C5 8687   2.887   3.025  17.649  0.0943  0.0597 -0.0892
  586TMC3    C6 8688   2.968   2.935   0.019 -0.1445  0.1964  0.0026
  586TMC3     C 8689   2.660   3.125   0.215 -0.4795 -0.4771 -0.1027
  586TMC3     O 8690   2.677   3.176   0.326  0.0238 -0.3916 -0.4502
  586TMC3     H 8691   2.833   2.970   0.326 -2.3324 -3.3426 -0.7680
  586TMC3    H1 8692   2.715   3.151  17.664  2.7151 -0.5651 -3.3967
  586TMC3    H2 8693   3.006   2.849  17.661  0.5313  0.2090  0.4708
  586TMC3    C7 8694   2.850   3.005  17.513 -0.2365  1.3376  0.4382
  586TMC3    C8 8695   3.009   2.803   0.212 -0.3042 -0.2494  0.1515
  586TMC3    O1 8696   2.729   3.007  17.487 -0.2735  0.3807 -0.2223
  586TMC3    O2 8697   2.964   2.757   0.317  0.0635 -0.8839 -0.2643
  587TMC3    C1 8698   0.319   2.555  16.889  0.2274  0.3755  0.1458
  587TMC3    C2 8699   0.275   2.645  16.793  0.6076 -0.0685 -0.1837
  587TMC3    C3 8700   0.359   2.688  16.698  0.3439  0.3313  0.5306
  587TMC3    C4 8701   0.445   2.503  16.885 -0.0019  0.0519 -0.1755
  587TMC3    C5 8702   0.530   2.551  16.789 -0.6036 -0.1007  1.2189
  587TMC3    C6 8703   0.496   2.642  16.699 -0.8958  0.4058 -0.2135
  587TMC3     C 8704   0.226   2.469  16.960  0.3920 -0.1999 -0.7899
  587TMC3     O 8705   0.265   2.403  17.056 -0.0612  0.0312  0.6063
  587TMC3     H 8706   0.175   2.688  16.794  1.6660  2.2936  3.4080
  587TMC3    H1 8707   0.469   2.429  16.961 -0.9333  2.5109  2.4966
  587TMC3    H2 8708   0.567   2.684  16.628  1.6329 -0.5973  1.7671
  587TMC3    C7 8709   0.660   2.500  16.776  0.1825  0.3904 -0.4294
  587TMC3    C8 8710   0.325   2.794  16.596  0.0271  0.2040  0.8077
  587TMC3    O1 8711   0.709   2.503  16.667 -0.4676  0.1257  0.8015
  587TMC3    O2 8712   0.382   2.793  16.487 -0.0215 -0.4133  0.6500
  588TMC3    C1 8713   1.968   1.073   9.280 -0.5380  0.3975  0.5229
  588TMC3    C2 8714   1.955   0.954   9.221 -0.7013 -0.4860  0.3220
  588TMC3    C3 8715   2.041   0.853   9.257 -0.4627 -0.4129  0.1888
  588TMC3    C4 8716   2.062   1.101   9.376 -0.0456  0.3188 -0.3082
  588TMC3    C5 8717   2.140   0.995   9.408  0.1518 -0.6678  0.1433
  588TMC3    C6 8718   2.135   0.877   9.346  0.1131 -0.2308  0.1042
  588TMC3     C 8719   1.902   1.184   9.213  0.8440 -0.5008 -1.3243
  588TMC3     O 8720   1.913   1.206   9.095 -0.6554 -0.0217  0.6903
  588TMC3     H 8721   1.873   0.929   9.155  0.4727 -3.3364 -0.0435
  588TMC3    H1 8722   2.065   1.190   9.438  0.8377  0.8635 -1.1413
  588TMC3    H2 8723   2.219   0.811   9.362 -0.6172 -0.9693  0.9041
  588TMC3    C7 8724   2.255   1.006   9.502  0.1977  0.7340 -0.2181
  588TMC3    C8 8725   1.999   0.717   9.243  0.1588  0.6227 -0.5225
  588TMC3    O1 8726   2.295   0.910   9.566  0.0982 -0.1317 -0.5761
  588TMC3    O2 8727   1.918   0.685   9.160 -0.1697 -0.0624 -0.0474
  589TMC3    C1 8728   1.512   1.905   1.030  0.4009 -0.4672 -0.0628
  589TMC3    C2 8729   1.553   2.016   1.098  0.4024  0.0839 -0.1097
  589TMC3    C3 8730   1.659   2.087   1.050  0.2896  0.3076 -0.3736
  589TMC3    C4 8731   1.584   1.851   0.929 -0.6082 -0.0561 -0.2718
  589TMC3    C5 8732   1.695   1.918   0.893 -0.9463  0.5658 -0.0905
  589TMC3    C6 8733   1.735   2.041   0.950  0.0498  0.5657  0.1395
  589TMC3     C 8734   1.429   1.802   1.099 -0.1329 -0.1715 -0.2648
  589TMC3     O 8735   1.432   1.685   1.064  0.2568  0.2525  0.4091
  589TMC3     H 8736   1.516   2.056   1.192 -0.7048 -3.9673  1.1654
  589TMC3    H1 8737   1.539   1.768   0.875  0.6636  0.6643 -2.4583
  589TMC3    H2 8738   1.811   2.107   0.911  0.4263  0.3344  0.4702
  589TMC3    C7 8739   1.770   1.883   0.779  0.2471 -0.4997  0.3287
  589TMC3    C8 8740   1.703   2.202   1.127  0.4022 -0.4474  0.8919
  589TMC3    O1 8741   1.819   1.971   0.711  0.1537 -0.4063  0.0504
  589TMC3    O2 8742   1.618   2.269   1.182  0.0215  0.3431 -0.0173
  590MPD2     C 8743   0.903   0.646  16.737  0.5596  0.1261  0.7326
  590MPD2    C1 8744   0.854   0.709  16.624  0.4322  0.4385  0.5705
  590MPD2    C2 8745   0.943   0.774  16.539 -0.1346 -0.2438 -0.0252
  590MPD2    C3 8746   1.080   0.768  16.561 -0.0935  0.1269 -0.5997
  590MPD2    C4 8747   1.125   0.706  16.672 -0.1280  0.2939 -0.1900
  590MPD2    C5 8748   1.036   0.655  16.759  0.0528 -0.1253 -0.1276
  590MPD2     H 8749   0.900   0.826  16.454  0.8397  0.7735  0.1096
  590MPD2    H1 8750   1.228   0.710  16.707 -0.1441  0.9351 -0.2072
  590MPD2    H2 8751   0.833   0.599  16.806 -0.5521  1.2786  0.3942
  590MPD2    H3 8752   1.080   0.608  16.847  1.0344  0.1154 -0.4883
  590MPD2     N 8753   1.157   0.842  16.467  0.1387  0.2126 -0.1215
  590MPD2    H5 8754   1.118   0.888  16.385 -1.0429  1.5425  1.1856
  590MPD2    N1 8755   0.709   0.709  16.595  0.6249 -0.2170  0.2661
  590MPD2    H7 8756   0.662   0.689  16.683  0.3027  0.3627  0.2197
  591TMC3    C1 8757   1.357   0.941  16.379 -0.2521  0.1473  1.0187
  591TMC3    C2 8758   1.442   0.888  16.276 -0.2048 -0.8990 -0.1088
  591TMC3    C3 8759   1.438   0.955  16.158 -0.3750 -0.3006 -0.4374
  591TMC3    C4 8760   1.282   1.049  16.359  0.0722 -0.7489  0.3897
  591TMC3    C5 8761   1.297   1.111  16.238  0.0066  0.2367 -0.3485
  591TMC3    C6 8762   1.370   1.067  16.133 -0.4146  0.0367 -0.4352
  591TMC3     C 8763   1.297   0.844  16.468 -0.7580 -0.7699 -0.2376
  591TMC3     O 8764   1.386   0.772  16.507  0.4603  0.4626  0.7396
  591TMC3     H 8765   1.484   0.789  16.291  0.2038 -0.6739  0.2103
  591TMC3    H1 8766   1.211   1.087  16.432  2.0260  0.4159  1.6962
  591TMC3    H2 8767   1.390   1.123  16.042 -2.0644  0.4786 -0.5219
  591TMC3    C7 8768   1.237   1.246  16.221  0.1095  0.4353 -0.8387
  591TMC3    C8 8769   1.511   0.886  16.047  0.4350  0.3427 -0.1383
  591TMC3    O1 8770   1.201   1.311  16.317  0.3236  0.0558 -0.4684
  591TMC3    O2 8771   1.562   0.776  16.071 -0.2348  0.2453  0.4026
  592MPD2     C 8772   1.198   3.611  11.117 -0.8057 -0.1679  0.0380
  592MPD2    C1 8773   1.242   3.618  11.247  0.5009 -0.5866 -0.1832
  592MPD2    C2 8774   1.172   3.551  11.347 -0.0903  0.1415 -0.1414
  592MPD2    C3 8775   1.055   3.477  11.317 -0.4195 -0.2686 -0.0523
  592MPD2    C4 8776   1.017   3.465  11.189  0.6970  0.4763  0.3349
  592MPD2    C5 8777   1.087   3.530  11.091 -0.1566  0.7551 -0.4428
  592MPD2     H 8778   1.209   3.545  11.448 -0.9241  0.6259  0.1956
  592MPD2    H1 8779   0.932   3.412  11.147  1.3456 -1.3072  1.2862
  592MPD2    H2 8780   1.250   3.656  11.034 -2.9135  0.8436 -0.7246
  592MPD2    H3 8781   1.051   3.514  10.990  0.5612  1.5642 -0.8310
  592MPD2     N 8782   1.001   3.406  11.427  0.0877  0.2796  0.2775
  592MPD2    H5 8783   1.052   3.422  11.513  0.7284 -1.9236  0.2884
  592MPD2    N1 8784   1.367   3.676  11.268 -0.3443  0.5987 -0.1671
  592MPD2    H7 8785   1.415   3.710  11.185 -1.0875  1.7731 -0.1165
  593TMC3    C1 8786   1.522   3.807  11.393  0.1756  0.0473  0.0806
  593TMC3    C2 8787   1.593   3.815  11.511 -0.0539  0.6291 -0.5076
  593TMC3    C3 8788   1.710   3.888  11.504 -0.5030 -0.2007 -0.2558
  593TMC3    C4 8789   1.563   3.875  11.280 -0.2193  0.4836  0.3707
  593TMC3    C5 8790   1.679   3.944  11.282 -0.4039 -0.2529  0.0005
  593TMC3    C6 8791   1.759   3.950  11.397 -0.4119  0.1393  0.3513
  593TMC3     C 8792   1.403   3.723  11.390 -0.3036  0.1739  0.2631
  593TMC3     O 8793   1.342   3.727  11.496 -0.4522 -0.1007  0.2273
  593TMC3     H 8794   1.564   3.775  11.607  1.3069 -1.3589 -0.9278
  593TMC3    H1 8795   1.514   3.863  11.184  1.0088 -0.9975 -0.0741
  593TMC3    H2 8796   1.854   4.002  11.402  0.3015 -0.7846 -3.0860
  593TMC3    C7 8797   1.712   4.046  11.181  0.4828  0.0911 -0.5358
  593TMC3    C8 8798   1.736   3.942  11.630  0.5063  0.1485 -0.1881
  593TMC3    O1 8799   1.809   4.120  11.203  0.1291 -0.0324  0.0277
  593TMC3    O2 8800   1.641   3.991  11.685 -0.4085  0.3138  0.4746
  594MPD2     C 8801   0.422   1.637  14.846  0.3603 -0.5791 -0.6139
  594MPD2    C1 8802   0.348   1.748  14.826  0.2973  0.4749  0.0266
  594MPD2    C2 8803   0.404   1.847  14.743 -0.4892 -0.1842 -0.1337
  594MPD2    C3 8804   0.535   1.837  14.688 -0.8215 -1.2753  0.3769
  594MPD2    C4 8805   0.612   1.735  14.737 -0.2263 -0.0962 -0.4046
  594MPD2    C5 8806   0.553   1.633  14.806  0.8243  0.6048  0.2615
  594MPD2     H 8807   0.346   1.934  14.715 -1.6642 -0.3282  1.8443
  594MPD2    H1 8808   0.720   1.732  14.731 -0.2394  0.3508 -0.8864
  594MPD2    H2 8809   0.396   1.563  14.921  0.6306  0.0071  0.0575
  594MPD2    H3 8810   0.613   1.549  14.839 -1.3094  0.4374  3.7237
  594MPD2     N 8811   0.583   1.932  14.602  0.1249  0.1153  0.7519
  594MPD2    H5 8812   0.531   2.019  14.598 -0.7472 -0.3779  1.2326
  594MPD2    N1 8813   0.214   1.746  14.864 -0.1381  0.4500  0.0968
  594MPD2    H7 8814   0.189   1.661  14.914  0.8014 -0.1707 -0.4929
  595TMC3    C1 8815   0.875   2.176  14.335 -0.1142  0.6096 -0.4693
  595TMC3    C2 8816   0.838   2.053  14.376 -0.5445 -0.2116 -0.5935
  595TMC3    C3 8817   0.746   2.048  14.476  0.0905  0.2102  0.3650
  595TMC3    C4 8818   0.828   2.294  14.386  0.1613 -0.3473  0.0811
  595TMC3    C5 8819   0.747   2.279  14.489  0.0409  0.3628  0.3382
  595TMC3    C6 8820   0.703   2.159  14.534 -0.8369  0.0775 -0.0814
  595TMC3     C 8821   0.988   2.188  14.245 -0.3170 -0.1265  0.3981
  595TMC3     O 8822   1.056   2.282  14.271  0.4345 -0.4743 -0.5402
  595TMC3     H 8823   0.881   1.962  14.337 -0.0493 -0.2850  0.1061
  595TMC3    H1 8824   0.863   2.389  14.346 -1.7630 -0.1030 -0.9888
  595TMC3    H2 8825   0.642   2.153  14.624 -0.6138 -0.4161  0.0370
  595TMC3    C7 8826   0.690   2.393  14.545 -0.1650  0.5330  0.0021
  595TMC3    C8 8827   0.704   1.917  14.540 -0.3655 -0.1916  0.2393
  595TMC3    O1 8828   0.599   2.382  14.628  0.1079  0.1941  0.1204
  595TMC3    O2 8829   0.775   1.817  14.518 -0.3091 -0.4167 -0.4885
  596MPD2     C 8830   3.716   4.178  16.688  0.1238 -0.1800  0.1459
  596MPD2    C1 8831   3.817   4.270  16.681 -0.6681 -0.0114  1.1720
  596MPD2    C2 8832   3.893   4.279  16.567  0.4482  1.0673 -0.0312
  596MPD2    C3 8833   3.872   4.202  16.455 -0.6665 -0.2686 -0.3402
  596MPD2    C4 8834   3.768   4.110  16.458 -0.2014  0.5899 -0.0370
  596MPD2    C5 8835   3.695   4.104  16.576 -0.4389  0.4002 -0.0685
  596MPD2     H 8836   3.969   4.357  16.564  1.3420  0.1790 -0.3659
  596MPD2    H1 8837   3.733   4.040  16.383  1.5819  0.2970 -0.5865
  596MPD2    H2 8838   3.666   4.154  16.782  1.1324  0.6978  0.9040
  596MPD2    H3 8839   3.621   4.024  16.570  1.1932 -1.1151 -0.1224
  596MPD2     N 8840   3.938   4.221  16.333  0.4782 -0.1838 -0.4988
  596MPD2    H5 8841   3.920   4.153  16.260 -2.8935  1.6074 -1.3232
  596MPD2    N1 8842   3.852   4.349  16.794  0.3965  0.5447  1.0725
  596MPD2    H7 8843   3.937   4.405  16.796  0.7382 -0.0137  1.9159
  597TMC3    C1 8844   3.828   4.429  17.015  0.2316 -0.2539 -0.3232
  597TMC3    C2 8845   3.965   4.439  17.011  0.5950  0.2490  0.7420
  597TMC3    C3 8846   4.024   4.504  17.115  0.8373  0.0273  0.1216
  597TMC3    C4 8847   3.747   4.490  17.107 -0.0045 -0.2013 -0.5715
  597TMC3    C5 8848   3.810   4.555  17.210 -0.2981  0.9779  0.0106
  597TMC3    C6 8849   3.952   4.559  17.218 -0.3122 -1.4262 -0.0795
  597TMC3     C 8850   3.763   4.369  16.901 -0.3832 -1.2833  0.4690
  597TMC3     O 8851   3.644   4.342  16.909 -0.2963 -0.0462 -0.4060
  597TMC3     H 8852   4.027   4.384  16.941  0.7073  2.9271 -1.2682
  597TMC3    H1 8853   3.639   4.479  17.109  0.0810 -0.7941  0.9434
  597TMC3    H2 8854   3.996   4.612  17.301  0.9421 -1.1312 -0.9409
  597TMC3    C7 8855   3.725   4.647  17.285  0.6765  0.2425 -0.7543
  597TMC3    C8 8856   4.162   4.556  17.101  0.4072 -0.1911 -0.4063
  597TMC3    O1 8857   3.614   4.611  17.314 -0.1392  0.2510  0.4526
  597TMC3    O2 8858   4.212   4.594  17.207  0.1762  0.2646 -0.3702
  598TMC3    C1 8859   2.395   1.269  14.866  0.0225 -0.3095 -0.0808
  598TMC3    C2 8860   2.279   1.192  14.888 -0.9777 -0.0058  0.4029
  598TMC3    C3 8861   2.171   1.232  14.822 -0.6591  0.0880 -0.7620
  598TMC3    C4 8862   2.402   1.371  14.771 -0.1246  0.1234 -0.3067
  598TMC3    C5 8863   2.279   1.406  14.714  0.0124  0.4359 -0.6180
  598TMC3    C6 8864   2.161   1.331  14.735  0.2857 -0.6495  0.8908
  598TMC3     C 8865   2.475   1.291  14.984 -0.1224  0.2823 -0.2354
  598TMC3     O 8866   2.537   1.396  14.989 -0.2526 -0.1007 -0.3639
  598TMC3     H 8867   2.262   1.111  14.959 -0.4546 -2.3282 -2.1039
  598TMC3    H1 8868   2.497   1.418  14.751 -0.5035  0.0760 -2.1929
  598TMC3    H2 8869   2.069   1.355  14.683  0.1149  1.6504  2.2302
  598TMC3    C7 8870   2.272   1.502  14.608  0.1044 -0.7948  0.1188
  598TMC3    C8 8871   2.041   1.161  14.833  0.1358 -0.6061  0.1163
  598TMC3    O1 8872   2.166   1.499  14.542  0.0531 -0.5072  0.2168
  598TMC3    O2 8873   1.976   1.144  14.735  0.3566 -1.0085 -0.0480
  599MPD2     C 8874   2.681   3.724  15.956 -0.3998 -0.6049  0.5625
  599MPD2    C1 8875   2.601   3.619  15.913 -0.2757 -0.3236  0.0921
  599MPD2    C2 8876   2.462   3.632  15.944  0.0511  0.0386 -0.0646
  599MPD2    C3 8877   2.417   3.744  16.005 -0.3141  0.7036 -0.2525
  599MPD2    C4 8878   2.490   3.849  16.040 -0.1399 -0.2039  0.0221
  599MPD2    C5 8879   2.624   3.838  16.007  0.5137 -0.4216 -0.0565
  599MPD2     H 8880   2.390   3.557  15.914 -2.5649  2.6624 -0.2992
  599MPD2    H1 8881   2.452   3.945  16.073  2.0495  0.5043  0.4892
  599MPD2    H2 8882   2.783   3.725  15.919 -0.2650 -0.5478  0.9420
  599MPD2    H3 8883   2.690   3.921  16.026 -1.5679  0.9392  1.1084
  599MPD2     N 8884   2.283   3.758  16.047 -0.1261 -0.5569  0.2118
  599MPD2    H5 8885   2.252   3.852  16.071 -1.6783 -1.3992  1.4455
  599MPD2    N1 8886   2.661   3.513  15.837 -0.6317 -0.3776 -0.7132
  599MPD2    H7 8887   2.761   3.517  15.822 -0.0362  1.2195  3.7337
  600TMC3    C1 8888   2.053   3.704  16.094  0.1358 -0.4971 -0.3039
  600TMC3    C2 8889   1.955   3.602  16.096  0.2696  0.0027 -0.2592
  600TMC3    C3 8890   1.830   3.642  16.136 -0.6288 -0.5361 -0.2147
  600TMC3    C4 8891   2.022   3.835  16.119 -0.5440 -0.2749 -0.8995
  600TMC3    C5 8892   1.893   3.864  16.145 -0.1637 -0.2480 -0.4104
  600TMC3    C6 8893   1.797   3.768  16.165  0.7277  0.1300  0.2939
  600TMC3     C 8894   2.191   3.659  16.063  0.3860 -0.0530 -0.0410
  600TMC3     O 8895   2.198   3.542  16.039  0.0339 -1.1242  0.7247
  600TMC3     H 8896   1.974   3.504  16.053 -1.4771 -0.4774  0.0614
  600TMC3    H1 8897   2.093   3.912  16.093  2.2944 -2.2337  1.0224
  600TMC3    H2 8898   1.700   3.789  16.208 -0.4678  0.6137 -2.6375
  600TMC3    C7 8899   1.862   3.995  16.180 -0.2838  0.1347  0.4777
  600TMC3    C8 8900   1.733   3.539  16.130 -0.0716 -0.7706  0.3814
  600TMC3    O1 8901   1.745   4.027  16.173 -0.4795 -0.1373 -0.3169
  600TMC3    O2 8902   1.775   3.424  16.133 -0.1047  0.1037  0.6231
  601MPD2     C 8903   4.226   2.234   0.119  0.8775 -0.5375 -0.5684
  601MPD2    C1 8904   4.125   2.200   0.028  0.4820  0.3669 -0.4402
  601MPD2    C2 8905   4.081   2.069   0.024 -1.2132  0.0002  0.4466
  601MPD2    C3 8906   4.136   1.975   0.113  0.0571  0.4426  0.3056
  601MPD2    C4 8907   4.231   2.009   0.202  0.2384  0.8883 -0.1297
  601MPD2    C5 8908   4.274   2.142   0.205 -0.6073 -1.1345  0.2546
  601MPD2     H 8909   4.003   2.039  17.651  1.0621 -0.7090 -1.8651
  601MPD2    H1 8910   4.272   1.950   0.283  0.9374 -0.1280 -1.2081
  601MPD2    H2 8911   4.271   2.332   0.102  1.3651 -0.3174  1.9528
  601MPD2    H3 8912   4.346   2.173   0.279  0.1431 -2.2797  0.0100
  601MPD2     N 8913   4.104   1.840   0.124 -0.9642 -0.6912 -0.2478
  601MPD2    H5 8914   4.184   1.794   0.167 -0.2742 -1.1812 -2.0737
  601MPD2    N1 8915   4.067   2.292  17.635 -0.1739 -0.8458 -0.0042
  601MPD2    H7 8916   4.014   2.247  17.561  4.0635 -2.5341 -2.0278
  602TMC3    C1 8917   4.089   2.463  17.480 -0.6778 -0.0460  0.2602
  602TMC3    C2 8918   4.188   2.553  17.432  0.0063 -0.8918 -0.0485
  602TMC3    C3 8919   4.157   2.599  17.309 -0.3209  0.0742 -0.4369
  602TMC3    C4 8920   3.968   2.440  17.420 -0.3800  0.9970 -0.0446
  602TMC3    C5 8921   3.950   2.498  17.298  1.2282  0.1650  0.2593
  602TMC3    C6 8922   4.050   2.564  17.237  0.2747  0.1907 -0.2626
  602TMC3     C 8923   4.107   2.424  17.612 -0.2403  0.5586  0.1432
  602TMC3     O 8924   4.179   2.498  17.671  0.7900  0.0836 -0.2436
  602TMC3     H 8925   4.282   2.582  17.476 -0.1900  0.6289 -0.6383
  602TMC3    H1 8926   3.885   2.396  17.473  0.1496 -0.3389 -0.3314
  602TMC3    H2 8927   4.046   2.572  17.129 -3.2612 -1.0429 -0.2140
  602TMC3    C7 8928   3.821   2.489  17.227 -0.0291  0.9188  0.7835
  602TMC3    C8 8929   4.261   2.655  17.225 -0.2474  0.6011 -0.2164
  602TMC3    O1 8930   3.737   2.416  17.269 -0.2823  0.1808 -0.5220
  602TMC3    O2 8931   4.375   2.635  17.263 -0.4599 -0.0750 -0.3943
  603TMC3    C1 8932   2.543   2.850  11.039  0.0296 -0.1499 -0.4303
  603TMC3    C2 8933   2.538   2.844  11.176  0.3845  0.5708  0.0754
  603TMC3    C3 8934   2.597   2.947  11.242 -0.2249 -1.2176  0.2898
  603TMC3    C4 8935   2.612   2.947  10.970  0.4718 -0.1354 -0.7990
  603TMC3    C5 8936   2.665   3.053  11.046  0.2027 -0.0653  0.2210
  603TMC3    C6 8937   2.658   3.056  11.183  0.7291 -0.8344  0.8401
  603TMC3     C 8938   2.500   2.731  10.959  0.7509 -0.0905 -0.4265
  603TMC3     O 8939   2.457   2.749  10.846 -0.5812  0.2131  0.2504
  603TMC3     H 8940   2.481   2.766  11.226 -0.8517 -0.1379 -2.4777
  603TMC3    H1 8941   2.635   2.928  10.866  1.7823 -2.5474 -0.0806
  603TMC3    H2 8942   2.714   3.134  11.234 -0.0295 -0.2775  0.8262
  603TMC3    C7 8943   2.717   3.163  10.969  0.2092 -0.3651 -0.5749
  603TMC3    C8 8944   2.599   2.930  11.385  0.1620 -0.0367 -0.0204
  603TMC3    O1 8945   2.821   3.220  10.991 -0.3435  0.4456 -0.4312
  603TMC3    O2 8946   2.539   2.828  11.426 -0.1884  0.4978 -0.3936
  604MPD2     C 8947   3.079   0.688  16.512  0.0651 -0.3377  0.5385
  604MPD2    C1 8948   2.996   0.755  16.426  0.3553 -0.1240 -0.1276
  604MPD2    C2 8949   2.992   0.721  16.292  0.4705 -0.4631 -0.5789
  604MPD2    C3 8950   3.094   0.636  16.251 -0.3989  0.0736 -0.2764
  604MPD2    C4 8951   3.165   0.556  16.334 -0.0252  0.4457  0.1129
  604MPD2    C5 8952   3.162   0.583  16.470  0.4277  0.1238 -1.1974
  604MPD2     H 8953   2.925   0.759  16.216  0.4368 -1.4351 -1.0294
  604MPD2    H1 8954   3.218   0.471  16.295 -3.7938 -0.3605 -3.2689
  604MPD2    H2 8955   3.090   0.727  16.612  0.2023 -1.0094  0.7813
  604MPD2    H3 8956   3.220   0.524  16.539 -0.4645 -0.3772 -0.8761
  604MPD2     N 8957   3.116   0.623  16.115  0.0126  0.3752 -0.4751
  604MPD2    H5 8958   3.058   0.684  16.058 -0.2381 -0.7673 -1.4515
  604MPD2    N1 8959   2.915   0.856  16.487  0.5432  0.4596  0.0770
  604MPD2    H7 8960   2.941   0.887  16.580  1.8733  0.8634 -0.4265
  605TMC3    C1 8961   2.793   1.054  16.474  0.2925 -0.1253  0.2263
  605TMC3    C2 8962   2.894   1.115  16.548  0.0595 -0.0191 -0.3154
  605TMC3    C3 8963   2.889   1.245  16.583  0.5338  0.6372  0.1775
  605TMC3    C4 8964   2.692   1.130  16.423 -0.5564  0.1150  0.1479
  605TMC3    C5 8965   2.700   1.263  16.446 -0.7177  0.1143  0.2199
  605TMC3    C6 8966   2.791   1.319  16.530  0.4340 -0.3534  0.1424
  605TMC3     C 8967   2.810   0.917  16.425  0.1341  0.0653  0.4130
  605TMC3     O 8968   2.755   0.890  16.318 -0.5327 -0.5845 -0.0802
  605TMC3     H 8969   2.985   1.058  16.561  0.5464  0.2427 -2.6313
  605TMC3    H1 8970   2.609   1.088  16.368  0.7131  0.1901 -1.8209
  605TMC3    H2 8971   2.779   1.426  16.546  1.2664 -0.0031 -1.6362
  605TMC3    C7 8972   2.626   1.352  16.362  0.8369  0.9332  0.4657
  605TMC3    C8 8973   2.998   1.299  16.659  0.3165 -0.0620  0.2233
  605TMC3    O1 8974   2.620   1.476  16.380  0.1007  0.2746 -0.3212
  605TMC3    O2 8975   3.077   1.213  16.699  0.1562  0.8329  0.1793
  606TMC3    C1 8976   0.420   4.183  17.331  0.3356  0.1973  0.1788
  606TMC3    C2 8977   0.441   4.090  17.430  0.0071  0.0555  0.1544
  606TMC3    C3 8978   0.340   4.011  17.479 -0.9183 -0.6452 -0.1549
  606TMC3    C4 8979   0.297   4.211  17.291  0.9167 -0.0671  0.4792
  606TMC3    C5 8980   0.192   4.138  17.340  0.2613  0.5286 -0.1810
  606TMC3    C6 8981   0.212   4.035  17.431  0.4894 -0.5444  0.2104
  606TMC3     C 8982   0.508   4.291  17.318 -0.3902 -0.1084 -0.6751
  606TMC3     O 8983   0.628   4.274  17.304  0.2975 -0.0549 -0.1822
  606TMC3     H 8984   0.541   4.077  17.472 -0.4754 -1.2523  0.8980
  606TMC3    H1 8985   0.276   4.266  17.200  1.6597 -0.4042  0.1088
  606TMC3    H2 8986   0.127   3.974  17.457  1.0412 -1.3873  0.0286
  606TMC3    C7 8987   0.063   4.154  17.276 -0.8252  0.3971 -0.5350
  606TMC3    C8 8988   0.353   3.970  17.622 -1.0380 -0.5081 -0.2628
  606TMC3    O1 8989   0.058   4.204  17.166 -0.2275 -0.1792 -0.5593
  606TMC3    O2 8990   0.256   3.978   0.004  0.1005 -0.6436  0.4356
  607MPD2     C 8991   1.253   3.072  11.575  0.6973  0.5926  0.4327
  607MPD2    C1 8992   1.302   3.191  11.628  0.1036 -0.5528  0.0105
  607MPD2    C2 8993   1.316   3.203  11.768 -1.4656 -0.1580 -0.3476
  607MPD2    C3 8994   1.266   3.102  11.850  0.6448  0.0602  0.1012
  607MPD2    C4 8995   1.205   2.991  11.789  0.0498  0.7483  0.5968
  607MPD2    C5 8996   1.204   2.976  11.653  0.5395  0.1981  0.3355
  607MPD2     H 8997   1.363   3.289  11.814 -3.4161  1.3190 -1.1108
  607MPD2    H1 8998   1.183   2.903  11.849  0.1414  0.0941 -0.3356
  607MPD2    H2 8999   1.256   3.060  11.467  1.1221  3.2556  0.1497
  607MPD2    H3 9000   1.178   2.882  11.605  1.0297  1.1098 -1.7170
  607MPD2     N 9001   1.276   3.115  11.991  0.2536 -0.0281  0.5285
  607MPD2    H5 9002   1.324   3.194  12.032  0.0947 -0.9038  2.4082
  607MPD2    N1 9003   1.370   3.292  11.558  0.0319 -0.4423  1.1977
  607MPD2    H7 9004   1.398   3.376  11.610  0.0771  0.6766 -0.6422
  608TMC3    C1 9005   1.532   3.382  11.426  0.3126  0.6451  0.0666
  608TMC3    C2 9006   1.608   3.399  11.532 -0.0569  0.2169 -0.6359
  608TMC3    C3 9007   1.717   3.475  11.529 -0.0236  0.1665 -0.5184
  608TMC3    C4 9008   1.567   3.437  11.304 -0.1443  0.6568 -0.0477
  608TMC3    C5 9009   1.689   3.509  11.296  0.1821 -0.7203 -0.7076
  608TMC3    C6 9010   1.761   3.525  11.411  0.0667 -0.6030  0.0414
  608TMC3     C 9011   1.423   3.282  11.434  0.1199  0.0945  1.0710
  608TMC3     O 9012   1.401   3.198  11.345  0.3618  0.3313  0.2902
  608TMC3     H 9013   1.590   3.320  11.604 -1.4468 -0.9515 -2.2784
  608TMC3    H1 9014   1.507   3.422  11.215  1.3809 -0.4577 -0.8855
  608TMC3    H2 9015   1.840   3.600  11.411 -0.6942  0.1937 -0.6099
  608TMC3    C7 9016   1.726   3.582  11.182 -0.0638  0.1590 -0.1839
  608TMC3    C8 9017   1.787   3.516  11.648  0.5990 -0.3840  0.1605
  608TMC3    O1 9018   1.634   3.603  11.105  0.1828 -0.1325 -0.0602
  608TMC3    O2 9019   1.868   3.608  11.642  0.0244  0.0353 -0.0265
  609TMC3    C1 9020   0.478   2.663   8.992 -0.9134  0.0948  0.2184
  609TMC3    C2 9021   0.533   2.761   8.912  0.3976  0.4176 -0.0109
  609TMC3    C3 9022   0.672   2.764   8.901  0.9277  0.1744  0.4948
  609TMC3    C4 9023   0.557   2.578   9.068 -0.0794  0.4696 -0.3014
  609TMC3    C5 9024   0.694   2.601   9.067 -0.3806 -0.0761 -0.0382
  609TMC3    C6 9025   0.755   2.695   8.982 -0.1877 -0.3480 -0.3584
  609TMC3     C 9026   0.332   2.663   9.001 -0.1150 -0.3122 -0.4853
  609TMC3     O 9027   0.291   2.551   9.032 -0.0119 -0.6029 -0.8780
  609TMC3     H 9028   0.478   2.831   8.849 -0.5545 -0.8956 -0.6292
  609TMC3    H1 9029   0.509   2.506   9.134  0.6789 -0.5212 -0.8298
  609TMC3    H2 9030   0.862   2.707   8.994 -0.1478 -0.5503 -0.5297
  609TMC3    C7 9031   0.781   2.534   9.160 -0.0848  0.3374  0.3240
  609TMC3    C8 9032   0.724   2.881   8.833 -0.7803 -0.4741 -0.0718
  609TMC3    O1 9033   0.884   2.591   9.194  0.0092  0.1511  0.0333
  609TMC3    O2 9034   0.678   2.924   8.727 -0.2402 -0.1100 -0.0122
  610TMC3    C1 9035   1.868   2.859  12.671  0.3351  0.3041 -0.6498
  610TMC3    C2 9036   1.931   2.927  12.566 -0.1694  0.9661 -0.3580
  610TMC3    C3 9037   2.051   2.881  12.521  0.0654 -0.3098 -0.3597
  610TMC3    C4 9038   1.928   2.744  12.716 -0.2407 -0.6573 -0.2789
  610TMC3    C5 9039   2.044   2.698  12.666  0.3549 -0.7585  0.2838
  610TMC3    C6 9040   2.115   2.775  12.579  0.0503  0.1919  0.1341
  610TMC3     C 9041   1.752   2.912  12.715  0.1665  0.6179 -0.0724
  610TMC3     O 9042   1.700   2.990  12.641 -0.2330  0.0259  0.0054
  610TMC3     H 9043   1.891   3.014  12.516 -2.3926 -0.0272 -0.3013
  610TMC3    H1 9044   1.872   2.673  12.776 -1.7043  0.1668 -0.6683
  610TMC3    H2 9045   2.209   2.747  12.534 -0.8422 -1.9557 -0.4350
  610TMC3    C7 9046   2.116   2.595  12.729  0.6293  0.0036  0.8613
  610TMC3    C8 9047   2.122   2.966  12.424  0.3160 -0.4025 -0.0704
  610TMC3    O1 9048   2.218   2.566  12.673 -0.0610  0.1213 -0.1911
  610TMC3    O2 9049   2.245   2.962  12.414  0.6453 -0.3172 -0.0841
  611MPD2     C 9050   1.756   2.967  10.555  0.0073  0.2295 -0.6526
  611MPD2    C1 9051   1.692   3.059  10.469  0.0017  0.4936 -0.4429
  611MPD2    C2 9052   1.773   3.164  10.430  0.1986  0.1978 -0.1532
  611MPD2    C3 9053   1.902   3.181  10.472 -0.8220 -0.3354  0.0901
  611MPD2    C4 9054   1.968   3.084  10.550  0.3292  0.2476 -0.6661
  611MPD2    C5 9055   1.890   2.980  10.596 -1.0885 -0.2103 -0.5367
  611MPD2     H 9056   1.731   3.240  10.366  2.2807  0.1960 -1.5061
  611MPD2    H1 9057   2.066   3.100  10.594  0.2911 -1.5718  0.0495
  611MPD2    H2 9058   1.700   2.881  10.590  1.4171 -0.0475  0.9062
  611MPD2    H3 9059   1.925   2.898  10.658 -0.1832 -0.2454 -1.0884
  611MPD2     N 9060   1.980   3.293  10.438  0.1442  0.2640  0.0323
  611MPD2    H5 9061   2.074   3.284  10.473  1.0563  2.2149 -1.9449
  611MPD2    N1 9062   1.566   3.034  10.413  0.8283 -0.1644  0.1167
  611MPD2    H7 9063   1.535   2.940  10.435 -0.3569 -0.3353 -2.3669
  612TMC3    C1 9064   2.070   3.478  10.314  0.1631  0.6692  0.3945
  612TMC3    C2 9065   2.191   3.466  10.377 -0.2633  1.0522 -0.4979
  612TMC3    C3 9066   2.280   3.567  10.365  0.0523 -0.2901  0.2050
  612TMC3    C4 9067   2.046   3.590  10.240 -0.0824 -0.2285 -0.4770
  612TMC3    C5 9068   2.143   3.683  10.226  0.1611 -0.0867 -0.0615
  612TMC3    C6 9069   2.263   3.671  10.283  0.7496 -0.5421 -0.1232
  612TMC3     C 9070   1.958   3.385  10.340 -0.0888  0.2630 -0.0405
  612TMC3     O 9071   1.875   3.393  10.252 -0.1710  0.0852 -0.2818
  612TMC3     H 9072   2.216   3.378  10.435 -2.8357  0.4576 -0.2603
  612TMC3    H1 9073   1.954   3.601  10.183  0.1224 -0.4443 -0.8467
  612TMC3    H2 9074   2.352   3.717  10.241  1.0254 -0.7747  0.2040
  612TMC3    C7 9075   2.127   3.783  10.122  0.8887 -0.1214  0.1959
  612TMC3    C8 9076   2.416   3.560  10.425  0.6553  0.6441  0.1427
  612TMC3    O1 9077   2.014   3.786  10.078 -0.4425 -0.4467  0.1850
  612TMC3    O2 9078   2.493   3.650  10.398  0.3880  0.0035 -0.2506
  613MPD2     C 9079   0.582   4.397  16.917  0.3041 -0.2172 -0.3189
  613MPD2    C1 9080   0.535   4.456  16.797 -0.5895  0.4004 -0.1209
  613MPD2    C2 9081   0.497   4.380  16.690 -0.0522 -0.2735 -0.0548
  613MPD2    C3 9082   0.516   4.241  16.682 -0.1458 -1.0252  0.2233
  613MPD2    C4 9083   0.564   4.177  16.793  0.4164  0.4694  0.2215
  613MPD2    C5 9084   0.593   4.256  16.910 -0.4539 -0.6019 -0.1873
  613MPD2     H 9085   0.478   4.430  16.596 -0.1638 -2.1417 -1.0303
  613MPD2    H1 9086   0.593   4.072  16.793 -2.1218 -0.2356  0.5423
  613MPD2    H2 9087   0.606   4.453  17.006  1.0789 -0.9311 -0.0749
  613MPD2    H3 9088   0.644   4.201  16.989 -1.2218 -0.7955  0.1763
  613MPD2     N 9089   0.488   4.165  16.570  0.5485 -0.0772 -0.9082
  613MPD2    H5 9090   0.514   4.067  16.559  1.6731  0.0589  0.6167
  613MPD2    N1 9091   0.539   4.597  16.792  0.1742 -0.2325  0.5706
  613MPD2    H7 9092   0.579   4.634  16.877  0.0654  0.0690  0.4909
  614TMC3    C1 9093   0.574   0.089  16.691 -0.6174  0.0879  0.5210
  614TMC3    C2 9094   0.694   0.079  16.629  1.0465  0.4802 -0.4145
  614TMC3    C3 9095   0.720   0.113  16.496  0.2936 -1.0744  0.4941
  614TMC3    C4 9096   0.495   0.188  16.638  0.4476  0.2215  0.7062
  614TMC3    C5 9097   0.521   0.237  16.513  0.1713  0.2708 -0.3973
  614TMC3    C6 9098   0.628   0.193  16.435 -0.0053 -0.2217 -0.1905
  614TMC3     C 9099   0.506   4.679  16.685 -0.0944 -0.0254 -0.2569
  614TMC3     O 9100   0.427   4.656  16.595 -0.3625 -0.3051 -0.2492
  614TMC3     H 9101   0.760   0.000  16.664  0.6278  0.1039 -0.4640
  614TMC3    H1 9102   0.397   0.198  16.683 -0.1213 -0.8104 -0.2725
  614TMC3    H2 9103   0.635   0.207  16.328 -0.4600  1.3139 -0.0058
  614TMC3    C7 9104   0.409   0.317  16.456 -0.7642 -0.2345 -0.1667
  614TMC3    C8 9105   0.769   0.004  16.415  0.5267 -0.8025 -0.0896
  614TMC3    O1 9106   0.335   0.381  16.534  0.4903  0.3416  0.0625
  614TMC3    O2 9107   0.750   4.620  16.465  0.2312  0.5569  0.3653
  615MPD2     C 9108   4.184   1.137  16.148  0.7433 -0.4975  0.1458
  615MPD2    C1 9109   4.265   1.215  16.070  0.6969  0.5487  0.0403
  615MPD2    C2 9110   4.224   1.245  15.947  0.0791  0.2739  0.4112
  615MPD2    C3 9111   4.095   1.222  15.891  0.5322 -0.5551 -0.1149
  615MPD2    C4 9112   4.017   1.148  15.979  0.7424  0.2286  0.2704
  615MPD2    C5 9113   4.065   1.096  16.099 -0.7198  0.1667 -0.2382
  615MPD2     H 9114   4.294   1.303  15.888 -1.4139 -1.1449 -2.7966
  615MPD2    H1 9115   3.917   1.114  15.954  0.1356  0.8913  1.7956
  615MPD2    H2 9116   4.225   1.086  16.234 -0.3006  1.4654  1.8079
  615MPD2    H3 9117   4.004   1.021  16.148  0.8035 -0.6085  0.4648
  615MPD2     N 9118   4.045   1.260  15.762 -0.1645 -0.6781  0.6746
  615MPD2    H5 9119   3.959   1.210  15.742 -1.1153  1.3811 -0.3863
  615MPD2    N1 9120   4.397   1.253  16.100 -0.0500 -0.0107  0.4909
  615MPD2    H7 9121   4.455   1.301  16.031  0.9471  0.3913  1.5975
  616TMC3    C1 9122   4.587   1.310  16.230 -0.3870 -0.4117 -0.1325
  616TMC3    C2 9123   4.687   1.250  16.299 -0.0063  0.0895  0.4998
  616TMC3    C3 9124   0.087   1.301  16.298 -0.1873  0.0020  0.6418
  616TMC3    C4 9125   4.607   1.420  16.146 -0.0690 -0.1336  0.0036
  616TMC3    C5 9126   0.016   1.465  16.142 -0.2032 -0.5401  0.2564
  616TMC3    C6 9127   0.111   1.419  16.221  0.3176 -0.5303 -0.1575
  616TMC3     C 9128   4.459   1.240  16.222 -0.2598  0.0252 -0.4396
  616TMC3     O 9129   4.422   1.192  16.328 -0.7983  0.2662 -0.4183
  616TMC3     H 9130   4.673   1.164  16.363 -1.1712  0.5224  0.8252
  616TMC3    H1 9131   4.521   1.471  16.104  0.5878 -0.3427 -1.6216
  616TMC3    H2 9132   0.217   1.443  16.211  0.4407 -1.2722 -0.5950
  616TMC3    C7 9133   0.043   1.590  16.076 -0.5637 -0.7862  0.4501
  616TMC3    C8 9134   0.149   1.314  16.430 -0.1328 -0.6350  0.4111
  616TMC3    O1 9135   0.160   1.624  16.092  0.0905 -1.3656  0.1239
  616TMC3    O2 9136   0.074   1.274  16.519  0.1551  0.2040  0.3878
  617MPD2     C 9137   2.800   0.173  13.660  0.1629 -0.0181 -0.5319
  617MPD2    C1 9138   2.883   0.094  13.737 -0.1901  0.2236  0.2613
  617MPD2    C2 9139   2.834   4.699  13.789 -0.9803  0.6591  0.4318
  617MPD2    C3 9140   2.703   4.661  13.767 -0.4108 -0.3637 -1.2992
  617MPD2    C4 9141   2.621   0.017  13.690  0.6018  0.3696  0.2620
  617MPD2    C5 9142   2.676   0.128  13.631 -0.3229 -0.1391 -0.4378
  617MPD2     H 9143   2.898   4.637  13.851 -1.9756 -0.5089  0.2879
  617MPD2    H1 9144   2.528   4.705  13.649  0.1215  1.5254  0.3662
  617MPD2    H2 9145   2.828   0.266  13.612 -0.2200  0.1600 -0.4118
  617MPD2    H3 9146   2.621   0.188  13.560 -0.9779 -1.7195 -1.2661
  617MPD2     N 9147   2.631   4.548  13.812  0.5923  0.5028  0.1636
  617MPD2    H5 9148   2.533   4.541  13.786  0.3347 -1.9475  1.8817
  617MPD2    N1 9149   3.022   0.141  13.751  0.2473 -0.0536  0.4707
  617MPD2    H7 9150   3.045   0.232  13.711 -1.9249  0.6222  0.7942
  618TMC3    C1 9151   3.250   0.128  13.799 -0.3643 -0.7090  0.0493
  618TMC3    C2 9152   3.354   0.109  13.889 -0.2885 -0.0138 -0.6144
  618TMC3    C3 9153   3.479   0.096  13.846  0.1573 -0.6421 -0.0877
  618TMC3    C4 9154   3.283   0.143  13.667  0.6763  0.0727 -0.1697
  618TMC3    C5 9155   3.408   0.125  13.623 -0.0187 -0.0963  0.4911
  618TMC3    C6 9156   3.511   0.104  13.715 -0.3747 -0.7529  0.4019
  618TMC3     C 9157   3.119   0.089  13.830  0.6663 -0.1628  0.2671
  618TMC3     O 9158   3.102   0.000  13.916  0.4010  0.2004  0.1938
  618TMC3     H 9159   3.328   0.096  13.994 -1.1715 -0.0880 -0.8449
  618TMC3    H1 9160   3.209   0.162  13.590  0.2256 -0.9894 -0.0102
  618TMC3    H2 9161   3.611   0.079  13.681 -0.1046  3.2299 -1.7128
  618TMC3    C7 9162   3.421   0.052  13.498  0.4178 -0.6265  0.1776
  618TMC3    C8 9163   3.576   0.054  13.951  0.1791  0.2382  0.2637
  618TMC3    O1 9164   3.320   4.720  13.462 -0.1096 -0.0616 -0.6277
  618TMC3    O2 9165   3.554   0.089  14.068  0.0319  0.2552  0.0633
  619MPD2     C 9166   0.142   1.205  13.447  0.2983  0.5418  0.5886
  619MPD2    C1 9167   0.045   1.142  13.365 -0.1735 -0.0663 -0.3745
  619MPD2    C2 9168   4.687   1.043  13.426  0.1294  0.3313  0.0473
  619MPD2    C3 9169   4.693   1.002  13.558 -0.5449 -0.1993  0.2499
  619MPD2    C4 9170   0.059   1.074  13.636 -0.2718  0.0955  0.1591
  619MPD2    C5 9171   0.142   1.169  13.578  0.0220 -0.2258 -0.4227
  619MPD2     H 9172   4.603   1.011  13.365 -0.1134 -2.1842  1.6798
  619MPD2    H1 9173   0.071   1.050  13.740 -1.2504 -0.1187  0.2232
  619MPD2    H2 9174   0.217   1.274  13.411  0.5441  1.9928  3.8928
  619MPD2    H3 9175   0.223   1.227  13.620  1.3156 -3.0189  0.9454
  619MPD2     N 9176   4.589   0.926  13.621  0.5139  0.8893  0.0809
  619MPD2    H5 9177   4.579   0.904  13.719  0.3387 -0.9189 -0.3377
  619MPD2    N1 9178   0.013   1.181  13.237  0.6375 -0.6402 -0.4502
  619MPD2    H7 9179   4.663   1.133  13.186 -0.9286  1.5779 -0.3220
  620TMC3    C1 9180   4.679   1.346  13.082  0.5872 -0.4186  0.0544
  620TMC3    C2 9181   4.550   1.320  13.116 -0.0670 -0.5417 -0.3049
  620TMC3    C3 9182   4.468   1.426  13.128  0.6465 -0.7487  0.5953
  620TMC3    C4 9183   4.706   1.470  13.035 -1.0321  0.0687 -0.0936
  620TMC3    C5 9184   4.618   1.575  13.043 -0.4150 -0.1081 -0.0221
  620TMC3    C6 9185   4.493   1.552  13.093 -0.0136 -0.0205  0.4538
  620TMC3     C 9186   0.057   1.292  13.171  0.1014 -0.4367  0.1118
  620TMC3     O 9187   0.156   1.361  13.190 -0.0577  0.6085  0.0821
  620TMC3     H 9188   4.515   1.219  13.130  0.6014 -0.9267 -1.3492
  620TMC3    H1 9189   0.075   1.493  12.985 -1.8277 -1.4922 -2.3257
  620TMC3    H2 9190   4.416   1.628  13.098  0.2715  0.2983  0.0543
  620TMC3    C7 9191   4.636   1.688  12.959 -0.3646 -0.3189 -0.3027
  620TMC3    C8 9192   4.391   1.405  13.253  0.2543 -0.2064  0.1075
  620TMC3    O1 9193   4.701   1.684  12.852 -0.4280  0.3148 -0.1186
  620TMC3    O2 9194   4.439   1.337  13.341 -0.4753 -1.0540 -0.2793
  621MPD2     C 9195   3.928   2.100   9.714 -0.1826  0.1445 -0.0388
  621MPD2    C1 9196   4.031   2.021   9.668  0.3409 -0.3999  1.0753
  621MPD2    C2 9197   4.149   2.082   9.634  0.6060 -0.4430 -0.6515
  621MPD2    C3 9198   4.153   2.219   9.637 -0.1395 -0.2739  0.3875
  621MPD2    C4 9199   4.053   2.296   9.699 -0.9021  0.2779  0.2418
  621MPD2    C5 9200   3.948   2.232   9.744  0.1988 -0.2508  0.4565
  621MPD2     H 9201   4.233   2.016   9.614  0.0587 -1.6868  1.2498
  621MPD2    H1 9202   4.058   2.404   9.706  0.1432  0.2162  0.5626
  621MPD2    H2 9203   3.829   2.064   9.739  0.5241 -2.7775 -1.3457
  621MPD2    H3 9204   3.872   2.294   9.789 -0.6727 -0.6524 -0.4546
  621MPD2     N 9205   4.271   2.286   9.592 -0.3277 -0.6186  0.6553
  621MPD2    H5 9206   4.277   2.382   9.625  1.4280 -0.2394 -0.7257
  621MPD2    N1 9207   4.029   1.881   9.686 -0.1462  1.1783  0.5879
  621MPD2    H7 9208   4.123   1.844   9.674 -1.6333 -1.0935 -4.4166
  622TMC3    C1 9209   3.968   1.656   9.695 -0.0613  0.6749 -0.4546
  622TMC3    C2 9210   3.894   1.575   9.613 -0.3808  0.0815 -0.6195
  622TMC3    C3 9211   3.967   1.469   9.568 -0.5636  0.0866  0.0905
  622TMC3    C4 9212   4.095   1.635   9.753  0.4932  0.5635  0.1798
  622TMC3    C5 9213   4.150   1.519   9.707  0.5236 -0.1199  0.0499
  622TMC3    C6 9214   4.093   1.447   9.608 -0.6667  0.5110  0.0854
  622TMC3     C 9215   3.922   1.798   9.698  0.1110  0.1660 -0.6916
  622TMC3     O 9216   3.805   1.819   9.665  0.0935  0.2005 -0.1696
  622TMC3     H 9217   3.790   1.595   9.587 -0.7960  0.8812  1.6641
  622TMC3    H1 9218   4.146   1.691   9.831  2.7222 -1.0151 -0.1822
  622TMC3    H2 9219   4.140   1.370   9.546  2.3345  1.6406  0.9754
  622TMC3    C7 9220   4.277   1.479   9.757  0.1846 -0.3619 -0.0695
  622TMC3    C8 9221   3.918   1.388   9.450 -0.0596 -0.1600  0.1012
  622TMC3    O1 9222   4.346   1.573   9.796  0.5351 -0.5094 -0.8962
  622TMC3    O2 9223   4.001   1.360   9.368  0.0149  0.1079  0.0866
  623MPD2     C 9224   3.221   0.994  16.242  0.2436  0.5919 -0.9981
  623MPD2    C1 9225   3.247   1.126  16.227 -0.0551  0.3019 -0.1052
  623MPD2    C2 9226   3.364   1.186  16.273  1.0606 -0.3974  0.3576
  623MPD2    C3 9227   3.449   1.106  16.349  0.1912 -0.6387  0.1703
  623MPD2    C4 9228   3.422   0.972  16.367  0.2359  0.2473  0.2255
  623MPD2    C5 9229   3.312   0.913  16.306 -0.2137 -0.1422 -0.3197
  623MPD2     H 9230   3.376   1.293  16.264 -2.8286  0.0277  0.2361
  623MPD2    H1 9231   3.491   0.920  16.432  1.3788  0.9575 -0.4190
  623MPD2    H2 9232   3.124   0.955  16.211  1.1524 -0.6514 -2.2666
  623MPD2    H3 9233   3.293   0.807  16.316  1.8377 -0.4886 -0.0298
  623MPD2     N 9234   3.563   1.169  16.409 -0.1066 -0.0356 -0.1734
  623MPD2    H5 9235   3.598   1.261  16.384  0.6937 -0.7822 -1.8235
  623MPD2    N1 9236   3.162   1.224  16.165  0.0163  0.0010  0.0462
  623MPD2    H7 9237   3.186   1.323  16.171  0.8179 -0.2558  1.0497
  624TMC3    C1 9238   3.851   1.274  16.752 -0.3117  0.7047 -0.5246
  624TMC3    C2 9239   3.797   1.401  16.763 -0.5626 -0.1015 -0.1727
  624TMC3    C3 9240   3.685   1.430  16.697 -0.0944  0.1935  0.1952
  624TMC3    C4 9241   3.793   1.180  16.669  0.5729  0.0008  0.4161
  624TMC3    C5 9242   3.699   1.228  16.588  0.6762 -0.2329  0.4581
  624TMC3    C6 9243   3.631   1.347  16.601 -0.3897  0.2907 -0.5840
  624TMC3     C 9244   3.952   1.230  16.843  0.1239 -0.5229 -0.3842
  624TMC3     O 9245   4.029   1.314  16.885 -0.2322  0.0596  0.3326
  624TMC3     H 9246   3.833   1.465  16.843 -1.0282 -2.2081  1.7068
  624TMC3    H1 9247   3.829   1.080  16.651  1.3641  0.4521 -0.4640
  624TMC3    H2 9248   3.563   1.376  16.522 -1.9205  1.1754  1.0737
  624TMC3    C7 9249   3.626   1.123  16.521  0.3315 -0.4255  0.1145
  624TMC3    C8 9250   3.587   1.519  16.753 -0.3647  0.2476  0.3898
  624TMC3    O1 9251   3.616   1.021  16.583 -0.1207 -0.0513 -0.1109
  624TMC3    O2 9252   3.630   1.628  16.779 -0.5210 -0.0827 -0.4156
  625MPD2     C 9253   3.714   2.320   0.680  0.2524 -0.2408 -0.4223
  625MPD2    C1 9254   3.801   2.429   0.677  0.1320 -0.2308 -0.4121
  625MPD2    C2 9255   3.926   2.415   0.733 -0.3500  0.5445  0.2507
  625MPD2    C3 9256   3.968   2.297   0.795 -0.3218 -0.6305 -0.4552
  625MPD2    C4 9257   3.884   2.193   0.786  0.3801 -0.0622  0.2119
  625MPD2    C5 9258   3.760   2.207   0.734  0.2671  0.2744  0.2741
  625MPD2     H 9259   3.994   2.500   0.741 -0.8182  1.0735 -1.4887
  625MPD2    H1 9260   3.914   2.096   0.824  0.0308 -0.7211 -1.2077
  625MPD2    H2 9261   3.612   2.327   0.643 -0.0568 -2.6777 -0.0382
  625MPD2    H3 9262   3.702   2.116   0.734  0.2893  0.2608  0.4300
  625MPD2     N 9263   4.093   2.303   0.863  0.2783  0.3694  0.2758
  625MPD2    H5 9264   4.140   2.393   0.855 -1.4848  1.3365  0.9182
  625MPD2    N1 9265   3.770   2.551   0.621  0.3579 -0.7694  0.2718
  625MPD2    H7 9266   3.847   2.617   0.629 -2.8219  2.9241  0.6985
  626TMC3    C1 9267   3.636   2.732   0.513  1.1581 -0.2018  0.6757
  626TMC3    C2 9268   3.541   2.769   0.415  0.2988  0.0429 -0.7353
  626TMC3    C3 9269   3.512   2.897   0.405 -0.1585 -0.2067 -0.1275
  626TMC3    C4 9270   3.686   2.825   0.606 -0.1682  0.9236  0.0161
  626TMC3    C5 9271   3.642   2.953   0.594 -1.0051  0.1481 -0.3446
  626TMC3    C6 9272   3.567   2.992   0.490 -0.0666 -0.4188  0.1259
  626TMC3     C 9273   3.655   2.586   0.547 -0.2192 -0.2024 -0.6016
  626TMC3     O 9274   3.569   2.507   0.504 -0.1597 -0.3677 -0.2437
  626TMC3     H 9275   3.496   2.698   0.346  0.6517 -0.1919 -0.7249
  626TMC3    H1 9276   3.741   2.785   0.691  0.2591  2.3804  0.4175
  626TMC3    H2 9277   3.540   3.097   0.479 -2.3220 -1.1310 -1.1563
  626TMC3    C7 9278   3.703   3.060   0.677 -0.4817  0.0432  0.0989
  626TMC3    C8 9279   3.429   2.939   0.295 -0.3624 -0.5394  0.0179
  626TMC3    O1 9280   3.701   3.179   0.640  0.6500  0.2125  0.1067
  626TMC3    O2 9281   3.456   2.889   0.189 -0.1895 -0.2602  0.0813
  627MPD2     C 9282   2.126   3.205  14.236 -1.0413  0.8593  0.2974
  627MPD2    C1 9283   2.176   3.149  14.351  0.2506 -0.3156 -0.0506
  627MPD2    C2 9284   2.149   3.011  14.383  0.8724  0.1192  0.1841
  627MPD2    C3 9285   2.085   2.939  14.294 -0.1276 -0.3314 -0.3123
  627MPD2    C4 9286   2.032   2.990  14.179  0.2603 -0.3252 -0.5755
  627MPD2    C5 9287   2.054   3.125  14.154  0.4155  0.5286  0.2670
  627MPD2     H 9288   2.198   2.968  14.469  1.4621 -0.2669 -0.3397
  627MPD2    H1 9289   1.975   2.937  14.103 -0.7746 -1.2203  0.8164
  627MPD2    H2 9290   2.132   3.311  14.218 -2.4088  1.4453  3.2776
  627MPD2    H3 9291   2.014   3.158  14.059  0.1986  0.8464  0.4703
  627MPD2     N 9292   2.069   2.801  14.323  0.1134 -0.2770 -0.1443
  627MPD2    H5 9293   2.091   2.774  14.418  2.2976 -0.3406 -0.6644
  627MPD2    N1 9294   2.257   3.220  14.444 -0.6931 -0.0515  0.4007
  627MPD2    H7 9295   2.303   3.173  14.521  0.2822  1.7949  0.9463
  628TMC3    C1 9296   2.401   3.391  14.534  0.0959  0.5465  0.3824
  628TMC3    C2 9297   2.435   3.287  14.624  0.4127 -0.5642  0.3345
  628TMC3    C3 9298   2.561   3.274  14.674  0.4618 -0.3051  0.5080
  628TMC3    C4 9299   2.498   3.466  14.476 -0.0729 -0.3538 -0.3962
  628TMC3    C5 9300   2.628   3.445  14.526  0.5772 -0.5922 -0.4132
  628TMC3    C6 9301   2.663   3.346  14.612 -0.1811 -0.8556 -0.5730
  628TMC3     C 9302   2.290   3.360  14.441 -0.6209 -0.2641  0.7394
  628TMC3     O 9303   2.252   3.432  14.353  0.3857 -0.0035  0.1184
  628TMC3     H 9304   2.366   3.223  14.679 -0.3903  0.5366  0.6109
  628TMC3    H1 9305   2.478   3.545  14.405  0.2075 -0.9887 -1.1798
  628TMC3    H2 9306   2.760   3.340  14.662 -0.7833  0.0766  0.7083
  628TMC3    C7 9307   2.744   3.525  14.474  0.2052 -0.6812 -0.3781
  628TMC3    C8 9308   2.592   3.137  14.709  0.5716  0.4567  0.0585
  628TMC3    O1 9309   2.857   3.486  14.489  0.0408  0.2969 -0.4526
  628TMC3    O2 9310   2.518   3.052  14.666 -0.0421  0.2244  0.3007
  629MPD2     C 9311   0.532   1.462  16.737 -0.5308 -0.2699 -0.1113
  629MPD2    C1 9312   0.574   1.484  16.607  0.1407  0.0792 -0.0168
  629MPD2    C2 9313   0.496   1.442  16.501  0.3492 -0.5245 -0.1352
  629MPD2    C3 9314   0.371   1.377  16.531  0.0002 -0.0321 -0.4913
  629MPD2    C4 9315   0.335   1.361  16.662 -0.0746  0.4111 -0.5315
  629MPD2    C5 9316   0.414   1.398  16.765  0.0968 -0.1061 -0.0281
  629MPD2     H 9317   0.518   1.472  16.399 -2.3246 -1.8917 -1.1069
  629MPD2    H1 9318   0.235   1.326  16.683  1.3192 -3.5128 -0.3532
  629MPD2    H2 9319   0.593   1.477  16.825 -3.8611 -1.2050  2.3335
  629MPD2    H3 9320   0.391   1.375  16.868  2.3600 -0.6734  0.3489
  629MPD2     N 9321   0.282   1.351  16.425 -0.3660  0.0382 -0.1328
  629MPD2    H5 9322   0.321   1.370  16.333  0.5513 -1.7467 -0.1070
  629MPD2    N1 9323   0.690   1.567  16.595 -0.1684 -0.4020 -0.5241
  629MPD2    H7 9324   0.722   1.602  16.685 -0.1694  3.8508 -2.1571
  630TMC3    C1 9325   0.901   1.645  16.478 -0.0664  0.1452  0.5882
  630TMC3    C2 9326   0.951   1.706  16.368 -0.4698  0.0928 -0.3627
  630TMC3    C3 9327   1.078   1.766  16.375  0.7902 -0.1858  0.1865
  630TMC3    C4 9328   0.975   1.632  16.590  0.5098 -0.1366 -0.3003
  630TMC3    C5 9329   1.108   1.662  16.580  0.7247 -0.2556  0.2081
  630TMC3    C6 9330   1.159   1.733  16.479 -0.3581  0.0038  0.1707
  630TMC3     C 9331   0.757   1.602  16.477 -0.1326  0.4757 -0.2153
  630TMC3     O 9332   0.721   1.584  16.367  0.7289 -0.0955 -0.3286
  630TMC3     H 9333   0.878   1.712  16.288 -0.7719  0.5410 -0.0525
  630TMC3    H1 9334   0.942   1.569  16.671  2.3906 -1.1129 -0.3102
  630TMC3    H2 9335   1.253   1.787  16.486 -0.3551 -0.0776  0.7003
  630TMC3    C7 9336   1.194   1.635  16.696  0.0563 -0.2940 -0.4165
  630TMC3    C8 9337   1.141   1.846  16.268  0.6287 -0.3758  0.3890
  630TMC3    O1 9338   1.151   1.595  16.803  0.2072 -0.2854 -0.2630
  630TMC3    O2 9339   1.265   1.834  16.263  0.1971  0.2211 -0.2584
  631MPD2     C 9340   3.251   1.641  15.358 -0.5855 -0.5374  0.9036
  631MPD2    C1 9341   3.342   1.701  15.267 -0.2987  0.1152 -0.3012
  631MPD2    C2 9342   3.481   1.665  15.273 -0.2255  0.0160  0.1494
  631MPD2    C3 9343   3.519   1.571  15.367 -0.4411 -0.2224 -0.2824
  631MPD2    C4 9344   3.426   1.526  15.461  0.1099 -0.8948 -1.2774
  631MPD2    C5 9345   3.291   1.551  15.452 -0.7913  0.6393 -0.2704
  631MPD2     H 9346   3.560   1.706  15.212  0.3999 -0.6224  0.5387
  631MPD2    H1 9347   3.450   1.456  15.541  2.0413 -0.1366 -1.2074
  631MPD2    H2 9348   3.147   1.670  15.352 -0.5378 -0.1856  1.8288
  631MPD2    H3 9349   3.217   1.504  15.516  1.8175  1.0215  3.0020
  631MPD2     N 9350   3.660   1.553  15.381  0.0840 -0.6723 -0.3625
  631MPD2    H5 9351   3.723   1.597  15.315  0.4827 -0.6886  0.0081
  631MPD2    N1 9352   3.298   1.793  15.168 -0.0336  0.3999 -0.8025
  631MPD2    H7 9353   3.211   1.840  15.190 -0.1859 -0.3153  0.1182
  632TMC3    C1 9354   3.387   1.986  15.064 -0.8557  0.4199 -0.2686
  632TMC3    C2 9355   3.372   2.045  15.190 -0.1378 -0.0460 -0.3341
  632TMC3    C3 9356   3.472   2.130  15.228 -0.5214 -0.6396  0.3347
  632TMC3    C4 9357   3.491   2.023  14.979 -0.1970  0.1968  0.5779
  632TMC3    C5 9358   3.580   2.111  15.029  0.0321 -0.0070 -0.0378
  632TMC3    C6 9359   3.582   2.162  15.156 -0.3686 -0.4283 -0.1456
  632TMC3     C 9360   3.375   1.840  15.059  0.2619 -0.8550  0.0183
  632TMC3     O 9361   3.461   1.790  14.989 -0.9851 -0.8889 -0.8599
  632TMC3     H 9362   3.293   2.019  15.259  0.4415 -1.1013 -0.0645
  632TMC3    H1 9363   3.488   1.987  14.877 -1.9872 -1.9632  1.3998
  632TMC3    H2 9364   3.646   2.244  15.188 -0.0150 -0.1545 -1.5647
  632TMC3    C7 9365   3.693   2.141  14.945 -0.0693 -0.4859 -0.4537
  632TMC3    C8 9366   3.474   2.160  15.372 -0.3535  0.1861 -0.1148
  632TMC3    O1 9367   3.677   2.113  14.823  0.2963  0.0952 -0.5254
  632TMC3    O2 9368   3.369   2.149  15.431  0.0329  0.0224  0.1863
  633MPD2     C 9369   3.431   4.712   0.022  0.5822  0.5782 -0.0638
  633MPD2    C1 9370   3.489   4.626  17.631  0.0700  0.3600 -0.3463
  633MPD2    C2 9371   3.613   4.575  17.656  0.7110 -0.3732  0.5651
  633MPD2    C3 9372   3.662   4.593   0.084 -0.1706  0.0402 -0.1502
  633MPD2    C4 9373   3.597   4.671   0.179  0.1089  0.1610 -0.7436
  633MPD2    C5 9374   3.481   0.005   0.152 -0.5534  0.1228  0.2860
  633MPD2     H 9375   3.658   4.503  17.589 -0.0360  1.4538 -1.8702
  633MPD2    H1 9376   3.628   4.667   0.283  1.9388  2.2296 -1.2198
  633MPD2    H2 9377   3.344   0.050   0.001  0.6986  0.8607  0.2813
  633MPD2    H3 9378   3.431   0.068   0.225 -0.4999  0.5411 -0.0366
  633MPD2     N 9379   3.770   4.515   0.131 -0.2466 -0.7285 -0.0919
  633MPD2    H5 9380   3.797   4.517   0.229  0.4530 -0.2969 -0.3012
  633MPD2    N1 9381   3.426   4.586  17.512  0.8599  0.0142 -0.0628
  633MPD2    H7 9382   3.467   4.513  17.453 -0.1884 -0.0536 -0.7140
  634TMC3    C1 9383   3.304   4.604  17.314  0.1055  0.2093 -0.4894
  634TMC3    C2 9384   3.307   4.472  17.299 -0.8697  0.0524 -0.4217
  634TMC3    C3 9385   3.340   4.421  17.171  0.9225  0.4638  0.2422
  634TMC3    C4 9386   3.335   4.684  17.212  0.1864 -0.2903 -0.0122
  634TMC3    C5 9387   3.391   4.638  17.094 -0.0970 -0.6046  0.2442
  634TMC3    C6 9388   3.400   4.503  17.079 -0.3862  0.5386 -0.3463
  634TMC3     C 9389   3.339   4.662  17.444  0.4520 -0.1629  0.9376
  634TMC3     O 9390   3.314   0.054  17.475  0.1254 -0.0696  0.1280
  634TMC3     H 9391   3.301   4.404  17.384  1.4694  0.8614  0.3855
  634TMC3    H1 9392   3.320   0.067  17.222 -0.6035 -0.3829 -0.2151
  634TMC3    H2 9393   3.415   4.471  16.977  0.0693 -1.7024  0.4284
  634TMC3    C7 9394   3.470   0.005  17.016  0.5678  0.5160 -0.2612
  634TMC3    C8 9395   3.339   4.274  17.165  0.3342  0.6269  0.2249
  634TMC3    O1 9396   3.511   4.684  16.909  0.2459 -0.0926 -0.2609
  634TMC3    O2 9397   3.263   4.217  17.243 -0.2331  0.2033 -0.1278
  635TMC3    C1 9398   0.009   0.879  17.531 -0.0919 -0.2242 -0.6275
  635TMC3    C2 9399   0.144   0.897  17.501 -0.4767  0.2611  0.1462
  635TMC3    C3 9400   0.209   0.783  17.474 -0.0207 -0.0861  0.2637
  635TMC3    C4 9401   4.670   0.753  17.524  0.2227 -0.5795  0.1887
  635TMC3    C5 9402   0.020   0.637  17.497 -0.8621 -0.1580 -0.1653
  635TMC3    C6 9403   0.153   0.656  17.478 -0.3427 -0.0854  0.4040
  635TMC3     C 9404   4.658   0.995  17.581 -0.3179  0.9641 -0.7182
  635TMC3     O 9405   4.542   0.993  17.565  0.4532  0.9372 -0.0881
  635TMC3     H 9406   0.185   0.992  17.468 -2.3960  1.4517  1.2094
  635TMC3    H1 9407   4.564   0.752  17.547 -0.4885 -2.0662 -3.1978
  635TMC3    H2 9408   0.209   0.568  17.449 -0.1779 -0.8614  3.0801
  635TMC3    C7 9409   4.684   0.511  17.517 -0.6985 -0.0469  0.1862
  635TMC3    C8 9410   0.330   0.798  17.390  0.1785  0.4541  0.5899
  635TMC3    O1 9411   0.052   0.428  17.533  0.2044 -0.8546 -0.3569
  635TMC3    O2 9412   0.366   0.704  17.315 -0.5555  0.6329 -0.3972
  636MPD2     C 9413   0.169   0.070  15.967  0.0387  0.2351 -0.1415
  636MPD2    C1 9414   0.159   0.036  16.094  0.1979  0.0290 -0.2175
  636MPD2    C2 9415   0.205   4.631  16.144  0.2875 -0.2245  0.4509
  636MPD2    C3 9416   0.270   4.550  16.060 -0.2719 -0.3480  0.2775
  636MPD2    C4 9417   0.274   4.584  15.924 -0.5325  0.1125 -0.1251
  636MPD2    C5 9418   0.223   4.707  15.881 -0.0129 -0.0230 -0.0465
  636MPD2     H 9419   0.194   4.605  16.249  1.8030 -2.2212  0.1034
  636MPD2    H1 9420   0.313   4.524  15.843 -1.4272  0.5822 -0.9093
  636MPD2    H2 9421   0.131   0.166  15.931 -1.4849 -0.3236 -0.0039
  636MPD2    H3 9422   0.222   0.010  15.776  1.8986  0.2582  0.0088
  636MPD2     N 9423   0.324   4.429  16.112 -0.1573  0.0782 -0.2706
  636MPD2    H5 9424   0.326   4.415  16.212  0.7887  0.7737 -0.1908
  636MPD2    N1 9425   0.093   0.117  16.195  0.4214 -0.1007 -0.4312
  636MPD2    H7 9426   0.111   0.092  16.292 -0.4341 -1.8350 -0.7275
  637TMC3    C1 9427   0.435   4.226  16.124  0.1542 -0.4262 -0.3964
  637TMC3    C2 9428   0.376   4.189  16.237  0.0254  0.3225 -1.4333
  637TMC3    C3 9429   0.455   4.141  16.342  0.0902  0.1604 -0.0602
  637TMC3    C4 9430   0.568   4.215  16.093 -0.6528  0.1880 -1.2207
  637TMC3    C5 9431   0.646   4.170  16.197  0.0044 -0.0271 -0.1761
  637TMC3    C6 9432   0.591   4.136  16.319  0.1911 -0.8888 -0.1259
  637TMC3     C 9433   0.378   4.326  16.042  0.3834  0.8254  0.0006
  637TMC3     O 9434   0.405   4.317  15.924  0.0009  0.3480 -0.7703
  637TMC3     H 9435   0.271   4.209  16.249 -0.2631 -1.5290 -0.8445
  637TMC3    H1 9436   0.605   4.259  16.002  1.0972  1.0249 -0.0991
  637TMC3    H2 9437   0.660   4.107  16.398  1.9195 -1.8026 -1.9654
  637TMC3    C7 9438   0.777   4.246  16.223  0.7026 -0.0563 -0.1083
  637TMC3    C8 9439   0.417   4.208  16.460  0.2670 -0.1249 -0.1133
  637TMC3    O1 9440   0.819   4.264  16.343  0.0596 -0.7661 -0.4638
  637TMC3    O2 9441   0.341   4.301  16.451  0.1179 -0.2906  0.3679
  638MPD2     C 9442   0.019   3.887  14.805 -0.1311  0.1759  0.4419
  638MPD2    C1 9443   0.055   3.772  14.746 -0.4957 -0.2964  0.5974
  638MPD2    C2 9444   0.071   3.658  14.816 -0.1070 -0.2711 -0.1316
  638MPD2    C3 9445   0.020   3.654  14.943 -0.6297  0.4130  0.2392
  638MPD2    C4 9446   4.701   3.767  15.004  0.6310 -0.2746 -0.2490
  638MPD2    C5 9447   4.699   3.888  14.935 -0.5590 -0.0704 -0.1008
  638MPD2     H 9448   0.114   3.565  14.780 -0.4170 -0.0630 -1.0355
  638MPD2    H1 9449   4.669   3.764  15.107 -0.3982 -2.4028 -0.6317
  638MPD2    H2 9450   0.017   3.983  14.755 -1.0060 -0.0801 -0.0191
  638MPD2    H3 9451   4.652   3.976  14.979 -2.4379 -1.4420  0.6442
  638MPD2     N 9452   0.000   3.524  14.996  0.0733 -0.3508 -0.0210
  638MPD2    H5 9453   0.060   3.455  14.952  0.3484 -0.8133  1.0715
  638MPD2    N1 9454   0.104   3.790  14.613  0.4526 -0.1351 -0.3703
  638MPD2    H7 9455   0.121   3.884  14.579  1.3644 -0.5098 -0.9736
  639TMC3    C1 9456   4.660   3.350  15.139  1.0917 -0.6775  0.3852
  639TMC3    C2 9457   4.547   3.281  15.091  0.3141  0.2990 -0.2977
  639TMC3    C3 9458   4.556   3.144  15.068  0.5812  0.0630  0.5580
  639TMC3    C4 9459   0.055   3.283  15.141 -0.1151  0.1858  0.1063
  639TMC3    C5 9460   0.057   3.148  15.131  0.1488  0.2871  0.5706
  639TMC3    C6 9461   4.670   3.078  15.105  0.1671  0.6062 -1.1791
  639TMC3     C 9462   4.651   3.492  15.105  0.0472  0.3984 -0.6269
  639TMC3     O 9463   4.572   3.561  15.167 -0.5100 -0.2145 -0.1217
  639TMC3     H 9464   4.462   3.339  15.054 -0.5882 -0.8004  0.0646
  639TMC3    H1 9465   0.139   3.335  15.184  0.3939 -0.6201  0.0779
  639TMC3    H2 9466   4.675   2.970  15.091 -1.4424  0.4855 -0.8190
  639TMC3    C7 9467   0.180   3.077  15.126 -0.1306  0.2072  0.8967
  639TMC3    C8 9468   4.506   3.102  14.943  0.1547 -0.2895 -0.1478
  639TMC3    O1 9469   0.173   2.959  15.158 -0.0648 -0.0296 -0.1933
  639TMC3    O2 9470   4.587   3.048  14.871 -0.0555  0.4119  0.6474
  640MPD2     C 9471   0.439   3.569   9.392  0.0677 -0.3202  0.8035
  640MPD2    C1 9472   0.461   3.480   9.495 -0.1754 -0.3437  0.0479
  640MPD2    C2 9473   0.356   3.408   9.546 -0.1221  0.1878 -0.6120
  640MPD2    C3 9474   0.228   3.431   9.495 -0.2766 -0.6286  0.4262
  640MPD2    C4 9475   0.216   3.496   9.379  0.4195  0.2188 -0.0007
  640MPD2    C5 9476   0.322   3.565   9.326  0.3006  0.6495 -0.1626
  640MPD2     H 9477   0.373   3.345   9.633 -0.7369  0.6356 -0.1631
  640MPD2    H1 9478   0.123   3.500   9.324  0.4157 -1.9651 -0.1212
  640MPD2    H2 9479   0.515   3.619   9.333  0.2250 -2.3447 -0.6927
  640MPD2    H3 9480   0.299   3.622   9.236 -1.4913  1.5339  0.8569
  640MPD2     N 9481   0.109   3.379   9.554 -0.0423  0.3494 -0.8787
  640MPD2    H5 9482   0.023   3.420   9.517 -1.0670 -0.1429  0.9925
  640MPD2    N1 9483   0.595   3.472   9.542 -0.0418  0.0089  0.4220
  640MPD2    H7 9484   0.663   3.518   9.482 -0.1432 -1.9244 -1.1902
  641TMC3    C1 9485   0.779   3.409   9.671  0.3190 -0.0406  0.1774
  641TMC3    C2 9486   0.845   3.303   9.722 -0.5112  0.4934 -0.7277
  641TMC3    C3 9487   0.981   3.300   9.701  0.2992 -0.9080 -0.6006
  641TMC3    C4 9488   0.842   3.526   9.617 -1.1186  0.1509  0.5419
  641TMC3    C5 9489   0.980   3.521   9.610  0.2332 -0.0659 -0.2284
  641TMC3    C6 9490   1.055   3.410   9.652  0.2137 -0.0054 -0.5070
  641TMC3     C 9491   0.640   3.400   9.651  0.0946  0.9231 -0.8194
  641TMC3     O 9492   0.580   3.329   9.733 -0.1491 -0.3771  0.5558
  641TMC3     H 9493   0.789   3.217   9.755  1.6627 -0.7478 -0.2617
  641TMC3    H1 9494   0.784   3.609   9.579  0.8155  1.2975  0.0680
  641TMC3    H2 9495   1.157   3.397   9.616  0.0980 -0.6548 -0.5842
  641TMC3    C7 9496   1.035   3.637   9.542 -0.0804 -1.1188  0.5009
  641TMC3    C8 9497   1.049   3.195   9.767  0.5310  0.5153  0.4364
  641TMC3    O1 9498   0.976   3.744   9.565  0.4002  0.4209 -0.4377
  641TMC3    O2 9499   0.980   3.094   9.779  0.3556  0.2335 -0.1803
  642TMC3    C1 9500   1.585   3.962  12.088  0.6154  0.5684  0.0718
  642TMC3    C2 9501   1.608   3.953  12.223  0.2170 -0.9721  0.2384
  642TMC3    C3 9502   1.598   3.832  12.275  0.8859 -0.4507  0.4133
  642TMC3    C4 9503   1.553   3.847  12.007 -0.2116 -0.0224 -0.2771
  642TMC3    C5 9504   1.524   3.727  12.077 -0.4017  0.0887 -0.3763
  642TMC3    C6 9505   1.547   3.722  12.210  0.0974 -0.0672  0.0052
  642TMC3     C 9506   1.512   4.077  12.050  0.0233 -0.0423  0.6090
  642TMC3     O 9507   1.483   4.095  11.930  0.0984  0.4637  0.1046
  642TMC3     H 9508   1.649   4.037  12.277  1.1216  0.0832 -2.1156
  642TMC3    H1 9509   1.535   3.862  11.901  3.0617 -1.4857 -1.0513
  642TMC3    H2 9510   1.546   3.630  12.267  0.7324 -1.2105 -1.8180
  642TMC3    C7 9511   1.410   3.658  12.031 -0.4197  0.1278 -0.8036
  642TMC3    C8 9512   1.670   3.800  12.398 -0.2469 -0.4690  0.3967
  642TMC3    O1 9513   1.375   3.661  11.916  0.3537  0.0770  0.2071
  642TMC3    O2 9514   1.708   3.681  12.397 -0.1901  0.1626  0.0915
  643TMC3    C1 9515   1.129   2.617   0.398  0.6476 -0.7521  0.7838
  643TMC3    C2 9516   1.049   2.721   0.360  0.3535 -0.2400 -0.5545
  643TMC3    C3 9517   1.014   2.727   0.226 -0.0130  0.9657 -0.2045
  643TMC3    C4 9518   1.183   2.529   0.306  0.7748 -0.0415 -0.9478
  643TMC3    C5 9519   1.153   2.554   0.173 -0.2499 -0.0418 -0.8095
  643TMC3    C6 9520   1.065   2.649   0.124 -0.0812 -0.5140  0.5224
  643TMC3     C 9521   1.152   2.607   0.537 -0.8842 -0.0563 -0.7218
  643TMC3     O 9522   1.079   2.673   0.610  0.2233  0.4959  0.1048
  643TMC3     H 9523   1.005   2.795   0.425  0.0269 -1.2573  0.3913
  643TMC3    H1 9524   1.227   2.435   0.337 -2.4328 -1.4454 -0.6181
  643TMC3    H2 9525   1.019   2.647   0.027  1.9675 -0.3038 -0.4596
  643TMC3    C7 9526   1.184   2.451   0.080  0.3042  1.5366  0.3353
  643TMC3    C8 9527   0.945   2.851   0.195  0.2796 -0.5545  0.5479
  643TMC3    O1 9528   1.216   2.342   0.124  0.1649  0.8362  0.0371
  643TMC3    O2 9529   0.879   2.900   0.286 -0.2826  0.3516  0.1253
  644MPD2     C 9530   1.257   2.946   9.472  0.9323  0.5708  0.3670
  644MPD2    C1 9531   1.256   3.087   9.449  0.3158  0.3012  0.2723
  644MPD2    C2 9532   1.139   3.144   9.399 -0.4045 -0.2894  0.2173
  644MPD2    C3 9533   1.027   3.066   9.368 -0.4785  0.6674 -0.1451
  644MPD2    C4 9534   1.033   2.931   9.400  0.7164 -0.6354  0.0797
  644MPD2    C5 9535   1.145   2.869   9.444  0.0439  0.1710  0.7081
  644MPD2     H 9536   1.131   3.251   9.385 -1.9318 -0.4003  0.1830
  644MPD2    H1 9537   0.959   2.859   9.366  2.7921 -2.4521 -0.6490
  644MPD2    H2 9538   1.345   2.896   9.511  2.2287  2.6159  0.0362
  644MPD2    H3 9539   1.162   2.763   9.453 -1.3405 -0.1036  0.1678
  644MPD2     N 9540   0.921   3.132   9.297 -0.0059  0.2698  0.1916
  644MPD2    H5 9541   0.946   3.230   9.285 -0.1771  0.0997 -1.5256
  644MPD2    N1 9542   1.360   3.158   9.504  0.0136 -1.3559  0.2550
  644MPD2    H7 9543   1.432   3.096   9.540  0.6363 -1.4810 -1.2232
  645TMC3    C1 9544   0.714   3.160   9.195 -0.3885 -0.0799  0.0344
  645TMC3    C2 9545   0.750   3.290   9.208 -0.0871 -0.3517 -0.3642
  645TMC3    C3 9546   0.695   3.383   9.118 -0.0250 -0.1795  0.2365
  645TMC3    C4 9547   0.622   3.116   9.099 -0.0849 -0.0182 -0.6292
  645TMC3    C5 9548   0.579   3.214   9.017  0.3325 -0.5279  0.3887
  645TMC3    C6 9549   0.609   3.348   9.023  0.3795 -0.4535 -0.3351
  645TMC3     C 9550   0.811   3.066   9.245  0.1468  0.0590 -0.4695
  645TMC3     O 9551   0.787   2.948   9.221 -0.1935 -0.6278 -0.0525
  645TMC3     H 9552   0.803   3.329   9.295 -0.8914  0.6695 -0.3286
  645TMC3    H1 9553   0.598   3.012   9.078 -0.2278 -0.7636  3.2001
  645TMC3    H2 9554   0.551   3.415   8.961 -0.2739 -1.0335 -0.3511
  645TMC3    C7 9555   0.477   3.169   8.926 -0.4988  0.1465 -0.0274
  645TMC3    C8 9556   0.702   3.523   9.170  0.0569  0.7244 -0.3849
  645TMC3    O1 9557   0.429   3.057   8.948  0.1281  0.3651 -0.8797
  645TMC3    O2 9558   0.722   3.528   9.293 -0.0450 -0.4188  0.9530
  646MPD2     C 9559   0.318   2.552  14.490  0.1244  0.8639  0.0217
  646MPD2    C1 9560   0.217   2.485  14.556  0.4229  0.2786  0.3362
  646MPD2    C2 9561   0.089   2.513  14.515  0.4320 -0.8255  0.6400
  646MPD2    C3 9562   0.060   2.607  14.412 -0.1561  0.5279 -0.6865
  646MPD2    C4 9563   0.171   2.672  14.353 -0.5323 -0.5557  0.1374
  646MPD2    C5 9564   0.300   2.657  14.395 -0.0763 -0.1307  1.0928
  646MPD2     H 9565   0.008   2.459  14.562  2.1056 -1.9461  2.2392
  646MPD2    H1 9566   0.161   2.743  14.272 -2.2004 -0.7987  0.1178
  646MPD2    H2 9567   0.419   2.536  14.524 -0.2079  0.6617  0.9057
  646MPD2    H3 9568   0.388   2.703  14.352  1.4992 -4.8195 -0.6211
  646MPD2     N 9569   4.648   2.618  14.362  0.1159  0.1075  0.1811
  646MPD2    H5 9570   4.577   2.570  14.415  0.5375 -0.4143  0.2668
  646MPD2    N1 9571   0.259   2.404  14.664  0.6658  0.2701 -0.2841
  646MPD2    H7 9572   0.356   2.375  14.669  0.7895  0.3293 -2.6055
  647TMC3    C1 9573   0.237   2.266  14.857  0.0688 -0.1335 -0.5623
  647TMC3    C2 9574   0.158   2.198  14.941 -0.0812  0.6508  0.0675
  647TMC3    C3 9575   0.209   2.164  15.063 -0.8143 -0.1763 -0.5182
  647TMC3    C4 9576   0.372   2.275  14.877 -0.3298 -0.0485  0.0107
  647TMC3    C5 9577   0.420   2.231  14.992  0.8708 -0.1564 -0.1800
  647TMC3    C6 9578   0.340   2.185  15.090 -0.1696  1.0159  0.1229
  647TMC3     C 9579   0.172   2.336  14.752  0.0936 -0.1264  0.5453
  647TMC3     O 9580   0.049   2.334  14.748 -0.2938  0.5260  0.1291
  647TMC3     H 9581   0.054   2.180  14.914  0.8679 -3.1667 -1.0801
  647TMC3    H1 9582   0.445   2.319  14.810  1.8269 -0.8746  1.8451
  647TMC3    H2 9583   0.390   2.151  15.180  1.3421  2.0507 -0.3355
  647TMC3    C7 9584   0.547   2.160  14.992  0.9426  0.3919  0.3293
  647TMC3    C8 9585   0.140   2.085  15.166  0.1842 -0.0661 -0.3201
  647TMC3    O1 9586   0.563   2.064  15.065  0.1968  0.3157 -0.2902
  647TMC3    O2 9587   0.206   2.013  15.237 -0.1127  0.5496  0.2795
  648TMC3    C1 9588   4.055   4.344  16.155 -0.3457 -0.0509  0.3804
  648TMC3    C2 9589   4.073   4.234  16.072  0.2393  0.1961  0.2851
  648TMC3    C3 9590   4.089   4.254  15.935  0.1405 -0.3236 -0.4988
  648TMC3    C4 9591   4.070   4.466  16.100 -0.0987  0.7671  0.1776
  648TMC3    C5 9592   4.091   4.479  15.971 -0.5820  0.0264 -0.4957
  648TMC3    C6 9593   4.100   4.378  15.882 -0.0113 -0.9954  0.2285
  648TMC3     C 9594   4.033   4.322  16.303 -0.0038 -0.3768 -0.2889
  648TMC3     O 9595   4.089   4.398  16.383  0.2119  0.1961 -0.2899
  648TMC3     H 9596   4.079   4.132  16.107 -0.2931 -0.8039 -2.5301
  648TMC3    H1 9597   4.070   4.546  16.173  2.0513 -0.7082  1.8066
  648TMC3    H2 9598   4.149   4.402  15.788  0.6192 -0.5384  0.6688
  648TMC3    C7 9599   4.013   4.577  15.903 -0.5128  0.3891  0.1222
  648TMC3    C8 9600   4.132   4.151  15.848 -0.2400  0.0911 -0.3368
  648TMC3    O1 9601   4.008   4.573  15.780 -0.1656 -0.3773 -0.2769
  648TMC3    O2 9602   4.076   4.045  15.866 -0.4657 -0.1006 -0.6662
  649TMC3    C1 9603   3.038   1.004  13.238  0.3967 -1.2318 -0.3069
  649TMC3    C2 9604   3.174   1.023  13.234 -0.6741  1.2441  0.6352
  649TMC3    C3 9605   3.241   0.935  13.321  0.9353  0.1274  0.4707
  649TMC3    C4 9606   2.968   0.930  13.325 -0.0588 -0.0472 -0.0113
  649TMC3    C5 9607   3.037   0.858  13.416  0.2310  0.2153 -1.1378
  649TMC3    C6 9608   3.177   0.862  13.417  0.6370  0.3604 -0.4254
  649TMC3     C 9609   2.963   1.085  13.147  0.3997 -0.3629  0.0837
  649TMC3     O 9610   3.034   1.174  13.110 -0.0480 -0.5095  0.1679
  649TMC3     H 9611   3.224   1.096  13.170 -0.5557  0.3582 -0.2771
  649TMC3    H1 9612   2.861   0.919  13.316  0.0968 -3.4198  2.0469
  649TMC3    H2 9613   3.227   0.795  13.486  0.9921  1.2954  0.2390
  649TMC3    C7 9614   2.955   0.770  13.494 -0.0376  0.1650 -0.0610
  649TMC3    C8 9615   3.387   0.934  13.315  0.3903  0.5666  1.1262
  649TMC3    O1 9616   2.847   0.742  13.453 -0.2898 -0.9964 -0.3140
  649TMC3    O2 9617   3.440   0.873  13.404 -0.0932 -0.5015  0.4064
  650TMC3    C1 9618   0.994   3.076  12.461  0.7377 -0.7524  0.0775
  650TMC3    C2 9619   0.976   3.207  12.515  0.7558 -0.7394  0.5540
  650TMC3    C3 9620   0.847   3.254  12.521 -0.3896  0.0613 -0.0864
  650TMC3    C4 9621   0.882   3.003  12.423  0.0250  0.5177 -0.2438
  650TMC3    C5 9622   0.757   3.061  12.427 -0.1358 -0.1542  0.4155
  650TMC3    C6 9623   0.736   3.184  12.473  0.8391  0.1697 -0.3276
  650TMC3     C 9624   1.103   2.996  12.513 -0.5319 -0.3846 -0.6327
  650TMC3     O 9625   1.169   3.051  12.602  0.2112  1.0085 -0.1494
  650TMC3     H 9626   1.065   3.257  12.551  0.7887 -0.3381 -0.0825
  650TMC3    H1 9627   0.896   2.901  12.392 -0.2391  0.8514 -1.4467
  650TMC3    H2 9628   0.634   3.216  12.491  1.4736  2.0162 -0.0096
  650TMC3    C7 9629   0.648   2.981  12.376  0.1223  0.1512  0.3726
  650TMC3    C8 9630   0.827   3.380  12.588  0.2323  0.0636  0.4801
  650TMC3    O1 9631   0.683   2.875  12.323  0.1004 -0.2365 -0.4066
  650TMC3    O2 9632   0.926   3.452  12.587 -0.2121  0.6285 -0.0433
  651MPD2     C 9633   4.584   0.152  10.196  0.0732  0.1869 -0.7416
  651MPD2    C1 9634   4.563   0.289  10.218  0.3895  0.2447 -0.2340
  651MPD2    C2 9635   4.664   0.383  10.189  0.2646  0.9936 -0.3369
  651MPD2    C3 9636   0.066   0.332  10.148  0.4411  0.6304  0.5840
  651MPD2    C4 9637   0.084   0.197  10.129 -0.1199 -0.0172 -0.4520
  651MPD2    C5 9638   4.709   0.109  10.161 -0.0280  0.4710  0.4143
  651MPD2     H 9639   4.643   0.489  10.202  0.0537  0.8767  0.2342
  651MPD2    H1 9640   0.177   0.146  10.109  0.3666  1.4506 -1.9532
  651MPD2    H2 9641   4.500   0.084  10.201 -0.0588  0.5865  2.2421
  651MPD2    H3 9642   4.723   0.006  10.131 -1.9758  0.3571 -0.0955
  651MPD2     N 9643   0.169   0.431  10.141  0.1055 -0.2858  0.5764
  651MPD2    H5 9644   0.139   0.521  10.176 -1.2866  0.6697 -3.1641
  651MPD2    N1 9645   4.430   0.333  10.265 -0.3604  0.4391  0.0650
  651MPD2    H7 9646   4.419   0.434  10.271 -2.3057  0.2242  0.0608
  652TMC3    C1 9647   0.594   0.610  10.116  0.0267  0.4638  0.4524
  652TMC3    C2 9648   0.515   0.503  10.136  0.4270 -0.1315 -0.3068
  652TMC3    C3 9649   0.377   0.521  10.118 -0.0572  0.0807 -0.1150
  652TMC3    C4 9650   0.536   0.734  10.072  0.2570  0.1341 -0.0319
  652TMC3    C5 9651   0.404   0.736  10.032  0.1907  0.1870 -0.6034
  652TMC3    C6 9652   0.322   0.634  10.062 -0.7986 -0.6725 -0.8664
  652TMC3     C 9653   0.723   0.614  10.181  0.2439  0.2608  0.5777
  652TMC3     O 9654   0.740   0.549  10.283 -0.2997  0.0835  0.1076
  652TMC3     H 9655   0.559   0.409  10.166 -0.0767 -0.2566  0.0479
  652TMC3    H1 9656   0.601   0.820  10.056  0.1491  0.4079  1.0042
  652TMC3    H2 9657   0.218   0.628  10.033 -1.0582 -0.7262  0.0727
  652TMC3    C7 9658   0.333   0.856  10.030 -0.1441  0.8368 -0.0164
  652TMC3    C8 9659   0.300   0.401  10.113 -0.4501  0.5071 -0.4923
  652TMC3    O1 9660   0.213   0.840  10.042 -0.1982 -0.2588  0.3747
  652TMC3    O2 9661   0.362   0.298  10.108  0.7740  0.3799  0.4872
  653MPD2     C 9662   3.054   4.539   0.079  0.3383  0.0853  0.6823
  653MPD2    C1 9663   3.038   4.637  17.680 -0.3743 -0.2027 -0.0660
  653MPD2    C2 9664   2.977   4.591  17.560 -0.9648 -0.5244  0.7485
  653MPD2    C3 9665   2.948   4.463  17.530 -0.0220 -0.2537 -0.5803
  653MPD2    C4 9666   2.969   4.367  17.625  0.0816  0.3323 -0.1697
  653MPD2    C5 9667   3.022   4.410   0.054 -0.0476  0.4065 -0.6486
  653MPD2     H 9668   2.969   4.662  17.478  0.6294 -1.6927 -0.4309
  653MPD2    H1 9669   2.933   4.265  17.623  0.0361  0.3358  0.3439
  653MPD2    H2 9670   3.097   4.559   0.176  0.2626 -0.6926  0.8738
  653MPD2    H3 9671   3.043   4.342   0.135 -1.4824 -0.8349 -1.3096
  653MPD2     N 9672   2.902   4.432  17.398  0.7423  0.0567 -0.1638
  653MPD2    H5 9673   2.884   4.510  17.337  0.6731 -0.7346 -1.1498
  653MPD2    N1 9674   3.081   0.052  17.691 -0.1709 -0.2852 -0.5476
  653MPD2    H7 9675   3.078   0.100  17.602 -0.9526 -1.9955 -1.4341
  654TMC3    C1 9676   2.915   4.304  17.202  0.4607 -0.5892 -0.1674
  654TMC3    C2 9677   2.815   4.375  17.139 -0.5427  0.3075 -0.1574
  654TMC3    C3 9678   2.761   4.322  17.028  0.5888 -0.6141 -0.4019
  654TMC3    C4 9679   2.962   4.195  17.142 -0.6272 -0.1314 -0.6572
  654TMC3    C5 9680   2.910   4.151  17.024 -0.7801 -0.7839 -0.1603
  654TMC3    C6 9681   2.802   4.200  16.964  0.2067 -0.4296  0.0431
  654TMC3     C 9682   2.914   4.307  17.346  0.4332  1.3247  0.4686
  654TMC3     O 9683   2.946   4.203  17.401 -0.2308 -0.5300  0.5868
  654TMC3     H 9684   2.772   4.465  17.181  0.7867  1.2649 -0.8606
  654TMC3    H1 9685   3.042   4.139  17.190 -0.2290 -0.0209 -1.1978
  654TMC3    H2 9686   2.756   4.156  16.876  0.2061 -3.1103  1.3825
  654TMC3    C7 9687   2.998   4.061  16.942  0.7456  0.4799 -1.3734
  654TMC3    C8 9688   2.641   4.392  16.971 -0.0104 -0.3769 -0.1524
  654TMC3    O1 9689   3.004   4.097  16.825  0.1733  0.3865 -0.1876
  654TMC3    O2 9690   2.587   4.482  17.041 -0.2665 -0.1381 -0.1416
  655MPD2     C 9691   4.643   4.634  15.745  0.9742 -0.4270  0.2028
  655MPD2    C1 9692   4.632   0.044  15.710  0.0585  0.3264 -0.5609
  655MPD2    C2 9693   4.669   0.085  15.584 -0.2050 -0.3896 -0.4803
  655MPD2    C3 9694   4.719   4.718  15.495  0.6065  0.2112 -0.2338
  655MPD2    C4 9695   0.010   4.581  15.536 -0.2314 -0.3162 -0.0385
  655MPD2    C5 9696   4.700   4.550  15.662 -0.3157 -0.3429 -0.3784
  655MPD2     H 9697   4.641   0.186  15.555 -0.5793 -0.2791  0.2510
  655MPD2    H1 9698   0.042   4.498  15.474 -0.4617  1.5204 -2.6234
  655MPD2    H2 9699   4.613   4.590  15.840  0.0040  2.5277  1.2512
  655MPD2    H3 9700   4.720   4.452  15.704  1.9004  0.6496  0.8657
  655MPD2     N 9701   0.023   0.025  15.361 -0.1055  0.3517 -0.6926
  655MPD2    H5 9702   0.033   4.666  15.303 -2.1556  1.1855 -2.2251
  655MPD2    N1 9703   4.564   0.140  15.787 -0.1603 -0.1684 -0.5262
  655MPD2    H7 9704   4.557   0.230  15.741  1.2138 -1.0372 -2.4620
  656TMC3    C1 9705   4.427   0.232  15.955  0.5831 -0.1279 -0.1302
  656TMC3    C2 9706   4.371   0.212  16.079 -0.5387 -0.6926  0.6141
  656TMC3    C3 9707   4.243   0.256  16.097 -0.3166  0.2109  0.1943
  656TMC3    C4 9708   4.366   0.308  15.858 -1.0167 -0.8780 -0.1569
  656TMC3    C5 9709   4.239   0.345  15.881  0.2970 -0.3054  0.4193
  656TMC3    C6 9710   4.172   0.326  15.999 -0.2552 -1.0849 -0.0756
  656TMC3     C 9711   4.506   0.122  15.906 -0.0597  0.5029 -0.4335
  656TMC3     O 9712   4.505   0.027  15.981  0.0156  0.2945  0.4575
  656TMC3     H 9713   4.424   0.147  16.148 -2.1242  0.1521  2.6184
  656TMC3    H1 9714   4.404   0.321  15.758  3.3211 -0.5388  1.5685
  656TMC3    H2 9715   4.070   0.352  16.025  0.1426  0.3225  0.1057
  656TMC3    C7 9716   4.179   0.414  15.766 -0.9829  0.0678 -0.7216
  656TMC3    C8 9717   4.162   0.188  16.194 -0.6825 -0.0727 -0.0194
  656TMC3    O1 9718   4.252   0.444  15.670  0.4014  0.3082 -0.2836
  656TMC3    O2 9719   4.186   0.071  16.209 -0.3949  0.1712  0.3458
  657TMC3    C1 9720   3.633   4.161  14.504  0.3512 -0.3820  0.7905
  657TMC3    C2 9721   3.501   4.190  14.536 -0.3475  0.1828 -0.2400
  657TMC3    C3 9722   3.460   4.319  14.543 -0.0309 -0.2205 -0.9218
  657TMC3    C4 9723   3.731   4.258  14.493  0.3703 -0.2841  0.1144
  657TMC3    C5 9724   3.682   4.385  14.522  0.0970 -0.7032 -0.0725
  657TMC3    C6 9725   3.551   4.417  14.536 -0.0281  0.0121 -0.4243
  657TMC3     C 9726   3.646   4.022  14.463  0.8296  0.6728  0.0967
  657TMC3     O 9727   3.554   3.962  14.406 -0.4766  0.7128  0.1782
  657TMC3     H 9728   3.432   4.106  14.540 -1.4935  1.1456  0.1525
  657TMC3    H1 9729   3.832   4.219  14.490 -0.7874 -3.4621  1.5584
  657TMC3    H2 9730   3.518   4.520  14.545  1.6365  0.7880 -3.2473
  657TMC3    C7 9731   3.780   4.489  14.543  0.5244 -0.3625 -0.3120
  657TMC3    C8 9732   3.334   4.364  14.600  0.0419 -0.3633 -0.0799
  657TMC3    O1 9733   3.745   4.595  14.595  0.2979  0.0430  0.1640
  657TMC3    O2 9734   3.299   4.479  14.580  0.2255 -0.1524  0.3985
  658MPD2     C 9735   0.394   0.530  14.833 -0.0237 -0.1597 -0.4535
  658MPD2    C1 9736   0.255   0.535  14.836 -1.0134  0.2960  0.3493
  658MPD2    C2 9737   0.193   0.632  14.755  0.4767  0.0118 -0.7696
  658MPD2    C3 9738   0.272   0.720  14.683 -0.3312  1.3169  0.2867
  658MPD2    C4 9739   0.412   0.716  14.687 -0.2136 -0.6584  0.2268
  658MPD2    C5 9740   0.474   0.618  14.761  0.0302 -0.1314 -0.2460
  658MPD2     H 9741   0.087   0.650  14.752  0.4173  0.1146  1.4995
  658MPD2    H1 9742   0.474   0.782  14.628 -0.2184 -0.5252  0.3696
  658MPD2    H2 9743   0.445   0.458  14.896  1.6505  1.5829  0.2133
  658MPD2    H3 9744   0.582   0.614  14.770 -0.1390 -0.6325  1.4578
  658MPD2     N 9745   0.199   0.800  14.598  0.2832  0.0030 -0.0182
  658MPD2    H5 9746   0.100   0.806  14.617  0.7305  0.6277  2.1927
  658MPD2    N1 9747   0.186   0.443  14.914 -0.0468 -0.2334  0.2366
  658MPD2    H7 9748   0.243   0.391  14.981  0.2011 -0.3479 -0.0630
  659TMC3    C1 9749   4.721   0.315  14.989 -0.5862  0.0766 -0.6671
  659TMC3    C2 9750   0.063   0.270  15.105 -0.1290  0.3217 -0.3860
  659TMC3    C3 9751   0.021   0.161  15.171  0.1596  1.0003  0.2153
  659TMC3    C4 9752   4.602   0.266  14.946  0.2696 -0.0494 -0.1979
  659TMC3    C5 9753   4.556   0.161  15.026 -0.1266 -0.0960 -0.5018
  659TMC3    C6 9754   4.619   0.108  15.135 -0.8583  0.0118  0.3405
  659TMC3     C 9755   0.047   0.435  14.916 -0.5466  0.7095  0.3668
  659TMC3     O 9756   4.683   0.509  14.873  0.2917  0.7701  0.5980
  659TMC3     H 9757   0.141   0.328  15.153 -1.2634  0.9074  0.7553
  659TMC3    H1 9758   4.562   0.297  14.850  0.2585  0.7353  0.0568
  659TMC3    H2 9759   4.588   0.024  15.197 -1.1251  0.3440  0.6566
  659TMC3    C7 9760   4.415   0.132  15.000  0.0611 -0.1054  0.3776
  659TMC3    C8 9761   0.042   0.152  15.311 -0.1846 -0.1588  0.3145
  659TMC3    O1 9762   4.384   0.022  15.051  0.1404  0.0410 -0.4226
  659TMC3    O2 9763   0.046   0.260  15.369  0.3470 -0.0321 -0.1436
  660MPD2     C 9764   2.937   3.561  12.486  0.5345 -0.4762  0.0257
  660MPD2    C1 9765   2.799   3.578  12.453  0.6942  0.0037 -0.7950
  660MPD2    C2 9766   2.707   3.517  12.540 -0.2974 -1.1685  0.0187
  660MPD2    C3 9767   2.751   3.437  12.644 -0.0632  0.2321 -0.0799
  660MPD2    C4 9768   2.883   3.420  12.665 -0.4060  1.3290 -0.2081
  660MPD2    C5 9769   2.977   3.486  12.593 -0.6727 -0.2734  0.7039
  660MPD2     H 9770   2.602   3.508  12.512  0.0076  0.7976 -1.8222
  660MPD2    H1 9771   2.918   3.362  12.749  0.1265  1.6783 -0.1840
  660MPD2    H2 9772   3.012   3.604  12.422  2.1316 -0.8281  1.6562
  660MPD2    H3 9773   3.083   3.465  12.607 -0.6175 -0.1093  0.5235
  660MPD2     N 9774   2.667   3.377  12.743 -0.4666 -0.2159  0.0781
  660MPD2    H5 9775   2.704   3.304  12.803  0.9544  0.4910  0.0767
  660MPD2    N1 9776   2.756   3.653  12.338 -0.6704  0.0590 -0.2369
  660MPD2    H7 9777   2.828   3.681  12.272 -0.6701  1.7801  0.4739
  661TMC3    C1 9778   2.603   3.772  12.191 -0.3010 -0.3839  0.4415
  661TMC3    C2 9779   2.675   3.746  12.077  0.3129 -0.0786 -0.4267
  661TMC3    C3 9780   2.645   3.817  11.959  1.2158  0.6275 -0.5877
  661TMC3    C4 9781   2.488   3.845  12.187 -0.4228 -0.5571  0.2095
  661TMC3    C5 9782   2.441   3.888  12.067  0.2524  0.1498 -0.5065
  661TMC3    C6 9783   2.525   3.880  11.953  0.5078 -0.5071 -0.2275
  661TMC3     C 9784   2.625   3.690  12.312  0.5560  0.2741  0.2520
  661TMC3     O 9785   2.534   3.675  12.392 -0.4433  0.6245 -0.3623
  661TMC3     H 9786   2.769   3.691  12.077 -0.8550 -2.0980  1.0114
  661TMC3    H1 9787   2.425   3.834  12.274 -0.5531  0.7346  0.2689
  661TMC3    H2 9788   2.492   3.925  11.860  2.5123 -0.1483 -0.7612
  661TMC3    C7 9789   2.321   3.961  12.073  0.1784 -0.4207 -0.3191
  661TMC3    C8 9790   2.727   3.811  11.842 -0.7429  0.8828  0.1313
  661TMC3    O1 9791   2.297   4.024  12.172  0.1791 -0.4326 -1.2034
  661TMC3    O2 9792   2.740   3.919  11.782  0.2887 -0.6028  0.3187
  662MPD2     C 9793   3.303   2.395   0.087 -0.3881  0.0586  0.0666
  662MPD2    C1 9794   3.176   2.397   0.135 -0.0883 -0.5598 -0.7432
  662MPD2    C2 9795   3.117   2.522   0.162  0.0496  0.3189  0.3932
  662MPD2    C3 9796   3.189   2.640   0.137 -0.2555 -0.1656  0.7467
  662MPD2    C4 9797   3.317   2.638   0.079 -0.3686 -0.1417 -0.5388
  662MPD2    C5 9798   3.372   2.511   0.057  0.1732 -0.7294 -0.6912
  662MPD2     H 9799   3.022   2.535   0.212  0.1627 -1.2166  1.0243
  662MPD2    H1 9800   3.380   2.723   0.055  0.5062  0.1783  2.8000
  662MPD2    H2 9801   3.352   2.299   0.068  1.6196  0.8172  1.3144
  662MPD2    H3 9802   3.470   2.501   0.012  0.7458  2.0619 -0.0823
  662MPD2     N 9803   3.127   2.768   0.148  0.0353  0.0321  0.4100
  662MPD2    H5 9804   3.159   2.836   0.079 -0.2173  0.5843  0.8375
  662MPD2    N1 9805   3.100   2.274   0.150  0.0539 -0.4717 -0.2450
  662MPD2    H7 9806   3.005   2.283   0.185  1.2009  0.9371  2.5274
  663TMC3    C1 9807   3.026   2.053   0.102  0.1842 -0.7139 -0.3752
  663TMC3    C2 9808   2.894   2.086   0.110 -0.3134  0.0261  0.1078
  663TMC3    C3 9809   2.804   2.018   0.024  0.5398  0.2213 -0.2977
  663TMC3    C4 9810   3.067   1.932   0.049 -0.1199 -0.9396 -0.0826
  663TMC3    C5 9811   2.978   1.864  17.664 -0.0145 -0.4082  0.1745
  663TMC3    C6 9812   2.845   1.904  17.658  0.2492 -0.6236  0.5079
  663TMC3     C 9813   3.133   2.153   0.095 -0.4694  0.2693 -0.2783
  663TMC3     O 9814   3.242   2.108   0.072  0.4579  0.2132  0.7239
  663TMC3     H 9815   2.876   2.189   0.137 -2.7404 -0.2351 -0.5544
  663TMC3    H1 9816   3.171   1.900   0.050  1.0334  2.7829  3.3961
  663TMC3    H2 9817   2.782   1.868  17.578  0.4499  0.2387 -0.0397
  663TMC3    C7 9818   3.021   1.753  17.586 -0.3406 -0.1290 -0.6171
  663TMC3    C8 9819   2.725   2.103  17.632  0.5463  0.2768  0.1754
  663TMC3    O1 9820   3.138   1.758  17.549  0.4329 -0.0759  0.1615
  663TMC3    O2 9821   2.725   2.087  17.511  0.0449  0.0675 -0.1798
  664MPD2     C 9822   0.728   1.597  17.210 -0.2195 -0.0147  0.2272
  664MPD2    C1 9823   0.841   1.566  17.275  0.3495  0.4566  0.9186
  664MPD2    C2 9824   0.832   1.486  17.381 -0.1938 -0.2084  0.0012
  664MPD2    C3 9825   0.718   1.431  17.433 -0.0429 -0.5306  0.1522
  664MPD2    C4 9826   0.597   1.454  17.365 -0.4375 -0.6441 -0.1694
  664MPD2    C5 9827   0.609   1.536  17.255 -0.1120 -0.0309 -0.2890
  664MPD2     H 9828   0.925   1.453  17.427 -0.0090  0.8244  0.3531
  664MPD2    H1 9829   0.501   1.416  17.398  0.0971 -3.4495 -1.8409
  664MPD2    H2 9830   0.715   1.682  17.144  2.1480  0.6460  0.6286
  664MPD2    H3 9831   0.514   1.546  17.204  0.8257 -2.0212 -2.4448
  664MPD2     N 9832   0.723   1.359  17.554  0.4479  0.1239  0.4072
  664MPD2    H5 9833   0.817   1.348  17.591  0.0125 -0.2114  1.4304
  664MPD2    N1 9834   0.963   1.627  17.249 -0.8805 -0.0502  0.0286
  664MPD2    H7 9835   1.033   1.595  17.314 -0.5782  2.9261  1.1497
  665TMC3    C1 9836   0.649   1.269   0.066  0.0147  0.1349 -0.2258
  665TMC3    C2 9837   0.568   1.304   0.166  0.0116  0.4978  0.2417
  665TMC3    C3 9838   0.617   1.295   0.293  0.3611 -0.2152 -0.2606
  665TMC3    C4 9839   0.783   1.230   0.082  0.0466 -0.9108  0.2794
  665TMC3    C5 9840   0.824   1.220   0.211  0.5977 -0.3886 -0.1436
  665TMC3    C6 9841   0.748   1.257   0.323 -0.0119 -0.1496  0.1211
  665TMC3     C 9842   0.610   1.322  17.629 -0.2363  0.5605  0.4426
  665TMC3     O 9843   0.494   1.330  17.599 -0.6075 -0.4841 -0.4314
  665TMC3     H 9844   0.463   1.323   0.144  0.6996  1.7481 -1.9421
  665TMC3    H1 9845   0.851   1.198   0.004 -0.2165  1.2836 -0.8482
  665TMC3    H2 9846   0.789   1.274   0.422 -0.7239  1.8251  0.0646
  665TMC3    C7 9847   0.964   1.211   0.232  0.4120 -0.1187 -0.2664
  665TMC3    C8 9848   0.516   1.281   0.401 -0.6538 -0.5797 -0.4839
  665TMC3    O1 9849   1.026   1.263   0.138  0.3666  0.8943 -0.3822
  665TMC3    O2 9850   0.551   1.219   0.503  0.0741  0.5765  0.2367
  666TMC3    C1 9851   4.490   2.329   9.514  0.3618  0.2378 -0.2094
  666TMC3    C2 9852   4.602   2.298   9.436 -0.0366  0.7566  0.2911
  666TMC3    C3 9853   4.718   2.367   9.468 -0.3678  0.4948 -0.2468
  666TMC3    C4 9854   4.491   2.424   9.615  0.0281  0.1715 -0.0855
  666TMC3    C5 9855   4.607   2.491   9.636  0.3665  0.6835 -0.1105
  666TMC3    C6 9856   4.720   2.465   9.561 -0.2319  0.0050 -0.3500
  666TMC3     C 9857   4.377   2.230   9.519  0.3592 -0.0179 -0.2132
  666TMC3     O 9858   4.379   2.126   9.461 -0.2013  0.1673  0.3127
  666TMC3     H 9859   4.595   2.204   9.382  2.7059  0.1850  0.9499
  666TMC3    H1 9860   4.404   2.456   9.672 -0.6373  0.0716 -1.0411
  666TMC3    H2 9861   0.094   2.504   9.591 -0.8561  1.1760  0.1680
  666TMC3    C7 9862   4.620   2.564   9.759 -0.2904 -0.7718  0.5167
  666TMC3    C8 9863   0.110   2.317   9.402 -0.4443 -0.1130 -0.3112
  666TMC3    O1 9864   4.546   2.528   9.849  0.3812 -0.0906  0.2541
  666TMC3    O2 9865   0.099   2.209   9.347 -0.1058 -0.5058 -0.0430
  667MPD2     C 9866   1.320   1.557  14.647 -0.0647  0.7407 -0.4135
  667MPD2    C1 9867   1.414   1.459  14.633  0.3943  0.8074 -0.0016
  667MPD2    C2 9868   1.377   1.339  14.567  0.0786 -0.3030 -1.0656
  667MPD2    C3 9869   1.251   1.317  14.519  0.2515  0.1985 -0.0252
  667MPD2    C4 9870   1.157   1.414  14.538 -0.1500  0.0534  0.7494
  667MPD2    C5 9871   1.197   1.536  14.584  0.1852 -0.7057  1.1213
  667MPD2     H 9872   1.461   1.270  14.561  1.0372  0.7816 -0.0352
  667MPD2    H1 9873   1.061   1.413  14.487 -0.1837 -3.3706  0.8302
  667MPD2    H2 9874   1.336   1.645  14.708  0.1713  1.3950 -1.4085
  667MPD2    H3 9875   1.134   1.624  14.585  0.6081 -0.4033  0.9316
  667MPD2     N 9876   1.211   1.188  14.475  0.3583 -0.2691  0.2585
  667MPD2    H5 9877   1.115   1.158  14.463 -0.1223  0.5759  1.8905
  667MPD2    N1 9878   1.544   1.476  14.677  0.5279 -0.1254  0.5401
  667MPD2    H7 9879   1.611   1.402  14.663  1.1509  0.9068 -1.9052
  668TMC3    C1 9880   1.713   1.532  14.820 -0.4774 -0.3042  0.0776
  668TMC3    C2 9881   1.830   1.592  14.790 -0.6878  0.1435 -0.2232
  668TMC3    C3 9882   1.935   1.581  14.882 -0.2018 -0.3171  0.0717
  668TMC3    C4 9883   1.700   1.453  14.936 -0.2348 -0.2557  0.1101
  668TMC3    C5 9884   1.807   1.441  15.022  1.5135  0.0916  1.1012
  668TMC3    C6 9885   1.920   1.497  14.990 -0.7837 -0.8539 -0.1496
  668TMC3     C 9886   1.590   1.580  14.756 -0.0636  0.1085  0.1885
  668TMC3     O 9887   1.548   1.690  14.787 -0.2626  0.2822  0.1768
  668TMC3     H 9888   1.832   1.661  14.706 -1.1618  1.4357  0.8378
  668TMC3    H1 9889   1.602   1.411  14.957  0.6702 -1.4913  1.8530
  668TMC3    H2 9890   2.006   1.483  15.055  0.9269  0.0707 -2.2268
  668TMC3    C7 9891   1.784   1.417  15.162  0.5221  0.1053 -0.2401
  668TMC3    C8 9892   2.061   1.656  14.880  0.6972  0.2713  0.3319
  668TMC3    O1 9893   1.869   1.464  15.238  0.0389  0.0751  0.1425
  668TMC3    O2 9894   2.143   1.622  14.963  0.4198 -0.1521  0.3528
  669TMC3    C1 9895   4.575   1.658  14.991  0.7216  0.3817 -1.1009
  669TMC3    C2 9896   4.463   1.719  14.930  1.1732 -0.3359 -0.6711
  669TMC3    C3 9897   4.487   1.834  14.861 -0.4886 -0.8528  0.0844
  669TMC3    C4 9898   4.703   1.699  14.969  0.2942  0.4288  0.3330
  669TMC3    C5 9899   4.722   1.813  14.894  0.5497  0.2499 -0.0485
  669TMC3    C6 9900   4.617   1.877  14.835 -1.0239 -0.0865  0.1139
  669TMC3     C 9901   4.541   1.537  15.076  0.0603 -0.9641 -0.1698
  669TMC3     O 9902   4.423   1.508  15.086  0.2615 -0.3081  0.2627
  669TMC3     H 9903   4.360   1.691  14.945  1.3258 -0.6240 -0.1734
  669TMC3    H1 9904   0.064   1.645  15.011  1.1839 -0.9067 -3.1614
  669TMC3    H2 9905   4.644   1.964  14.777  0.0573  0.6974  1.7868
  669TMC3    C7 9906   0.124   1.845  14.841 -0.1885  1.2682  0.2568
  669TMC3    C8 9907   4.408   1.828  14.736 -0.1422  0.3521  0.5819
  669TMC3    O1 9908   0.140   1.953  14.783  0.6889 -0.4224  0.9437
  669TMC3    O2 9909   4.339   1.729  14.729  0.0021 -0.2218 -0.3822
  670MPD2     C 9910   2.795   4.029  13.553  0.5066  0.3778 -1.1817
  670MPD2    C1 9911   2.894   3.936  13.580  0.9030  0.1669  0.9445
  670MPD2    C2 9912   2.880   3.838  13.684  0.2139 -0.2714  0.6241
  670MPD2    C3 9913   2.760   3.837  13.756 -0.3936  0.3057  0.7720
  670MPD2    C4 9914   2.668   3.937  13.734  1.0824 -0.0231  0.1514
  670MPD2    C5 9915   2.684   4.030  13.634  0.6292  0.1484 -0.7082
  670MPD2     H 9916   2.960   3.765  13.691  0.6719  0.1644 -0.0785
  670MPD2    H1 9917   2.576   3.940  13.791  1.1708  0.3244  0.2761
  670MPD2    H2 9918   2.807   4.116  13.489  0.7623 -0.1082 -1.8027
  670MPD2    H3 9919   2.613   4.111  13.619  0.7916  0.4758  0.2615
  670MPD2     N 9920   2.744   3.740  13.854 -0.6099  0.0372  0.3702
  670MPD2    H5 9921   2.813   3.666  13.863  0.3395  0.8547 -0.2954
  670MPD2    N1 9922   3.012   3.943  13.505 -0.0284  0.0066  0.5365
  670MPD2    H7 9923   3.085   3.879  13.535 -0.9412 -1.3128 -0.0961
  671TMC3    C1 9924   2.635   3.604  14.011 -0.6040  0.7103 -0.4681
  671TMC3    C2 9925   2.750   3.558  14.063  0.9318 -0.0494  0.3253
  671TMC3    C3 9926   2.740   3.450  14.146 -0.0541  0.5711 -0.2252
  671TMC3    C4 9927   2.513   3.538  14.033  0.8062 -0.5592  0.1037
  671TMC3    C5 9928   2.508   3.429  14.112  0.0851  0.3385 -0.1607
  671TMC3    C6 9929   2.623   3.388  14.174  0.7553  0.0635  1.0840
  671TMC3     C 9930   2.632   3.725  13.931  0.1927  0.0663  0.3912
  671TMC3     O 9931   2.521   3.775  13.926 -0.2848  0.5791 -0.1770
  671TMC3     H 9932   2.843   3.613  14.051  0.2173  0.4104 -3.3636
  671TMC3    H1 9933   2.426   3.583  13.987 -1.2917 -1.7506  2.9328
  671TMC3    H2 9934   2.625   3.286  14.212  1.1041 -0.5258 -0.5127
  671TMC3    C7 9935   2.452   3.326  14.029 -0.3663  0.4042  0.1637
  671TMC3    C8 9936   2.861   3.372  14.164  0.1191 -0.6591  0.5000
  671TMC3    O1 9937   2.523   3.247  13.969  0.3278  0.0132  0.3452
  671TMC3    O2 9938   2.956   3.412  14.095 -0.4147 -0.3135 -0.3768
  672MPD2     C 9939   2.224   4.182   1.461  0.1824  0.4172 -0.3899
  672MPD2    C1 9940   2.323   4.242   1.400  0.1004  0.2270 -0.8523
  672MPD2    C2 9941   2.407   4.320   1.472  0.8740  0.0740 -0.0701
  672MPD2    C3 9942   2.388   4.345   1.607  0.3454  0.3760 -0.4070
  672MPD2    C4 9943   2.288   4.277   1.667 -0.2670 -0.2044 -0.1331
  672MPD2    C5 9944   2.201   4.204   1.591  0.2671 -0.1361  0.1748
  672MPD2     H 9945   2.491   4.370   1.427 -0.0437  1.3487 -0.3518
  672MPD2    H1 9946   2.271   4.292   1.773 -0.3205 -0.1824 -0.1447
  672MPD2    H2 9947   2.151   4.120   1.410 -0.2171  0.7962 -0.2883
  672MPD2    H3 9948   2.104   4.167   1.623  0.4303 -0.0869  0.7369
  672MPD2     N 9949   2.462   4.450   1.666  0.1493  0.3167 -0.0088
  672MPD2    H5 9950   2.457   4.456   1.767 -0.4316  0.3497 -0.0371
  672MPD2    N1 9951   2.346   4.243   1.259 -0.3989  0.0013 -0.3001
  672MPD2    H7 9952   2.424   4.292   1.216 -1.7423  0.3713 -2.2884
  673TMC3    C1 9953   2.320   4.171   1.034 -0.2567 -0.4137  0.1987
  673TMC3    C2 9954   2.441   4.115   1.023 -0.5548 -0.2041 -0.1508
  673TMC3    C3 9955   2.519   4.144   0.916  0.1263  0.2733  0.4186
  673TMC3    C4 9956   2.270   4.262   0.943 -1.0695 -0.5181 -0.3192
  673TMC3    C5 9957   2.347   4.289   0.833  0.0130 -0.1129  0.5520
  673TMC3    C6 9958   2.466   4.226   0.814 -0.1004  0.4644 -0.0735
  673TMC3     C 9959   2.264   4.171   1.170  0.6688 -0.0544  0.0925
  673TMC3     O 9960   2.151   4.127   1.181 -0.3960 -0.1687  0.5967
  673TMC3     H 9961   2.470   4.041   1.097  2.4146  1.1465  0.0402
  673TMC3    H1 9962   2.177   4.312   0.968 -1.6409 -1.5310 -0.4056
  673TMC3    H2 9963   2.519   4.236   0.720 -0.0912  1.4139  0.0327
  673TMC3    C7 9964   2.294   4.374   0.729 -0.0780 -0.6643 -0.1322
  673TMC3    C8 9965   2.636   4.057   0.883 -0.3817 -0.5820  0.3483
  673TMC3    O1 9966   2.172   4.373   0.712  0.2225  0.2141 -0.2005
  673TMC3    O2 9967   2.674   4.060   0.765  0.3779 -0.4010 -0.0314
  674MPD2     C 9968   2.544   3.771   1.294 -0.5303 -0.1257  0.6971
  674MPD2    C1 9969   2.586   3.669   1.215  0.7871 -0.3204 -0.3149
  674MPD2    C2 9970   2.518   3.647   1.095  0.2662 -0.4824  0.4030
  674MPD2    C3 9971   2.404   3.713   1.063 -0.8187  0.1386  0.4861
  674MPD2    C4 9972   2.350   3.797   1.158 -0.0007  0.7353  0.7063
  674MPD2    C5 9973   2.426   3.834   1.271 -0.2477 -0.4894  0.1576
  674MPD2     H 9974   2.554   3.573   1.024 -0.0895 -1.4123  1.1971
  674MPD2    H1 9975   2.252   3.839   1.136  1.1609  2.9917 -0.1856
  674MPD2    H2 9976   2.598   3.794   1.385 -2.8505  2.1014  1.5122
  674MPD2    H3 9977   2.384   3.902   1.344 -1.0445  1.8750 -2.4671
  674MPD2     N 9978   2.333   3.663   0.948 -0.3115  0.1969  0.6914
  674MPD2    H5 9979   2.384   3.608   0.879 -1.5941 -0.4692  0.2812
  674MPD2    N1 9980   2.700   3.594   1.258  0.3347  0.0554  0.5369
  674MPD2    H7 9981   2.740   3.625   1.347 -0.8028  0.4871  0.9010
  675TMC3    C1 9982   2.855   3.410   1.269  0.1872 -0.2632  0.3506
  675TMC3    C2 9983   2.921   3.464   1.377  0.0060 -0.0353  0.0638
  675TMC3    C3 9984   3.023   3.399   1.443 -0.2753  0.0564 -0.3288
  675TMC3    C4 9985   2.892   3.291   1.228  0.8995  0.2776 -0.3870
  675TMC3    C5 9986   2.989   3.221   1.297  0.2067 -0.2820 -0.0353
  675TMC3    C6 9987   3.048   3.272   1.410  0.3942  0.0460 -0.7341
  675TMC3     C 9988   2.751   3.475   1.198  0.6606  0.2931  0.6208
  675TMC3     O 9989   2.701   3.418   1.102  0.3848  0.0069 -0.4356
  675TMC3     H 9990   2.894   3.564   1.409 -1.4741 -0.2412 -0.5394
  675TMC3    H1 9991   2.823   3.246   1.156  0.0409 -0.3434  0.8284
  675TMC3    H2 9992   3.134   3.215   1.445  0.3829 -0.9930 -2.4103
  675TMC3    C7 9993   3.052   3.114   1.223  0.1122  0.3008 -0.2886
  675TMC3    C8 9994   3.113   3.483   1.526 -0.6684 -0.0936  0.1190
  675TMC3    O1 9995   3.117   3.037   1.291 -0.1886 -0.7689  0.2740
  675TMC3    O2 9996   3.077   3.594   1.557  0.4564 -0.1148 -0.4804
  676MPD2     C 9997   0.636   2.983  10.889  0.7186 -0.4061 -0.0867
  676MPD2    C1 9998   0.611   2.883  10.989 -0.5112 -0.4210  0.1314
  676MPD2    C2 9999   0.648   2.752  10.951 -0.4180  0.3374 -0.2915
  676MPD2    C310000   0.703   2.723  10.826  0.1276 -0.9067  0.0948
  676MPD2    C410001   0.729   2.824  10.738  0.4061 -0.2977  0.0407
  676MPD2    C510002   0.698   2.953  10.773  0.2791  0.1251  0.2856
  676MPD2     H10003   0.625   2.665  11.011 -2.5946  2.8961  2.5443
  676MPD2    H110004   0.773   2.803  10.641 -2.7845  2.4119 -1.9932
  676MPD2    H210005   0.609   3.088  10.897 -1.7509 -1.0441  0.2224
  676MPD2    H310006   0.734   3.028  10.704  1.0184 -0.2105  0.3063
  676MPD2     N10007   0.738   2.593  10.791  0.1219 -0.0569  0.4775
  676MPD2    H510008   0.770   2.588  10.694 -1.1552 -0.0336  0.0523
  676MPD2    N110009   0.560   2.907  11.113 -0.0741  0.4026 -0.2130
  676MPD2    H710010   0.543   2.821  11.164  1.5791  0.3178  0.1804
  677TMC3    C110011   0.455   3.013  11.290  0.3996  0.4487  1.2622
  677TMC3    C210012   0.381   2.904  11.325 -0.8613  0.6765 -0.0796
  677TMC3    C310013   0.317   2.910  11.439  0.6967  0.2585  0.3097
  677TMC3    C410014   0.470   3.108  11.380  0.0656  0.4023  0.4692
  677TMC3    C510015   0.432   3.091  11.509 -0.2274 -1.2033 -0.6054
  677TMC3    C610016   0.346   2.991  11.542 -0.4715  0.3299  0.4870
  677TMC3     C10017   0.532   3.030  11.168 -0.3398  0.9233 -0.6279
  677TMC3     O10018   0.566   3.142  11.127  0.0900 -0.0141 -0.2548
  677TMC3     H10019   0.350   2.837  11.246 -0.7020  1.1834 -0.5736
  677TMC3    H110020   0.556   3.172  11.364 -1.9782  3.0897  0.3594
  677TMC3    H210021   0.300   2.985  11.640  1.2346  0.1140  1.2644
  677TMC3    C710022   0.471   3.180  11.612 -0.2200  0.3996  0.0342
  677TMC3    C810023   0.259   2.775  11.462  1.1974  0.0309  0.0529
  677TMC3    O110024   0.449   3.145  11.728  0.1080 -0.1126  0.1072
  677TMC3    O210025   0.165   2.760  11.384  0.5035 -0.4977 -0.1238
  678MPD2     C10026   2.083   2.414   1.403 -0.3492  0.0244  0.0406
  678MPD2    C110027   2.143   2.330   1.305 -0.0257 -0.4532  0.6332
  678MPD2    C210028   2.052   2.266   1.217  0.4735 -0.0539 -0.5320
  678MPD2    C310029   1.917   2.280   1.230 -0.0924 -0.9614 -0.0824
  678MPD2    C410030   1.863   2.370   1.323 -0.0906  0.0056 -0.0467
  678MPD2    C510031   1.951   2.435   1.409 -0.4117 -0.7148 -0.0741
  678MPD2     H10032   2.084   2.203   1.135 -1.5736 -2.7327  0.7437
  678MPD2    H110033   1.755   2.382   1.330  0.0570  0.5984  1.2097
  678MPD2    H210034   2.148   2.455   1.480  1.2051 -1.4307 -0.4819
  678MPD2    H310035   1.909   2.501   1.484  0.3979 -0.5151  0.2067
  678MPD2     N10036   1.840   2.208   1.138 -0.4307  0.4552  0.0522
  678MPD2    H510037   1.893   2.148   1.075 -0.8891 -0.6074  0.6853
  678MPD2    N110038   2.282   2.322   1.278  0.3228  0.2002  0.4949
  678MPD2    H710039   2.308   2.267   1.197 -0.8070 -0.4236  0.5549
  679TMC3    C110040   2.680   2.220   1.230 -0.0472 -0.2154 -0.2762
  679TMC3    C210041   2.556   2.233   1.280 -0.7400 -0.0749 -0.2213
  679TMC3    C310042   2.509   2.360   1.295  0.1588 -0.5573  0.2767
  679TMC3    C410043   2.761   2.319   1.181 -0.4112  0.1402  0.3209
  679TMC3    C510044   2.710   2.445   1.207  0.3103  0.3455  0.4507
  679TMC3    C610045   2.586   2.468   1.263  0.0714  0.9260 -0.8767
  679TMC3     C10046   2.740   2.088   1.261  0.1820  0.2605 -0.0993
  679TMC3     O10047   2.666   1.988   1.244  0.0092  0.0927  0.0382
  679TMC3     H10048   2.506   2.145   1.318  1.1029 -0.5403  1.1690
  679TMC3    H110049   2.861   2.295   1.146 -0.8786  0.8176 -1.4763
  679TMC3    H210050   2.541   2.564   1.287 -1.5173 -0.1364  0.3980
  679TMC3    C710051   2.756   2.551   1.119 -0.1506  0.2279 -0.1105
  679TMC3    C810052   2.378   2.392   1.346 -0.4877  0.2806 -0.2490
  679TMC3    O110053   2.809   2.513   1.016 -0.2762 -0.3117 -0.5595
  679TMC3    O210054   2.370   2.486   1.427 -0.2935  0.0989  0.2587
  680MPD2     C10055   2.235   1.111  13.815  0.0945  0.0341  0.1942
  680MPD2    C110056   2.342   1.031  13.855  1.0555  0.4088 -0.0608
  680MPD2    C210057   2.462   1.101  13.891  0.8289 -0.6334  0.1436
  680MPD2    C310058   2.459   1.234  13.919 -0.0387 -0.6000 -0.2020
  680MPD2    C410059   2.355   1.314  13.874 -0.4320 -0.5026  0.9288
  680MPD2    C510060   2.247   1.250  13.813 -0.3982 -0.6144  0.5861
  680MPD2     H10061   2.555   1.048  13.913  0.0182 -2.1491 -0.0592
  680MPD2    H110062   2.357   1.422  13.883  0.7865 -0.2412 -2.4888
  680MPD2    H210063   2.141   1.077  13.773  0.9449  0.7789 -2.3258
  680MPD2    H310064   2.165   1.312  13.779 -1.4769 -2.2631  0.2449
  680MPD2     N10065   2.576   1.300  13.965  0.0810  0.0823  0.3539
  680MPD2    H510066   2.579   1.401  13.954  2.4999 -0.0245  0.0366
  680MPD2    N110067   2.337   0.893  13.851 -0.7767  0.1198  0.1173
  680MPD2    H710068   2.411   0.852  13.907 -1.7008 -0.9257  0.5700
  681TMC3    C110069   2.250   0.692  13.844  1.0310  0.2212  0.2526
  681TMC3    C210070   2.183   0.695  13.962 -0.5996 -0.1522  0.2229
  681TMC3    C310071   2.231   0.615  14.055  0.7337 -0.3293  0.0314
  681TMC3    C410072   2.371   0.635  13.822 -0.0027  0.3049  0.0172
  681TMC3    C510073   2.411   0.550  13.919  1.2011 -0.7465  0.5740
  681TMC3    C610074   2.339   0.544  14.036 -0.1766  0.0913  0.2658
  681TMC3     C10075   2.243   0.819  13.783  0.4224  0.2242  0.1369
  681TMC3     O10076   2.146   0.855  13.720  0.0455  0.3544 -0.4842
  681TMC3     H10077   2.090   0.747  13.979 -0.5522 -0.3674  1.1433
  681TMC3    H110078   2.429   0.679  13.741  1.0487 -0.1394  0.5245
  681TMC3    H210079   2.361   0.466  14.108  0.5582 -0.8193 -0.9492
  681TMC3    C710080   2.545   0.506  13.935  0.0975  0.6478  0.1191
  681TMC3    C810081   2.228   0.676  14.187 -0.0792 -0.0460  0.0522
  681TMC3    O110082   2.582   0.485  14.048 -0.4573 -0.1006 -0.1838
  681TMC3    O210083   2.122   0.732  14.210  0.0335  0.0809  0.1447
  682MPD2     C10084   4.557   2.989  11.015  0.3684  0.1755 -0.6310
  682MPD2    C110085   4.554   2.850  11.001 -0.2662 -0.1427 -0.7663
  682MPD2    C210086   4.493   2.773  11.096 -0.2067 -0.2224 -0.0457
  682MPD2    C310087   4.432   2.830  11.207  0.8396  0.1996 -0.1836
  682MPD2    C410088   4.425   2.967  11.219  0.3461  0.3901  0.6186
  682MPD2    C510089   4.491   3.036  11.125  0.6385 -0.3539 -0.0279
  682MPD2     H10090   4.508   2.665  11.092  1.8972  0.1292 -1.4356
  682MPD2    H110091   4.385   3.020  11.305 -0.0207 -1.5692  1.6610
  682MPD2    H210092   4.600   3.065  10.951  0.4791  1.4599  0.9627
  682MPD2    H310093   4.493   3.144  11.133  0.2779 -0.0832 -3.3286
  682MPD2     N10094   4.376   2.767  11.313 -0.1005  0.3858 -0.3619
  682MPD2    H510095   4.342   2.833  11.383  0.7933 -0.0457  0.4663
  682MPD2    N110096   4.589   2.784  10.879 -0.7594  0.1451  0.5072
  682MPD2    H710097   4.579   2.683  10.887  0.5245 -0.0013  0.2134
  683TMC3    C110098   4.216   2.623  11.650  0.1557  0.1453  0.2238
  683TMC3    C210099   4.100   2.552  11.627  0.4441  0.1806  0.3134
  683TMC3    C310100   4.085   2.493  11.503 -0.4435 -0.5739 -0.1043
  683TMC3    C410101   4.312   2.639  11.558 -0.2832  0.2072  0.0150
  683TMC3    C510102   4.289   2.583  11.434 -0.2084 -0.5078  0.0562
  683TMC3    C610103   4.180   2.502  11.405 -0.7298  0.2538 -0.0376
  683TMC3     C10104   4.249   2.669  11.787 -0.2295  0.6639 -0.7136
  683TMC3     O10105   4.360   2.726  11.797 -0.0511 -0.1840  0.1242
  683TMC3     H10106   4.013   2.554  11.693 -0.3037  3.1098 -0.7293
  683TMC3    H110107   4.414   2.673  11.574  0.3287 -2.2107  1.3284
  683TMC3    H210108   4.165   2.449  11.312 -2.0952  1.4483 -0.5140
  683TMC3    C710109   4.371   2.630  11.329  0.0674  0.1218 -0.3924
  683TMC3    C810110   3.961   2.443  11.454 -0.2120  0.0639  0.3586
  683TMC3    O110111   4.397   2.538  11.250  0.1244 -0.0677 -0.0226
  683TMC3    O210112   3.854   2.505  11.476  0.2878 -0.0001 -0.0556
  684MPD2     C10113   3.015   1.866  16.407 -0.2326 -0.0995 -0.5052
  684MPD2    C110114   2.980   1.854  16.280 -0.2629 -0.2668 -0.2094
  684MPD2    C210115   3.007   1.962  16.197  0.9023 -0.8189 -0.1002
  684MPD2    C310116   3.096   2.063  16.239 -0.7575  0.7237  0.0419
  684MPD2    C410117   3.124   2.080  16.370  0.5889 -0.3005 -0.0817
  684MPD2    C510118   3.088   1.974  16.452 -0.0840 -0.3966 -0.1064
  684MPD2     H10119   2.972   1.946  16.096 -0.1659  0.4543  0.0740
  684MPD2    H110120   3.183   2.162  16.409  0.2448  0.7563 -1.7700
  684MPD2    H210121   2.984   1.796  16.484 -0.0629  0.1024 -0.2531
  684MPD2    H310122   3.121   1.968  16.555 -0.7733 -1.3854  0.0630
  684MPD2     N10123   3.140   2.167  16.160 -0.0240  0.4254 -0.7658
  684MPD2    H510124   3.194   2.239  16.206  1.0490  0.0569 -1.4209
  684MPD2    N110125   2.920   1.737  16.220  0.5611 -0.0271  0.0813
  684MPD2    H710126   2.893   1.741  16.122 -0.3551  1.3217  0.3788
  685TMC3    C110127   2.878   1.515  16.193 -0.6484 -0.4348  0.1030
  685TMC3    C210128   2.793   1.530  16.086 -0.8443  0.7256  0.2306
  685TMC3    C310129   2.794   1.436  15.988  0.1013  0.0984  0.3875
  685TMC3    C410130   2.958   1.403  16.209  0.5595  0.2899  0.3369
  685TMC3    C510131   2.951   1.311  16.105  0.4371  0.4324 -0.2110
  685TMC3    C610132   2.870   1.326  15.998 -0.8855 -0.1076 -0.3318
  685TMC3     C10133   2.900   1.619  16.286  0.1205  0.2928 -0.0979
  685TMC3     O10134   2.945   1.588  16.398 -0.0971  0.3373 -0.1862
  685TMC3     H10135   2.719   1.608  16.076  0.3198  1.9371  1.1431
  685TMC3    H110136   3.021   1.386  16.296  3.0893  3.0502 -0.9483
  685TMC3    H210137   2.866   1.250  15.921 -2.2175 -0.1966 -0.1800
  685TMC3    C710138   3.042   1.201  16.106 -0.3348 -0.1190 -0.6047
  685TMC3    C810139   2.707   1.444  15.874  0.2777 -0.0286  1.0473
  685TMC3    O110140   3.001   1.088  16.080  0.1193 -0.1423  0.4344
  685TMC3    O210141   2.679   1.339  15.818 -0.3373 -0.4138 -0.5960
  686MPD2     C10142   4.141   1.945  15.955 -0.0235 -0.0093 -0.6053
  686MPD2    C110143   4.168   1.810  15.974  0.2301 -0.6005  0.2630
  686MPD2    C210144   4.172   1.735  15.861  0.8629  0.3574 -0.5577
  686MPD2    C310145   4.138   1.783  15.736 -0.0155  0.1394  0.4694
  686MPD2    C410146   4.107   1.914  15.720  0.1347 -0.1153  0.3865
  686MPD2    C510147   4.118   1.994  15.829  0.2548  0.2730 -0.1112
  686MPD2     H10148   4.190   1.629  15.873  1.1363  0.4701  0.0424
  686MPD2    H110149   4.080   1.960  15.625  2.8981 -1.0225 -0.8259
  686MPD2    H210150   4.143   2.015  16.038 -0.1315 -0.1343 -0.4956
  686MPD2    H310151   4.107   2.102  15.826 -1.6971  0.0101 -2.3324
  686MPD2     N10152   4.135   1.690  15.628  0.0225 -0.4698 -0.1124
  686MPD2    H510153   4.156   1.592  15.646  0.7678  0.3253  3.2582
  686MPD2    N110154   4.188   1.756  16.103  0.3993  0.0818  0.3434
  686MPD2    H710155   4.178   1.825  16.177  2.7748 -1.4025  2.0650
  687TMC3    C110156   4.058   1.593  15.438  0.2338 -0.0501 -0.2063
  687TMC3    C210157   3.923   1.590  15.414 -0.1335  0.1920  0.3453
  687TMC3    C310158   3.857   1.481  15.476  0.6789  0.4328  0.3818
  687TMC3    C410159   4.126   1.490  15.496 -0.2927  0.0017  0.8918
  687TMC3    C510160   4.057   1.384  15.543 -0.3224 -0.3157 -0.3839
  687TMC3    C610161   3.917   1.380  15.539  0.0793 -0.5883 -1.2757
  687TMC3     C10162   4.095   1.720  15.501 -0.3157 -0.3096 -0.5760
  687TMC3     O10163   4.032   1.815  15.461 -0.1953  0.7075 -0.2148
  687TMC3     H10164   3.867   1.673  15.372  1.8230  0.9662 -0.6972
  687TMC3    H110165   4.233   1.508  15.500 -0.1375 -0.4918 -1.3388
  687TMC3    H210166   3.857   1.303  15.588  0.3455 -0.5291 -0.8595
  687TMC3    C710167   4.115   1.343  15.669 -0.1763 -0.0276 -0.2238
  687TMC3    C810168   3.718   1.484  15.484  0.3030 -0.7340  0.3177
  687TMC3    O110169   4.221   1.403  15.695 -0.8370  0.4766 -0.2557
  687TMC3    O210170   3.662   1.400  15.552 -0.1985 -0.1001 -0.2150
  688MPD2     C10171   3.651   0.403  17.478  0.9513 -0.2813 -0.0746
  688MPD2    C110172   3.570   0.289  17.480 -0.3303 -0.6986 -0.1836
  688MPD2    C210173   3.606   0.175  17.418 -0.0964  0.8217 -0.3470
  688MPD2    C310174   3.731   0.162  17.353 -0.4552 -0.3317  0.2361
  688MPD2    C410175   3.815   0.271  17.362 -0.3505 -0.6123 -0.2492
  688MPD2    C510176   3.783   0.383  17.435 -0.2266 -0.8842 -0.2440
  688MPD2     H10177   3.540   0.089  17.419 -0.9348  1.4912  1.4527
  688MPD2    H110178   3.917   0.279  17.324 -0.0047 -0.3559  0.7574
  688MPD2    H210179   3.621   0.496  17.525 -0.1946  1.0881 -3.4894
  688MPD2    H310180   3.851   0.467  17.425  0.6843 -1.7619 -1.4687
  688MPD2     N10181   3.786   0.044  17.302  0.3547  0.2640 -0.7573
  688MPD2    H510182   3.884   0.043  17.279  0.4672 -1.5006 -0.2116
  688MPD2    N110183   3.440   0.299  17.532  0.8278  0.0054  0.3282
  688MPD2    H710184   3.388   0.213  17.542 -0.8027  0.9972  0.4067
  689TMC3    C110185   3.263   0.402  17.658  0.4567  0.6093  0.5580
  689TMC3    C210186   3.274   0.482   0.075 -0.1621 -0.9498  0.1894
  689TMC3    C310187   3.214   0.446   0.193 -0.5187 -0.4183  0.2243
  689TMC3    C410188   3.184   0.291  17.665 -0.2078  0.1804 -0.0666
  689TMC3    C510189   3.137   0.256   0.091 -0.2715  0.0130 -0.3540
  689TMC3    C610190   3.138   0.332   0.204  0.2955 -0.2689 -0.7551
  689TMC3     C10191   3.376   0.416  17.570 -0.5123 -0.1195  0.3104
  689TMC3     O10192   3.406   0.532  17.543 -0.2071 -0.0530  0.2206
  689TMC3     H10193   3.336   0.569   0.062 -1.0830 -0.5627 -1.6912
  689TMC3    H110194   3.190   0.230  17.576  0.0069  1.2820 -0.8059
  689TMC3    H210195   3.089   0.299   0.295 -0.4822 -0.8871 -1.3990
  689TMC3    C710196   3.102   0.115   0.111  0.1940 -0.1658 -0.7569
  689TMC3    C810197   3.226   0.518   0.320  0.1410 -0.1953 -0.3483
  689TMC3    O110198   3.096   0.068   0.224  0.0109  0.2210  0.0623
  689TMC3    O210199   3.196   0.457   0.419 -0.4656 -0.5068 -0.0830
  690MPD2     C10200   1.235   2.305  15.676 -1.1236  0.6026 -0.2758
  690MPD2    C110201   1.180   2.311  15.548  0.1761 -0.3356 -0.3807
  690MPD2    C210202   1.259   2.319  15.433  0.2630 -0.0208 -0.1182
  690MPD2    C310203   1.391   2.327  15.447 -1.0873  0.6082  0.1057
  690MPD2    C410204   1.447   2.316  15.574 -0.0920  0.2172  0.6891
  690MPD2    C510205   1.370   2.314  15.682  0.1590  0.1583  0.1618
  690MPD2     H10206   1.211   2.318  15.336  1.2310  1.1882 -0.5989
  690MPD2    H110207   1.554   2.318  15.587 -0.1826  1.3264  1.3147
  690MPD2    H210208   1.177   2.295  15.767  0.5943  0.2970  0.7721
  690MPD2    H310209   1.419   2.318  15.778  0.9235 -0.1610 -0.2175
  690MPD2     N10210   1.474   2.317  15.332  1.0506 -0.2752  0.0238
  690MPD2    H510211   1.428   2.332  15.243 -0.1641 -1.3851  0.4483
  690MPD2    N110212   1.039   2.295  15.525 -0.5783 -0.2065  0.8058
  690MPD2    H710213   1.016   2.285  15.427  1.0533  0.2179  0.3799
  691TMC3    C110214   0.811   2.278  15.581  0.6765  0.3185 -0.2135
  691TMC3    C210215   0.705   2.308  15.666  0.5408  0.1487 -0.4850
  691TMC3    C310216   0.599   2.227  15.674  0.7143 -0.4669  0.0257
  691TMC3    C410217   0.818   2.159  15.521 -0.2983 -0.3834  0.0778
  691TMC3    C510218   0.717   2.075  15.526  0.3508  0.1398 -0.5170
  691TMC3    C610219   0.613   2.102  15.621 -0.5387  0.2225  0.1742
  691TMC3     C10220   0.941   2.319  15.619  0.1289  0.4659 -0.4408
  691TMC3     O10221   0.950   2.342  15.740  0.1118  0.1600  0.4462
  691TMC3     H10222   0.719   2.394  15.729 -0.7867 -0.2547  0.3592
  691TMC3    H110223   0.903   2.127  15.461 -1.0774 -1.1777 -0.5965
  691TMC3    H210224   0.537   2.026  15.634  2.4916 -3.4532 -3.5849
  691TMC3    C710225   0.743   1.938  15.481 -0.1231  0.1882  0.0007
  691TMC3    C810226   0.507   2.254  15.778  0.3845 -0.0083  0.0082
  691TMC3    O110227   0.859   1.900  15.479  0.2203  0.1002 -0.0451
  691TMC3    O210228   0.469   2.162  15.849 -0.7761 -0.3375  0.1529
  692TMC3    C110229   2.674   3.354  15.676 -0.1899  0.6195  0.1094
  692TMC3    C210230   2.812   3.395  15.674  0.6244  0.3006 -0.3791
  692TMC3    C310231   2.908   3.316  15.620  0.5725 -0.5868  0.7843
  692TMC3    C410232   2.637   3.230  15.634  0.5173 -0.5070  0.1640
  692TMC3    C510233   2.727   3.167  15.565  0.1759 -0.3198 -0.6903
  692TMC3    C610234   2.859   3.199  15.573  0.0908 -0.2704  0.5886
  692TMC3     C10235   2.589   3.418  15.768  0.3003 -0.7248 -0.5244
  692TMC3     O10236   2.469   3.400  15.775  0.5185 -0.1426 -0.1370
  692TMC3     H10237   2.826   3.502  15.669 -1.0434  0.5482  0.1134
  692TMC3    H110238   2.532   3.207  15.643  0.5074 -0.6472 -0.2861
  692TMC3    H210239   2.939   3.147  15.521 -0.8493  0.3747 -1.5086
  692TMC3    C710240   2.688   3.033  15.531 -0.3803  0.0019  0.4227
  692TMC3    C810241   3.003   3.282  15.717  0.0161  0.6660 -0.1803
  692TMC3    O110242   2.577   3.013  15.491 -0.2297  0.2210  0.1455
  692TMC3    O210243   3.020   3.161  15.730  0.1661 -0.0471 -0.1813
  693MPD2     C10244   2.188   1.851  10.750 -0.0278  0.8718  0.8769
  693MPD2    C110245   2.183   1.762  10.647  0.2294  0.2990  0.4612
  693MPD2    C210246   2.281   1.663  10.639  0.0187  0.2352  0.4885
  693MPD2    C310247   2.387   1.659  10.730  0.2646 -0.1313  0.5125
  693MPD2    C410248   2.401   1.766  10.819  0.2708 -0.2491  0.1550
  693MPD2    C510249   2.299   1.861  10.829  0.3321 -0.1472 -0.3661
  693MPD2     H10250   2.267   1.582  10.568  1.8471  0.2179  0.1382
  693MPD2    H110251   2.480   1.770  10.893 -0.6488  1.4390  1.0386
  693MPD2    H210252   2.118   1.930  10.728 -0.8372 -0.3775 -1.0060
  693MPD2    H310253   2.304   1.949  10.892  0.8547 -0.5315  0.1309
  693MPD2     N10254   2.479   1.554  10.734  0.3339 -0.3649  0.1755
  693MPD2    H510255   2.543   1.560  10.812 -0.4049  0.8220  0.6832
  693MPD2    N110256   2.060   1.752  10.575  0.5954  0.2706  0.6553
  693MPD2    H710257   1.988   1.819  10.600  0.4288  0.8383 -1.3658
  694TMC3    C110258   1.884   1.657  10.467 -0.0119  0.3498 -0.1486
  694TMC3    C210259   1.835   1.580  10.362  0.4560  0.4785  0.4438
  694TMC3    C310260   1.708   1.530  10.372 -0.1238 -0.4180  1.2381
  694TMC3    C410261   1.814   1.676  10.582  0.2072  0.5939  0.7506
  694TMC3    C510262   1.696   1.611  10.591  0.5739 -0.6125 -0.1162
  694TMC3    C610263   1.637   1.556  10.481 -0.4683  0.4287 -0.5477
  694TMC3     C10264   2.023   1.657  10.488  0.2678 -0.1489  0.0924
  694TMC3     O10265   2.083   1.557  10.446 -0.2102  0.3461 -0.5934
  694TMC3     H10266   1.902   1.549  10.283  1.5769  0.8494  1.2566
  694TMC3    H110267   1.856   1.721  10.671  1.0395 -1.3698  1.3488
  694TMC3    H210268   1.532   1.531  10.494  0.2082 -2.6138 -1.1597
  694TMC3    C710269   1.630   1.600  10.722 -0.1749 -0.4695 -0.4301
  694TMC3    C810270   1.631   1.470  10.257 -0.5726 -0.2577 -0.0512
  694TMC3    O110271   1.644   1.691  10.799  0.1080 -0.8372 -0.2553
  694TMC3    O210272   1.538   1.395  10.281 -0.1700 -0.3579 -0.4484
  695MPD2     C10273   3.245   3.296  13.265  0.1390  0.1219 -0.8037
  695MPD2    C110274   3.164   3.263  13.371 -0.1433  0.1622 -0.2496
  695MPD2    C210275   3.025   3.266  13.351  0.2981 -0.2607 -0.0899
  695MPD2    C310276   2.965   3.324  13.244  0.7496 -0.9851  0.3689
  695MPD2    C410277   3.049   3.370  13.142 -0.0037 -0.0336  0.3973
  695MPD2    C510278   3.190   3.343  13.146  0.2002 -0.6537 -0.8787
  695MPD2     H10279   2.961   3.237  13.433 -0.5118 -1.9215 -1.3116
  695MPD2    H110280   3.008   3.414  13.052  2.3146 -0.2568 -0.7422
  695MPD2    H210281   3.350   3.271  13.278 -0.0783  0.3519  1.4966
  695MPD2    H310282   3.253   3.359  13.059  2.7261 -1.5329  0.7962
  695MPD2     N10283   2.822   3.344  13.245 -0.2142 -1.0018  0.2155
  695MPD2    H510284   2.764   3.321  13.324 -0.3972 -0.4281  0.2518
  695MPD2    N110285   3.201   3.229  13.498  0.2928 -0.1169 -0.4830
  695MPD2    H710286   3.130   3.180  13.552  0.4718  0.9561  0.7267
  696TMC3    C110287   2.612   3.429  13.208 -0.1689 -0.6262 -0.6708
  696TMC3    C210288   2.582   3.357  13.320 -0.0115  0.2568 -0.7241
  696TMC3    C310289   2.466   3.396  13.380 -0.3768  0.8098 -0.0817
  696TMC3    C410290   2.534   3.525  13.152 -0.1060 -0.5468 -0.7749
  696TMC3    C510291   2.424   3.567  13.224 -1.2527 -0.5176 -0.1447
  696TMC3    C610292   2.392   3.500  13.345  0.4087 -0.6816  0.6598
  696TMC3     C10293   2.747   3.413  13.156  0.2048  0.2822 -0.5976
  696TMC3     O10294   2.772   3.435  13.040 -0.0320  0.2396 -0.3580
  696TMC3     H10295   2.632   3.267  13.354 -1.7066  0.6837  2.9699
  696TMC3    H110296   2.572   3.585  13.070 -1.1125  0.5296 -0.4402
  696TMC3    H210297   2.320   3.541  13.415  0.4701  1.1648 -0.3452
  696TMC3    C710298   2.393   3.702  13.203 -0.2645  0.5533  0.0921
  696TMC3    C810299   2.434   3.335  13.509  0.2097 -0.8684  0.0431
  696TMC3    O110300   2.393   3.743  13.087  0.1997  0.3265  0.0216
  696TMC3    O210301   2.526   3.293  13.577 -0.4449  0.2816 -0.3718
  697MPD2     C10302   2.210   0.220  16.009  0.0940  0.1304 -0.1982
  697MPD2    C110303   2.237   0.177  15.887 -0.1817  0.7751  0.4569
  697MPD2    C210304   2.303   0.261  15.795  0.2832  0.1593 -0.4370
  697MPD2    C310305   2.348   0.385  15.828 -0.4366  0.3058 -0.5722
  697MPD2    C410306   2.323   0.421  15.954 -0.8800 -0.4523 -0.0222
  697MPD2    C510307   2.249   0.348  16.038  1.0050 -0.6646  0.0497
  697MPD2     H10308   2.302   0.228  15.692  1.6478  2.0945 -1.0644
  697MPD2    H110309   2.358   0.513  15.999 -2.1754  0.6781 -1.3587
  697MPD2    H210310   2.164   0.162  16.088  0.4192  1.2080  0.7811
  697MPD2    H310311   2.240   0.382  16.141  1.7027 -4.5720  1.4239
  697MPD2     N10312   2.408   0.461  15.733 -0.0713  0.0122 -0.5661
  697MPD2    H510313   2.408   0.418  15.641 -0.4312  2.4790 -1.7155
  697MPD2    N110314   2.204   0.044  15.850  0.1277  0.2101 -0.2370
  697MPD2    H710315   2.235   0.009  15.760  0.2046  0.3193 -0.2537
  698TMC3    C110316   2.512   0.657  15.630  0.3762  0.3152 -0.2017
  698TMC3    C210317   2.617   0.750  15.653  0.1399  0.0756  0.0180
  698TMC3    C310318   2.691   0.791  15.549  0.3559 -0.2506 -0.0245
  698TMC3    C410319   2.498   0.608  15.508 -0.2250  0.7489 -0.5158
  698TMC3    C510320   2.574   0.656  15.405 -0.2679 -0.2881  1.1436
  698TMC3    C610321   2.674   0.751  15.420 -0.5423 -0.4427 -0.0461
  698TMC3     C10322   2.451   0.592  15.751  0.2627 -0.3493  0.5583
  698TMC3     O10323   2.491   0.640  15.858  0.5685 -0.0142 -1.2171
  698TMC3     H10324   2.625   0.795  15.751 -0.0018 -0.1250  0.1225
  698TMC3    H110325   2.430   0.524  15.498  1.1885 -0.7535  2.5063
  698TMC3    H210326   2.736   0.784  15.338 -1.2420 -0.0867 -0.4379
  698TMC3    C710327   2.533   0.611  15.272 -0.5174  0.0246  0.1144
  698TMC3    C810328   2.810   0.875  15.587 -0.1286 -0.3460 -0.1947
  698TMC3    O110329   2.425   0.557  15.263 -0.3695 -0.1158 -0.6062
  698TMC3    O210330   2.840   0.868  15.705 -0.2022 -1.0762 -0.1663
  699TMC3    C110331   2.471   3.284  12.788 -0.1289  0.5978 -0.4852
  699TMC3    C210332   2.510   3.215  12.897  0.2856 -0.4956 -0.5706
  699TMC3    C310333   2.435   3.114  12.936  0.6226  0.1150 -0.1331
  699TMC3    C410334   2.349   3.261  12.730  0.3046 -0.0127 -0.1951
  699TMC3    C510335   2.283   3.155  12.773  0.1506  0.3557 -0.4106
  699TMC3    C610336   2.322   3.073  12.873 -0.5197  0.2272  0.7194
  699TMC3     C10337   2.534   3.391  12.742  0.1635 -0.2995 -0.2166
  699TMC3     O10338   2.468   3.479  12.691 -0.6307 -0.5797 -0.1972
  699TMC3     H10339   2.597   3.235  12.959  0.5969 -0.1711 -1.1142
  699TMC3    H110340   2.308   3.331  12.658 -1.3703 -0.7474  0.0483
  699TMC3    H210341   2.270   2.986  12.911  0.6777 -0.6255  0.4046
  699TMC3    C710342   2.141   3.167  12.768  0.3351  0.2598  0.6894
  699TMC3    C810343   2.446   3.068  13.071  0.3274 -0.2594  0.2295
  699TMC3    O110344   2.087   3.127  12.874  0.1977  0.1838 -0.6573
  699TMC3    O210345   2.345   3.033  13.127  0.0355  0.1340  0.4471
  700TMC3    C110346   1.423   0.996  17.431  0.5726 -0.5535  0.4030
  700TMC3    C210347   1.499   0.907  17.363  0.1607 -0.2350  0.5449
  700TMC3    C310348   1.591   0.836  17.444  0.2402  0.2781 -0.2558
  700TMC3    C410349   1.428   1.024  17.566 -0.3251  0.5499 -0.2124
  700TMC3    C510350   1.521   0.947  17.639 -0.4890 -0.1520  0.2849
  700TMC3    C610351   1.596   0.855  17.580  0.3915  0.0386  0.7615
  700TMC3     C10352   1.329   1.084  17.355  0.1698  0.2864 -1.3092
  700TMC3     O10353   1.257   1.156  17.425  0.7549 -0.2997  0.1922
  700TMC3     H10354   1.480   0.885  17.259  1.1839 -1.0411  0.5317
  700TMC3    H110355   1.391   1.115  17.611  0.6447  0.4758  0.7630
  700TMC3    H210356   1.683   0.823  17.636 -0.2898 -1.9583  0.6690
  700TMC3    C710357   1.596   1.022   0.048 -0.1318 -0.0522  0.7393
  700TMC3    C810358   1.663   0.729  17.384 -0.9159  0.0441  0.3799
  700TMC3    O110359   1.609   1.139   0.031  0.3552  0.1754 -0.3863
  700TMC3    O210360   1.666   0.733  17.262  0.6405 -0.1636  0.5409
  701TMC3    C110361   1.558   4.301  15.326 -0.7237  0.1047  0.2228
  701TMC3    C210362   1.610   4.271  15.204  0.4752  0.1839 -0.2189
  701TMC3    C310363   1.744   4.240  15.201  0.5818 -0.2170 -0.0004
  701TMC3    C410364   1.632   4.299  15.440  0.3525  0.7380  0.4571
  701TMC3    C510365   1.765   4.268  15.431 -0.4572 -0.3964 -0.3361
  701TMC3    C610366   1.824   4.241  15.315  0.0014  0.1426  0.1427
  701TMC3     C10367   1.440   4.391  15.348  0.3452  0.2164  1.2560
  701TMC3     O10368   1.397   4.392  15.462  0.0845  0.2135  0.1381
  701TMC3     H10369   1.539   4.268  15.122 -0.5084  2.5305  0.5577
  701TMC3    H110370   1.598   4.335  15.536 -2.5639  0.1605 -0.3440
  701TMC3    H210371   1.929   4.215  15.313 -0.0551 -0.0333 -0.5526
  701TMC3    C710372   1.852   4.349  15.517  0.5572 -0.0046 -0.2810
  701TMC3    C810373   1.788   4.185  15.078  0.3254 -0.6830 -0.1177
  701TMC3    O110374   1.957   4.399  15.472  0.0498 -0.0796  0.7343
  701TMC3    O210375   1.902   4.142  15.071 -0.0956  0.1440 -0.2363
  702MPD2     C10376   1.141   2.273  10.282 -0.4800 -0.9284 -0.0489
  702MPD2    C110377   1.086   2.369  10.364 -0.5027  0.0606  0.1178
  702MPD2    C210378   1.108   2.505  10.329  0.3916 -0.2393 -0.0052
  702MPD2    C310379   1.185   2.536  10.219  0.0010 -0.1579  0.5755
  702MPD2    C410380   1.256   2.442  10.151  0.4798  0.2809  0.0824
  702MPD2    C510381   1.225   2.307  10.178 -0.6003  0.5261  0.1653
  702MPD2     H10382   1.049   2.578  10.383 -0.2312 -0.7052 -0.0476
  702MPD2    H110383   1.329   2.462  10.073  2.0542  0.6992  1.6383
  702MPD2    H210384   1.125   2.168  10.303 -0.1583 -1.4597 -2.4818
  702MPD2    H310385   1.271   2.230  10.117 -1.0933  0.4526 -0.1145
  702MPD2     N10386   1.197   2.674  10.188  0.1116  0.1972 -0.3413
  702MPD2    H510387   1.140   2.739  10.241 -0.0285 -1.7284  1.8579
  702MPD2    N110388   1.014   2.351  10.480  0.3240  0.1034  0.3631
  702MPD2    H710389   0.995   2.437  10.531 -0.3580 -1.0708  2.0686
  703TMC3    C110390   1.311   2.868  10.139 -0.3244 -0.9193 -0.1893
  703TMC3    C210391   1.191   2.931  10.120  0.2310  1.1065  0.9416
  703TMC3    C310392   1.175   3.062  10.168  0.0494  0.3068  0.0303
  703TMC3    C410393   1.406   2.928  10.215 -0.0448  0.3789  0.2959
  703TMC3    C510394   1.383   3.045  10.274  0.1781  0.4259 -0.1962
  703TMC3    C610395   1.267   3.122  10.250  0.1538 -0.0742  0.1568
  703TMC3     C10396   1.316   2.730  10.152 -0.7158 -0.9343  0.1716
  703TMC3     O10397   1.422   2.674  10.143 -0.1805  0.2082 -0.6850
  703TMC3     H10398   1.115   2.878  10.063  2.5803  0.2045 -1.4055
  703TMC3    H110399   1.494   2.868  10.234  1.2378  2.4085  0.7474
  703TMC3    H210400   1.255   3.225  10.280 -1.1616 -0.6949  1.8209
  703TMC3    C710401   1.488   3.120  10.344  0.2635  0.0350  0.7202
  703TMC3    C810402   1.046   3.121  10.150 -0.8120  0.4964  0.5876
  703TMC3    O110403   1.503   3.234  10.317  0.2765 -0.3031 -0.1129
  703TMC3    O210404   1.032   3.237  10.107 -0.7094 -0.4978  0.0149
  704TMC3    C110405   3.536   0.258  12.797  0.0939  0.4787  0.5758
  704TMC3    C210406   3.660   0.283  12.742  0.5490  0.5967  0.1083
  704TMC3    C310407   3.754   0.190  12.768  0.4091  0.0969  0.1143
  704TMC3    C410408   3.503   0.158  12.882  0.3870  1.4683 -0.6945
  704TMC3    C510409   3.600   0.069  12.914 -0.2352 -0.1184  0.1757
  704TMC3    C610410   3.722   0.084  12.855  0.0744  0.2773 -0.9119
  704TMC3     C10411   3.433   0.289  12.702 -1.2048  0.2392  0.4324
  704TMC3     O10412   3.317   0.288  12.737 -0.0300  0.1453 -0.2479
  704TMC3     H10413   3.681   0.367  12.677  2.2077  0.4908  0.5122
  704TMC3    H110414   3.399   0.129  12.896  0.6999  0.4026 -0.5166
  704TMC3    H210415   3.801   0.011  12.873 -1.3378 -1.3963 -1.4691
  704TMC3    C710416   3.566   4.655  12.929  0.6415 -0.4854 -0.1259
  704TMC3    C810417   3.824   0.153  12.646 -0.7385 -0.3973  0.2980
  704TMC3    O110418   3.623   4.584  12.847 -0.6654 -0.2428  0.0358
  704TMC3    O210419   3.765   0.172  12.539  0.2285  0.2279  0.3041
  705MPD2     C10420   3.199   2.721  16.139  0.7183  0.2050 -0.0653
  705MPD2    C110421   3.212   2.847  16.192  0.1409 -0.7623  0.3009
  705MPD2    C210422   3.102   2.901  16.247 -0.4081 -0.2604  1.3138
  705MPD2    C310423   2.980   2.839  16.225  0.5148  0.5440  0.5100
  705MPD2    C410424   2.972   2.717  16.160  0.4105  0.1861 -0.2272
  705MPD2    C510425   3.084   2.648  16.137 -0.3252 -0.1356  0.2147
  705MPD2     H10426   3.114   2.999  16.292 -0.8996 -0.0481  0.9748
  705MPD2    H110427   2.879   2.672  16.127 -0.1461  0.6152  0.7328
  705MPD2    H210428   3.283   2.680  16.084  1.2500 -0.9840  1.6242
  705MPD2    H310429   3.070   2.552  16.088 -0.4308 -0.3381  0.6453
  705MPD2     N10430   2.857   2.901  16.262  0.2562 -0.0679  0.0950
  705MPD2    H510431   2.778   2.841  16.243 -1.2959  1.9977  0.1346
  705MPD2    N110432   3.336   2.922  16.200  0.0971  0.4287  0.6265
  705MPD2    H710433   3.349   3.006  16.256 -0.2901  0.2745  0.9459
  706TMC3    C110434   3.727   3.056  15.993  0.6805  0.3902 -0.2985
  706TMC3    C210435   3.740   3.166  16.073 -0.3817  0.0845  0.4227
  706TMC3    C310436   3.654   3.183  16.177  0.2351  0.5708 -0.2821
  706TMC3    C410437   3.635   2.957  16.008  0.4120 -0.2974  0.0731
  706TMC3    C510438   3.549   2.982  16.114  0.0752 -0.1702 -0.0239
  706TMC3    C610439   3.556   3.087  16.197 -0.7524  1.4918 -0.7600
  706TMC3     C10440   3.810   3.054  15.877 -0.1658 -0.2843  0.7428
  706TMC3     O10441   3.927   3.091  15.889 -0.7567 -0.0626  0.0587
  706TMC3     H10442   3.829   3.228  16.066  0.0558 -0.6567 -0.5514
  706TMC3    H110443   3.634   2.883  15.929  1.4125 -0.9703  0.6876
  706TMC3    H210444   3.476   3.104  16.268  1.9457 -1.4710  2.9925
  706TMC3    C710445   3.437   2.895  16.109  1.0072 -0.0308 -0.5909
  706TMC3    C810446   3.608   3.322  16.187  0.1170 -0.3610  0.2562
  706TMC3    O110447   3.434   2.824  16.011  0.7025 -0.4796 -0.1078
  706TMC3    O210448   3.669   3.410  16.126  0.8202  0.3467 -0.5089
  707TMC3    C110449   0.075   1.394   2.013 -0.5442  0.0828  0.5089
  707TMC3    C210450   0.062   1.465   1.899  0.0836  0.6060  0.0478
  707TMC3    C310451   4.661   1.470   1.833 -0.3394  0.0376  0.5835
  707TMC3    C410452   4.686   1.333   2.075  0.4215  0.4808 -0.2015
  707TMC3    C510453   4.566   1.345   2.004 -0.2442  0.2404  0.1204
  707TMC3    C610454   4.552   1.413   1.892  0.4246 -0.4019  0.5161
  707TMC3     C10455   0.206   1.352   2.045  0.3575  0.3568 -0.3608
  707TMC3     O10456   0.291   1.418   1.989 -0.1812  0.1893  0.1734
  707TMC3     H10457   0.144   1.508   1.843 -0.4029  1.0149 -0.3568
  707TMC3    H110458   4.686   1.279   2.169  0.3748 -0.3079 -0.6537
  707TMC3    H210459   4.458   1.407   1.838 -0.7256 -1.7129  2.6777
  707TMC3    C710460   4.455   1.271   2.054 -0.6688  0.0284 -0.2212
  707TMC3    C810461   4.682   1.487   1.698 -0.2406  0.1805  0.2067
  707TMC3    O110462   4.457   1.244   2.175 -0.0032  0.4674  0.0604
  707TMC3    O210463   0.066   1.468   1.641 -0.0999  0.5201 -0.5262
  708MPD2     C10464   1.851   1.388  13.587  0.1130  0.9703  0.5429
  708MPD2    C110465   1.723   1.419  13.540  0.0691  0.3962 -0.7767
  708MPD2    C210466   1.608   1.396  13.622  0.6156  0.6740  0.5445
  708MPD2    C310467   1.626   1.325  13.738  0.3136  0.7257  0.4244
  708MPD2    C410468   1.752   1.278  13.773 -0.7884  0.3084 -0.5948
  708MPD2    C510469   1.861   1.317  13.701 -0.2398  0.0067  0.2701
  708MPD2     H10470   1.512   1.428  13.583  0.9794  0.1283 -0.7942
  708MPD2    H110471   1.777   1.220  13.861  0.2285  0.6558 -0.6509
  708MPD2    H210472   1.940   1.410  13.529 -1.6216 -1.0665 -2.9223
  708MPD2    H310473   1.961   1.282  13.725  0.3238  1.6024  0.2355
  708MPD2     N10474   1.516   1.287  13.815  0.3172 -1.1554  0.6324
  708MPD2    H510475   1.538   1.245  13.905 -0.6183 -1.7352  0.5964
  708MPD2    N110476   1.709   1.505  13.426  0.1223  0.3204 -0.3157
  708MPD2    H710477   1.788   1.542  13.374  0.3985  1.7905  1.1333
  709TMC3    C110478   1.621   1.626  13.249  0.1454  0.1386  0.1694
  709TMC3    C210479   1.582   1.558  13.133 -0.2259  0.9301 -0.1874
  709TMC3    C310480   1.517   1.631  13.033 -0.8758  0.4367 -0.3757
  709TMC3    C410481   1.561   1.751  13.276 -0.3046 -0.1961 -0.1035
  709TMC3    C510482   1.476   1.800  13.186  0.2631  0.2959 -0.2909
  709TMC3    C610483   1.468   1.755  13.060 -0.8137  0.5379 -0.2111
  709TMC3     C10484   1.592   1.544  13.360 -0.0053 -0.4360  0.1505
  709TMC3     O10485   1.476   1.528  13.386  0.0808  0.0859  0.6704
  709TMC3     H10486   1.606   1.455  13.110  0.9952  1.0036  0.7321
  709TMC3    H110487   1.575   1.791  13.376 -0.4213  1.8784 -0.9327
  709TMC3    H210488   1.399   1.810  12.996 -2.1540 -1.8938 -0.8663
  709TMC3    C710489   1.351   1.843  13.247  1.1455 -0.1851 -0.9757
  709TMC3    C810490   1.507   1.568  12.902  0.4614  0.4106  0.2992
  709TMC3    O110491   1.272   1.916  13.191 -0.0748  0.2220 -0.3991
  709TMC3    O210492   1.528   1.445  12.889  0.2072 -0.1484  0.2477
  710TMC3    C110493   2.403   2.898   0.417 -0.0068 -0.3700  0.8671
  710TMC3    C210494   2.446   2.814   0.319  0.0096  0.8594  0.0659
  710TMC3    C310495   2.565   2.765   0.321  0.5482 -0.0119 -0.0276
  710TMC3    C410496   2.482   2.934   0.525  0.2707  0.0699  0.2142
  710TMC3    C510497   2.607   2.875   0.526  0.4804 -0.4376  0.1362
  710TMC3    C610498   2.641   2.793   0.423 -0.4417 -0.0957  0.0705
  710TMC3     C10499   2.262   2.921   0.410  0.6274  0.4713  0.0753
  710TMC3     O10500   2.193   2.845   0.343 -0.1594  0.3204  0.2076
  710TMC3     H10501   2.381   2.786   0.236  0.2628 -0.7295  0.4053
  710TMC3    H110502   2.439   2.966   0.619  0.7646  0.4060  0.3312
  710TMC3    H210503   2.740   2.749   0.426  0.0163  0.9193 -0.5030
  710TMC3    C710504   2.667   2.844   0.652  0.0004 -0.3088 -0.1063
  710TMC3    C810505   2.609   2.655   0.238 -0.7924  0.4856  0.1080
  710TMC3    O110506   2.740   2.743   0.650 -0.3224 -0.0823  0.3491
  710TMC3    O210507   2.661   2.570   0.310  0.1801 -0.3188 -0.0408
  711TMC3    C110508   2.416   3.380  15.085  0.0440  0.3299 -0.1725
  711TMC3    C210509   2.408   3.478  15.184 -0.2729  0.1120  0.1878
  711TMC3    C310510   2.497   3.465  15.286  0.0460  0.1330 -1.1167
  711TMC3    C410511   2.511   3.284  15.088 -0.0436 -0.8837  0.5213
  711TMC3    C510512   2.599   3.283  15.190  0.1104  0.1780  0.5401
  711TMC3    C610513   2.600   3.376  15.285 -0.2297  0.5177 -0.4507
  711TMC3     C10514   2.326   3.381  14.970  0.1886  0.1992 -0.0372
  711TMC3     O10515   2.314   3.279  14.903  0.1245  0.2417 -0.9005
  711TMC3     H10516   2.318   3.531  15.211 -0.2730  0.3003 -0.1742
  711TMC3    H110517   2.532   3.227  14.998 -2.0400  0.3104 -0.6997
  711TMC3    H210518   2.671   3.358  15.365 -0.2619  0.7730 -0.3667
  711TMC3    C710519   2.705   3.187  15.198  1.1795  0.3393  0.4143
  711TMC3    C810520   2.485   3.555  15.401 -0.2156 -0.3911 -0.3060
  711TMC3    O110521   2.804   3.221  15.260  0.0314  0.0018  0.4554
  711TMC3    O210522   2.372   3.599  15.422 -0.1966  0.4996 -0.5879
  712MPD2     C10523   3.840   0.410  13.123  0.4068 -0.2497 -0.4163
  712MPD2    C110524   3.789   0.456  13.253 -0.4402  0.1510  0.1236
  712MPD2    C210525   3.876   0.521  13.341  0.1367 -0.2060 -0.3179
  712MPD2    C310526   4.011   0.543  13.315  0.1147  0.1221  0.2214
  712MPD2    C410527   4.056   0.474  13.204 -0.4051  0.0337 -0.6133
  712MPD2    C510528   3.977   0.418  13.108  0.7696  0.5642 -0.1260
  712MPD2     H10529   3.836   0.538  13.441  0.6647  1.2161 -0.3586
  712MPD2    H110530   4.163   0.479  13.188 -0.3657 -1.5161 -0.7925
  712MPD2    H210531   3.777   0.357  13.053 -1.6021  0.0377  1.1872
  712MPD2    H310532   4.026   0.376  13.020  0.1984 -0.1536 -0.0983
  712MPD2     N10533   4.100   0.605  13.408 -0.5468  0.4081  0.4340
  712MPD2    H510534   4.200   0.602  13.387 -0.3516  0.8505  1.2986
  712MPD2    N110535   3.659   0.438  13.296  0.4778  0.4747 -0.4382
  712MPD2    H710536   3.634   0.477  13.386  1.3328 -0.9167  0.3873
  713TMC3    C110537   4.159   0.758  13.577  0.7555  0.1501 -0.3023
  713TMC3    C210538   4.291   0.741  13.560 -0.7970 -0.0951 -0.2348
  713TMC3    C310539   4.377   0.813  13.638 -0.3186 -0.4083 -0.6652
  713TMC3    C410540   4.108   0.848  13.673  0.3718  0.5683  0.6991
  713TMC3    C510541   4.198   0.921  13.742  0.5836  0.5882 -0.1001
  713TMC3    C610542   4.334   0.893  13.740  0.2632  0.7721 -0.0616
  713TMC3     C10543   4.058   0.684  13.506 -0.1812  0.7801  0.4431
  713TMC3     O10544   3.943   0.715  13.525  0.4742  0.3039  0.2282
  713TMC3     H10545   4.326   0.675  13.482 -0.0801  0.3552 -0.2980
  713TMC3    H110546   4.006   0.854  13.710 -0.2748  2.6527 -1.4463
  713TMC3    H210547   4.401   0.965  13.787  0.3735 -1.8174  3.7365
  713TMC3    C710548   4.154   1.033  13.827  0.2327  0.3087  1.2334
  713TMC3    C810549   4.486   0.862  13.551  1.3168 -0.2663 -0.3479
  713TMC3    O110550   4.237   1.088  13.903  0.0011 -0.7127  0.0838
  713TMC3    O210551   4.497   0.828  13.434 -0.2868 -0.1943 -0.0512
  714MPD2     C10552   0.998   2.538   1.608 -0.1439 -0.3639 -0.5576
  714MPD2    C110553   0.998   2.674   1.603  0.0770  0.2904  0.6276
  714MPD2    C210554   0.881   2.734   1.565  0.5291 -0.2918 -0.1729
  714MPD2    C310555   0.766   2.660   1.542  0.0645  0.0834 -0.0682
  714MPD2    C410556   0.763   2.526   1.556 -0.6446  0.1402 -0.0237
  714MPD2    C510557   0.886   2.466   1.573 -0.7483 -0.1541 -0.2995
  714MPD2     H10558   0.882   2.840   1.543  1.0265 -0.6975 -2.1305
  714MPD2    H110559   0.672   2.469   1.548  0.6683 -2.2085  2.0218
  714MPD2    H210560   1.087   2.485   1.640  1.4627  2.3366 -0.5426
  714MPD2    H310561   0.893   2.359   1.587  1.8023 -0.1605 -1.6148
  714MPD2     N10562   0.651   2.730   1.500  0.4730  0.7800  0.8500
  714MPD2    H510563   0.655   2.831   1.491 -0.6123  0.7013 -0.4125
  714MPD2    N110564   1.108   2.736   1.656 -0.6922  0.0515 -0.5890
  714MPD2    H710565   1.185   2.684   1.697 -1.5985 -1.8545 -1.2862
  715TMC3    C110566   1.255   2.910   1.720  0.2563  0.3071 -0.1117
  715TMC3    C210567   1.349   2.859   1.630  0.2902 -1.2400  0.1218
  715TMC3    C310568   1.437   2.951   1.580 -0.5560 -0.2116  0.4937
  715TMC3    C410569   1.255   3.041   1.758 -0.3303 -0.7062  0.2460
  715TMC3    C510570   1.355   3.126   1.710  0.4165 -0.5776  0.2577
  715TMC3    C610571   1.444   3.079   1.621 -0.2462  0.2962  0.2767
  715TMC3     C10572   1.115   2.870   1.684  0.5931 -0.0378  0.4685
  715TMC3     O10573   1.034   2.960   1.662 -0.1510  0.4540 -0.1914
  715TMC3     H10574   1.334   2.769   1.572  1.2751 -0.1991 -1.7428
  715TMC3    H110575   1.184   3.075   1.833 -1.2625  1.0199 -1.4359
  715TMC3    H210576   1.529   3.141   1.595  1.8348 -2.1074  1.3292
  715TMC3    C710577   1.367   3.267   1.740  0.0854  0.2674 -0.3110
  715TMC3    C810578   1.535   2.901   1.476 -0.0758  0.5214 -0.0956
  715TMC3    O110579   1.475   3.317   1.721  0.2772 -0.1178  0.2771
  715TMC3    O210580   1.502   2.809   1.409  0.1978  0.0163 -0.2662
  716MPD2     C10581   1.388   3.180   9.871  0.1484 -0.1065  0.3633
  716MPD2    C110582   1.276   3.124   9.821  0.1659 -0.2902 -0.7872
  716MPD2    C210583   1.266   2.994   9.790  0.7020  0.1310  0.5218
  716MPD2    C310584   1.374   2.906   9.818  0.2031  0.1758  0.4663
  716MPD2    C410585   1.486   2.958   9.878 -0.7361  0.7258 -0.1570
  716MPD2    C510586   1.486   3.089   9.904  0.0512 -0.2549 -0.0181
  716MPD2     H10587   1.175   2.954   9.746 -1.1101  2.0532  2.5653
  716MPD2    H110588   1.566   2.889   9.906  1.4115  2.3390 -2.3270
  716MPD2    H210589   1.400   3.286   9.888  0.4919  0.0140 -0.6178
  716MPD2    H310590   1.578   3.134   9.941 -0.1830 -0.4337  0.7912
  716MPD2     N10591   1.350   2.770   9.786  0.1519  0.8784 -0.0217
  716MPD2    H510592   1.255   2.739   9.769  0.2852 -0.2106  1.1985
  716MPD2    N110593   1.178   3.223   9.794 -0.3622 -0.0751  0.0833
  716MPD2    H710594   1.206   3.316   9.825 -0.4599 -0.3947  1.1412
  717TMC3    C110595   1.379   2.537   9.771 -0.9573  0.6152 -0.2025
  717TMC3    C210596   1.288   2.531   9.670  0.0230 -0.4989  0.0906
  717TMC3    C310597   1.236   2.407   9.649 -0.5326 -0.9845  0.2549
  717TMC3    C410598   1.438   2.424   9.823 -0.0782 -1.0238  0.5296
  717TMC3    C510599   1.386   2.301   9.797  0.5834 -0.1441 -0.5456
  717TMC3    C610600   1.275   2.299   9.719  0.8324 -0.3949 -0.2548
  717TMC3     C10601   1.441   2.669   9.794 -0.5544 -0.0638  0.0666
  717TMC3     O10602   1.561   2.665   9.819  0.2584 -0.1827  0.0099
  717TMC3     H10603   1.262   2.610   9.600  1.7924 -1.6133 -1.8032
  717TMC3    H110604   1.535   2.438   9.869  0.7183 -2.1662 -0.8267
  717TMC3    H210605   1.231   2.202   9.699 -0.3854  0.6598 -2.6006
  717TMC3    C710606   1.435   2.177   9.852  0.8105 -0.2505 -0.5136
  717TMC3    C810607   1.143   2.389   9.541 -0.0112  0.5018 -0.2045
  717TMC3    O110608   1.399   2.073   9.795  0.0431 -0.1011  0.6081
  717TMC3    O210609   1.146   2.473   9.452 -0.3683 -0.2329 -0.1122
  718MPD2     C10610   0.195   1.223  12.608 -0.2177  0.1031  0.2399
  718MPD2    C110611   0.092   1.159  12.542 -0.1370 -0.4065 -0.0883
  718MPD2    C210612   0.006   1.075  12.620  0.2070  0.7227 -0.1008
  718MPD2    C310613   0.009   1.072  12.753 -0.1194  0.1104 -0.0674
  718MPD2    C410614   0.100   1.154  12.818 -0.0295  0.3624  0.2704
  718MPD2    C510615   0.193   1.226  12.749  0.3043 -0.3839  0.3120
  718MPD2     H10616   4.661   1.006  12.571 -0.7393  1.4778  0.1678
  718MPD2    H110617   0.113   1.140  12.925 -2.0445  2.5303  0.7882
  718MPD2    H210618   0.261   1.289  12.552 -0.3115  0.2789  0.3334
  718MPD2    H310619   0.270   1.275  12.808 -0.5950  2.6776 -1.0856
  718MPD2     N10620   4.645   0.976  12.811  0.0399 -0.4037  0.4147
  718MPD2    H510621   4.602   0.907  12.750 -1.6917  0.4530  0.6705
  718MPD2    N110622   0.067   1.182  12.405  0.0029 -0.7099 -0.6531
  718MPD2    H710623   0.138   1.229  12.349  0.7375 -2.4958 -1.2510
  719TMC3    C110624   4.671   1.163  12.198 -0.4455  0.2265  0.5279
  719TMC3    C210625   4.545   1.153  12.150 -1.0293 -0.4045  0.1312
  719TMC3    C310626   4.515   1.077  12.040 -0.1310  1.2833 -0.2634
  719TMC3    C410627   0.055   1.118  12.120 -0.0910  0.1456  0.6298
  719TMC3    C510628   0.024   1.052  12.005 -0.9380 -0.3400 -0.6174
  719TMC3    C610629   4.618   1.024  11.962 -0.0676 -0.6093  0.6346
  719TMC3     C10630   4.669   1.147  12.345  0.8040  0.1607 -0.3111
  719TMC3     O10631   4.565   1.108  12.393  0.7635 -0.1536  0.4260
  719TMC3     H10632   4.463   1.186  12.213 -2.4722  0.0474 -2.0045
  719TMC3    H110633   0.156   1.132  12.156  0.8114 -1.7975 -1.1312
  719TMC3    H210634   4.591   0.952  11.885  0.7948 -0.2465 -0.0069
  719TMC3    C710635   0.118   1.058  11.899 -0.2606  0.2826 -0.3061
  719TMC3    C810636   4.404   0.984  12.055 -0.6707 -0.1452  0.2789
  719TMC3    O110637   0.192   1.154  11.897  0.2068 -0.6623  0.1703
  719TMC3    O210638   4.375   0.913  11.963 -0.4419  0.1495 -0.2532
  720MPD2     C10639   3.477   2.434  13.978  0.2016  0.1717 -0.1322
  720MPD2    C110640   3.571   2.407  13.884 -0.3297 -0.9582  0.2601
  720MPD2    C210641   3.686   2.336  13.921 -0.2448  0.2404 -0.0792
  720MPD2    C310642   3.708   2.294  14.052 -0.3139 -0.4541  0.2597
  720MPD2    C410643   3.599   2.305  14.139 -0.4758 -0.3330 -0.4802
  720MPD2    C510644   3.488   2.376  14.105 -0.6266  0.0985  0.3998
  720MPD2     H10645   3.758   2.326  13.840  0.1369 -1.3969  0.4536
  720MPD2    H110646   3.604   2.271  14.242 -0.1773  2.1388  0.3361
  720MPD2    H210647   3.388   2.494  13.964 -0.2117 -0.3012  0.4273
  720MPD2    H310648   3.419   2.387  14.188 -0.5870  3.8829 -0.0577
  720MPD2     N10649   3.829   2.239  14.086  0.5905  0.1015  0.3330
  720MPD2    H510650   3.904   2.248  14.018 -1.0846  4.0609 -0.9790
  720MPD2    N110651   3.569   2.455  13.749  0.2898  0.1524  0.0255
  720MPD2    H710652   3.644   2.433  13.684 -0.0540  1.8118 -0.9354
  721TMC3    C110653   4.005   2.229  14.250 -0.0445  0.4203  0.1059
  721TMC3    C210654   4.052   2.197  14.375  0.1113  0.4875  0.1423
  721TMC3    C310655   4.177   2.233  14.418 -0.4404  0.1235  0.5713
  721TMC3    C410656   4.093   2.294  14.162  0.1236 -0.9498  0.0442
  721TMC3    C510657   4.218   2.328  14.204 -0.2427  0.0342 -0.3019
  721TMC3    C610658   4.261   2.298  14.336  0.7795  0.7156  0.4261
  721TMC3     C10659   3.869   2.195  14.213 -0.3470  0.5728  0.0473
  721TMC3     O10660   3.797   2.158  14.303 -0.4718  0.3493 -0.6388
  721TMC3     H10661   3.974   2.144  14.430 -0.9025 -0.0723 -1.8229
  721TMC3    H110662   4.051   2.328  14.067  0.8547 -1.0832 -0.3264
  721TMC3    H210663   4.357   2.332  14.373  0.7358  0.0392  1.1594
  721TMC3    C710664   4.313   2.387  14.116  0.4393  0.0540 -0.3166
  721TMC3    C810665   4.203   2.234  14.559  0.8043  0.8579 -0.4303
  721TMC3    O110666   4.428   2.386  14.154  0.4874 -0.6154 -0.2992
  721TMC3    O210667   4.312   2.269  14.598  0.2657 -0.5214 -0.1771
  722MPD2     C10668   2.998   1.129  13.778 -0.5479 -0.2674  0.3670
  722MPD2    C110669   2.973   1.213  13.669  0.1542 -0.3362  0.2710
  722MPD2    C210670   2.872   1.179  13.587  0.1916 -1.1294 -0.1844
  722MPD2    C310671   2.786   1.078  13.616 -0.3515  0.1080 -0.2708
  722MPD2    C410672   2.802   1.004  13.730 -0.4856 -0.3845  0.0228
  722MPD2    C510673   2.912   1.028  13.808  0.4406 -0.7246 -0.0153
  722MPD2     H10674   2.867   1.241  13.499  2.8971 -0.0694  0.4173
  722MPD2    H110675   2.737   0.922  13.758 -0.3930  0.1100  1.6405
  722MPD2    H210676   3.085   1.140  13.842 -0.7932 -0.6523  0.7699
  722MPD2    H310677   2.912   0.964  13.895  1.1366 -1.3625 -0.4896
  722MPD2     N10678   2.692   1.045  13.518  0.9801  0.0018 -0.1628
  722MPD2    H510679   2.682   1.111  13.442  2.2473  0.0863 -0.2535
  722MPD2    N110680   3.069   1.310  13.622  0.0314  0.8732 -0.3379
  722MPD2    H710681   3.060   1.348  13.528 -1.1866  0.5990 -0.3299
  723TMC3    C110682   2.494   0.953  13.430  0.6621  0.0957  0.0410
  723TMC3    C210683   2.443   0.833  13.392  0.0601 -0.0639  0.1913
  723TMC3    C310684   2.368   0.825  13.277 -0.0728  0.1874 -0.1798
  723TMC3    C410685   2.474   1.070  13.356 -0.0051  0.5002 -0.7079
  723TMC3    C510686   2.393   1.057  13.243  0.1693 -1.2117  0.5292
  723TMC3    C610687   2.330   0.941  13.213 -0.0830 -0.5900 -0.3990
  723TMC3     C10688   2.596   0.944  13.524  0.1991  0.1483  0.5059
  723TMC3     O10689   2.578   0.858  13.614 -0.0059  0.0396 -0.5484
  723TMC3     H10690   2.459   0.742  13.448  1.1534 -0.4370 -0.7340
  723TMC3    H110691   2.522   1.164  13.377  0.4834 -0.4622  2.4452
  723TMC3    H210692   2.268   0.927  13.125  0.2992 -0.5016 -0.6826
  723TMC3    C710693   2.374   1.179  13.155 -0.7523  0.7083  1.1113
  723TMC3    C810694   2.280   0.714  13.268  0.4297 -0.2859 -0.4114
  723TMC3    O110695   2.437   1.275  13.189  0.2759  0.0029  0.8427
  723TMC3    O210696   2.268   0.648  13.370 -0.4858  0.4860 -0.3720
  724TMC3    C110697   2.150   4.187  10.250 -0.5239 -0.8473 -0.2239
  724TMC3    C210698   2.073   4.216  10.139  0.2271 -0.3573  0.0621
  724TMC3    C310699   2.124   4.307  10.049 -1.0724  0.2227  0.4499
  724TMC3    C410700   2.257   4.265  10.284 -0.7245  0.2493  0.2631
  724TMC3    C510701   2.286   4.371  10.199  0.4284 -0.8415 -0.5009
  724TMC3    C610702   2.215   4.404  10.084 -0.3809  0.1338  0.0566
  724TMC3     C10703   2.105   4.087  10.344  0.2198 -0.5716 -0.1621
  724TMC3     O10704   1.986   4.061  10.340  0.3496 -0.1416  0.9368
  724TMC3     H10705   2.011   4.136  10.100  0.6773 -1.5419  1.7890
  724TMC3    H110706   2.321   4.247  10.369 -0.8453  0.3233  0.3713
  724TMC3    H210707   2.244   4.484  10.016  1.6111 -1.4716 -0.9611
  724TMC3    C710708   2.407   4.448  10.214  0.3691 -0.4579  0.2562
  724TMC3    C810709   2.054   4.313   9.926  0.9022 -0.1405  0.0450
  724TMC3    O110710   2.467   4.476  10.111 -0.1595  0.1993 -0.1375
  724TMC3    O210711   1.945   4.263   9.917  0.6259  0.8044  0.2561
  725TMC3    C110712   4.314   2.751  12.879 -0.0025 -0.1269 -1.1956
  725TMC3    C210713   4.201   2.811  12.829 -0.5201 -0.2247 -0.0579
  725TMC3    C310714   4.083   2.755  12.873 -0.8643 -0.1204  0.3608
  725TMC3    C410715   4.313   2.653  12.972  0.4528 -0.5224  0.3392
  725TMC3    C510716   4.191   2.596  13.012 -0.2709  0.0232 -0.4325
  725TMC3    C610717   4.074   2.652  12.965  0.4576 -0.5482 -0.4379
  725TMC3     C10718   4.417   2.852  12.901  0.6472  0.2373 -0.7389
  725TMC3     O10719   4.377   2.967  12.886 -0.0452 -0.3149  0.2659
  725TMC3     H10720   4.206   2.900  12.766 -0.8035 -0.7307 -0.8007
  725TMC3    H110721   4.404   2.595  12.987 -1.0566 -2.2057  2.9873
  725TMC3    H210722   3.979   2.606  12.988 -1.4434  3.1230 -0.9946
  725TMC3    C710723   4.198   2.465  13.057  0.4930 -0.6492 -0.0675
  725TMC3    C810724   3.975   2.762  12.776  0.1201  0.3383  0.2061
  725TMC3    O110725   4.271   2.439  13.151 -0.4444  0.4250  0.0854
  725TMC3    O210726   3.865   2.723  12.812 -0.4291  0.1451  0.7909
  726MPD2     C10727   1.573   4.596  10.191  0.4304 -0.4826  0.4054
  726MPD2    C110728   1.613   4.657  10.312 -0.0221  0.0400  0.6915
  726MPD2    C210729   1.533   4.648  10.430 -0.5087 -0.9520  0.1929
  726MPD2    C310730   1.424   4.571  10.436 -0.1380 -0.4293 -0.0777
  726MPD2    C410731   1.389   4.506  10.317  0.1775  0.0274  0.4351
  726MPD2    C510732   1.463   4.522  10.199 -0.8607  0.4825 -0.0963
  726MPD2     H10733   1.556   4.722  10.506  1.5216 -1.1221 -0.2393
  726MPD2    H110734   1.302   4.442  10.311 -0.1917  0.8988 -3.0614
  726MPD2    H210735   1.615   4.604  10.091 -0.3518 -0.7226  0.0609
  726MPD2    H310736   1.427   4.492  10.101  0.9459 -0.4504 -0.4560
  726MPD2     N10737   1.345   4.550  10.547 -0.4806  0.2411  0.3245
  726MPD2    H510738   1.264   4.490  10.537 -0.7314  1.1305 -2.8376
  726MPD2    N110739   1.730   0.018  10.321  0.7463  0.2964  0.7486
  726MPD2    H710740   1.753   0.053  10.413 -0.0271  2.4027  0.1305
  727TMC3    C110741   1.882   0.179  10.234 -0.1636 -0.8384 -0.0206
  727TMC3    C210742   1.943   0.200  10.357 -0.0458 -0.5288 -0.2042
  727TMC3    C310743   2.005   0.319  10.375 -0.1421  0.4439 -0.4562
  727TMC3    C410744   1.903   0.264  10.131  0.1528 -0.6672 -0.5949
  727TMC3    C510745   1.981   0.376  10.155  0.2577  0.4878 -0.1977
  727TMC3    C610746   2.021   0.416  10.277  0.2233 -0.3836 -0.4064
  727TMC3     C10747   1.790   0.073  10.208 -0.6333 -0.4758  0.2115
  727TMC3     O10748   1.746   0.068  10.094  0.5081  0.3673  0.6471
  727TMC3     H10749   1.941   0.122  10.433  0.4917  0.4703  0.8315
  727TMC3    H110750   1.867   0.240  10.031 -2.0238 -2.1164  0.5601
  727TMC3    H210751   2.047   0.518  10.303  0.3076  0.0234 -2.0903
  727TMC3    C710752   2.078   0.411  10.059 -0.4637  0.3874  0.6739
  727TMC3    C810753   2.108   0.328  10.469 -0.1405  0.2232  0.1636
  727TMC3    O110754   2.051   0.426   9.940  0.1753 -0.7991 -0.2030
  727TMC3    O210755   2.211   0.372  10.424  0.9449  0.6244  0.2929
  728TMC3    C110756   1.674   2.327  15.207 -0.0909  1.2452 -0.0836
  728TMC3    C210757   1.810   2.333  15.199 -0.2279 -0.2754 -0.1932
  728TMC3    C310758   1.874   2.396  15.097  0.6716  0.2173 -0.8242
  728TMC3    C410759   1.598   2.385  15.110 -0.5227  0.4989 -0.2287
  728TMC3    C510760   1.660   2.447  15.006 -0.8711 -0.2299 -0.2594
  728TMC3    C610761   1.797   2.457  15.001  0.2398  0.5174 -0.0270
  728TMC3     C10762   1.612   2.305  15.333  0.4254  0.0893  0.2432
  728TMC3     O10763   1.678   2.239  15.414  0.5699 -0.5368 -0.3949
  728TMC3     H10764   1.869   2.290  15.280 -0.7403  0.6949  0.6980
  728TMC3    H110765   1.490   2.371  15.106 -0.4637  0.2520 -0.9184
  728TMC3    H210766   1.859   2.513  14.932  3.0424 -1.7004  0.6823
  728TMC3    C710767   1.584   2.508  14.898 -0.1446  0.7819  0.0964
  728TMC3    C810768   2.010   2.433  15.124 -0.0599 -0.0938 -0.3668
  728TMC3    O110769   1.469   2.473  14.883 -0.5324  0.0779 -0.4692
  728TMC3    O210770   2.046   2.432  15.241 -0.9606  0.1438  0.0873
  729MPD2     C10771   3.494   3.846   0.396  0.5259 -0.4171 -0.3558
  729MPD2    C110772   3.558   3.823   0.282  0.4437 -0.3881 -0.4211
  729MPD2    C210773   3.683   3.881   0.261 -0.4768  0.0778  0.2115
  729MPD2    C310774   3.730   3.970   0.354 -0.4598 -0.2612 -0.4587
  729MPD2    C410775   3.660   4.001   0.467  0.1770  0.0600  0.5270
  729MPD2    C510776   3.548   3.929   0.491 -0.4634  0.3943 -0.1706
  729MPD2     H10777   3.743   3.849   0.176  1.6390  1.2957  1.2327
  729MPD2    H110778   3.692   4.082   0.532 -0.4326  0.4839  0.3073
  729MPD2    H210779   3.394   3.807   0.412 -0.0238  0.6364 -1.2278
  729MPD2    H310780   3.489   3.958   0.577 -1.0976 -4.1969  0.9216
  729MPD2     N10781   3.851   4.045   0.329  0.3812  0.3183 -0.6429
  729MPD2    H510782   3.882   4.111   0.400  1.3959  0.4735 -1.2260
  729MPD2    N110783   3.495   3.745   0.184  0.5126  0.2841 -0.3744
  729MPD2    H710784   3.404   3.707   0.205  0.8723 -0.0469  0.5722
  730TMC3    C110785   3.998   4.154   0.204 -0.0433  0.3251  0.0531
  730TMC3    C210786   4.111   4.145   0.130 -0.8171  0.4998 -0.0707
  730TMC3    C310787   4.156   4.256   0.065 -0.0055  0.4925  0.4677
  730TMC3    C410788   3.921   4.275   0.197  0.0706  0.5463  0.8863
  730TMC3    C510789   3.960   4.372   0.111  0.0314  0.1380  0.4571
  730TMC3    C610790   4.083   4.367   0.042 -0.0105 -0.2488 -0.3822
  730TMC3     C10791   3.930   4.034   0.218 -0.1789  0.1953  0.1755
  730TMC3     O10792   3.930   3.962   0.120 -0.2442 -0.0147  0.1854
  730TMC3     H10793   4.163   4.050   0.127 -1.9016 -0.0660 -1.3486
  730TMC3    H110794   3.817   4.280   0.229 -0.7295 -1.4304 -1.3729
  730TMC3    H210795   4.113   4.451  17.675 -0.6982  1.7105  1.9099
  730TMC3    C710796   3.858   4.455   0.042  0.3188  0.0104  0.4294
  730TMC3    C810797   4.265   4.222  17.672  0.7049  0.9520 -0.4903
  730TMC3    O110798   3.883   4.485  17.623 -0.2126  0.1814  0.1563
  730TMC3    O210799   4.342   4.136   0.014 -0.8856 -0.3792 -0.2033
  731MPD2     C10800   3.389   1.587  11.491  0.2111  1.0051 -0.3801
  731MPD2    C110801   3.517   1.647  11.491  0.3142 -0.2033  0.7539
  731MPD2    C210802   3.603   1.592  11.584  0.4351  0.8743  0.1882
  731MPD2    C310803   3.572   1.473  11.649 -1.0619  0.3462  0.3113
  731MPD2    C410804   3.442   1.420  11.644 -0.9386 -0.5276  0.0710
  731MPD2    C510805   3.351   1.473  11.565  0.0642  0.1875  0.2138
  731MPD2     H10806   3.706   1.625  11.578  0.2785  1.4176  0.4542
  731MPD2    H110807   3.413   1.324  11.686  2.5638 -1.2246  0.8571
  731MPD2    H210808   3.305   1.630  11.438 -0.9347  1.9025  2.1791
  731MPD2    H310809   3.256   1.424  11.553  0.1627 -0.0728  0.4942
  731MPD2     N10810   3.673   1.413  11.730 -0.0870 -0.0418 -0.0634
  731MPD2    H510811   3.766   1.452  11.715  0.4236  0.1695  3.4731
  731MPD2    N110812   3.540   1.765  11.419 -0.2348  0.3644  0.3844
  731MPD2    H710813   3.463   1.778  11.354  0.0105  1.1782  0.2533
  732TMC3    C110814   3.588   1.987  11.426 -0.0016 -0.2834  0.4529
  732TMC3    C210815   3.485   2.007  11.339 -0.9318  0.8461 -0.2318
  732TMC3    C310816   3.397   2.117  11.352 -0.7824 -0.5376 -0.7471
  732TMC3    C410817   3.610   2.083  11.524 -0.2582 -0.0954  0.1715
  732TMC3    C510818   3.518   2.184  11.539  0.2162 -0.3428 -0.8361
  732TMC3    C610819   3.423   2.214  11.449 -0.2380 -0.2177 -0.1823
  732TMC3     C10820   3.636   1.858  11.453 -0.1456  0.0856 -1.2336
  732TMC3     O10821   3.740   1.845  11.523  0.5835 -0.1546 -0.2353
  732TMC3     H10822   3.452   1.930  11.270  2.8148 -0.2681 -0.7488
  732TMC3    H110823   3.682   2.070  11.604 -1.1044 -4.1970  0.2726
  732TMC3    H210824   3.349   2.290  11.471 -1.2420 -1.1412 -0.3515
  732TMC3    C710825   3.542   2.281  11.646  0.9593  0.4038 -0.0044
  732TMC3    C810826   3.264   2.071  11.327 -0.8473 -0.0880  0.3897
  732TMC3    O110827   3.525   2.400  11.627  0.3553  0.5904 -0.3831
  732TMC3    O210828   3.246   2.031  11.211 -0.1053  0.2443  0.2226
  733TMC3    C110829   4.285   0.864  12.976 -0.2504 -0.2800  0.2439
  733TMC3    C210830   4.404   0.915  13.019 -0.7274  0.9189 -0.6990
  733TMC3    C310831   4.521   0.864  12.968 -0.1172  0.4548 -0.1718
  733TMC3    C410832   4.289   0.764  12.883  0.1657  0.2600 -1.1126
  733TMC3    C510833   4.409   0.716  12.841 -0.3874  0.5963 -0.1888
  733TMC3    C610834   4.526   0.773  12.871 -0.6650  0.3171 -0.2552
  733TMC3     C10835   4.178   0.953  12.957  0.6871 -0.5936 -0.4494
  733TMC3     O10836   4.114   0.941  12.853  0.1621 -0.1080 -0.6879
  733TMC3     H10837   4.406   1.004  13.082 -2.0655 -2.0166  3.5292
  733TMC3    H110838   4.199   0.721  12.840 -0.4205 -0.7312  1.0997
  733TMC3    H210839   4.623   0.737  12.841 -1.5351 -1.5564 -0.8011
  733TMC3    C710840   4.399   0.658  12.706 -0.3444 -0.3364 -0.0423
  733TMC3    C810841   4.617   0.962  12.945  0.2065 -0.0979 -0.4383
  733TMC3    O110842   4.452   0.549  12.696  0.0658  0.1144 -0.2969
  733TMC3    O210843   4.644   1.036  13.039 -0.2032  0.0916 -0.4076
  734MPD2     C10844   1.814   3.518  12.151  0.2663 -0.7596 -0.5216
  734MPD2    C110845   1.707   3.439  12.122 -0.3897 -0.9288 -0.0326
  734MPD2    C210846   1.689   3.422  11.978  0.1368  0.0243 -0.7704
  734MPD2    C310847   1.762   3.487  11.888  0.5095 -0.1805 -0.2591
  734MPD2    C410848   1.855   3.587  11.925 -0.8451  0.9315 -0.5842
  734MPD2    C510849   1.876   3.604  12.060 -0.3598  0.0484 -0.4021
  734MPD2     H10850   1.624   3.341  11.947  1.8673 -1.8148  0.3937
  734MPD2    H110851   1.914   3.641  11.851 -0.3065  0.8188 -0.2367
  734MPD2    H210852   1.845   3.538  12.252 -0.4226  0.4078 -0.5393
  734MPD2    H310853   1.952   3.672  12.096  1.4481 -2.1885  0.0360
  734MPD2     N10854   1.730   3.459  11.754 -0.5282  0.8139  0.1721
  734MPD2    H510855   1.648   3.401  11.742 -0.8635  1.5601 -1.2194
  734MPD2    N110856   1.634   3.368  12.223 -0.0594 -0.3424 -0.4071
  734MPD2    H710857   1.662   3.362  12.320 -0.2631  0.6926 -0.2889
  735TMC3    C110858   1.455   3.226  12.290  0.6778  0.6761  0.0760
  735TMC3    C210859   1.337   3.179  12.238  0.3937 -0.3077 -0.3728
  735TMC3    C310860   1.322   3.050  12.217 -0.1270  0.4169 -0.1955
  735TMC3    C410861   1.548   3.145  12.347  0.2194  0.5511  0.1575
  735TMC3    C510862   1.524   3.009  12.335 -1.3431  0.1940 -0.6945
  735TMC3    C610863   1.413   2.959  12.265 -0.6083 -0.0283  0.0740
  735TMC3     C10864   1.514   3.302  12.185 -0.4742 -0.2693  0.5795
  735TMC3     O10865   1.454   3.291  12.077 -0.2294  0.6067 -0.0438
  735TMC3     H10866   1.271   3.250  12.190  0.0304 -0.0838  0.4640
  735TMC3    H110867   1.636   3.184  12.398  1.4499 -1.8401 -0.1322
  735TMC3    H210868   1.401   2.853  12.242  1.9359 -1.0255  3.2826
  735TMC3    C710869   1.644   2.923  12.339  0.5098  0.1547 -0.3137
  735TMC3    C810870   1.267   3.019  12.085 -0.0816 -0.8264 -0.4287
  735TMC3    O110871   1.751   2.979  12.311 -0.4024 -0.6631  0.8730
  735TMC3    O210872   1.215   2.910  12.083 -0.1434 -0.3906  0.4706
  736MPD2     C10873   1.672   2.567  12.409 -0.0413  0.6538 -0.3586
  736MPD2    C110874   1.715   2.685  12.357  0.5258 -0.4759  0.1008
  736MPD2    C210875   1.846   2.692  12.317 -0.3653 -0.3442 -0.0490
  736MPD2    C310876   1.929   2.579  12.326  1.0290 -0.1366  0.0272
  736MPD2    C410877   1.882   2.467  12.391 -0.6594  0.6966  0.0406
  736MPD2    C510878   1.751   2.459  12.427  0.9245 -0.0317  0.0589
  736MPD2     H10879   1.871   2.788  12.273 -0.3362 -0.6932 -0.7866
  736MPD2    H110880   1.944   2.379  12.406 -0.5333  0.5839 -1.1479
  736MPD2    H210881   1.566   2.557  12.432  0.2380 -2.5123 -0.4146
  736MPD2    H310882   1.722   2.363  12.470  0.0482  1.6521  3.2020
  736MPD2     N10883   2.061   2.574  12.276 -0.2657 -0.0376  0.7152
  736MPD2    H510884   2.117   2.495  12.305 -1.3790 -0.5990  1.3396
  736MPD2    N110885   1.618   2.786  12.349 -0.0810 -0.5750 -0.6528
  736MPD2    H710886   1.525   2.747  12.359  0.8007 -2.8794 -1.5774
  737TMC3    C110887   2.266   2.636  12.178 -0.2969 -0.7484 -0.0126
  737TMC3    C210888   2.360   2.731  12.160 -0.0486 -0.5907  0.1745
  737TMC3    C310889   2.456   2.721  12.066 -1.1030 -0.3303  1.0728
  737TMC3    C410890   2.279   2.513  12.115 -0.4004 -0.2255  0.5242
  737TMC3    C510891   2.375   2.503  12.018 -0.2206 -0.0894 -0.1306
  737TMC3    C610892   2.464   2.610  11.988  0.1601 -0.0005  0.8470
  737TMC3     C10893   2.128   2.677  12.206  0.2663 -0.2101  0.6584
  737TMC3     O10894   2.087   2.785  12.165 -0.5449 -0.5077 -0.0773
  737TMC3     H10895   2.343   2.816  12.226  2.2281 -0.1533  0.2038
  737TMC3    H110896   2.197   2.442  12.127  0.6544 -1.2281  1.7503
  737TMC3    H210897   2.540   2.608  11.910 -1.2362 -0.6470 -0.5035
  737TMC3    C710898   2.380   2.380  11.945 -0.3484  0.2172 -0.3514
  737TMC3    C810899   2.540   2.830  12.034 -0.0970  0.5102  0.3039
  737TMC3    O110900   2.315   2.289  11.988  0.0958  0.4854 -0.4230
  737TMC3    O210901   2.568   2.900  12.131 -0.0980  0.1051  0.0009
  738MPD2     C10902   3.091   0.940  15.584 -0.1800 -0.2012 -0.0908
  738MPD2    C110903   3.002   0.984  15.485 -0.0270  0.2713  0.4531
  738MPD2    C210904   3.047   1.061  15.378 -0.8411 -0.3144 -0.1782
  738MPD2    C310905   3.181   1.106  15.376 -0.6861  0.8882 -0.2371
  738MPD2    C410906   3.263   1.055  15.477  0.1995  0.0216  0.1867
  738MPD2    C510907   3.220   0.976  15.575  0.2231  0.1299  0.3321
  738MPD2     H10908   2.977   1.086  15.299  1.9407  2.5861 -1.7409
  738MPD2    H110909   3.366   1.087  15.484  0.4376 -0.4721 -0.9671
  738MPD2    H210910   3.069   0.885  15.675  1.4630 -1.7989 -0.6677
  738MPD2    H310911   3.285   0.961  15.660 -1.9766  0.6819  2.1305
  738MPD2     N10912   3.250   1.189  15.276 -0.4422  0.2980 -0.1483
  738MPD2    H510913   3.349   1.213  15.280 -0.5890  1.1519 -1.5502
  738MPD2    N110914   2.872   0.931  15.480 -1.0384 -0.1757 -0.3227
  738MPD2    H710915   2.814   0.941  15.398 -0.8324  3.1646 -0.0697
  739TMC3    C110916   3.261   1.314  15.075 -0.0122  0.0892  0.6186
  739TMC3    C210917   3.195   1.392  14.979 -0.3187 -0.4746  0.1673
  739TMC3    C310918   3.269   1.470  14.894 -0.3854  0.3108 -0.1439
  739TMC3    C410919   3.398   1.322  15.095  0.1309 -0.9457 -0.3645
  739TMC3    C510920   3.466   1.406  15.008  0.1632 -0.3991  0.1547
  739TMC3    C610921   3.408   1.470  14.904 -0.0194  0.4399  0.0409
  739TMC3     C10922   3.177   1.252  15.177  0.5123 -0.0211 -0.1549
  739TMC3     O10923   3.062   1.241  15.145 -0.2508  0.2485 -0.7769
  739TMC3     H10924   3.089   1.383  14.960 -0.1529 -1.0781 -0.4685
  739TMC3    H110925   3.442   1.278  15.184 -2.7146 -0.7211  1.1440
  739TMC3    H210926   3.467   1.516  14.826  0.2062  0.5500  0.2771
  739TMC3    C710927   3.606   1.417  15.029 -1.0313 -0.4002  0.6637
  739TMC3    C810928   3.204   1.529  14.776 -0.2523 -0.3149  0.1274
  739TMC3    O110929   3.664   1.314  15.065 -0.6957  0.2920 -0.1863
  739TMC3    O210930   3.099   1.479  14.741  0.2824 -0.4176 -0.2118
  740TMC3    C110931   3.609   2.720  14.236 -0.3467  0.0765  0.1922
  740TMC3    C210932   3.661   2.683  14.355  0.5443  0.3895 -0.1329
  740TMC3    C310933   3.789   2.645  14.357  0.8242 -0.2660  0.3492
  740TMC3    C410934   3.678   2.721  14.117  0.1961 -1.4804 -0.4964
  740TMC3    C510935   3.812   2.673  14.126  0.1795  0.6842  0.1629
  740TMC3    C610936   3.864   2.626  14.244  0.3268 -0.4341 -0.1463
  740TMC3     C10937   3.466   2.732  14.220  0.8776 -0.2777  0.6526
  740TMC3     O10938   3.425   2.815  14.142  0.1111 -0.5917  0.0372
  740TMC3     H10939   3.598   2.694  14.442  0.8861 -0.4492  0.2227
  740TMC3    H110940   3.625   2.738  14.025  0.0796  0.0106 -0.1436
  740TMC3    H210941   3.969   2.608  14.266  0.7992 -0.7168 -2.5811
  740TMC3    C710942   3.885   2.642  14.006  0.2793  0.3849 -0.3836
  740TMC3    C810943   3.846   2.609  14.487  0.0338  0.0448  0.3322
  740TMC3    O110944   3.991   2.585  14.024  0.0850 -0.4033  0.2533
  740TMC3    O210945   3.912   2.504  14.487  0.5110  0.0540 -0.0416
  741TMC3    C110946   2.964   1.876  14.370  0.9367 -0.6397  0.0460
  741TMC3    C210947   2.869   1.782  14.322 -0.7951 -0.3334 -0.0111
  741TMC3    C310948   2.825   1.686  14.412  0.1329  0.2952 -0.2338
  741TMC3    C410949   2.995   1.881  14.503  0.0950  0.0998  0.0779
  741TMC3    C510950   2.946   1.791  14.589 -0.4008  0.2338 -0.7358
  741TMC3    C610951   2.863   1.686  14.547 -0.5216 -0.4606 -0.4626
  741TMC3     C10952   3.025   1.973  14.283 -0.9215  0.4253  0.1601
  741TMC3     O10953   3.130   2.019  14.320  0.2223 -0.4592 -0.4064
  741TMC3     H10954   2.827   1.782  14.222  0.5357  1.7464 -0.5721
  741TMC3    H110955   3.065   1.953  14.542  0.7249  0.4797 -1.7222
  741TMC3    H210956   2.830   1.611  14.618 -1.6542  0.3006 -0.1732
  741TMC3    C710957   2.959   1.820  14.733 -0.1393 -0.2614 -0.5013
  741TMC3    C810958   2.722   1.591  14.364 -0.1816 -0.3205 -0.4271
  741TMC3    O110959   2.978   1.939  14.760  0.0315 -0.3543 -0.1581
  741TMC3    O210960   2.673   1.601  14.253 -0.3283 -0.4384  0.0409
  742TMC3    C110961   2.641   4.686  15.350  0.1970  0.5149  0.1929
  742TMC3    C210962   2.556   0.001  15.250  0.8646  0.5382 -0.1657
  742TMC3    C310963   2.605   4.721  15.125 -0.1563  0.5597 -0.2406
  742TMC3    C410964   2.756   4.617  15.316  0.5963  0.7958  0.1965
  742TMC3    C510965   2.792   4.604  15.188  0.0010  0.3530  0.6343
  742TMC3    C610966   2.730   4.679  15.093 -0.4890 -0.5404  0.0313
  742TMC3     C10967   2.608   0.002  15.486  0.0015  0.1442  0.1014
  742TMC3     O10968   2.498   0.050  15.500 -0.1711 -0.7443 -0.0698
  742TMC3     H10969   2.466   0.057  15.275 -0.1610 -0.4856 -1.5608
  742TMC3    H110970   2.819   4.565  15.388  0.7603  0.0163 -0.5164
  742TMC3    H210971   2.775   4.683  14.995 -0.1090  0.1154  0.2380
  742TMC3    C710972   2.928   4.566  15.164  0.0403 -0.0611 -0.0378
  742TMC3    C810973   2.508   0.003  15.017  0.2916  0.1439  0.4280
  742TMC3    O110974   2.998   4.633  15.090 -0.3704  0.0082  0.6452
  742TMC3    O210975   2.558   4.689  14.914  0.5841 -0.4449 -0.2906
  743MPD2     C10976   0.526   0.787   1.547  0.1548  0.6549  0.0364
  743MPD2    C110977   0.542   0.782   1.413 -0.1933 -0.4606  0.3004
  743MPD2    C210978   0.633   0.700   1.359 -0.5023 -0.1245  0.1495
  743MPD2    C310979   0.711   0.613   1.437 -0.0164  0.5641 -0.0538
  743MPD2    C410980   0.687   0.608   1.572  0.6378  0.0513 -0.2641
  743MPD2    C510981   0.593   0.693   1.627 -0.0713  0.4378  0.1899
  743MPD2     H10982   0.659   0.700   1.254 -1.4067  2.0321 -0.0778
  743MPD2    H110983   0.738   0.541   1.640  2.8841  0.2015 -1.8107
  743MPD2    H210984   0.453   0.849   1.597 -0.8159  0.7110 -1.4790
  743MPD2    H310985   0.574   0.698   1.734 -1.4678  0.2910 -0.0566
  743MPD2     N10986   0.805   0.529   1.372  0.3789 -0.2176  0.5944
  743MPD2    H510987   0.810   0.534   1.271  0.1622  1.3530  0.6475
  743MPD2    N110988   0.452   0.864   1.341  0.3266  0.0661 -0.0735
  743MPD2    H710989   0.392   0.925   1.395  0.1927  0.2589 -0.4423
  744TMC3    C110990   0.326   0.945   1.154  0.2869 -0.3736  0.2243
  744TMC3    C210991   0.227   0.995   1.237  0.3801  0.1890  0.9353
  744TMC3    C310992   0.142   1.099   1.192  0.4685  0.1062 -0.7389
  744TMC3    C410993   0.331   0.993   1.034 -0.5764  0.7782 -0.0108
  744TMC3    C510994   0.239   1.089   0.987  0.2251 -0.5667 -0.4345
  744TMC3    C610995   0.150   1.148   1.066  0.4601  0.0337  0.0791
  744TMC3     C10996   0.440   0.864   1.207 -0.6931 -0.4662  0.2209
  744TMC3     O10997   0.511   0.819   1.119 -0.7155 -0.6882  0.5956
  744TMC3     H10998   0.225   0.967   1.342 -0.3184 -2.5706  0.1741
  744TMC3    H110999   0.401   0.949   0.963  0.3903  2.5536 -0.1510
  744TMC3    H211000   0.096   1.239   1.043  0.8190 -0.1508 -1.4688
  744TMC3    C711001   0.270   1.153   0.858  0.5770 -0.0407 -1.1482
  744TMC3    C811002   0.062   1.172   1.288 -0.0103  0.3203  0.0041
  744TMC3    O111003   0.386   1.146   0.822 -0.0498  0.0684 -0.0079
  744TMC3    O211004   0.101   1.163   1.401  0.1045  0.5526  0.3079
  745TMC3    C111005   3.423   0.427  13.269 -0.6253  0.4272  0.4376
  745TMC3    C211006   3.402   0.428  13.404 -0.6042  0.3849 -0.0012
  745TMC3    C311007   3.276   0.446  13.453  0.1015 -0.1212 -0.7110
  745TMC3    C411008   3.320   0.451  13.181  0.0192 -0.5334 -0.1146
  745TMC3    C511009   3.197   0.460  13.231 -0.7996 -0.1087  0.0076
  745TMC3    C611010   3.171   0.468  13.365 -0.0679 -0.4875 -0.6495
  745TMC3     C11011   3.556   0.395  13.216  0.2583 -0.5079  0.1232
  745TMC3     O11012   3.548   0.371  13.096 -0.4118  0.3063 -0.0627
  745TMC3     H11013   3.487   0.408  13.467 -0.2729 -0.5939 -0.7502
  745TMC3    H111014   3.325   0.428  13.075  2.6625  0.6653 -0.2724
  745TMC3    H211015   3.071   0.486  13.403 -0.4838  0.4034 -2.1821
  745TMC3    C711016   3.105   0.542  13.159  0.7015 -0.7532 -0.5349
  745TMC3    C811017   3.264   0.453  13.598 -0.0055 -0.6585 -0.5359
  745TMC3    O111018   2.986   0.547  13.196  0.0008 -0.1185  0.6250
  745TMC3    O211019   3.162   0.406  13.643 -0.1418  0.0729  0.0648
  746TMC3    C111020   0.767   2.361  10.806  0.3113  0.0214 -0.0834
  746TMC3    C211021   0.874   2.368  10.715 -0.2606 -0.1122  0.2370
  746TMC3    C311022   0.894   2.246  10.651  0.3098  0.2488 -0.1633
  746TMC3    C411023   0.717   2.247  10.855  0.5620 -0.8031 -0.4620
  746TMC3    C511024   0.739   2.141  10.779 -0.6835  0.6316  0.1887
  746TMC3    C611025   0.823   2.136  10.671  0.5130  0.4267 -0.4456
  746TMC3     C11026   0.711   2.479  10.868  0.1564 -0.8417 -0.0023
  746TMC3     O11027   0.655   2.462  10.974 -0.1886  0.1586  0.1707
  746TMC3     H11028   0.919   2.463  10.690 -1.0558 -0.3986 -2.2477
  746TMC3    H111029   0.638   2.240  10.929 -0.7367 -2.0969 -1.9851
  746TMC3    H211030   0.820   2.041  10.618  0.6898 -0.7594  1.6457
  746TMC3    C711031   0.677   2.008  10.818  0.0046 -0.4770 -0.1473
  746TMC3    C811032   0.986   2.230  10.539  0.6025  0.4942 -0.3172
  746TMC3    O111033   0.643   1.938  10.721  0.0103 -0.7464 -0.4799
  746TMC3    O211034   1.028   2.121  10.503  0.2830  0.3500 -0.4510
  747TMC3    C111035   2.833   2.324  11.000 -0.3990 -0.7525 -0.5168
  747TMC3    C211036   2.750   2.276  11.098  0.5712 -0.2735 -0.7164
  747TMC3    C311037   2.803   2.251  11.223  0.1581 -0.2974  0.2657
  747TMC3    C411038   2.963   2.369  11.031  0.2442  0.0024  0.8363
  747TMC3    C511039   3.007   2.344  11.160 -0.1363  0.2039  0.3298
  747TMC3    C611040   2.926   2.291  11.261  0.2176 -0.0283  0.1995
  747TMC3     C11041   2.774   2.378  10.882 -0.1441 -0.3100  0.3950
  747TMC3     O11042   2.812   2.490  10.851 -0.1143  0.3563 -0.5346
  747TMC3     H11043   2.651   2.240  11.072  0.2330  0.3786 -0.3228
  747TMC3    H111044   3.027   2.388  10.946  0.3692  1.7453  1.3308
  747TMC3    H211045   2.966   2.271  11.360 -3.0321 -1.1307  1.2868
  747TMC3    C711046   3.142   2.382  11.196 -0.4088  0.4323  0.6956
  747TMC3    C811047   2.709   2.189  11.314 -0.0310  0.9875  0.0812
  747TMC3    O111048   3.159   2.403  11.316 -0.1890 -0.0639  0.4570
  747TMC3    O211049   2.633   2.110  11.257  0.4035  0.0819 -0.2423
  748MPD2     C11050   4.516   1.824   1.661 -0.1754 -0.2949  0.0923
  748MPD2    C111051   4.612   1.803   1.755  0.1891 -0.2236 -0.0769
  748MPD2    C211052   0.021   1.792   1.714  0.1317  0.0064  0.5542
  748MPD2    C311053   0.056   1.808   1.582  0.1382 -0.2932 -0.3051
  748MPD2    C411054   4.677   1.837   1.492 -0.3612  0.0703  0.5323
  748MPD2    C511055   4.553   1.842   1.529 -0.4084 -0.5765  0.1486
  748MPD2     H11056   0.098   1.763   1.785  0.7111 -0.0616 -0.1076
  748MPD2    H111057   4.707   1.856   1.389  2.6410  0.3231  1.4472
  748MPD2    H211058   4.412   1.832   1.694 -0.0189  1.0276  0.2859
  748MPD2    H311059   4.472   1.865   1.461 -0.5581  1.2431  0.9451
  748MPD2     N11060   0.193   1.791   1.557  0.1936 -0.2452  0.3734
  748MPD2    H511061   0.241   1.756   1.639  1.4369 -2.3132 -1.2498
  748MPD2    N111062   4.554   1.779   1.882  0.2659  0.0879  0.8038
  748MPD2    H711063   4.453   1.768   1.877  0.8140 -3.8960 -1.5697
  749TMC3    C111064   0.393   1.768   1.424 -0.2590 -0.1177 -0.5963
  749TMC3    C211065   0.451   1.676   1.507 -0.6363  0.1524 -0.0444
  749TMC3    C311066   0.586   1.653   1.480  0.0395 -0.6004 -0.3182
  749TMC3    C411067   0.456   1.825   1.316  0.2330  0.5852  0.0937
  749TMC3    C511068   0.586   1.797   1.293 -0.3679  0.8964  0.1106
  749TMC3    C611069   0.653   1.716   1.382 -0.2886 -0.2451 -0.2760
  749TMC3     C11070   0.252   1.815   1.438  0.4554  0.6893  0.7567
  749TMC3     O11071   0.205   1.865   1.337 -0.4355 -0.1467  0.0657
  749TMC3     H11072   0.399   1.624   1.586 -1.6940 -2.2105 -2.3074
  749TMC3    H111073   0.405   1.896   1.251  1.4561  0.4940 -0.9594
  749TMC3    H211074   0.761   1.706   1.375 -0.0451  1.2984  1.1143
  749TMC3    C711075   0.660   1.879   1.199 -0.3246 -0.4374 -0.2018
  749TMC3    C811076   0.654   1.547   1.559 -0.5808 -0.1184  0.2766
  749TMC3    O111077   0.612   1.992   1.174 -0.5115  0.1524  0.3055
  749TMC3    O211078   0.607   1.515   1.666  0.4059 -0.6978 -0.6988
  750MPD2     C11079   0.846   4.204  11.074  0.5021 -0.2069  0.2370
  750MPD2    C111080   0.736   4.168  11.138  1.0132 -0.4725 -0.3438
  750MPD2    C211081   0.638   4.087  11.077 -0.6316  0.2097 -0.1573
  750MPD2    C311082   0.669   4.037  10.952  0.5308 -0.0263 -0.3461
  750MPD2    C411083   0.784   4.070  10.885  0.8315  0.2011 -0.1865
  750MPD2    C511084   0.871   4.157  10.952  0.0842  0.0522 -0.6187
  750MPD2     H11085   0.539   4.079  11.122  0.1284 -1.1522  1.2706
  750MPD2    H111086   0.817   4.032  10.789  1.5508  1.5656 -0.4882
  750MPD2    H211087   0.923   4.264  11.121 -0.1602  0.8282 -0.0035
  750MPD2    H311088   0.964   4.196  10.913  0.0230 -0.5870 -1.4232
  750MPD2     N11089   0.585   3.949  10.885 -0.1367 -0.3469  0.9851
  750MPD2    H511090   0.615   3.910  10.796  2.2522  0.8081  1.2887
  750MPD2    N111091   0.714   4.228  11.262 -0.2140  0.0110 -0.4048
  750MPD2    H711092   0.777   4.304  11.286  2.2819 -3.0372  2.7485
  751TMC3    C111093   0.399   3.804  10.839  0.2992 -0.2930 -0.4720
  751TMC3    C211094   0.365   3.680  10.886  0.8023  0.1836  0.0666
  751TMC3    C311095   0.362   3.581  10.792  0.2294  0.3474  0.5038
  751TMC3    C411096   0.428   3.837  10.713  0.0576  0.4876 -0.3312
  751TMC3    C511097   0.424   3.732  10.617 -0.5537  0.6599 -0.2144
  751TMC3    C611098   0.389   3.607  10.656  0.0260 -0.7170  0.3315
  751TMC3     C11099   0.462   3.901  10.930  0.2830  0.4456  0.0644
  751TMC3     O11100   0.414   3.901  11.044  0.0653  0.0384  0.0933
  751TMC3     H11101   0.341   3.669  10.991 -2.4565  3.3240 -0.3437
  751TMC3    H111102   0.438   3.942  10.689  0.3225  0.3752 -0.7149
  751TMC3    H211103   0.399   3.521  10.590  0.3366  0.9834 -1.8177
  751TMC3    C711104   0.451   3.758  10.478 -0.0238 -0.8965 -0.1305
  751TMC3    C811105   0.364   3.441  10.834  0.6238  0.6984 -0.4185
  751TMC3    O111106   0.511   3.863  10.457 -0.1283 -0.3372 -0.3764
  751TMC3    O211107   0.433   3.366  10.762 -0.1648  0.6808  0.6454
  752TMC3    C111108   4.078   3.091   0.603 -0.0066 -0.0103 -0.3382
  752TMC3    C211109   4.139   3.215   0.595 -0.4100  0.2137  0.6594
  752TMC3    C311110   4.216   3.249   0.708 -0.5741  0.8638  0.0114
  752TMC3    C411111   4.101   2.997   0.698 -0.3386 -0.0251  0.1435
  752TMC3    C511112   4.179   3.035   0.799  0.6477 -0.1408  0.1758
  752TMC3    C611113   4.229   3.167   0.812  0.8347  0.2853  0.3543
  752TMC3     C11114   4.003   3.041   0.485 -0.2195  0.1145 -1.2181
  752TMC3     O11115   4.008   2.921   0.463 -0.5140 -0.0604 -0.3983
  752TMC3     H11116   4.117   3.269   0.504  0.1040  2.3895  1.8259
  752TMC3    H111117   4.065   2.895   0.691  1.8312 -0.9147  1.9700
  752TMC3    H211118   4.308   3.186   0.884  0.1167 -0.2073  1.2630
  752TMC3    C711119   4.188   2.943   0.910 -0.7974  0.2456  0.4910
  752TMC3    C811120   4.256   3.379   0.725 -0.0204 -0.2985 -0.2947
  752TMC3    O111121   4.141   2.831   0.892 -0.4217  0.1072  0.3206
  752TMC3    O211122   4.308   3.403   0.832  0.1056 -0.2408  0.2809
  753TMC3    C111123   1.917   0.671  13.471 -0.5328 -0.1663 -0.2315
  753TMC3    C211124   2.016   0.617  13.552 -0.1557 -0.0137 -0.1996
  753TMC3    C311125   1.983   0.490  13.600 -0.4538 -0.1003  0.4108
  753TMC3    C411126   1.794   0.604  13.457  1.1026 -0.6203  0.5844
  753TMC3    C511127   1.766   0.490  13.525 -0.1556  0.4726 -0.8311
  753TMC3    C611128   1.860   0.431  13.593 -0.3143 -0.5128  1.0522
  753TMC3     C11129   1.935   0.787  13.388  0.8906 -0.8793  0.4101
  753TMC3     O11130   1.856   0.797  13.293 -0.6936  0.0183  0.0395
  753TMC3     H11131   2.112   0.659  13.581  0.5026 -0.6634 -1.4289
  753TMC3    H111132   1.719   0.662  13.405  1.5215 -0.8938 -0.3446
  753TMC3    H211133   1.858   0.330  13.633 -0.2550 -0.3700  1.4167
  753TMC3    C711134   1.629   0.438  13.519  0.3570  0.1101  0.6062
  753TMC3    C811135   2.090   0.423  13.672 -0.0098 -0.0629  0.5925
  753TMC3    O111136   1.559   0.470  13.422 -0.2829 -0.2334 -0.1590
  753TMC3    O211137   2.207   0.411  13.633 -0.4256  0.1629  0.6062
  754MPD2     C11138   0.825   3.803  13.042  0.1728 -0.0953 -0.5057
  754MPD2    C111139   0.798   3.672  13.002 -0.1883  0.4853 -0.2853
  754MPD2    C211140   0.656   3.636  12.991  0.5372  1.1938 -0.5093
  754MPD2    C311141   0.560   3.728  13.033 -0.7640 -0.1792 -0.1868
  754MPD2    C411142   0.601   3.858  13.059  0.2196  0.6461  0.3458
  754MPD2    C511143   0.729   3.886  13.070 -0.6822  0.3700  0.3106
  754MPD2     H11144   0.621   3.544  12.946  0.6722  0.0137  1.8500
  754MPD2    H111145   0.535   3.943  13.065 -1.9771 -0.9534 -1.2716
  754MPD2    H211146   0.927   3.838  13.054 -0.6207  1.5195  1.4303
  754MPD2    H311147   0.763   3.984  13.105 -2.1644  1.5227 -1.4976
  754MPD2     N11148   0.422   3.696  13.034  0.3476  0.3101  0.5951
  754MPD2    H511149   0.362   3.775  13.051 -0.5828 -0.0377 -1.0377
  754MPD2    N111150   0.908   3.585  12.988  0.2081  0.4580 -0.0821
  754MPD2    H711151   0.997   3.632  12.975  1.2125 -1.3999  0.0277
  755MPD2     C11152   4.532   4.239  13.178 -0.0502  0.0727 -0.4146
  755MPD2    C111153   4.498   4.128  13.256 -0.3251  0.3808  0.0949
  755MPD2    C211154   4.552   4.007  13.223  0.3925 -0.0074  0.0397
  755MPD2    C311155   4.642   3.989  13.117  0.0139  0.6209 -0.7460
  755MPD2    C411156   4.684   4.100  13.042 -0.4231 -0.3551 -0.2477
  755MPD2    C511157   4.625   4.219  13.075 -0.4288  0.1951 -0.2495
  755MPD2     H11158   4.517   3.924  13.283 -1.0349  1.5416  1.3583
  755MPD2    H111159   0.031   4.088  12.960  2.3730 -1.3767  2.3040
  755MPD2    H211160   4.514   4.341  13.209  1.5670  0.2643 -0.1054
  755MPD2    H311161   4.645   4.307  13.015  3.4566 -0.1219  0.6063
  755MPD2     N11162   4.704   3.867  13.094  0.0478 -0.5584 -0.6874
  755MPD2    H511163   0.052   3.866  13.022 -0.2595  2.5151 -1.0444
  755MPD2    N111164   4.449   4.140  13.390  0.3091 -0.7433  0.3335
  755MPD2    H711165   4.439   4.058  13.449  1.5307  0.4426  2.1630
  756MPD2     C11166   0.436   4.054   9.618 -0.1599  0.1617  0.0773
  756MPD2    C111167   0.358   4.132   9.697 -0.1811  1.0518  0.2113
  756MPD2    C211168   0.227   4.124   9.672 -0.1747 -0.0328 -0.0721
  756MPD2    C311169   0.164   4.023   9.597 -0.7247 -0.3591 -0.3234
  756MPD2    C411170   0.250   3.933   9.527  0.3570 -0.3627 -0.3110
  756MPD2    C511171   0.384   3.952   9.545 -0.8734  0.5966 -0.0097
  756MPD2     H11172   0.159   4.185   9.731 -1.7455 -0.6546 -1.2415
  756MPD2    H111173   0.231   3.843   9.470  5.1972 -0.8670 -1.1343
  756MPD2    H211174   0.544   4.058   9.617 -0.1585  0.1388  0.6075
  756MPD2    H311175   0.452   3.881   9.498 -0.8368  1.9717 -2.0189
  756MPD2     N11176   0.020   4.008   9.606  0.4755  0.5249 -0.3194
  756MPD2    H511177   4.697   4.084   9.654  0.2316  0.5032 -0.5223
  756MPD2    N111178   0.401   4.242   9.779 -0.0958  0.1413  0.6050
  756MPD2    H711179   0.321   4.292   9.816  0.1969  0.5649  0.6639
  757MPD2     C11180   4.191   3.193   9.601 -0.0203  0.3642  0.6480
  757MPD2    C111181   4.290   3.219   9.519 -0.6909  0.2029  0.4448
  757MPD2    C211182   4.310   3.350   9.467 -0.1155 -0.0346 -0.1001
  757MPD2    C311183   4.231   3.451   9.524  0.7705  0.7063 -0.0562
  757MPD2    C411184   4.117   3.419   9.603  0.1554 -0.4072 -0.7602
  757MPD2    C511185   4.105   3.289   9.639 -0.6493  0.0073 -0.3875
  757MPD2     H11186   4.389   3.381   9.400  1.9458 -2.6942  1.1035
  757MPD2    H111187   4.049   3.494   9.642 -1.0495 -2.0568  0.2600
  757MPD2    H211188   4.172   3.092   9.636  1.2241 -0.2657 -0.5025
  757MPD2    H311189   4.030   3.274   9.715 -0.4598 -3.1172 -0.8202
  757MPD2     N11190   4.280   3.582   9.498 -0.4003  0.2227  0.0250
  757MPD2    H511191   4.364   3.591   9.443 -1.4361 -1.9834 -1.9115
  757MPD2    N111192   4.369   3.106   9.485  0.1901  0.0570  0.3178
  757MPD2    H711193   4.331   3.015   9.511 -1.9643  0.5202 -1.2002
  758MPD2     C11194   0.707   3.322  15.556 -0.1334 -0.9077  0.5222
  758MPD2    C111195   0.771   3.234  15.636 -0.4170 -0.2731 -0.7632
  758MPD2    C211196   0.732   3.221  15.773  0.5376 -0.0242 -0.3981
  758MPD2    C311197   0.644   3.313  15.820  0.0760  0.3443 -0.3441
  758MPD2    C411198   0.573   3.390  15.735 -0.4393  0.1661 -0.1601
  758MPD2    C511199   0.612   3.403  15.607 -0.1306 -0.0655 -0.2037
  758MPD2     H11200   0.787   3.156  15.839  1.3532 -1.1632 -2.1935
  758MPD2    H111201   0.505   3.468  15.766 -1.6345 -1.0385  0.2185
  758MPD2    H211202   0.750   3.338  15.458 -0.2463 -2.0305  0.2926
  758MPD2    H311203   0.566   3.474  15.540  0.2598 -0.5709 -1.0114
  758MPD2     N11204   0.596   3.308  15.956 -0.0480  0.1416  0.0150
  758MPD2    H511205   0.510   3.358  15.977  1.6033  2.8592  0.3371
  758MPD2    N111206   0.873   3.155  15.579  0.1690 -0.1865 -0.6666
  758MPD2    H711207   0.889   3.166  15.479 -1.3880 -0.1200 -0.9069
  759MPD2     C11208   4.323   1.720   8.691  0.0461  0.2937  0.0362
  759MPD2    C111209   4.199   1.758   8.733 -0.1546  0.6464 -0.0317
  759MPD2    C211210   4.190   1.889   8.782  1.0708  0.2290 -0.8137
  759MPD2    C311211   4.298   1.976   8.793  0.5573 -0.0757  0.3279
  759MPD2    C411212   4.420   1.928   8.751  0.0699  0.2042 -0.3373
  759MPD2    C511213   4.429   1.797   8.693  0.3031  0.1262 -0.0478
  759MPD2     H11214   4.089   1.916   8.812  1.3955 -0.6942  1.0594
  759MPD2    H111215   4.509   1.990   8.754 -0.2545  0.6080  1.0583
  759MPD2    H211216   4.350   1.625   8.647 -1.6822 -0.2270  0.1152
  759MPD2    H311217   4.527   1.762   8.663 -0.1646 -0.0205 -1.3929
  759MPD2     N11218   4.277   2.103   8.838  0.0277 -0.3240 -0.3781
  759MPD2    H511219   4.184   2.115   8.878  0.4054 -1.4897  0.8458
  759MPD2    N111220   4.083   1.679   8.709 -0.7179 -0.2257 -0.4962
  759MPD2    H711221   3.995   1.714   8.743  0.9519  3.1278  0.4258
  760MPD2     C11222   3.358   3.591  11.714  0.3342  0.6043 -0.2521
  760MPD2    C111223   3.467   3.632  11.779  1.1816 -0.1620 -0.2535
  760MPD2    C211224   3.562   3.543  11.817  0.4848 -0.6380  0.6303
  760MPD2    C311225   3.550   3.403  11.799  0.6250  0.5037  0.2675
  760MPD2    C411226   3.438   3.356  11.737  0.3562  0.4703  0.0961
  760MPD2    C511227   3.346   3.452  11.698  0.6497 -0.2038 -0.1847
  760MPD2     H11228   3.659   3.571  11.857  0.8712  1.2996 -1.6794
  760MPD2    H111229   3.423   3.250  11.721 -1.7730  0.8107 -0.1091
  760MPD2    H211230   3.277   3.658  11.686  0.4579  0.2925 -1.3675
  760MPD2    H311231   3.261   3.413  11.644  0.8553 -0.2970 -0.4371
  760MPD2     N11232   3.653   3.312  11.818 -0.0685 -0.7282  0.1968
  760MPD2    H511233   3.633   3.214  11.800  2.1653 -1.0682 -0.3820
  760MPD2    N111234   3.485   3.772  11.801 -0.4501 -0.1963 -0.1440
  760MPD2    H711235   3.428   3.841  11.753  0.2784 -0.3088 -1.1619
  761MPD2     C11236   0.168   3.029  11.074  0.3941  0.1340  0.3844
  761MPD2    C111237   0.227   3.042  10.948 -0.0809 -0.1886  0.9521
  761MPD2    C211238   0.263   3.169  10.906  0.6792 -0.4190 -0.0805
  761MPD2    C311239   0.232   3.281  10.977 -0.1192 -0.2810  0.5342
  761MPD2    C411240   0.167   3.267  11.097 -0.5939  0.6312  0.3445
  761MPD2    C511241   0.137   3.143  11.147 -0.3971  0.4631 -0.2759
  761MPD2     H11242   0.310   3.178  10.809 -0.7072 -0.3987 -0.7554
  761MPD2    H111243   0.149   3.356  11.155  2.3448  1.5122 -0.0733
  761MPD2    H211244   0.134   2.934  11.113  0.4477  0.2601  0.7404
  761MPD2    H311245   0.097   3.139  11.248  0.1012  1.0800 -0.0556
  761MPD2     N11246   0.270   3.412  10.932 -0.4832 -0.7675 -0.1779
  761MPD2    H511247   0.226   3.483  10.990  1.1168 -1.0448  1.3773
  761MPD2    N111248   0.261   2.932  10.865 -0.5844 -0.4852  0.2644
  761MPD2    H711249   0.291   2.850  10.917 -0.7869 -1.9537 -1.9379
  762MPD2     C11250   0.537   3.074  10.139 -0.0002  0.2563  0.1990
  762MPD2    C111251   0.590   2.963  10.216  0.6836 -0.0425  0.1020
  762MPD2    C211252   0.726   2.941  10.213  0.6495 -0.2836 -0.4453
  762MPD2    C311253   0.810   3.033  10.144 -0.3716  0.2274 -1.0287
  762MPD2    C411254   0.757   3.134  10.071 -0.0156  0.0296 -0.4954
  762MPD2    C511255   0.621   3.152  10.063 -0.0684 -0.9828  0.1427
  762MPD2     H11256   0.778   2.862  10.267  0.7638  0.3738  0.4054
  762MPD2    H111257   0.820   3.201  10.015  2.2646 -2.2030 -0.6280
  762MPD2    H211258   0.430   3.084  10.130 -0.4420 -1.8866  2.7270
  762MPD2    H311259   0.579   3.224   9.993  3.1808 -0.0372 -0.8174
  762MPD2     N11260   0.949   3.026  10.172  0.6042 -0.4500 -0.3084
  762MPD2    H511261   0.981   2.942  10.220 -2.1938  0.0555  2.3997
  762MPD2    N111262   0.509   2.885  10.293 -0.2383 -0.5073 -0.2420
  762MPD2    H711263   0.410   2.911  10.296 -0.1053  0.2063 -1.6903
  763MPD2     C11264   2.772   2.891  15.901 -0.1869  0.3335 -0.3926
  763MPD2    C111265   2.646   2.950  15.897  0.2161  0.4912  0.2186
  763MPD2    C211266   2.632   3.077  15.961  0.0848 -0.4639 -0.2837
  763MPD2    C311267   2.745   3.134  16.015  0.4574 -0.0609  0.5713
  763MPD2    C411268   2.872   3.072  15.998  0.0026  0.5896  0.3443
  763MPD2    C511269   2.886   2.963  15.921  0.2080 -0.0634 -0.2952
  763MPD2     H11270   2.533   3.120  15.965 -0.1847 -1.0296 -0.9128
  763MPD2    H111271   2.961   3.107  16.048 -0.3745  0.3440  1.1834
  763MPD2    H211272   2.801   2.801  15.848 -4.5479 -0.3778 -1.5480
  763MPD2    H311273   2.980   2.909  15.911  0.1473 -0.4054  1.0173
  763MPD2     N11274   2.735   3.243  16.094 -0.1269 -0.4348 -0.3329
  763MPD2    H511275   2.823   3.281  16.125 -1.0817  0.8921  0.7417
  763MPD2    N111276   2.535   2.886  15.830 -0.0370 -0.2536 -0.2161
  763MPD2    H711277   2.457   2.948  15.810  0.1437  0.6736  1.9291
  764MPD2     C11278   4.085   3.413   0.019 -1.3907 -0.5308 -0.5168
  764MPD2    C111279   4.157   3.532   0.015  0.1042 -0.3131  0.1880
  764MPD2    C211280   4.270   3.553   0.101  0.1721  0.2378 -0.0847
  764MPD2    C311281   4.295   3.457   0.191 -0.2414  0.0260 -0.2512
  764MPD2    C411282   4.220   3.341   0.203  0.6527  0.1560 -0.1013
  764MPD2    C511283   4.123   3.316   0.110  0.3981 -0.2057 -0.4697
  764MPD2     H11284   4.326   3.646   0.107  1.0683 -0.2441 -1.1038
  764MPD2    H111285   4.239   3.262   0.275  1.4262 -0.1952 -0.6911
  764MPD2    H211286   4.007   3.394  17.642 -0.8465 -1.9320 -0.7381
  764MPD2    H311287   4.073   3.220   0.113 -0.9246  0.4453 -1.8764
  764MPD2     N11288   4.407   3.482   0.276  0.1308 -0.8713 -1.1971
  764MPD2    H511289   4.459   3.568   0.261 -3.4588  1.2595 -1.4778
  764MPD2    N111290   4.122   3.639  17.625  0.3344  0.4008  0.4590
  764MPD2    H711291   4.179   3.722  17.630 -0.3335  0.8493  0.6026
  765MPD2     C11292   0.173   2.591  15.981  0.6166 -0.2092  0.0945
  765MPD2    C111293   0.242   2.649  15.874  0.2620  0.3495  0.4987
  765MPD2    C211294   0.353   2.584  15.825 -0.4906 -0.5943 -0.0818
  765MPD2    C311295   0.372   2.453  15.863  0.5084  0.5425 -0.1141
  765MPD2    C411296   0.313   2.398  15.971 -0.1847  0.5062 -0.5730
  765MPD2    C511297   0.221   2.476  16.043 -0.5197 -0.0855 -0.8726
  765MPD2     H11298   0.415   2.630  15.748 -0.8406 -0.7300 -0.4413
  765MPD2    H111299   0.332   2.298  16.007 -0.6816  0.9307  0.9116
  765MPD2    H211300   0.087   2.647  16.017  0.2582 -1.7594  1.6277
  765MPD2    H311301   0.164   2.439  16.127  2.7990 -0.3899  1.2196
  765MPD2     N11302   0.462   2.387  15.773  0.1061  0.1597 -0.1352
  765MPD2    H511303   0.492   2.441  15.694  0.5031  0.8395  0.4832
  765MPD2    N111304   0.200   2.771  15.828 -0.0980  0.0945 -0.2579
  765MPD2    H711305   0.109   2.807  15.857 -0.2390 -1.5453  1.3825
  766MPD2     C11306   4.313   2.931  15.282 -0.4015  1.1227  0.3580
  766MPD2    C111307   4.437   2.886  15.312 -0.2357  0.5439 -0.7082
  766MPD2    C211308   4.506   2.804  15.227 -0.3161 -0.0836  0.2180
  766MPD2    C311309   4.451   2.779  15.102 -1.0940  0.3466 -0.4750
  766MPD2    C411310   4.324   2.823  15.075 -0.7965  0.4166  0.6476
  766MPD2    C511311   4.250   2.896  15.164 -0.2774  0.0548  0.6141
  766MPD2     H11312   4.606   2.771  15.252  0.8245  0.3658 -3.8469
  766MPD2    H111313   4.285   2.802  14.976  2.4014  0.3931 -0.6068
  766MPD2    H211314   4.269   3.000  15.353  0.7763  0.9287  1.2742
  766MPD2    H311315   4.155   2.929  15.124  0.0596  0.8779  0.4967
  766MPD2     N11316   4.521   2.724  14.993 -0.7946  0.0373 -0.1955
  766MPD2    H511317   4.474   2.718  14.903  0.7178  1.1737 -1.0673
  766MPD2    N111318   4.503   2.941  15.427 -0.0602 -0.5201 -0.1049
  766MPD2    H711319   4.460   3.019  15.476  0.0737 -0.4163 -0.1527
  767MPD2     C11320   4.146   3.123  14.854  0.4533  0.3671 -0.0735
  767MPD2    C111321   4.280   3.091  14.835 -0.3767  0.2921 -0.3544
  767MPD2    C211322   4.321   3.016  14.721 -0.5535  0.2715  0.0631
  767MPD2    C311323   4.219   2.961  14.642  0.0162  0.7082  0.3990
  767MPD2    C411324   4.083   2.975  14.669 -0.2670 -0.0800 -0.0576
  767MPD2    C511325   4.052   3.055  14.779 -0.1931  0.1122  0.4940
  767MPD2     H11326   4.426   2.994  14.710 -0.6352  0.9822 -2.0497
  767MPD2    H111327   4.005   2.921  14.616  0.4523  0.3540 -1.5672
  767MPD2    H211328   4.118   3.186  14.938  0.6444  0.4068 -0.0400
  767MPD2    H311329   3.949   3.082  14.795 -0.2471 -0.2030  0.6782
  767MPD2     N11330   4.265   2.872  14.543 -0.1563  0.1110  0.1431
  767MPD2    H511331   4.365   2.852  14.538 -0.5023 -1.8136  0.9923
  767MPD2    N111332   4.373   3.140  14.932 -0.0942 -0.3304 -0.2477
  767MPD2    H711333   4.330   3.191  15.008  1.0046 -0.2923  0.3470
  768MPD2     C11334   0.496   1.406  10.269  0.0883 -0.0626  0.1472
  768MPD2    C111335   0.494   1.510  10.357 -0.0627 -0.5992  0.1773
  768MPD2    C211336   0.609   1.566  10.409  0.5234  0.4530 -0.2606
  768MPD2    C311337   0.729   1.516  10.365  0.0753 -0.1613 -0.0048
  768MPD2    C411338   0.736   1.412  10.272 -0.0604  0.3853 -0.2321
  768MPD2    C511339   0.618   1.359  10.225 -0.2148  0.2142  0.2572
  768MPD2     H11340   0.606   1.649  10.479 -1.7051  1.6304 -1.7461
  768MPD2    H111341   0.830   1.366  10.242  0.3975  0.6714  0.7414
  768MPD2    H211342   0.404   1.352  10.249 -0.1845 -0.1932  1.7643
  768MPD2    H311343   0.621   1.283  10.147 -0.1101  0.2968  0.1809
  768MPD2     N11344   0.853   1.571  10.413  0.8011  0.1748 -0.1489
  768MPD2    H511345   0.939   1.520  10.395  0.2911 -1.0845  0.9371
  768MPD2    N111346   0.362   1.538  10.403 -0.3144 -0.1294  0.2375
  768MPD2    H711347   0.284   1.495  10.355 -0.5614 -1.5542  1.9367
  769MPD2     C11348   1.713   4.086  14.573  0.1373  0.3051 -0.0409
  769MPD2    C111349   1.601   4.153  14.621 -0.8686  0.4423  0.7350
  769MPD2    C211350   1.611   4.197  14.753  0.6386  0.0837  0.5167
  769MPD2    C311351   1.725   4.181  14.834  0.0545  0.3108  0.4748
  769MPD2    C411352   1.836   4.123  14.775  0.2933 -0.0152 -0.4975
  769MPD2    C511353   1.821   4.064  14.651  0.6139  0.2395 -0.2817
  769MPD2     H11354   1.518   4.227  14.802 -0.1069 -1.8948  0.3026
  769MPD2    H111355   1.925   4.102  14.834 -0.2934 -0.0068  0.3959
  769MPD2    H211356   1.714   4.070  14.465 -0.1332 -2.3234  0.3344
  769MPD2    H311357   1.904   4.024  14.594 -0.9367 -1.6937 -1.1474
  769MPD2     N11358   1.710   4.211  14.972 -0.4888 -0.2189  0.4387
  769MPD2    H511359   1.621   4.255  14.989 -0.8275 -1.0956  0.9458
  769MPD2    N111360   1.480   4.168  14.544 -0.1897  0.3431 -0.3683
  769MPD2    H711361   1.472   4.120  14.455 -2.9244  2.1950 -1.1151
  770MPD2     C11362   0.668   3.791  14.707 -0.0134 -0.2443 -0.0807
  770MPD2    C111363   0.795   3.760  14.670 -0.3228  0.0300 -0.4263
  770MPD2    C211364   0.874   3.863  14.623 -0.1117 -0.2427  0.1942
  770MPD2    C311365   0.834   3.994  14.633  0.4269  0.2236  0.0939
  770MPD2    C411366   0.714   4.033  14.676 -0.0543 -0.3274 -0.1144
  770MPD2    C511367   0.630   3.929  14.711 -1.0426  0.3664 -0.4317
  770MPD2     H11368   0.970   3.839  14.578 -0.1111 -0.6576  0.4154
  770MPD2    H111369   0.668   4.131  14.673  0.4878 -0.1426 -2.4323
  770MPD2    H211370   0.594   3.714  14.724 -1.9646  1.1688 -2.1408
  770MPD2    H311371   0.525   3.948  14.732 -0.7262  2.1688 -0.4899
  770MPD2     N11372   0.932   4.084  14.594 -0.5474 -0.0880 -0.0556
  770MPD2    H511373   1.016   4.045  14.552  0.5291  3.0993 -0.8123
  770MPD2    N111374   0.829   3.620  14.665 -0.3448 -0.5986  0.1632
  770MPD2    H711375   0.766   3.549  14.701  1.4126 -2.4076 -0.2769
  771MPD2     C11376   2.117   2.190  13.789 -0.2316  0.5211  0.1812
  771MPD2    C111377   2.202   2.270  13.716 -0.1805  0.1370  0.3009
  771MPD2    C211378   2.236   2.225  13.585 -0.7485  0.2952 -0.0577
  771MPD2    C311379   2.183   2.108  13.532  0.3671 -0.7452  0.1999
  771MPD2    C411380   2.109   2.026  13.616 -0.8675  0.5349  0.0897
  771MPD2    C511381   2.062   2.068  13.733 -0.1829  0.8699 -0.0896
  771MPD2     H11382   2.311   2.282  13.532 -1.4571  0.1486 -1.2287
  771MPD2    H111383   2.084   1.925  13.588  1.8724 -0.3630  0.9389
  771MPD2    H211384   2.094   2.221  13.891 -0.4349  1.6715 -0.2108
  771MPD2    H311385   1.988   2.019  13.796 -0.2663  0.7776 -0.2597
  771MPD2     N11386   2.226   2.071  13.404 -0.0474  0.1484  0.2793
  771MPD2    H511387   2.284   2.135  13.351  2.0685 -0.9466  1.2648
  771MPD2    N111388   2.254   2.394  13.758  0.5761 -0.4462  0.4350
  771MPD2    H711389   2.307   2.452  13.694 -0.8308 -0.9028 -1.1194
  772MPD2     C11390   1.772   2.796  13.638 -0.0984 -0.3429  0.1221
  772MPD2    C111391   1.794   2.787  13.770  0.0901  0.5821  0.4213
  772MPD2    C211392   1.681   2.733  13.839  0.6498 -0.4522 -0.8082
  772MPD2    C311393   1.565   2.687  13.772  0.6175  0.3957 -0.0187
  772MPD2    C411394   1.556   2.700  13.641 -0.5377 -0.0970 -0.2069
  772MPD2    C511395   1.655   2.764  13.576 -0.1442  0.5602  0.2357
  772MPD2     H11396   1.692   2.707  13.943  0.2164  1.6116 -0.2626
  772MPD2    H111397   1.478   2.670  13.573 -1.4102  0.3296  0.6045
  772MPD2    H211398   1.850   2.830  13.571  0.6522  1.6289  2.0080
  772MPD2    H311399   1.632   2.794  13.474 -0.2406  1.0907  0.4126
  772MPD2     N11400   1.451   2.635  13.837  0.4292 -0.2096  0.0602
  772MPD2    H511401   1.378   2.596  13.779  1.1840 -0.3905 -0.7755
  772MPD2    N111402   1.917   2.805  13.834 -0.4182  0.0196 -0.5741
  772MPD2    H711403   1.929   2.773  13.930 -0.2566  2.2047  0.1464
  773MPD2     C11404   1.611   3.342  17.220  0.2809 -0.0787 -0.1557
  773MPD2    C111405   1.508   3.256  17.204 -0.1761  0.4902 -0.8924
  773MPD2    C211406   1.547   3.128  17.215  0.3011  0.6222  0.1026
  773MPD2    C311407   1.683   3.091  17.234 -0.1347  0.1973  0.7493
  773MPD2    C411408   1.777   3.183  17.267  0.0204  0.1204  0.2988
  773MPD2    C511409   1.740   3.315  17.253 -0.0576 -0.5877 -0.3266
  773MPD2     H11410   1.473   3.049  17.205  0.0938  1.0305 -1.5607
  773MPD2    H111411   1.882   3.163  17.284 -0.1235  1.4270  2.6315
  773MPD2    H211412   1.598   3.446  17.193 -1.2462 -0.1531  0.2827
  773MPD2    H311413   1.818   3.390  17.259  0.5082 -1.0814 -1.4530
  773MPD2     N11414   1.720   2.956  17.269 -0.0272 -0.4680 -0.0526
  773MPD2    H511415   1.819   2.948  17.294  0.1294  2.5037  0.2611
  773MPD2    N111416   1.374   3.295  17.183  0.3353 -0.0148  0.1909
  773MPD2    H711417   1.311   3.217  17.163 -0.3576  0.2783  1.2361
  774MPD2     C11418   0.465   2.585  13.066  0.3473 -0.6195 -0.4939
  774MPD2    C111419   0.403   2.657  13.164 -0.5289  0.6236 -0.0155
  774MPD2    C211420   0.428   2.796  13.162 -0.0494  1.2795  0.6771
  774MPD2    C311421   0.509   2.850  13.068 -0.4529  0.1094 -0.4334
  774MPD2    C411422   0.582   2.765  12.983  0.9542 -0.0600 -0.6903
  774MPD2    C511423   0.551   2.635  12.980 -0.0762  0.5021 -0.0165
  774MPD2     H11424   0.379   2.868  13.227 -1.7501  0.0760  0.7065
  774MPD2    H111425   0.662   2.804  12.921  0.2337  1.6423 -0.5486
  774MPD2    H211426   0.472   2.477  13.067  2.4427 -0.4459  2.3125
  774MPD2    H311427   0.604   2.562  12.920 -0.9300  0.8407 -1.1787
  774MPD2     N11428   0.526   2.990  13.070 -0.7391  0.1283 -0.4826
  774MPD2    H511429   0.470   3.038  13.139 -1.9608  0.9051 -2.0132
  774MPD2    N111430   0.323   2.598  13.267 -0.2533 -1.0949 -0.1104
  774MPD2    H711431   0.286   2.661  13.337  0.2823 -0.7873 -0.1028
  775MPD2     C11432   1.792   3.779  15.728 -0.9776  0.0869 -0.4639
  775MPD2    C111433   1.747   3.905  15.755 -0.1789  1.0118 -0.1172
  775MPD2    C211434   1.832   4.001  15.801  0.2502  0.2621 -0.4128
  775MPD2    C311435   1.975   3.979  15.802  0.7310 -0.4245 -0.4456
  775MPD2    C411436   2.018   3.851  15.759 -0.8620 -0.1383  0.1714
  775MPD2    C511437   1.926   3.754  15.731  0.7548  0.3847 -0.0645
  775MPD2     H11438   1.799   4.094  15.846 -1.8064 -0.5433 -0.2771
  775MPD2    H111439   2.122   3.823  15.755 -0.0412  2.7125  1.1600
  775MPD2    H211440   1.725   3.699  15.697  1.7197 -2.7738  1.1185
  775MPD2    H311441   1.959   3.660  15.689 -0.3706 -0.1901  0.3183
  775MPD2     N11442   2.063   4.081  15.847  0.5651  0.4095 -0.0146
  775MPD2    H511443   2.162   4.073  15.827  0.8791  1.0441  1.2890
  775MPD2    N111444   1.606   3.932  15.748 -0.5225  0.4320 -0.5301
  775MPD2    H711445   1.549   3.849  15.738  2.3852 -1.9580  2.5019
  776MPD2     C11446   0.722   0.199  11.720  0.3889  1.3202  0.1391
  776MPD2    C111447   0.702   0.149  11.596 -0.0642  0.3847 -0.3930
  776MPD2    C211448   0.720   0.221  11.480 -0.2348  0.6950 -0.4966
  776MPD2    C311449   0.766   0.349  11.496 -0.1484 -0.6287  0.1849
  776MPD2    C411450   0.792   0.404  11.620  0.4151  0.6542 -0.0814
  776MPD2    C511451   0.775   0.324  11.733 -0.6339  0.4629  0.0564
  776MPD2     H11452   0.716   0.180  11.380 -1.1355 -0.5060  0.0219
  776MPD2    H111453   0.825   0.507  11.630  0.4363  0.7200 -0.8888
  776MPD2    H211454   0.714   0.145  11.814  0.3346 -1.6260 -1.5346
  776MPD2    H311455   0.789   0.357  11.836  1.2228  0.1611 -0.1107
  776MPD2     N11456   0.796   0.428  11.382 -1.3129 -0.0129 -0.1349
  776MPD2    H511457   0.872   0.495  11.375  0.2842 -1.8203  0.0247
  776MPD2    N111458   0.664   0.014  11.592  0.2401 -0.0743 -0.3347
  776MPD2    H711459   0.650   4.688  11.680 -0.5983 -1.0963 -1.0444
  777MPD2     C11460   1.301   1.402   0.565  0.1721 -0.6624  0.1066
  777MPD2    C111461   1.249   1.294   0.623 -0.8006  0.3962  0.2080
  777MPD2    C211462   1.154   1.222   0.554  0.2085 -0.7459 -0.2549
  777MPD2    C311463   1.121   1.244   0.422  0.5438  0.1765 -0.5327
  777MPD2    C411464   1.193   1.347   0.358  0.2669 -0.4503 -0.2064
  777MPD2    C511465   1.277   1.420   0.430  0.0893 -0.0648  0.0386
  777MPD2     H11466   1.091   1.149   0.604 -1.9532  2.0689  1.1570
  777MPD2    H111467   1.183   1.383   0.256  0.0944  1.0334  0.3292
  777MPD2    H211468   1.372   1.459   0.625 -0.3972 -0.5914  0.7098
  777MPD2    H311469   1.333   1.496   0.377  2.2844 -2.0056 -0.4317
  777MPD2     N11470   1.007   1.184   0.356  0.5618  0.1304 -0.2054
  777MPD2    H511471   0.942   1.123   0.405 -0.1358  2.3544  1.6282
  777MPD2    N111472   1.289   1.266   0.757  0.2328  0.2377 -0.1515
  777MPD2    H711473   1.328   1.343   0.811  1.8326 -0.4678 -0.2846
  778MPD2     C11474   2.253   1.869  14.872 -0.2011  0.3465  0.0524
  778MPD2    C111475   2.162   1.842  14.775 -0.1839  0.4756 -0.0017
  778MPD2    C211476   2.171   1.919  14.653 -0.1025  0.1014 -0.1089
  778MPD2    C311477   2.265   2.025  14.651  0.1543  0.1220 -0.2323
  778MPD2    C411478   2.345   2.056  14.763 -0.3508  0.0784  0.1517
  778MPD2    C511479   2.348   1.968  14.867 -0.0972 -0.4862 -0.1792
  778MPD2     H11480   2.110   1.900  14.566 -0.9925 -0.5040  0.6503
  778MPD2    H111481   2.414   2.140  14.770 -0.1604 -0.1437  0.9554
  778MPD2    H211482   2.258   1.802  14.958  1.7812  1.9162  1.1835
  778MPD2    H311483   2.411   1.987  14.953 -1.5547 -0.0423  0.8041
  778MPD2     N11484   2.273   2.094  14.530  0.3726  0.0044  0.0996
  778MPD2    H511485   2.206   2.074  14.457  0.7211  1.5865 -0.6714
  778MPD2    N111486   2.056   1.754  14.783 -0.6035 -0.2563  0.1789
  778MPD2    H711487   1.981   1.758  14.714 -1.0927  1.1094  0.7805
  779MPD2     C11488   1.608   0.766  14.416 -0.4955 -0.1384  0.1003
  779MPD2    C111489   1.741   0.800  14.451 -0.3696 -0.1163 -0.1763
  779MPD2    C211490   1.799   0.913  14.397 -0.7279  0.1224 -0.0332
  779MPD2    C311491   1.752   0.980  14.290  0.3518 -0.3771 -0.4609
  779MPD2    C411492   1.627   0.943  14.242  0.2261  0.0155  0.2402
  779MPD2    C511493   1.553   0.845  14.318 -0.2512  0.6546 -0.0087
  779MPD2     H11494   1.895   0.950  14.431  0.6900 -2.6678 -0.9922
  779MPD2    H111495   1.582   0.998  14.160 -0.9566  0.3130  1.0922
  779MPD2    H211496   1.551   0.680  14.448 -1.9991  0.9307  0.3153
  779MPD2    H311497   1.459   0.807  14.280 -0.1114 -0.4311  0.7382
  779MPD2     N11498   1.828   1.090  14.235 -0.1092  0.5389 -0.5669
  779MPD2    H511499   1.920   1.084  14.277 -1.7220 -2.3426  2.5628
  779MPD2    N111500   1.807   0.704  14.526 -0.1170  0.9849  0.3316
  779MPD2    H711501   1.757   0.619  14.547  0.1839  1.1668  1.7861
  780MPD2     C11502   0.586   0.019   0.709 -0.7211  0.4194  0.4424
  780MPD2    C111503   0.636   4.689   0.589  0.3763 -0.1541 -0.3207
  780MPD2    C211504   0.752   0.023   0.545  0.5580 -0.4136 -0.7366
  780MPD2    C311505   0.807   0.141   0.602 -0.5345  0.7261 -0.1199
  780MPD2    C411506   0.741   0.193   0.715 -0.5829  0.1857  0.3843
  780MPD2    C511507   0.643   0.125   0.776 -0.2796 -0.0207 -0.0720
  780MPD2     H11508   0.794   4.702   0.455 -0.8968  0.2163 -1.7126
  780MPD2    H111509   0.766   0.290   0.757 -0.4954  0.5372 -0.4777
  780MPD2    H211510   0.489   4.707   0.744 -1.5518 -0.7199 -2.9854
  780MPD2    H311511   0.601   0.174   0.863  0.1307  0.6822 -0.2724
  780MPD2     N11512   0.929   0.196   0.546 -0.2129  0.0452  0.4788
  780MPD2    H511513   0.974   0.150   0.468 -1.0199  1.6147 -0.9135
  780MPD2    N111514   0.580   4.578   0.530 -0.2120  0.2410  0.0565
  780MPD2    H711515   0.504   4.531   0.578 -1.4243  0.2689 -1.8489
  781MPD2     C11516   3.123   3.106  11.795 -0.8305 -0.1391 -0.2047
  781MPD2    C111517   3.224   3.030  11.853  0.5089 -0.3914 -0.5285
  781MPD2    C211518   3.338   3.003  11.782  0.8479  0.5839 -0.0206
  781MPD2    C311519   3.342   3.033  11.646 -0.3119 -0.5229 -0.2353
  781MPD2    C411520   3.230   3.078  11.580  0.0581  0.4756 -0.0950
  781MPD2    C511521   3.123   3.117  11.658 -0.1584 -0.2717 -0.5925
  781MPD2     H11522   3.422   2.955  11.830 -0.0570 -1.2910 -0.3380
  781MPD2    H111523   3.226   3.097  11.473 -0.7788  0.9621  0.0239
  781MPD2    H211524   3.035   3.145  11.846  0.6487  2.3501  0.4711
  781MPD2    H311525   3.042   3.171  11.610 -0.9339 -0.7143  0.1932
  781MPD2     N11526   3.455   3.023  11.565 -0.9180  0.0627  0.1615
  781MPD2    H511527   3.433   3.012  11.467  2.1888  0.5682 -0.6118
  781MPD2    N111528   3.217   2.986  11.994 -0.0432 -0.5070 -0.0815
  781MPD2    H711529   3.301   2.949  12.037  0.5279  1.3518  0.4273
  782MPD2     C11530   0.628   4.225  10.432 -0.4449 -0.1654  0.1175
  782MPD2    C111531   0.740   4.272  10.366  0.0563  0.0326  0.0625
  782MPD2    C211532   0.821   4.361  10.429  0.0536 -0.0069  0.5072
  782MPD2    C311533   0.808   4.394  10.562  0.7536 -0.7984  0.9475
  782MPD2    C411534   0.701   4.333  10.625 -0.4413  0.2079  0.0674
  782MPD2    C511535   0.608   4.257  10.561 -0.2209 -0.2275 -0.0127
  782MPD2     H11536   0.916   4.390  10.386  1.5456 -2.4516  2.0841
  782MPD2    H111537   0.686   4.351  10.731 -0.0521 -0.4601  0.2379
  782MPD2    H211538   0.562   4.152  10.387 -2.2182  1.1881  0.5344
  782MPD2    H311539   0.526   4.216  10.619 -0.3477  1.1483  0.7736
  782MPD2     N11540   0.908   4.468  10.625 -0.0581  0.3268  0.1510
  782MPD2    H511541   0.997   4.486  10.579 -0.8680 -0.5842 -1.7889
  782MPD2    N111542   0.751   4.230  10.234  0.0763 -0.1944  0.1922
  782MPD2    H711543   0.679   4.171  10.193 -0.6510 -0.8632  2.3913
  783MPD2     C11544   0.435   3.541  10.184  0.3812 -0.5251  0.6089
  783MPD2    C111545   0.490   3.636  10.270  0.2017  0.0239 -0.4537
  783MPD2    C211546   0.604   3.709  10.233  0.3258  0.3811 -0.0456
  783MPD2    C311547   0.652   3.696  10.100 -0.5809 -0.8213 -0.4115
  783MPD2    C411548   0.595   3.603  10.016  1.1475 -0.2858 -0.4948
  783MPD2    C511549   0.488   3.526  10.059  0.5789  0.4347  0.0019
  783MPD2     H11550   0.658   3.786  10.287 -0.7715  0.6068  0.7223
  783MPD2    H111551   0.638   3.595   9.916  0.7813 -0.9117 -0.5982
  783MPD2    H211552   0.344   3.487  10.206  0.1903 -0.3842  0.1659
  783MPD2    H311553   0.429   3.471   9.986  1.2484 -1.8541  1.2129
  783MPD2     N11554   0.757   3.788  10.062  0.5770  0.4533  0.3540
  783MPD2    H511555   0.795   3.843  10.138  1.1579  1.7732 -0.9010
  783MPD2    N111556   0.432   3.651  10.396 -0.3208  0.1875  0.4005
  783MPD2    H711557   0.358   3.587  10.424 -0.9537  0.8545  0.2783
  784MPD2     C11558   3.043   3.773   1.023  0.5564  0.1429 -0.2332
  784MPD2    C111559   2.992   3.829   1.142 -0.2088  0.5593  0.5128
  784MPD2    C211560   2.877   3.910   1.128 -0.0214  0.0266  0.2757
  784MPD2    C311561   2.818   3.932   1.002  0.4405 -0.1869 -0.0888
  784MPD2    C411562   2.874   3.876   0.889 -0.7058  0.7534 -0.8202
  784MPD2    C511563   2.992   3.795   0.900 -0.5391 -0.8867 -0.8192
  784MPD2     H11564   2.846   3.957   1.220 -2.7146  3.7862 -2.5312
  784MPD2    H111565   2.843   3.898   0.787 -0.5243 -0.3991 -1.1245
  784MPD2    H211566   3.137   3.720   1.015 -0.0296 -1.0872  0.8868
  784MPD2    H311567   3.040   3.757   0.810  1.4366 -2.3510  0.8706
  784MPD2     N11568   2.703   4.018   0.998  0.3786  0.3352  0.1082
  784MPD2    H511569   2.664   4.043   1.089  1.4886 -0.7784  0.8884
  784MPD2    N111570   3.056   3.826   1.268 -0.0488  0.1551 -0.1623
  784MPD2    H711571   3.010   3.881   1.340  0.2127  1.4619 -0.9976
  785MPD2     C11572   3.510   2.847  10.648  0.3494 -0.4450  0.5224
  785MPD2    C111573   3.404   2.911  10.581 -0.9900  0.4526 -0.4181
  785MPD2    C211574   3.277   2.856  10.574 -0.8438  0.1331 -0.2813
  785MPD2    C311575   3.255   2.733  10.627 -0.7581 -0.9233  0.2135
  785MPD2    C411576   3.351   2.669  10.696  0.4718  0.0946  1.3062
  785MPD2    C511577   3.476   2.726  10.701  0.4806 -0.4857 -0.2682
  785MPD2     H11578   3.205   2.903  10.508  0.0565  0.3280 -1.1278
  785MPD2    H111579   3.329   2.568  10.731 -1.4634  0.7801  2.0788
  785MPD2    H211580   3.602   2.904  10.656 -0.3395  0.9429 -1.4647
  785MPD2    H311581   3.553   2.674  10.758 -0.3469 -0.8611  0.4985
  785MPD2     N11582   3.126   2.684  10.597  0.0807 -0.4058  0.2116
  785MPD2    H511583   3.073   2.742  10.532 -0.6566 -1.2576  0.0519
  785MPD2    N111584   3.442   3.033  10.517 -0.4954  0.3712  0.0453
  785MPD2    H711585   3.539   3.063  10.523 -0.6432  1.4264 -2.7095
  786MPD2     C11586   2.074   0.130  14.779 -0.2262 -0.0109  0.1762
  786MPD2    C111587   2.186   0.069  14.727  0.5593  0.0343 -0.4993
  786MPD2    C211588   2.292   0.045  14.811 -0.7173  0.1472  0.1787
  786MPD2    C311589   2.289   0.094  14.944 -0.0340 -0.5163  0.0114
  786MPD2    C411590   2.181   0.175  14.978  1.0917 -0.2887  0.6646
  786MPD2    C511591   2.070   0.193  14.899  0.3912  0.4708  0.2289
  786MPD2     H11592   2.373   4.709  14.771 -0.2333 -0.7812  2.5439
  786MPD2    H111593   2.171   0.208  15.081 -0.2342  0.0787  0.4186
  786MPD2    H211594   1.983   0.126  14.721  0.3327 -0.1190 -0.6901
  786MPD2    H311595   1.979   0.241  14.931  0.4639  1.0842 -0.4919
  786MPD2     N11596   2.388   0.070  15.040 -0.3659 -0.3316  0.2344
  786MPD2    H511597   2.387   0.129  15.123  1.0787 -1.1374  0.8321
  786MPD2    N111598   2.188   0.011  14.597 -0.1668  0.2561 -0.2127
  786MPD2    H711599   2.273   4.684  14.575 -0.6578 -0.4842 -0.4324
  787MPD2     C11600   2.277   4.137  14.699 -0.3713  0.1822 -0.3162
  787MPD2    C111601   2.354   4.171  14.588  0.4527  0.6900  0.4376
  787MPD2    C211602   2.466   4.101  14.561  0.3811 -0.1367  0.1563
  787MPD2    C311603   2.501   3.995  14.639  0.1847  0.0425 -0.1421
  787MPD2    C411604   2.424   3.946  14.738 -0.4707  0.1275  0.1349
  787MPD2    C511605   2.311   4.025  14.771  0.4055 -0.2399  0.2184
  787MPD2     H11606   2.525   4.117  14.472 -0.2473 -0.2439 -0.2794
  787MPD2    H111607   2.433   3.856  14.798 -0.5020  0.1752  0.2095
  787MPD2    H211608   2.193   4.191  14.741  0.0528  0.1704  0.5371
  787MPD2    H311609   2.259   3.984  14.857  1.2814 -1.7193  0.0519
  787MPD2     N11610   2.626   3.930  14.606  0.1567  0.0255  0.8253
  787MPD2    H511611   2.692   3.989  14.556 -0.4333 -0.8947 -1.0365
  787MPD2    N111612   2.311   4.293  14.525 -0.3455 -0.0213  0.4956
  787MPD2    H711613   2.235   4.338  14.574 -2.1056 -0.3201 -1.9816
  788MPD2     C11614   4.562   2.809   1.114  0.3299  0.1911  0.0878
  788MPD2    C111615   4.505   2.748   1.002  0.1672  0.1468 -0.1329
  788MPD2    C211616   4.505   2.809   0.880  0.8689 -0.2976  0.3715
  788MPD2    C311617   4.582   2.922   0.861 -0.6017 -0.1173 -0.5305
  788MPD2    C411618   4.657   2.969   0.965 -0.2893 -0.1854  0.2034
  788MPD2    C511619   4.648   2.916   1.096  0.5272 -0.6334 -0.0537
  788MPD2     H11620   4.449   2.763   0.800  0.4228 -1.5337  1.3995
  788MPD2    H111621   4.717   3.058   0.947  2.9751 -1.8265  2.9245
  788MPD2    H211622   4.544   2.770   1.213 -0.9999 -0.9019 -0.5735
  788MPD2    H311623   4.695   2.969   1.178  0.7675  0.6088 -1.0090
  788MPD2     N11624   4.595   2.991   0.740  0.0774  0.0255 -0.3270
  788MPD2    H511625   4.652   3.074   0.751  2.0742 -1.4863  0.7853
  788MPD2    N111626   4.440   2.622   1.016 -0.8124  0.0476 -0.3425
  788MPD2    H711627   4.384   2.590   0.937  0.5198 -0.9154 -0.9007
  789MPD2     C11628   0.164   2.964  16.408 -0.4234 -0.0671  0.4299
  789MPD2    C111629   0.136   2.942  16.540 -0.4017 -0.1194  0.5217
  789MPD2    C211630   0.030   3.013  16.600 -0.5379 -0.3796  0.8456
  789MPD2    C311631   4.689   3.112  16.525 -0.3570  0.8797 -0.3075
  789MPD2    C411632   4.721   3.127  16.395 -0.5378  0.0445  0.2487
  789MPD2    C511633   0.096   3.054  16.332 -0.4513  0.3880 -0.3605
  789MPD2     H11634   0.009   2.990  16.704 -1.2919 -1.5437  0.4292
  789MPD2    H111635   4.666   3.199  16.336  0.6664  0.3539 -0.4892
  789MPD2    H211636   0.245   2.916  16.353 -0.3875 -2.3390  2.4538
  789MPD2    H311637   0.123   3.075  16.229 -0.0692  1.4806 -0.0411
  789MPD2     N11638   4.589   3.191  16.588  0.5238  0.4751 -0.7261
  789MPD2    H511639   4.523   3.241  16.528 -0.0274  0.6192 -0.0033
  789MPD2    N111640   0.209   2.856  16.628 -0.1189  0.0554 -0.0887
  789MPD2    H711641   0.178   2.858  16.725 -0.5385  1.0364 -0.2388
  790MPD2     C11642   0.875   0.393  13.855 -0.4584 -0.1738 -0.1837
  790MPD2    C111643   0.878   0.261  13.840 -0.4927  0.6737 -0.2402
  790MPD2    C211644   0.874   0.219  13.707 -0.2799  0.1612 -0.3270
  790MPD2    C311645   0.885   0.301  13.593  0.7587  0.8810 -0.0817
  790MPD2    C411646   0.903   0.432  13.614  0.0914 -0.7839 -0.2690
  790MPD2    C511647   0.892   0.480  13.746  0.4760 -0.1627 -0.2675
  790MPD2     H11648   0.865   0.114  13.682  0.2021 -0.4092  1.9102
  790MPD2    H111649   0.911   0.499  13.530 -3.0036  0.7845  0.7075
  790MPD2    H211650   0.867   0.429  13.957  2.5200 -0.3599  0.0938
  790MPD2    H311651   0.884   0.585  13.774 -1.1451  0.6600 -3.7471
  790MPD2     N11652   0.872   0.242  13.462  0.6056 -0.1448 -0.7720
  790MPD2    H511653   0.832   0.149  13.455 -2.8605  1.1286  1.6899
  790MPD2    N111654   0.873   0.180  13.958  0.7168  0.2573  0.0963
  790MPD2    H711655   0.858   0.224  14.048 -0.0310  3.0002 -1.3823
  791MPD2     C11656   0.323   0.270  12.840  0.3283 -0.2118 -0.4999
  791MPD2    C111657   0.359   0.168  12.932 -0.3062 -0.8927 -0.1790
  791MPD2    C211658   0.279   0.059  12.947  0.3451  0.5091 -0.7671
  791MPD2    C311659   0.160   0.047  12.870 -0.1179 -0.3519 -0.0511
  791MPD2    C411660   0.116   0.161  12.796 -0.9856 -0.1634 -0.0506
  791MPD2    C511661   0.197   0.269  12.790 -0.1602  0.3969 -0.3050
  791MPD2     H11662   0.311   4.705  13.016  0.5980  1.3403  0.0391
  791MPD2    H111663   0.016   0.168  12.755 -0.8456 -0.7540 -0.4960
  791MPD2    H211664   0.389   0.353  12.820 -0.1935  0.6722  1.4239
  791MPD2    H311665   0.154   0.353  12.737  0.3596 -0.2351 -1.7259
  791MPD2     N11666   0.088   4.655  12.867  0.4019 -0.2883 -0.2800
  791MPD2    H511667   0.132   4.575  12.912 -0.7543 -1.7974 -1.8003
  791MPD2    N111668   0.487   0.188  12.986  0.0209  0.1015  0.0871
  791MPD2    H711669   0.543   0.269  12.959 -1.6090  1.6113  1.2742
  792MPD2     C11670   1.171   0.149  11.153 -0.2828 -0.8432 -0.0208
  792MPD2    C111671   1.116   0.186  11.033 -0.0721  0.1582 -0.9560
  792MPD2    C211672   0.977   0.178  11.019 -0.2218 -0.2839  0.1631
  792MPD2    C311673   0.906   0.109  11.114  0.0968 -0.0021 -0.8548
  792MPD2    C411674   0.962   0.063  11.230  0.4781  0.1557 -0.1219
  792MPD2    C511675   1.092   0.098  11.255  0.1264  0.2560 -0.2867
  792MPD2     H11676   0.928   0.225  10.934  0.2821  2.7212  1.5498
  792MPD2    H111677   0.911   0.002  11.303  0.4656  0.1930 -0.0992
  792MPD2    H211678   1.272   0.183  11.177 -0.9465  1.6336 -0.7120
  792MPD2    H311679   1.128   0.085  11.356  1.8721 -0.8851 -1.0503
  792MPD2     N11680   0.773   0.072  11.092  0.3046  0.5519  1.0253
  792MPD2    H511681   0.728   0.022  11.169 -1.1449  2.1668  1.2366
  792MPD2    N111682   1.203   0.253  10.949 -0.4019 -0.1000 -0.2884
  792MPD2    H711683   1.298   0.248  10.983 -0.0161  0.2217 -1.3115
  793MPD2     C11684   0.148   4.599  10.392  0.1659  0.0806 -0.7673
  793MPD2    C111685   0.279   4.611  10.403  0.1438  0.4036 -0.1826
  793MPD2    C211686   0.325   4.674  10.519  0.0298  0.3815  0.4356
  793MPD2    C311687   0.246   0.002  10.618 -0.2342 -0.6739  0.3774
  793MPD2    C411688   0.109   4.712  10.606 -0.4065  1.1996  0.0985
  793MPD2    C511689   0.068   4.646  10.490  0.1384 -0.2708 -0.4463
  793MPD2     H11690   0.431   4.689  10.536  0.3802 -0.5105 -0.9637
  793MPD2    H111691   0.037   0.029  10.676  0.7230  1.9590  0.8141
  793MPD2    H211692   0.106   4.562  10.300 -0.2632 -0.0395 -0.5261
  793MPD2    H311693   4.686   4.653  10.469 -0.2329 -1.1165  1.1397
  793MPD2     N11694   0.306   0.050  10.740 -0.5925 -0.1271 -0.0655
  793MPD2    H511695   0.408   0.054  10.741 -0.5853 -0.0584 -0.9728
  793MPD2    N111696   0.371   4.571  10.306 -0.1945  0.6109 -0.8417
  793MPD2    H711697   0.469   4.582  10.332 -1.1980 -0.6004  3.3378
  794MPD2     C11698   0.750   3.880  17.107  0.2439  0.2492 -0.2554
  794MPD2    C111699   0.714   3.769  17.029 -0.1120 -0.3753  0.0804
  794MPD2    C211700   0.586   3.752  16.986 -0.2299  0.4028 -0.0845
  794MPD2    C311701   0.494   3.851  17.003  0.5487 -0.0272  0.2969
  794MPD2    C411702   0.527   3.963  17.079  0.0118 -0.0304  0.1097
  794MPD2    C511703   0.652   3.971  17.130  0.1726 -0.3794 -0.1424
  794MPD2     H11704   0.559   3.663  16.930 -0.3409 -0.6710  1.6869
  794MPD2    H111705   0.448   4.030  17.112 -1.4702 -2.0636  0.6572
  794MPD2    H211706   0.849   3.891  17.151  0.5693 -1.4888 -0.5456
  794MPD2    H311707   0.673   4.057  17.192  2.3198 -0.4845 -0.7099
  794MPD2     N11708   0.368   3.852  16.945  0.1901  0.0372 -0.2532
  794MPD2    H511709   0.318   3.940  16.956  1.2374  0.5515  0.4280
  794MPD2    N111710   0.807   3.659  17.018  0.1064 -0.2027  0.2651
  794MPD2    H711711   0.776   3.566  16.992 -0.3742  0.0969 -0.2318
  795MPD2     C11712   3.833   1.418  13.905 -0.0230  0.5428  0.0096
  795MPD2    C111713   3.794   1.357  13.787  0.2133  0.6534 -0.6261
  795MPD2    C211714   3.869   1.243  13.748 -0.3900  0.1188  0.7266
  795MPD2    C311715   3.982   1.204  13.824 -0.5697  0.5225  0.3106
  795MPD2    C411716   4.016   1.268  13.941 -0.3061  0.6130 -0.3790
  795MPD2    C511717   3.939   1.380  13.980 -0.3777 -0.6495  0.4038
  795MPD2     H11718   3.859   1.184  13.657 -0.7876 -0.1109  0.9171
  795MPD2    H111719   4.099   1.229  13.999 -1.7780 -1.4250  0.3301
  795MPD2    H211720   3.783   1.512  13.926 -1.3972  0.2669 -2.0221
  795MPD2    H311721   3.967   1.436  14.068  1.6598 -0.6376 -0.2319
  795MPD2     N11722   4.048   1.092  13.777 -0.3202  0.4300  0.0781
  795MPD2    H511723   3.996   1.044  13.704  0.3529  1.7986 -1.2997
  795MPD2    N111724   3.681   1.394  13.710 -0.1076  0.1443 -0.1854
  795MPD2    H711725   3.652   1.328  13.639 -0.8272  0.6325 -0.3409
  796MPD2     C11726   2.824   2.537  15.503 -0.1017  0.3967 -0.2229
  796MPD2    C111727   2.918   2.601  15.590  0.0891 -0.4891  0.1894
  796MPD2    C211728   2.903   2.739  15.606  0.4837  0.1754  0.2352
  796MPD2    C311729   2.793   2.809  15.549 -0.3928  0.3159  0.2001
  796MPD2    C411730   2.713   2.741  15.465 -0.3012 -0.2349  0.8240
  796MPD2    C511731   2.734   2.613  15.435 -0.5788 -0.2242 -0.0630
  796MPD2     H11732   2.957   2.801  15.676  0.1461  1.6497 -0.8029
  796MPD2    H111733   2.625   2.786  15.420  1.0115 -0.5180 -2.0310
  796MPD2    H211734   2.814   2.430  15.488 -0.9930  0.6862 -1.5936
  796MPD2    H311735   2.666   2.559  15.370  1.8984 -1.2807 -1.7965
  796MPD2     N11736   2.793   2.949  15.565 -0.4615 -0.3629 -0.5837
  796MPD2    H511737   2.868   2.993  15.617 -1.3685  1.3452 -0.7310
  796MPD2    N111738   3.009   2.523  15.665 -0.4647 -0.4986  0.7393
  796MPD2    H711739   3.020   2.423  15.648 -0.7318 -0.1889 -1.3017
  797MPD2     C11740   3.632   2.503  16.991  0.0999  0.8133 -0.1053
  797MPD2    C111741   3.730   2.595  17.020  1.0240  0.1829  0.1275
  797MPD2    C211742   3.762   2.697  16.924 -0.7904 -0.4059  0.3512
  797MPD2    C311743   3.687   2.707  16.804  0.0031  0.3441  0.5928
  797MPD2    C411744   3.593   2.618  16.782  0.1849  0.5706  0.0218
  797MPD2    C511745   3.571   2.513  16.875 -0.4740  0.9980  0.9095
  797MPD2     H11746   3.844   2.764  16.947  0.4379 -2.1146  0.8761
  797MPD2    H111747   3.534   2.626  16.691 -2.2341  0.9076  1.6161
  797MPD2    H211748   3.612   2.428  17.067 -2.8008  2.0464  0.3765
  797MPD2    H311749   3.500   2.434  16.852 -0.0251  0.9524 -0.3399
  797MPD2     N11750   3.716   2.809  16.704 -0.5941  0.9244  1.0756
  797MPD2    H511751   3.661   2.815  16.619 -0.2174 -1.5620  0.6629
  797MPD2    N111752   3.809   2.588  17.137 -0.2014  0.0106  0.3642
  797MPD2    H711753   3.882   2.658  17.151 -0.1282 -0.3479  1.7549
  798MPD2     C11754   4.393   2.890  16.793 -0.3298  0.1822  0.2393
  798MPD2    C111755   4.262   2.913  16.818 -1.0229  0.4254  0.3230
  798MPD2    C211756   4.209   2.864  16.932 -0.9561 -0.7212  0.3992
  798MPD2    C311757   4.282   2.797  17.024 -0.6545  0.2060  0.1418
  798MPD2    C411758   4.417   2.768  16.994 -0.0124 -0.0550  0.3428
  798MPD2    C511759   4.465   2.817  16.879  0.7748 -0.1947 -0.4913
  798MPD2     H11760   4.105   2.887  16.951 -0.8456 -1.1097  1.4646
  798MPD2    H111761   4.481   2.718  17.066 -1.0024 -0.3637  1.0150
  798MPD2    H211762   4.446   2.925  16.705  0.2244  0.3867  0.6537
  798MPD2    H311763   4.571   2.805  16.859  0.4051 -1.4302 -1.8033
  798MPD2     N11764   4.214   2.748  17.135  1.1566 -0.1526  0.5600
  798MPD2    H511765   4.118   2.779  17.147  0.8747  0.1862 -2.4903
  798MPD2    N111766   4.169   2.988  16.737 -0.3076  0.2581 -0.5898
  798MPD2    H711767   4.072   2.968  16.760 -0.1315  0.1392  0.0557
  799MPD2     C11768   2.906   3.717  14.314  0.8207 -0.5184 -0.1164
  799MPD2    C111769   2.772   3.730  14.333 -0.4134  0.0043  0.1070
  799MPD2    C211770   2.704   3.837  14.276 -0.0017  0.1076  0.3979
  799MPD2    C311771   2.762   3.925  14.190 -0.0963  0.6088  0.2845
  799MPD2    C411772   2.903   3.930  14.187  0.3985 -0.4210 -0.0022
  799MPD2    C511773   2.971   3.827  14.257 -0.5492 -0.0112  0.4133
  799MPD2     H11774   2.597   3.836  14.289  0.1222 -0.0314  1.4377
  799MPD2    H111775   2.954   4.001  14.124  1.9152 -1.1962  0.3513
  799MPD2    H211776   2.966   3.636  14.352 -0.1002 -0.7675  0.8193
  799MPD2    H311777   3.079   3.829  14.244 -0.6752  0.1913 -0.5974
  799MPD2     N11778   2.699   4.034  14.120  0.1667 -0.0529 -0.2514
  799MPD2    H511779   2.751   4.100  14.063  1.0833 -0.9528 -0.4508
  799MPD2    N111780   2.699   3.634  14.407  0.2439 -0.3929 -0.1770
  799MPD2    H711781   2.599   3.654  14.409  0.3459  0.0788  0.6910
  800MPD2     C11782   3.465   0.545  14.057 -0.4210 -0.2005 -0.7591
  800MPD2    C111783   3.545   0.598  13.964  0.4178  1.2034 -0.7232
  800MPD2    C211784   3.526   0.564  13.833  1.0785  0.6786  0.2793
  800MPD2    C311785   3.408   0.506  13.793  0.4796 -0.0525 -0.6648
  800MPD2    C411786   3.317   0.470  13.893 -0.0462  0.4460  0.9401
  800MPD2    C511787   3.357   0.471  14.019 -0.7392 -0.4026 -0.5132
  800MPD2     H11788   3.591   0.595  13.752  0.1299  2.4975  0.2267
  800MPD2    H111789   3.221   0.427  13.867  0.8533 -1.0748  0.1524
  800MPD2    H211790   3.486   0.552  14.164 -1.1609 -1.3692 -0.5392
  800MPD2    H311791   3.294   0.432  14.098  2.4639 -2.2591  1.1732
  800MPD2     N11792   3.382   0.493  13.656 -0.2787  0.6757 -0.5211
  800MPD2    H511793   3.445   0.541  13.593  0.9201 -0.4017 -0.1492
  800MPD2    N111794   3.640   0.701  14.001 -0.7000 -0.0406  0.3896
  800MPD2    H711795   3.647   0.733  14.097 -2.6750 -1.6324  1.0690
  801MPD2     C11796   3.291   1.182  14.089 -0.3305  0.1544 -0.1850
  801MPD2    C111797   3.370   1.107  14.178  0.1575 -0.7202  0.3263
  801MPD2    C211798   3.317   1.023  14.278  0.1681  0.2092  0.1323
  801MPD2    C311799   3.179   1.016  14.285 -0.1210 -0.1470 -0.0597
  801MPD2    C411800   3.103   1.093  14.202  0.9775 -0.1020  0.0350
  801MPD2    C511801   3.156   1.171  14.104 -0.6021  0.2618  0.2536
  801MPD2     H11802   3.379   0.966  14.346 -0.3415 -0.3231  0.1448
  801MPD2    H111803   2.996   1.084  14.187  0.8253  0.2598  0.8788
  801MPD2    H211804   3.327   1.241  14.006  1.2914 -0.3871  0.1335
  801MPD2    H311805   3.095   1.224  14.032 -0.7081 -1.9579 -1.2948
  801MPD2     N11806   3.115   0.928  14.370 -0.2363 -0.5331 -0.1607
  801MPD2    H511807   3.014   0.929  14.376 -0.1508 -1.3153  1.4491
  801MPD2    N111808   3.513   1.109  14.173  0.9164 -0.3382  0.4760
  801MPD2    H711809   3.566   1.053  14.240 -0.4925 -0.1091  1.7927
  802MPD2     C11810   2.000   0.678  17.120 -0.3761  0.0901 -0.2251
  802MPD2    C111811   2.056   0.608  17.221 -0.2645 -0.0074 -0.5073
  802MPD2    C211812   2.125   0.491  17.200 -0.2419  0.0741 -0.5767
  802MPD2    C311813   2.150   0.449  17.069 -0.1084  0.7387 -0.2593
  802MPD2    C411814   2.084   0.513  16.964 -0.8625 -0.7323 -0.1460
  802MPD2    C511815   2.003   0.619  16.992 -0.1427 -0.1422 -0.2536
  802MPD2     H11816   2.161   0.440  17.288  0.0160  0.6685 -0.3457
  802MPD2    H111817   2.089   0.473  16.863 -0.0050  1.5440 -1.0117
  802MPD2    H211818   1.937   0.765  17.134 -1.8891 -1.2017  1.0478
  802MPD2    H311819   1.952   0.661  16.906  0.3601 -0.5967 -0.7710
  802MPD2     N11820   2.256   0.353  17.051 -0.4335  0.2100  0.4396
  802MPD2    H511821   2.303   0.326  17.137  3.2417  2.7724 -0.7929
  802MPD2    N111822   2.054   0.666  17.352 -0.1060  0.0351 -0.3114
  802MPD2    H711823   2.091   0.604  17.424  0.7022  2.6549  1.5408
  803MPD2     C11824   3.517   4.259  11.972 -0.0965  0.6078  0.7542
  803MPD2    C111825   3.614   4.299  12.064  0.1968 -0.0615 -0.5633
  803MPD2    C211826   3.620   4.244  12.191  0.0675  0.3021 -0.2604
  803MPD2    C311827   3.532   4.143  12.228 -0.6636 -0.0329  0.1392
  803MPD2    C411828   3.438   4.098  12.139 -0.1437  0.3333 -0.1384
  803MPD2    C511829   3.435   4.151  12.012  0.8410  0.1912 -0.1189
  803MPD2     H11830   3.693   4.272  12.267 -2.1363  1.4448  1.4267
  803MPD2    H111831   3.379   4.009  12.151  0.0906  0.2429  0.3281
  803MPD2    H211832   3.503   4.297  11.871 -1.6909  0.8321  1.0600
  803MPD2    H311833   3.349   4.118  11.955  1.3613  0.4271 -1.0383
  803MPD2     N11834   3.533   4.072  12.353 -0.2456  0.2775 -0.0389
  803MPD2    H511835   3.452   4.012  12.365 -0.5022  0.5246 -0.5664
  803MPD2    N111836   3.709   4.393  12.020  0.1901  0.4779  0.2925
  803MPD2    H711837   3.766   4.429  12.095 -1.5284  2.8284  0.4642
  804MPD2     C11838   3.354   0.803  16.799 -0.0542  0.1784 -0.1388
  804MPD2    C111839   3.371   0.774  16.933 -0.0707 -0.1571 -0.7832
  804MPD2    C211840   3.422   0.871  17.019  0.2644  0.0018 -0.4173
  804MPD2    C311841   3.473   0.991  16.972  0.1712  0.1214  1.0431
  804MPD2    C411842   3.445   1.018  16.839  0.8679 -0.0783  0.0595
  804MPD2    C511843   3.396   0.925  16.754  0.7915 -0.6581 -0.0048
  804MPD2     H11844   3.436   0.847  17.124 -3.1509  1.1149  0.2786
  804MPD2    H111845   3.471   1.113  16.795 -1.8191  0.6470  0.0743
  804MPD2    H211846   3.306   0.737  16.728 -1.3722  0.7970  0.1754
  804MPD2    H311847   3.372   0.953  16.653 -3.1941 -1.7326  0.6239
  804MPD2     N11848   3.510   1.082  17.071  0.0363  0.2855  0.5398
  804MPD2    H511849   3.504   1.050  17.168 -3.1552  0.5117  0.4284
  804MPD2    N111850   3.319   0.657  16.998 -0.2926 -0.5918 -0.3938
  804MPD2    H711851   3.332   0.657  17.099 -0.7929  1.9951 -0.3354
  805MPD2     C11852   2.531   3.818  15.533 -0.3353  0.4944 -0.2699
  805MPD2    C111853   2.629   3.723  15.517 -0.0481  0.1304  0.4658
  805MPD2    C211854   2.755   3.746  15.576  0.1946 -0.6044  0.1970
  805MPD2    C311855   2.784   3.870  15.643  0.2480 -0.0430  0.3437
  805MPD2    C411856   2.683   3.965  15.656  0.0733  0.0125 -1.0625
  805MPD2    C511857   2.557   3.932  15.604  0.8300  0.3994 -0.0881
  805MPD2     H11858   2.829   3.669  15.559 -0.5602 -1.3023  0.0370
  805MPD2    H111859   2.692   4.055  15.716  2.1090 -0.0781 -1.2323
  805MPD2    H211860   2.428   3.806  15.503 -0.4173  0.4443  0.0335
  805MPD2    H311861   2.473   3.999  15.616 -0.3687 -1.2533  0.8341
  805MPD2     N11862   2.909   3.893  15.711 -0.2424  0.4132  0.0213
  805MPD2    H511863   2.933   3.981  15.757  1.8229 -0.2514  0.2324
  805MPD2    N111864   2.608   3.612  15.430  0.3980 -0.0630  0.0877
  805MPD2    H711865   2.692   3.559  15.406 -0.1166 -0.7194 -0.2836
  806MPD2     C11866   3.577   3.558   1.744  0.2826  0.1604 -0.2447
  806MPD2    C111867   3.558   3.423   1.710  0.1870 -0.0110 -0.0348
  806MPD2    C211868   3.444   3.377   1.649 -0.0611  0.0735 -0.4532
  806MPD2    C311869   3.341   3.461   1.613  0.6772 -0.4375  0.7214
  806MPD2    C411870   3.353   3.593   1.652  0.1316  0.3340 -0.6341
  806MPD2    C511871   3.469   3.637   1.714 -0.2585 -0.1702  0.0786
  806MPD2     H11872   3.441   3.277   1.607 -0.8559  0.2218 -0.7539
  806MPD2    H111873   3.271   3.664   1.646  1.3206  1.9470  2.4291
  806MPD2    H211874   3.667   3.597   1.789  0.1877  0.1704 -0.0638
  806MPD2    H311875   3.485   3.739   1.747  0.4686 -0.1932 -0.2034
  806MPD2     N11876   3.229   3.416   1.540  0.3095 -0.1512  0.0976
  806MPD2    H511877   3.240   3.324   1.499 -0.3366  0.3121 -1.0867
  806MPD2    N111878   3.664   3.332   1.725  0.4481 -0.2355 -0.1891
  806MPD2    H711879   3.750   3.376   1.754 -0.5589  0.8060  1.2203
  807MPD2     C11880   3.574   2.554   1.653 -0.0929 -0.4821 -0.1143
  807MPD2    C111881   3.539   2.688   1.692 -0.4258  0.1750 -0.0227
  807MPD2    C211882   3.426   2.707   1.753  0.4429  0.3170 -0.0274
  807MPD2    C311883   3.333   2.608   1.767  0.2939  0.5860  0.4507
  807MPD2    C411884   3.352   2.485   1.718  0.0525 -0.7429  0.5493
  807MPD2    C511885   3.478   2.457   1.671  0.0195  0.7894 -0.7902
  807MPD2     H11886   3.410   2.811   1.780 -0.2391  0.4327 -0.8628
  807MPD2    H111887   3.274   2.410   1.726 -1.0285  0.3435  0.1784
  807MPD2    H211888   3.670   2.527   1.610 -0.7547 -0.7285 -1.4341
  807MPD2    H311889   3.498   2.353   1.648  1.6118  0.8270  0.3906
  807MPD2     N11890   3.206   2.621   1.824 -0.7221 -0.2363  0.0934
  807MPD2    H511891   3.158   2.533   1.835  0.2353 -0.6025  1.3012
  807MPD2    N111892   3.631   2.800   1.678  0.1805  0.1029  0.0219
  807MPD2    H711893   3.600   2.893   1.705  1.5650  0.5697  0.0091
  808MPD2     C11894   2.977   0.358   9.567 -0.1755  0.0727 -0.1441
  808MPD2    C111895   2.959   0.336   9.432  0.1098  0.8017 -0.4968
  808MPD2    C211896   3.059   0.372   9.348  0.1632  0.0617  0.2889
  808MPD2    C311897   3.169   0.434   9.401 -0.3007 -0.1120 -0.0303
  808MPD2    C411898   3.187   0.449   9.539  0.0155 -0.0022  0.0760
  808MPD2    C511899   3.091   0.412   9.628  0.1481 -0.3853 -0.1429
  808MPD2     H11900   3.042   0.348   9.244 -0.1352  0.7332  0.1856
  808MPD2    H111901   3.276   0.503   9.571  0.0209  0.2296 -0.3366
  808MPD2    H211902   2.898   0.332   9.635  1.0261 -1.6531  0.6025
  808MPD2    H311903   3.099   0.436   9.733  1.4075  1.4413 -0.6536
  808MPD2     N11904   3.283   0.463   9.319 -0.5748  0.6937 -0.4463
  808MPD2    H511905   3.368   0.484   9.370 -1.1139 -0.0649  0.7587
  808MPD2    N111906   2.847   0.273   9.376  0.6996  0.1109  0.3881
  808MPD2    H711907   2.850   0.267   9.275  0.1886 -0.1526  0.3897
  809MPD2     C11908   4.107   0.209   9.471  0.4676  0.0820 -0.2120
  809MPD2    C111909   4.115   0.347   9.444 -0.9240 -0.1366  0.5532
  809MPD2    C211910   3.998   0.406   9.396  0.0251 -0.4527 -0.1790
  809MPD2    C311911   3.890   0.324   9.356  0.4157  0.3180 -0.1660
  809MPD2    C411912   3.892   0.192   9.385  0.3795  0.6169  0.3305
  809MPD2    C511913   3.997   0.135   9.451  0.7771 -0.1966 -0.5326
  809MPD2     H11914   3.996   0.514   9.385 -5.8453 -0.2424  3.1655
  809MPD2    H111915   3.798   0.139   9.379  1.4055 -1.5627  3.1092
  809MPD2    H211916   4.200   0.170   9.511 -1.3419 -1.4362  2.5209
  809MPD2    H311917   3.985   0.029   9.470 -1.9655  0.1886 -0.0410
  809MPD2     N11918   3.769   0.380   9.299 -0.1888 -0.4093  0.0083
  809MPD2    H511919   3.687   0.325   9.275  1.5678 -2.3038 -1.6353
  809MPD2    N111920   4.232   0.426   9.478 -0.2640  0.7837 -0.4050
  809MPD2    H711921   4.221   0.527   9.481  0.7345  0.9103 -1.2404
  810MPD2     C11922   2.823   0.452   9.908 -0.0827 -0.0266 -0.0737
  810MPD2    C111923   2.740   0.362   9.973 -0.6551 -0.7002 -0.5295
  810MPD2    C211924   2.756   0.356  10.110  0.3815  0.5096  0.0783
  810MPD2    C311925   2.834   0.446  10.176 -0.4247 -0.1849 -0.3725
  810MPD2    C411926   2.924   0.523  10.118 -0.8100 -0.2110  0.3220
  810MPD2    C511927   2.914   0.522   9.981  0.1130  0.1228  0.2847
  810MPD2     H11928   2.715   0.271  10.165  0.7866  0.5705  0.4718
  810MPD2    H111929   2.988   0.589  10.175  0.0328  0.3118 -1.2307
  810MPD2    H211930   2.826   0.452   9.799 -1.7538  0.6890 -0.1123
  810MPD2    H311931   2.995   0.582   9.940  0.2192  0.1928  0.5976
  810MPD2     N11932   2.834   0.451  10.319  0.0488 -0.5577 -0.3264
  810MPD2    H511933   2.921   0.492  10.351 -2.5248  3.1566  1.9194
  810MPD2    N111934   2.670   0.268   9.901 -0.4014  0.1878 -0.1288
  810MPD2    H711935   2.654   0.280   9.802  1.1882  2.1915 -0.1378
  811MPD2     C11936   1.975   0.261   9.466 -1.0543 -0.2924  0.6024
  811MPD2    C111937   2.069   0.332   9.539  0.4297  0.5672  0.1200
  811MPD2    C211938   2.095   0.463   9.495 -0.3499 -0.5939  0.6189
  811MPD2    C311939   2.031   0.511   9.383  1.0307 -0.4412  0.6865
  811MPD2    C411940   1.947   0.435   9.309  0.0715 -0.0899 -0.2223
  811MPD2    C511941   1.911   0.311   9.354 -0.7169 -1.1279  0.6211
  811MPD2     H11942   2.157   0.528   9.556 -1.7095  0.2545  1.0992
  811MPD2    H111943   1.896   0.469   9.220 -0.8866 -1.0492 -0.0406
  811MPD2    H211944   1.959   0.156   9.484 -0.9499 -0.2306  1.0659
  811MPD2    H311945   1.847   0.244   9.297  1.1782 -2.7501  0.3757
  811MPD2     N11946   2.052   0.649   9.351  0.4524  0.0765  0.6360
  811MPD2    H511947   2.104   0.700   9.421  1.3563  0.4441 -0.3069
  811MPD2    N111948   2.129   0.255   9.637  0.4126 -0.0342  0.6238
  811MPD2    H711949   2.091   0.166   9.668 -1.7159  1.2963  1.8262
  812MPD2     C11950   0.988   0.159  11.986 -0.2417  0.6065 -0.3440
  812MPD2    C111951   1.091   0.231  12.042 -0.1003 -0.3528 -0.2567
  812MPD2    C211952   1.154   0.191  12.154 -0.0809  0.1998  0.4331
  812MPD2    C311953   1.119   0.068  12.216  0.0444 -0.2150  0.2341
  812MPD2    C411954   1.012   0.003  12.166  0.2775  0.2741  0.4340
  812MPD2    C511955   0.954   0.043  12.055  0.4649 -0.3934 -0.2002
  812MPD2     H11956   1.235   0.252  12.192  0.9963 -0.5836 -0.6166
  812MPD2    H111957   0.958   4.650  12.221 -2.2436  1.3820 -0.4705
  812MPD2    H211958   0.941   0.180  11.891 -1.0169  0.7768  0.0755
  812MPD2    H311959   0.863   4.716  12.025  0.0297 -0.7404  1.7191
  812MPD2     N11960   1.177   0.045  12.340  0.1372  0.5375 -0.3586
  812MPD2    H511961   1.247   0.112  12.371  0.6743 -0.8770  1.5057
  812MPD2    N111962   1.138   0.341  11.966 -0.3387  0.1780  0.2882
  812MPD2    H711963   1.067   0.377  11.903  1.3457 -0.4313 -1.9633
  813MPD2     C11964   0.770   1.904  12.342  0.2805  0.4273  0.6392
  813MPD2    C111965   0.888   1.952  12.399 -0.6969 -0.1579  0.2173
  813MPD2    C211966   0.909   1.941  12.532  0.5318  0.0973 -0.0913
  813MPD2    C311967   0.816   1.882  12.613  0.6997 -1.2201 -0.5009
  813MPD2    C411968   0.697   1.834  12.557  0.5957 -0.6885  0.8074
  813MPD2    C511969   0.674   1.843  12.425  0.6583 -0.2958  0.0660
  813MPD2     H11970   0.997   1.985  12.578 -1.2165  2.7319  0.7918
  813MPD2    H111971   0.625   1.777  12.616  1.2937  1.3213  3.6196
  813MPD2    H211972   0.759   1.898  12.235 -0.7962  0.3779  0.7543
  813MPD2    H311973   0.589   1.795  12.379 -0.9247  1.3318  1.2855
  813MPD2     N11974   0.849   1.879  12.750 -0.2043  0.0096 -0.0139
  813MPD2    H511975   0.929   1.937  12.775  0.7493 -0.4814 -1.9856
  813MPD2    N111976   0.990   2.024  12.339 -0.4658 -0.9646 -0.0587
  813MPD2    H711977   1.070   2.047  12.398 -0.0165 -0.3335 -0.9027
  814MPD2     C11978   0.984   3.380  12.152 -0.3552 -0.0551 -0.2135
  814MPD2    C111979   1.044   3.408  12.029 -0.4519 -0.3480 -0.0839
  814MPD2    C211980   1.158   3.487  12.026  0.2630 -0.7866 -0.2835
  814MPD2    C311981   1.213   3.537  12.138  0.4454 -0.2437 -0.2905
  814MPD2    C411982   1.154   3.509  12.258 -0.2084  0.3366  0.3210
  814MPD2    C511983   1.043   3.435  12.263 -0.8156  0.8085  0.2601
  814MPD2     H11984   1.210   3.501  11.932  1.0676 -0.0281  0.2801
  814MPD2    H111985   1.202   3.543  12.349  2.0050  0.4747 -0.8842
  814MPD2    H211986   0.893   3.323  12.159  0.5345 -1.5544 -0.9082
  814MPD2    H311987   0.980   3.420  12.350 -0.1807 -0.9472  0.4176
  814MPD2     N11988   1.336   3.613  12.135 -0.3122  0.2677  0.0403
  814MPD2    H511989   1.357   3.655  12.225 -1.2240  2.9034 -0.9807
  814MPD2    N111990   1.001   3.351  11.903  0.2929  0.0152 -0.0842
  814MPD2    H711991   1.050   3.383  11.820 -1.2185 -1.2364 -1.4565
  815MPD2     C11992   1.372   1.124  11.811 -0.0976  0.4716 -0.3428
  815MPD2    C111993   1.383   1.166  11.678  0.1083  0.0066  0.1842
  815MPD2    C211994   1.266   1.184  11.605  0.0543  0.0998 -0.0808
  815MPD2    C311995   1.140   1.182  11.666  0.3988  0.3177  0.0556
  815MPD2    C411996   1.127   1.137  11.800 -0.3174  0.4810 -0.1449
  815MPD2    C511997   1.245   1.110  11.866  0.1735  0.9900 -0.4177
  815MPD2     H11998   1.273   1.204  11.499  0.3310  0.8545  0.0798
  815MPD2    H111999   1.031   1.133  11.849  0.0650 -1.1880  0.4797
  815MPD2    H212000   1.453   1.090  11.874 -0.1184 -0.4511 -0.8134
  815MPD2    H312001   1.240   1.076  11.969 -0.7807 -1.8130 -1.4013
  815MPD2     N12002   1.036   1.195  11.574  0.0385  0.1964  0.3226
  815MPD2    H512003   1.064   1.219  11.479  0.2196 -0.0890  0.3044
  815MPD2    N112004   1.509   1.159  11.618  0.1022 -0.2814 -0.1145
  815MPD2    H712005   1.586   1.122  11.673  1.3732 -1.2707 -2.5485
  816MPD2     C12006   1.746   0.413  17.546  0.2242 -0.5224 -0.0672
  816MPD2    C112007   1.730   0.496  17.438  0.6719 -0.0248  0.1428
  816MPD2    C212008   1.766   0.451  17.315  0.0152  0.2990  0.2752
  816MPD2    C312009   1.807   0.325  17.295 -0.3152 -0.0712  0.1244
  816MPD2    C412010   1.817   0.242  17.396  0.1893  0.0310 -0.3740
  816MPD2    C512011   1.800   0.287  17.529 -0.0696 -0.1925  0.0546
  816MPD2     H12012   1.767   0.520  17.231  0.3394  1.9418  1.6238
  816MPD2    H112013   1.843   0.138  17.379  0.8661  0.2624 -0.7838
  816MPD2    H212014   1.736   0.451  17.647  2.4572 -0.9903  0.3288
  816MPD2    H312015   1.800   0.212  17.607 -2.2331  1.2796  1.4845
  816MPD2     N12016   1.840   0.289  17.162  0.1998 -0.0790  0.1680
  816MPD2    H512017   1.813   0.354  17.090 -0.7369  0.8553  1.3540
  816MPD2    N112018   1.685   0.626  17.472  0.4622  0.3248  0.5186
  816MPD2    H712019   1.670   0.641  17.572 -0.9390 -0.8551  0.4951
  817MPD2     C12020   2.022   2.779   9.864 -0.3613 -0.3400 -0.3690
  817MPD2    C112021   1.902   2.757   9.811  0.2907  0.9096 -0.4162
  817MPD2    C212022   1.833   2.863   9.749  0.1950  0.3933  0.0330
  817MPD2    C312023   1.882   2.993   9.752  0.0824 -0.6480 -0.9365
  817MPD2    C412024   2.006   3.012   9.802  0.1112  0.4016 -0.1607
  817MPD2    C512025   2.071   2.907   9.860 -0.4813 -0.4117 -0.4841
  817MPD2     H12026   1.734   2.845   9.707  0.3360  0.7067 -0.4377
  817MPD2    H112027   2.045   3.113   9.806  1.1129 -0.0128  0.6877
  817MPD2    H212028   2.084   2.708   9.918 -1.7115 -0.4858  0.9771
  817MPD2    H312029   2.167   2.930   9.905 -0.4657  0.6404 -1.0636
  817MPD2     N12030   1.792   3.097   9.714  0.4981 -0.5204  0.1772
  817MPD2    H512031   1.704   3.072   9.671 -0.3990 -0.5751  2.0380
  817MPD2    N112032   1.842   2.631   9.800 -0.2764 -0.3122  0.0611
  817MPD2    H712033   1.743   2.631   9.779  0.2218 -1.1279 -2.2569
  818MPD2     C12034   0.166   2.890  10.060  0.2404  1.2331 -1.0566
  818MPD2    C112035   0.078   2.788  10.088 -0.2468  0.3404 -0.1437
  818MPD2    C212036   0.018   2.719   9.988 -0.4773 -0.8884  0.1718
  818MPD2    C312037   0.054   2.737   9.854 -0.1200 -0.2635 -0.5105
  818MPD2    C412038   0.143   2.840   9.825  0.2766  0.2947 -0.0466
  818MPD2    C512039   0.193   2.916   9.927  0.0292  0.4444  0.3728
  818MPD2     H12040   4.676   2.637  10.015 -1.4888 -0.9482 -2.4714
  818MPD2    H112041   0.148   2.870   9.720 -1.5946 -0.8228 -0.4650
  818MPD2    H212042   0.219   2.950  10.133  0.3149 -0.8634  0.6183
  818MPD2    H312043   0.273   2.987   9.913  0.6504 -0.5718 -1.1839
  818MPD2     N12044   4.717   2.661   9.749  0.8076  0.4307  0.1154
  818MPD2    H512045   0.022   2.679   9.654  1.2114  0.0021  0.1566
  818MPD2    N112046   0.051   2.756  10.220  0.0107 -0.7103  0.2271
  818MPD2    H712047   4.722   2.670  10.234 -0.6985  0.1885  3.1990
  819MPD2     C12048   3.265   3.399  15.610 -0.6180  0.4397 -0.0997
  819MPD2    C112049   3.344   3.300  15.676 -0.7384 -0.3534  0.6102
  819MPD2    C212050   3.445   3.350  15.760  0.3968  0.4874  0.1791
  819MPD2    C312051   3.466   3.486  15.773  0.1602  0.5834  0.5276
  819MPD2    C412052   3.397   3.573  15.698  0.5230 -0.1971 -0.4095
  819MPD2    C512053   3.299   3.529  15.615 -0.0660  0.7183 -0.0012
  819MPD2     H12054   3.493   3.273  15.819 -0.3899  0.3110  0.5819
  819MPD2    H112055   3.416   3.679  15.684  1.2217 -0.1217  1.0111
  819MPD2    H212056   3.180   3.371  15.548 -2.6274  1.1325  2.3377
  819MPD2    H312057   3.252   3.594  15.541 -0.2377  0.6246  0.0261
  819MPD2     N12058   3.573   3.532  15.852  0.9356  0.0597 -0.1109
  819MPD2    H512059   3.645   3.469  15.885  1.1937 -0.1089 -0.9845
  819MPD2    N112060   3.313   3.163  15.655  0.1574 -0.9293 -0.3116
  819MPD2    H712061   3.229   3.153  15.600 -0.3380 -0.1207  0.2917
  820MPD2     C12062   2.721   2.857  15.044  0.1103  0.1519 -0.3327
  820MPD2    C112063   2.753   2.959  15.135 -0.7338 -0.0258  0.1724
  820MPD2    C212064   2.865   2.940  15.223 -0.4796  0.1763  0.0927
  820MPD2    C312065   2.950   2.822  15.207  0.2167  0.0353 -0.4603
  820MPD2    C412066   2.920   2.723  15.109 -0.0485 -0.9124 -0.0688
  820MPD2    C512067   2.806   2.746  15.032 -0.0335 -0.1170 -0.3039
  820MPD2     H12068   2.875   3.005  15.309 -0.0774  1.4047 -0.8876
  820MPD2    H112069   2.977   2.633  15.093  2.4825  0.7905 -0.7152
  820MPD2    H212070   2.648   2.874  14.965 -1.4491 -2.2536  0.6026
  820MPD2    H312071   2.776   2.684  14.949  0.7728 -1.0422  0.1031
  820MPD2     N12072   3.058   2.787  15.300  0.0308 -0.4252 -0.0189
  820MPD2    H512073   3.097   2.694  15.294  0.8581 -0.0296 -0.8639
  820MPD2    N112074   2.676   3.077  15.129 -0.1035  0.0469 -0.1554
  820MPD2    H712075   2.588   3.072  15.080 -1.0896 -0.4736  1.6590
  821MPD2     C12076   2.983   0.752  12.987  0.0908  0.1386  0.0649
  821MPD2    C112077   3.118   0.731  12.997 -0.2731 -0.3627  0.3226
  821MPD2    C212078   3.202   0.819  12.927  0.0644  0.6460  0.2908
  821MPD2    C312079   3.153   0.903  12.834 -0.3951 -0.0375 -0.2678
  821MPD2    C412080   3.017   0.906  12.821 -0.1353  0.2770 -0.1074
  821MPD2    C512081   2.929   0.836  12.893 -0.6327 -0.2898  0.0270
  821MPD2     H12082   3.308   0.803  12.936  0.3210  0.9678 -2.2715
  821MPD2    H112083   2.976   0.981  12.755 -0.9798 -0.5194 -0.4952
  821MPD2    H212084   2.919   0.698  13.056  1.1337 -0.0207  0.9241
  821MPD2    H312085   2.823   0.859  12.895 -0.1818  2.0582 -1.6587
  821MPD2     N12086   3.232   0.989  12.761 -0.1423  0.4529 -0.0677
  821MPD2    H512087   3.191   1.033  12.679  0.7607  0.5024 -0.4894
  821MPD2    N112088   3.171   0.635  13.082 -0.1252  0.2209  0.7324
  821MPD2    H712089   3.273   0.635  13.082 -0.1337 -1.7082 -1.3707
  822MPD2     C12090   3.866   0.095  15.817  1.0475  0.5458 -0.3716
  822MPD2    C112091   3.866   0.046  15.945 -0.2751  0.0696 -0.7659
  822MPD2    C212092   3.795   0.111  16.048 -0.1230 -0.6326 -0.5662
  822MPD2    C312093   3.741   0.232  16.026  0.0164 -0.0373  1.1082
  822MPD2    C412094   3.741   0.277  15.896 -0.2332  0.5534 -0.7946
  822MPD2    C512095   3.799   0.211  15.793  0.5480  0.0050  0.5125
  822MPD2     H12096   3.780   0.057  16.141 -1.2561 -0.0402 -0.4001
  822MPD2    H112097   3.680   0.363  15.867  2.2829  2.6657  0.2206
  822MPD2    H212098   3.930   0.052  15.740  1.9573  0.4833  0.4246
  822MPD2    H312099   3.801   0.254  15.694 -2.6338  1.1806  0.9651
  822MPD2     N12100   3.672   0.302  16.132 -0.9429  0.2864  0.2692
  822MPD2    H512101   3.656   0.244  16.214  0.7924  0.2824  0.6048
  822MPD2    N112102   3.942   4.655  15.986 -0.1238 -0.8160 -0.6497
  822MPD2    H712103   3.947   4.633  16.085  1.2921  0.6049 -0.3855
  823MPD2     C12104   3.622   0.487  16.923 -0.0374 -0.3884 -0.2200
  823MPD2    C112105   3.569   0.400  16.832 -0.3866 -0.0848  0.0279
  823MPD2    C212106   3.537   0.278  16.890  0.4751 -0.5288  0.8307
  823MPD2    C312107   3.554   0.247  17.024 -0.4205  0.0300  0.5133
  823MPD2    C412108   3.589   0.345  17.109  0.7520  0.2107  0.3306
  823MPD2    C512109   3.634   0.466  17.060  0.0030  0.1284  0.1758
  823MPD2     H12110   3.508   0.199  16.822  0.1742  0.0359  0.3093
  823MPD2    H112111   3.590   0.336  17.217  0.3591 -1.4114  0.1900
  823MPD2    H212112   3.656   0.588  16.899 -0.6361 -0.8669 -3.0633
  823MPD2    H312113   3.657   0.547  17.128  1.6493 -0.0168 -0.2135
  823MPD2     N12114   3.504   0.125  17.085 -0.5349 -0.1017  0.3201
  823MPD2    H512115   3.497   0.115  17.186  0.6174  1.4556  0.5394
  823MPD2    N112116   3.566   0.450  16.700  0.1862 -0.3521  0.2311
  823MPD2    H712117   3.620   0.533  16.677  1.1222 -1.0702 -0.1764
  824MPD2     C12118   4.199   4.017  15.600  0.1175  0.2957  0.3905
  824MPD2    C112119   4.290   4.099  15.662  0.1785  0.0879  0.8604
  824MPD2    C212120   4.414   4.124  15.613  0.2783 -0.4640  0.0222
  824MPD2    C312121   4.460   4.045  15.510  0.0315  0.6353 -0.0310
  824MPD2    C412122   4.372   3.964  15.450 -0.6512 -0.1609 -0.0828
  824MPD2    C512123   4.242   3.940  15.493  0.7461  0.8809  0.3308
  824MPD2     H12124   4.476   4.202  15.655  2.4902 -2.3121  0.1800
  824MPD2    H112125   4.406   3.899  15.370 -1.8445 -1.3249  0.3479
  824MPD2    H212126   4.095   4.015  15.633 -0.0283 -0.5235 -0.1236
  824MPD2    H312127   4.171   3.879  15.439 -4.2107  4.9654  2.2687
  824MPD2     N12128   4.593   4.068  15.461 -0.3643 -0.3824  0.2804
  824MPD2    H512129   4.646   4.140  15.509 -1.6662 -0.7516  2.2815
  824MPD2    N112130   4.246   4.184  15.770  0.3776 -0.2952  0.1277
  824MPD2    H712131   4.309   4.259  15.797 -0.1943 -0.7163  2.6099
  825MPD2     C12132   0.644   4.430  15.236  0.2343  0.0174  0.8145
  825MPD2    C112133   0.518   4.437  15.298 -0.3208  0.1720 -0.7214
  825MPD2    C212134   0.470   4.560  15.346 -0.0944 -0.4838 -0.7804
  825MPD2    C312135   0.549   4.669  15.329  0.5577 -0.2981  0.0448
  825MPD2    C412136   0.665   4.659  15.259  0.1434 -0.1088 -0.1866
  825MPD2    C512137   0.722   4.540  15.212 -0.2109 -0.0213  0.1006
  825MPD2     H12138   0.373   4.575  15.392 -0.1665  0.0410 -1.1139
  825MPD2    H112139   0.718   0.029  15.243 -0.9922  0.4918 -0.4325
  825MPD2    H212140   0.682   4.334  15.203 -1.7363  0.7928 -3.7260
  825MPD2    H312141   0.818   4.535  15.162  0.3536 -0.9230  1.2668
  825MPD2     N12142   0.515   0.074  15.372 -0.5073  0.3511 -0.7516
  825MPD2    H512143   0.558   0.151  15.322 -0.4348  0.6062 -0.2977
  825MPD2    N112144   0.442   4.316  15.321 -0.6872  0.1069 -0.1074
  825MPD2    H712145   0.481   4.226  15.294 -0.3279 -0.6112  2.8772
  826MPD2     C12146   4.714   4.258  13.867 -0.2411  0.0294  0.3662
  826MPD2    C112147   4.678   4.312  13.747  0.2816 -0.3673 -0.7793
  826MPD2    C212148   4.594   4.415  13.747  0.1273  0.1550  0.6736
  826MPD2    C312149   4.555   4.484  13.860  0.1482  1.0650 -0.2411
  826MPD2    C412150   4.591   4.432  13.977 -0.2938 -0.1865  0.2889
  826MPD2    C512151   4.669   4.319  13.981 -0.2373  0.2145 -0.0315
  826MPD2     H12152   4.550   4.452  13.655 -0.0856  1.9900  1.4944
  826MPD2    H112153   4.560   4.470  14.073  0.9109  0.5387  0.3973
  826MPD2    H212154   0.049   4.167  13.871 -0.1543  0.0668 -0.0756
  826MPD2    H312155   4.687   4.274  14.078 -2.3872 -2.0434 -0.6750
  826MPD2     N12156   4.471   4.595  13.862  0.8746  0.4028  0.4779
  826MPD2    H512157   4.447   4.640  13.950 -1.3579 -1.1913  0.6680
  826MPD2    N112158   0.010   4.254  13.630  0.3218 -0.4343  0.0180
  826MPD2    H712159   0.063   4.168  13.637  0.6709 -0.1214  1.1656
  827MPD2     C12160   0.891   1.596   9.393  0.3993 -0.0264 -0.0967
  827MPD2    C112161   0.810   1.506   9.463 -0.3073 -0.0446 -0.5705
  827MPD2    C212162   0.673   1.508   9.444 -0.7987 -0.5118  0.8789
  827MPD2    C312163   0.617   1.606   9.362 -0.5993 -1.2291 -0.8909
  827MPD2    C412164   0.699   1.689   9.288  0.3562 -0.5025 -0.2652
  827MPD2    C512165   0.838   1.688   9.311  0.5325  0.5180 -0.0151
  827MPD2     H12166   0.611   1.438   9.498 -0.1412 -0.1863  2.0602
  827MPD2    H112167   0.665   1.768   9.221 -0.5732  0.2735  1.1154
  827MPD2    H212168   0.998   1.611   9.406  0.0445  1.1177  1.4293
  827MPD2    H312169   0.902   1.766   9.270  1.0595  0.6142  0.9806
  827MPD2     N12170   0.473   1.614   9.347 -0.0765 -0.0085  0.4990
  827MPD2    H512171   0.423   1.531   9.376 -0.6328  0.6616  1.5002
  827MPD2    N112172   0.876   1.427   9.567  0.7598  0.1997  0.1216
  827MPD2    H712173   0.977   1.417   9.560  0.7334  0.8222 -1.0217
  828MPD2     C12174   3.865   0.573  12.679 -0.0237  0.7509  0.3476
  828MPD2    C112175   3.863   0.529  12.549 -0.2609  0.1568 -0.0196
  828MPD2    C212176   3.971   0.448  12.514 -0.7374  0.0747 -0.2672
  828MPD2    C312177   4.077   0.410  12.598 -0.1209  0.1500  0.3138
  828MPD2    C412178   4.055   0.437  12.729 -0.4383  0.7034  0.0458
  828MPD2    C512179   3.955   0.524  12.766  0.1474  0.0946 -0.2534
  828MPD2     H12180   3.971   0.403  12.416  0.3885  0.9819 -0.6858
  828MPD2    H112181   4.119   0.402  12.809 -0.3683 -1.4386 -0.9716
  828MPD2    H212182   3.793   0.644  12.719 -0.8349 -1.6958  3.2569
  828MPD2    H312183   3.946   0.549  12.871  1.3767  3.3841 -0.9481
  828MPD2     N12184   4.191   0.337  12.566  0.1486  0.4660 -0.2495
  828MPD2    H512185   4.254   0.313  12.642 -1.0527  0.0237  0.6087
  828MPD2    N112186   3.761   0.566  12.458 -0.0079 -0.4339  0.6651
  828MPD2    H712187   3.772   0.513  12.372  0.5803  1.3884 -0.3989
  829MPD2     C12188   3.884   0.573  11.602  0.4702  0.4946 -0.2510
  829MPD2    C112189   3.746   0.601  11.593 -0.2017  0.1200 -0.3174
  829MPD2    C212190   3.674   0.605  11.712 -0.2924  0.1198 -0.7035
  829MPD2    C312191   3.736   0.591  11.841 -0.1474 -0.4758 -0.3452
  829MPD2    C412192   3.870   0.577  11.844  0.1948 -0.2846 -0.1919
  829MPD2    C512193   3.934   0.556  11.728  0.0553 -0.3803  0.9140
  829MPD2     H12194   3.567   0.624  11.709 -0.6609 -2.0434 -1.2049
  829MPD2    H112195   3.916   0.554  11.940 -0.9713 -0.4029  0.3394
  829MPD2    H212196   3.954   0.582  11.520  1.1501  0.8837  0.3705
  829MPD2    H312197   4.041   0.544  11.742  0.3602  0.2494 -0.9232
  829MPD2     N12198   3.679   0.601  11.963  0.2568 -0.1163  0.0261
  829MPD2    H512199   3.746   0.594  12.039  0.6183 -0.7854 -0.3451
  829MPD2    N112200   3.688   0.612  11.462  0.2815  0.2226  0.5054
  829MPD2    H712201   3.755   0.614  11.385 -0.2752 -0.4448  0.0052
  830MPD2     C12202   4.379   3.619  15.743 -0.3288 -0.1231 -0.1077
  830MPD2    C112203   4.254   3.604  15.695  0.5307  0.6980  0.3025
  830MPD2    C212204   4.227   3.593  15.558 -0.2358 -0.0463 -0.4847
  830MPD2    C312205   4.343   3.595  15.473  0.0512 -0.8286  0.0658
  830MPD2    C412206   4.465   3.615  15.523  0.4802  0.0072  0.5463
  830MPD2    C512207   4.484   3.640  15.656  0.3639 -0.3813  0.9226
  830MPD2     H12208   4.127   3.573  15.522  0.3138 -1.2316 -1.3418
  830MPD2    H112209   4.552   3.635  15.461  0.6882  1.8036  1.4154
  830MPD2    H212210   4.390   3.652  15.846  1.6859  0.0920 -0.3833
  830MPD2    H312211   4.575   3.674  15.704  0.3152  0.9645  0.0575
  830MPD2     N12212   4.329   3.598  15.330  0.3605  0.1332 -0.2518
  830MPD2    H512213   4.418   3.610  15.283 -1.2504  3.5378 -2.3601
  830MPD2    N112214   4.148   3.614  15.785  0.1537 -0.0966  0.0783
  830MPD2    H712215   4.179   3.642  15.877  0.5938  1.3082 -0.4880
  831MPD2     C12216   3.977   0.334  16.474  0.2031 -1.2580 -0.6367
  831MPD2    C112217   4.010   0.246  16.376  0.2479 -0.3939 -0.9147
  831MPD2    C212218   3.935   0.129  16.374 -0.9895 -0.0845 -0.4135
  831MPD2    C312219   3.831   0.101  16.465  0.0640 -0.1262 -0.4041
  831MPD2    C412220   3.795   0.196  16.558  0.2302  0.5227  0.2843
  831MPD2    C512221   3.873   0.312  16.562 -0.0229  0.1483 -0.1003
  831MPD2     H12222   3.956   0.069  16.286 -1.6598  0.8080 -1.1974
  831MPD2    H112223   3.719   0.175  16.632 -0.2193  2.0539  0.2519
  831MPD2    H212224   4.030   0.428  16.478  0.9442 -1.8413  2.8986
  831MPD2    H312225   3.835   0.389  16.629  0.6946 -0.8640  1.4690
  831MPD2     N12226   3.761   4.702  16.460  0.6412 -0.2008 -0.3862
  831MPD2    H512227   3.705   4.678  16.541  0.5448 -1.1607 -0.7320
  831MPD2    N112228   4.101   0.280  16.274 -0.0780 -0.1799  0.6097
  831MPD2    H712229   4.121   0.378  16.259 -2.7452  0.0319 -1.5701
  832MPD2     C12230   2.369   0.709  16.924  0.3295  0.3165  0.4759
  832MPD2    C112231   2.356   0.828  16.993 -0.0881  0.4836  0.1904
  832MPD2    C212232   2.279   0.927  16.928  0.0753  0.1799 -0.5998
  832MPD2    C312233   2.213   0.906  16.812  0.6575  0.2183  0.0467
  832MPD2    C412234   2.225   0.784  16.751 -0.5280 -0.0711 -0.2775
  832MPD2    C512235   2.311   0.695  16.806 -0.6700 -0.1155  0.4733
  832MPD2     H12236   2.241   1.008  16.989  3.0454  0.8968  0.2801
  832MPD2    H112237   2.174   0.751  16.662 -2.0257 -0.4954  0.7376
  832MPD2    H212238   2.432   0.629  16.961  0.8138  0.3032 -0.3848
  832MPD2    H312239   2.311   0.595  16.763 -0.3758  1.1763 -2.4787
  832MPD2     N12240   2.107   0.990  16.760 -0.1117 -0.6011 -0.0984
  832MPD2    H512241   2.048   0.951  16.687  1.6029 -2.7996 -0.3289
  832MPD2    N112242   2.410   0.847  17.125 -0.1262 -0.6291 -0.2599
  832MPD2    H712243   2.436   0.766  17.180  0.0241 -1.1526 -1.0908
  833MPD2     C12244   4.295   3.541  12.934  0.6537  0.6721 -0.1430
  833MPD2    C112245   4.399   3.560  12.850 -0.4533 -0.1153 -0.7453
  833MPD2    C212246   4.458   3.441  12.804  0.0569 -0.4521 -0.0968
  833MPD2    C312247   4.408   3.315  12.820 -0.8927  0.3496  0.0031
  833MPD2    C412248   4.287   3.303  12.893  0.3933  0.4230  1.2429
  833MPD2    C512249   4.237   3.418  12.948 -0.1134 -0.0751 -0.2172
  833MPD2     H12250   4.546   3.447  12.741  0.0149 -2.3866 -0.3255
  833MPD2    H112251   4.228   3.213  12.897 -0.8633  1.2276  1.0241
  833MPD2    H212252   4.234   3.621  12.974 -0.4994 -1.0249  1.5123
  833MPD2    H312253   4.146   3.413  13.006 -0.3979 -1.6178 -0.8025
  833MPD2     N12254   4.469   3.199  12.756 -0.1054  0.0513 -0.3185
  833MPD2    H512255   4.426   3.112  12.787 -0.0570  0.5233  1.1034
  833MPD2    N112256   4.435   3.694  12.821  0.7543 -0.3099 -0.4680
  833MPD2    H712257   4.370   3.767  12.846  2.0639  0.7793 -0.2707
  834MPD2     C12258   4.117   2.529  12.103 -0.2749 -0.5759 -0.1167
  834MPD2    C112259   4.182   2.624  12.020  0.7838 -0.0825 -0.3288
  834MPD2    C212260   4.245   2.733  12.084  0.1952  0.0216 -0.6703
  834MPD2    C312261   4.254   2.738  12.220  0.0157  1.0369 -0.1906
  834MPD2    C412262   4.199   2.644  12.298  0.2912  0.9473  0.9153
  834MPD2    C512263   4.131   2.542  12.239  0.4538 -0.2082  0.3801
  834MPD2     H12264   4.293   2.809  12.024  2.6472 -0.4917  0.6389
  834MPD2    H112265   4.212   2.636  12.406 -1.3475  3.3757  1.2769
  834MPD2    H212266   4.059   2.443  12.071 -1.9648  0.6284 -0.3162
  834MPD2    H312267   4.073   2.483  12.309 -0.2469 -0.6188 -0.5341
  834MPD2     N12268   4.331   2.848  12.277 -0.0585  0.0866  0.6300
  834MPD2    H512269   4.362   2.914  12.205 -3.0008  0.0667 -0.6441
  834MPD2    N112270   4.173   2.603  11.882  0.8022  0.9342  0.5715
  834MPD2    H712271   4.104   2.535  11.852 -0.6680  1.7405  2.1818
  835MPD2     C12272   4.604   1.359  10.303 -0.1733  0.1873 -0.2079
  835MPD2    C112273   4.479   1.327  10.341 -0.6002  0.2150  0.2618
  835MPD2    C212274   4.461   1.242  10.456 -0.6243  0.1888 -0.1357
  835MPD2    C312275   4.574   1.211  10.534 -0.3928 -0.2920  0.1887
  835MPD2    C412276   4.698   1.257  10.494  0.3956  0.0411 -0.3168
  835MPD2    C512277   4.709   1.325  10.376 -0.5247  0.3161 -0.0346
  835MPD2     H12278   4.358   1.214  10.474 -0.0200 -1.5076  0.6981
  835MPD2    H112279   0.069   1.224  10.535  0.5699 -0.4815 -1.1350
  835MPD2    H212280   4.622   1.405  10.207  0.0393 -1.3655 -0.9190
  835MPD2    H312281   0.084   1.343  10.333 -0.1488 -0.9638  0.2659
  835MPD2     N12282   4.577   1.120  10.638 -0.9013  0.4005  0.4380
  835MPD2    H512283   4.669   1.100  10.676 -1.1062  1.3353  1.4490
  835MPD2    N112284   4.359   1.368  10.276  0.3103 -0.0264  0.1908
  835MPD2    H712285   4.267   1.329  10.294  1.1796 -0.5311  3.3780
  836MPD2     C12286   4.483   0.997  11.473 -0.5046  0.1613 -0.4362
  836MPD2    C112287   4.397   0.960  11.370  0.2686 -0.0121 -1.2919
  836MPD2    C212288   4.265   0.920  11.409 -0.5093  0.8833 -0.2211
  836MPD2    C312289   4.234   0.938  11.544  0.0781 -0.1420  0.2834
  836MPD2    C412290   4.323   0.968  11.640  0.6139 -0.3525 -0.9135
  836MPD2    C512291   4.443   1.004  11.603 -0.1229 -0.1640 -0.6322
  836MPD2     H12292   4.195   0.878  11.338 -3.3111 -1.8057  4.1362
  836MPD2    H112293   4.303   0.979  11.746  0.5104 -0.6367 -0.9034
  836MPD2    H212294   4.584   1.029  11.449 -0.0175 -0.9079  0.1323
  836MPD2    H312295   4.511   1.061  11.666 -2.2211 -1.5429  2.9100
  836MPD2     N12296   4.100   0.938  11.584 -0.3127  0.2931 -0.1820
  836MPD2    H512297   4.075   0.928  11.681  1.6925  3.0583  0.6152
  836MPD2    N112298   4.448   0.958  11.237  0.0403 -0.0881 -0.3010
  836MPD2    H712299   4.542   0.989  11.215  0.7702 -1.3617  1.0150
  837MPD2     C12300   2.412   1.128   9.720 -0.0162  0.6650  0.5518
  837MPD2    C112301   2.362   1.197   9.610  0.6767 -0.0934 -0.1108
  837MPD2    C212302   2.373   1.333   9.606 -0.3966 -0.0291  0.9714
  837MPD2    C312303   2.410   1.407   9.720 -0.6259 -0.5963  0.0502
  837MPD2    C412304   2.465   1.338   9.822 -0.0665  0.4610  0.1300
  837MPD2    C512305   2.475   1.202   9.819 -0.6468  0.0785  0.4650
  837MPD2     H12306   2.324   1.388   9.526  0.7090 -2.6023 -1.4606
  837MPD2    H112307   2.510   1.387   9.908  1.4799 -0.3799 -0.2070
  837MPD2    H212308   2.411   1.021   9.732  0.7579  0.6399  0.4104
  837MPD2    H312309   2.519   1.152   9.905  2.3666 -0.6423 -1.4626
  837MPD2     N12310   2.384   1.543   9.711  0.3963 -0.1982 -0.1265
  837MPD2    H512311   2.349   1.572   9.621 -0.7369 -1.1103  0.0251
  837MPD2    N112312   2.293   1.136   9.505  0.3481 -0.0978  0.5735
  837MPD2    H712313   2.266   1.195   9.427 -0.6318 -2.7008 -1.0521
  838MPD2     C12314   0.510   3.555  11.209 -0.2567  0.2369  0.1671
  838MPD2    C112315   0.502   3.655  11.298 -0.4119 -0.1101  0.5347
  838MPD2    C212316   0.403   3.643  11.401  0.4058 -0.2421 -0.1881
  838MPD2    C312317   0.321   3.531  11.402 -0.4626  0.8120 -0.1227
  838MPD2    C412318   0.342   3.428  11.312 -0.0477 -0.1533 -0.6135
  838MPD2    C512319   0.443   3.435  11.220 -0.8925 -0.5674  0.7191
  838MPD2     H12320   0.397   3.716  11.481  1.2327 -0.5159  0.1286
  838MPD2    H112321   0.279   3.341  11.327  0.8463 -1.0411 -1.9826
  838MPD2    H212322   0.579   3.554  11.126  0.3245 -2.8657  0.6891
  838MPD2    H312323   0.455   3.360  11.143 -1.7718  0.2355 -0.2058
  838MPD2     N12324   0.229   3.524  11.507 -0.4151 -0.2112  0.4883
  838MPD2    H512325   0.245   3.597  11.576  2.7856 -0.8276  0.4082
  838MPD2    N112326   0.590   3.773  11.295  0.7134 -0.8910  0.3624
  838MPD2    H712327   0.580   3.841  11.370 -1.6427 -0.6742 -0.1357
  839MPD2     C12328   0.566   3.408  11.780  0.3009  0.1311  0.1371
  839MPD2    C112329   0.592   3.392  11.648 -0.5033 -0.2851  0.6000
  839MPD2    C212330   0.658   3.492  11.579  0.7876  0.0800  0.3729
  839MPD2    C312331   0.725   3.586  11.646 -0.0726 -0.0214 -0.1666
  839MPD2    C412332   0.726   3.580  11.785  0.4029  0.1965  0.0668
  839MPD2    C512333   0.635   3.505  11.852  0.2793  0.0375  0.5543
  839MPD2     H12334   0.647   3.482  11.472 -4.1193  0.0686  0.9069
  839MPD2    H112335   0.782   3.652  11.843 -1.7589  2.2902 -0.4742
  839MPD2    H212336   0.502   3.343  11.837 -1.3337  1.0190 -0.6904
  839MPD2    H312337   0.631   3.517  11.960 -2.8830  1.1251  0.3249
  839MPD2     N12338   0.785   3.695  11.571  0.4569 -0.3087 -0.5970
  839MPD2    H512339   0.774   3.691  11.471 -1.0873  0.3024 -0.4530
  839MPD2    N112340   0.532   3.290  11.568 -0.9224 -0.0841 -0.1607
  839MPD2    H712341   0.537   3.299  11.467 -1.4521 -0.7629 -0.2473
  840MPD2     C12342   1.460   1.525   9.779 -0.1631 -0.2297 -0.6624
  840MPD2    C112343   1.398   1.466   9.885 -0.1421 -0.1983  0.3835
  840MPD2    C212344   1.460   1.459  10.012  0.1994 -0.0116 -0.4414
  840MPD2    C312345   1.585   1.522  10.024 -0.0951  0.8418 -0.0297
  840MPD2    C412346   1.644   1.579   9.917  0.2010 -0.0992  0.6139
  840MPD2    C512347   1.586   1.567   9.790  0.2855 -0.0057 -0.5029
  840MPD2     H12348   1.422   1.395  10.090  3.7928  0.0306  1.3166
  840MPD2    H112349   1.745   1.619   9.922  0.5704 -0.4832 -3.9469
  840MPD2    H212350   1.401   1.541   9.690  1.6818  1.5590 -1.5686
  840MPD2    H312351   1.638   1.606   9.703 -2.3604  0.2227 -1.9659
  840MPD2     N12352   1.666   1.521  10.146  0.0534 -0.5632  0.4998
  840MPD2    H512353   1.761   1.557  10.149  0.1628 -0.8142  0.0711
  840MPD2    N112354   1.261   1.411   9.869  0.0129 -0.2056  0.6307
  840MPD2    H712355   1.221   1.415   9.775  2.0256 -0.2865 -0.2323
  841MPD2     C12356   0.491   0.602  14.178 -0.2740 -0.0029 -0.1701
  841MPD2    C112357   0.599   0.612  14.099  0.4184 -0.1447 -0.6397
  841MPD2    C212358   0.706   0.689  14.140  0.8022  0.5377  0.0110
  841MPD2    C312359   0.699   0.756  14.263 -0.2448 -0.3873  0.2225
  841MPD2    C412360   0.582   0.747  14.343  0.0004 -0.4195  0.3908
  841MPD2    C512361   0.483   0.671  14.293 -0.2569  0.4626  0.4742
  841MPD2     H12362   0.793   0.701  14.076  2.2830  0.8479  2.0888
  841MPD2    H112363   0.568   0.795  14.439  2.6447  0.8783  0.1247
  841MPD2    H212364   0.406   0.549  14.135  0.0529 -0.9765  0.3781
  841MPD2    H312365   0.396   0.634  14.346 -0.5006 -0.3415 -0.4896
  841MPD2     N12366   0.832   0.798  14.304 -0.1715  0.2651 -0.3316
  841MPD2    H512367   0.908   0.790  14.237  0.7870  0.3703  0.7438
  841MPD2    N112368   0.589   0.551  13.969  0.1604 -0.2026  0.4797
  841MPD2    H712369   0.657   0.585  13.902  0.7108 -0.7158  0.7821
  842MPD2     C12370   1.565   1.646  16.680  0.5414  0.1353 -0.6863
  842MPD2    C112371   1.443   1.633  16.744 -0.3183  0.1958 -0.6364
  842MPD2    C212372   1.433   1.608  16.879  0.1925  0.1736 -0.3000
  842MPD2    C312373   1.549   1.610  16.956  0.0244  1.2608 -0.7410
  842MPD2    C412374   1.668   1.617  16.889 -0.5926 -0.2978  0.9506
  842MPD2    C512375   1.677   1.643  16.755  0.2545  0.7456  0.0787
  842MPD2     H12376   1.341   1.574  16.925  0.5607  0.2328  0.4691
  842MPD2    H112377   1.764   1.611  16.939 -0.5246  2.1413  1.1275
  842MPD2    H212378   1.580   1.667  16.575 -3.0483 -2.4495 -1.7278
  842MPD2    H312379   1.774   1.661  16.711 -0.0285  2.2174  0.0759
  842MPD2     N12380   1.551   1.586  17.097  0.4715 -0.2646 -0.2675
  842MPD2    H512381   1.640   1.560  17.138 -0.4120 -0.3999  1.5598
  842MPD2    N112382   1.327   1.650  16.660  0.0052 -0.1643 -0.1168
  842MPD2    H712383   1.344   1.666  16.561 -0.3133 -1.8909 -0.4487
  843MPD2     C12384   3.387   1.727   0.442  1.0144 -0.0405  0.2537
  843MPD2    C112385   3.346   1.857   0.443 -0.1733  0.1533  0.2337
  843MPD2    C212386   3.440   1.958   0.436 -0.1971  0.0625  0.5509
  843MPD2    C312387   3.572   1.940   0.440  0.2039  0.1643 -0.0440
  843MPD2    C412388   3.615   1.814   0.456 -0.4948  0.3379 -0.0418
  843MPD2    C512389   3.525   1.709   0.457  0.6917  0.2391  0.5243
  843MPD2     H12390   3.401   2.058   0.429  0.7179  0.2452 -2.0185
  843MPD2    H112391   3.719   1.784   0.462 -1.3879 -2.1991  2.2815
  843MPD2    H212392   3.323   1.639   0.440  1.3146 -0.2862  1.0958
  843MPD2    H312393   3.562   1.608   0.447  0.9932  0.6115 -2.2858
  843MPD2     N12394   3.673   2.035   0.421  0.6340  0.8808  0.2350
  843MPD2    H512395   3.768   2.003   0.432 -1.1885 -4.2441  1.3495
  843MPD2    N112396   3.203   1.874   0.470  0.9886  0.4540 -1.0249
  843MPD2    H712397   3.150   1.789   0.487  0.9281  0.4519 -1.2206
  844MPD2     C12398   2.224   1.313  16.450  0.7945 -0.4391 -0.7987
  844MPD2    C112399   2.261   1.186  16.443 -0.4056 -0.1643 -0.1221
  844MPD2    C212400   2.341   1.132  16.543  0.7675  0.3225  0.1400
  844MPD2    C312401   2.392   1.218  16.639 -0.0165 -0.5155 -0.0214
  844MPD2    C412402   2.370   1.352  16.637  0.0308 -0.4839  0.2312
  844MPD2    C512403   2.278   1.396  16.554  0.3027  0.8643 -0.5780
  844MPD2     H12404   2.368   1.027  16.541  0.9145  0.3817 -0.8255
  844MPD2    H112405   2.412   1.414  16.715 -1.9125  0.2352  0.7024
  844MPD2    H212406   2.160   1.352  16.372 -0.6011 -0.7516  0.1823
  844MPD2    H312407   2.237   1.496  16.565  0.7978  1.0437 -0.3686
  844MPD2     N12408   2.484   1.166  16.728  0.1646 -0.7538  0.2134
  844MPD2    H512409   2.509   1.071  16.701  0.2239 -0.6025 -0.2633
  844MPD2    N112410   2.208   1.120  16.327 -0.6902 -0.5972 -0.5760
  844MPD2    H712411   2.138   1.170  16.274 -1.0869 -1.9719 -1.3504
  845MPD2     C12412   2.741   1.871  17.190 -0.4597  0.0575 -0.6602
  845MPD2    C112413   2.646   1.822  17.100  0.3163 -0.1180  0.4329
  845MPD2    C212414   2.658   1.697  17.050  0.1828 -0.8183  0.3801
  845MPD2    C312415   2.765   1.616  17.086  0.0084  0.1631 -0.1732
  845MPD2    C412416   2.854   1.663  17.182 -0.2436 -0.1150  0.3247
  845MPD2    C512417   2.841   1.792  17.231  0.2415  0.5527  0.4428
  845MPD2     H12418   2.577   1.660  16.987 -0.1190  0.8732 -0.2203
  845MPD2    H112419   2.938   1.605  17.220 -0.7335  0.0625  1.6973
  845MPD2    H212420   2.744   1.974  17.223 -0.9726  0.3451 -1.5086
  845MPD2    H312421   2.921   1.833  17.292 -0.0594  0.8080  0.6662
  845MPD2     N12422   2.777   1.488  17.029 -0.7145  0.2607  0.4500
  845MPD2    H512423   2.697   1.456  16.975 -2.0607  4.3833 -0.0075
  845MPD2    N112424   2.541   1.913  17.067 -0.2753 -0.6428 -0.0622
  845MPD2    H712425   2.537   1.986  17.138  2.7804 -1.4765  0.9694
  846MPD2     C12426   3.932   2.605  13.505 -0.7090  0.4751  0.8215
  846MPD2    C112427   3.868   2.725  13.527  0.4376 -0.1424  0.4669
  846MPD2    C212428   3.836   2.758  13.657 -0.1173  0.7438  0.0685
  846MPD2    C312429   3.854   2.669  13.761 -0.5880  0.8488 -0.0605
  846MPD2    C412430   3.913   2.549  13.733  0.1820 -0.1962 -0.1542
  846MPD2    C512431   3.955   2.520  13.609 -0.4740 -0.3446  0.8984
  846MPD2     H12432   3.793   2.855  13.677 -0.4537  0.3972  1.0085
  846MPD2    H112433   3.929   2.463  13.797 -2.0431  2.0656  3.4192
  846MPD2    H212434   3.965   2.579  13.405  0.6557 -1.4088  1.7759
  846MPD2    H312435   4.002   2.428  13.575  0.6361 -0.2116  2.0831
  846MPD2     N12436   3.827   2.703  13.893  0.9682  0.2311  0.5914
  846MPD2    H512437   3.769   2.784  13.911 -0.0987 -0.5972  0.8609
  846MPD2    N112438   3.852   2.829  13.430  0.3836  0.3003  0.0258
  846MPD2    H712439   3.801   2.911  13.463 -1.2166 -0.8634  0.4419
  847MPD2     C12440   3.702   3.493  14.051 -0.4742  0.0549 -0.3612
  847MPD2    C112441   3.805   3.576  14.026  0.3303  0.7557 -0.1516
  847MPD2    C212442   3.936   3.522  14.039  0.0720  0.1127  0.2300
  847MPD2    C312443   3.966   3.388  14.062  0.2353  0.2797 -0.4680
  847MPD2    C412444   3.854   3.310  14.079 -0.4365  0.3233  0.0014
  847MPD2    C512445   3.727   3.365  14.069 -1.1866  0.4005 -0.3225
  847MPD2     H12446   4.022   3.586  14.025  1.3823 -1.0690  2.8176
  847MPD2    H112447   3.871   3.203  14.085  0.2286  0.4787  0.8014
  847MPD2    H212448   3.600   3.531  14.046 -0.2366  0.6739 -0.4108
  847MPD2    H312449   3.634   3.309  14.076 -1.7771  1.5699  1.2117
  847MPD2     N12450   4.101   3.341  14.077  0.4872 -0.6282 -0.1906
  847MPD2    H512451   4.176   3.408  14.061  0.6825 -0.9058 -0.4513
  847MPD2    N112452   3.789   3.712  13.999 -0.0272  0.0088 -0.0956
  847MPD2    H712453   3.874   3.764  13.981  0.7133 -1.5286 -1.0152
  848MPD2     C12454   1.695   1.158  16.139 -0.5296 -0.8832 -0.0465
  848MPD2    C112455   1.662   1.247  16.239 -0.4434 -0.1428  0.5055
  848MPD2    C212456   1.603   1.370  16.216  0.5346 -0.8997 -0.2276
  848MPD2    C312457   1.590   1.418  16.087 -0.1171 -0.3146 -0.3254
  848MPD2    C412458   1.619   1.327  15.981  0.0800  0.2067  0.0232
  848MPD2    C512459   1.673   1.206  16.014 -0.3935 -0.0097 -0.2345
  848MPD2     H12460   1.582   1.428  16.305 -2.0174 -1.5984 -0.3686
  848MPD2    H112461   1.623   1.357  15.877 -3.1456  2.1574  0.4680
  848MPD2    H212462   1.751   1.066  16.151 -2.3024 -1.9243  0.1824
  848MPD2    H312463   1.718   1.145  15.936  0.4905  0.4012 -0.0461
  848MPD2     N12464   1.564   1.556  16.060 -0.0857 -0.0478  0.0527
  848MPD2    H512465   1.560   1.592  15.965 -1.8153  1.3400  0.6644
  848MPD2    N112466   1.693   1.215  16.376  0.4114  0.3044  0.3195
  848MPD2    H712467   1.673   1.283  16.448  1.4914  0.6045  0.3310
  849MPD2     C12468   1.174   1.889  13.487  0.3374 -0.9584 -1.3958
  849MPD2    C112469   1.243   1.776  13.467  0.0022  0.2129 -0.3257
  849MPD2    C212470   1.239   1.675  13.565  0.0270 -0.4666 -0.4944
  849MPD2    C312471   1.154   1.678  13.673 -0.6141  0.2378 -0.4059
  849MPD2    C412472   1.079   1.795  13.687 -0.5093 -0.1147 -0.4935
  849MPD2    C512473   1.094   1.896  13.594  0.5061 -0.4570 -0.0976
  849MPD2     H12474   1.296   1.583  13.558  1.0855  0.1410  0.2458
  849MPD2    H112475   1.007   1.808  13.766  1.3526  0.0235  1.1769
  849MPD2    H212476   1.192   1.968  13.416 -0.9628  1.0143  0.4529
  849MPD2    H312477   1.026   1.981  13.598  1.3054  0.2656 -2.0066
  849MPD2     N12478   1.151   1.568  13.761 -0.1167  0.4309  0.3646
  849MPD2    H512479   1.203   1.491  13.719 -1.4881 -1.0898  1.4269
  849MPD2    N112480   1.337   1.766  13.363 -0.0066  0.0314 -0.1147
  849MPD2    H712481   1.404   1.691  13.378  1.2138  0.9854 -0.8518
  850MPD2     C12482   3.931   0.204  14.900  0.6382 -0.1117  1.0451
  850MPD2    C112483   3.994   0.088  14.926 -0.3861 -0.3992 -0.0041
  850MPD2    C212484   4.132   0.099  14.939  0.2204  0.5830  0.5216
  850MPD2    C312485   4.197   0.218  14.921 -0.6871  0.2092 -1.0578
  850MPD2    C412486   4.129   0.335  14.888 -0.1795 -0.3165  0.6935
  850MPD2    C512487   3.996   0.322  14.891  0.4579 -0.1289  0.2255
  850MPD2     H12488   4.191   0.009  14.947 -1.0623 -0.3856 -0.8240
  850MPD2    H112489   4.185   0.427  14.883 -0.5024 -0.3230 -2.9271
  850MPD2    H212490   3.823   0.211  14.901  0.7484  1.5857 -1.5494
  850MPD2    H312491   3.942   0.414  14.876  1.4506  0.6478  1.4617
  850MPD2     N12492   4.335   0.223  14.940  0.4022  0.5708 -0.2110
  850MPD2    H512493   4.376   0.316  14.932  0.8382  0.0812 -3.5849
  850MPD2    N112494   3.934   4.693  14.956 -0.2671  0.4175  0.0736
  850MPD2    H712495   3.993   4.612  14.977 -2.1787 -1.4779 -1.8886
  851MPD2     C12496   4.282   4.254  14.737  0.2695  0.1624 -0.0558
  851MPD2    C112497   4.175   4.199  14.795  0.6585 -0.2061 -0.7702
  851MPD2    C212498   4.187   4.070  14.848  0.0963 -0.3993 -0.0588
  851MPD2    C312499   4.311   4.008  14.847 -0.4571  0.5607  0.3662
  851MPD2    C412500   4.422   4.067  14.791  0.9039  0.2124 -0.0873
  851MPD2    C512501   4.405   4.195  14.734 -0.7434 -0.1970 -0.5297
  851MPD2     H12502   4.102   4.027  14.900  0.5947  0.6290  1.6196
  851MPD2    H112503   4.520   4.021  14.789  2.1545  2.8572 -0.8733
  851MPD2    H212504   4.277   4.357  14.702 -2.2910  0.2371  0.5539
  851MPD2    H312505   4.494   4.241  14.693  0.6292 -2.2477  0.1164
  851MPD2     N12506   4.311   3.881  14.906  0.2977  0.3507 -0.4242
  851MPD2    H512507   4.222   3.857  14.950 -0.0569  2.5261  0.0096
  851MPD2    N112508   4.054   4.270  14.795 -0.0381  0.6914 -0.6284
  851MPD2    H712509   4.062   4.369  14.776  2.9063  0.4004 -0.8697
  852MPD2     C12510   3.227   2.118  10.198 -0.2335 -0.9576  0.2426
  852MPD2    C112511   3.183   2.246  10.158  0.0809  0.6609 -0.0445
  852MPD2    C212512   3.249   2.294  10.046 -0.4790 -0.1211  0.4690
  852MPD2    C312513   3.350   2.226   9.973 -0.1432  0.1626 -0.3969
  852MPD2    C412514   3.382   2.096  10.006  0.0282  0.0891  0.4619
  852MPD2    C512515   3.313   2.044  10.115 -0.5534  0.4064 -0.3937
  852MPD2     H12516   3.218   2.395  10.019 -1.5284 -0.6683 -0.3917
  852MPD2    H112517   3.446   2.027   9.952 -0.1625  0.2915 -0.0197
  852MPD2    H212518   3.179   2.080  10.287  1.0490 -0.3640  1.1868
  852MPD2    H312519   3.342   1.945  10.149  1.3300  0.9110 -0.5400
  852MPD2     N12520   3.404   2.294   9.862 -0.3250  0.2915 -0.0629
  852MPD2    H512521   3.370   2.387   9.841 -1.1274  0.2855  1.2044
  852MPD2    N112522   3.079   2.307  10.232  0.5203 -0.4217 -0.2686
  852MPD2    H712523   3.049   2.262  10.318  0.4786  0.3242  0.1144
  853MPD2     C12524   1.122   2.559  11.939 -0.1750  0.8104 -0.1006
  853MPD2    C112525   0.986   2.545  11.961 -0.0983  0.1324 -0.3414
  853MPD2    C212526   0.903   2.504  11.863 -0.5926 -1.1107 -0.1526
  853MPD2    C312527   0.959   2.473  11.742 -0.1575 -0.2986  0.3444
  853MPD2    C412528   1.094   2.497  11.712 -0.0560 -0.1066  0.4989
  853MPD2    C512529   1.175   2.540  11.813  0.1157 -0.4334 -0.2568
  853MPD2     H12530   0.798   2.490  11.886 -1.0216  0.0613 -1.3555
  853MPD2    H112531   1.129   2.482  11.611  0.2281  2.1336  0.2877
  853MPD2    H212532   1.186   2.592  12.020  2.1022  1.2670 -2.0807
  853MPD2    H312533   1.279   2.567  11.802  0.6040 -1.2253  2.4305
  853MPD2     N12534   0.889   2.414  11.642  0.3470  0.1322  0.2633
  853MPD2    H512535   0.938   2.398  11.555  2.9886  1.8699  1.4570
  853MPD2    N112536   0.938   2.560  12.097 -0.4617 -0.0807  0.4137
  853MPD2    H712537   0.995   2.608  12.165 -0.6695 -2.4980  2.2755
  854MPD2     C12538   2.083   2.527  13.084 -0.3621  0.4386  0.7568
  854MPD2    C112539   2.138   2.505  12.961 -0.1872  0.0402 -0.5171
  854MPD2    C212540   2.239   2.408  12.946 -0.4792  0.4574 -0.8817
  854MPD2    C312541   2.296   2.352  13.061  0.6040 -0.5525  0.2253
  854MPD2    C412542   2.252   2.389  13.185 -0.0570  0.4362  0.1757
  854MPD2    C512543   2.145   2.475  13.194 -0.5554  0.3593 -0.2295
  854MPD2     H12544   2.268   2.372  12.848  0.4580  0.8054 -0.7322
  854MPD2    H112545   2.288   2.361  13.283 -1.5197  1.0609  0.8875
  854MPD2    H212546   2.002   2.598  13.097  1.4534  2.7691 -0.6323
  854MPD2    H312547   2.124   2.521  13.289  3.8374  1.2938  0.3036
  854MPD2     N12548   2.406   2.257  13.051  0.6298 -0.3400  0.3405
  854MPD2    H512549   2.440   2.230  12.959 -0.0892  1.1461 -0.3609
  854MPD2    N112550   2.079   2.580  12.860  0.2498 -0.2222  0.0240
  854MPD2    H712551   2.010   2.651  12.882 -0.9762 -1.9161  1.5990
  855MPD2     C12552   3.101   1.913  13.717 -0.3683 -0.9655 -0.4230
  855MPD2    C112553   3.019   1.806  13.684  0.2670  0.5193  0.0296
  855MPD2    C212554   2.935   1.814  13.572  0.3875  0.0347  0.3539
  855MPD2    C312555   2.928   1.934  13.509  0.4508 -0.0091 -0.0638
  855MPD2    C412556   3.007   2.036  13.540  0.5390 -0.2456  0.5692
  855MPD2    C512557   3.094   2.029  13.640  0.6042 -0.1409 -0.0327
  855MPD2     H12558   2.880   1.722  13.552 -0.9563  1.2559 -1.6794
  855MPD2    H112559   3.000   2.127  13.482 -2.9385 -1.4025 -0.8169
  855MPD2    H212560   3.165   1.915  13.804 -0.9530 -1.0670  0.0094
  855MPD2    H312561   3.146   2.120  13.670 -2.3707  1.7129 -0.5129
  855MPD2     N12562   2.852   1.955  13.388  0.6875  0.1522  0.1644
  855MPD2    H512563   2.848   2.046  13.344 -0.6509  0.7618  1.5252
  855MPD2    N112564   3.016   1.700  13.779 -0.1247 -0.6508  0.4232
  855MPD2    H712565   3.076   1.710  13.860  0.1157 -1.2945  0.3241
  856MPD2     C12566   0.124   2.947  13.407 -1.1348  0.5051 -0.1133
  856MPD2    C112567   0.191   3.016  13.507  0.6558  0.3065  0.6329
  856MPD2    C212568   0.161   3.145  13.521  0.0437 -0.6521  0.1334
  856MPD2    C312569   0.071   3.212  13.440 -0.0206  0.2123 -0.8496
  856MPD2    C412570   4.722   3.143  13.347  0.1210 -0.1910  0.4359
  856MPD2    C512571   0.033   3.010  13.323 -1.0190 -0.1642  0.2212
  856MPD2     H12572   0.194   3.195  13.611  1.9211 -1.0442 -0.3435
  856MPD2    H112573   4.650   3.183  13.277  0.1455 -0.5416  0.2132
  856MPD2    H212574   0.143   2.841  13.390 -1.2908  0.7938 -2.0240
  856MPD2    H312575   4.721   2.960  13.234 -2.9543  1.4487  0.0779
  856MPD2     N12576   0.040   3.353  13.456  0.6468  0.5251  0.1289
  856MPD2    H512577   4.676   3.381  13.413  0.4350 -0.5407 -0.1280
  856MPD2    N112578   0.284   2.960  13.600  0.3387  0.8908 -0.1272
  856MPD2    H712579   0.317   3.016  13.677  0.2317  0.2630  0.3803
  857MPD2     C12580   1.917   0.412  13.086 -0.0845 -0.3336  0.0184
  857MPD2    C112581   1.962   0.489  12.979  0.2984 -0.0442  0.0724
  857MPD2    C212582   2.056   0.588  13.004  0.0711  0.1283 -0.5924
  857MPD2    C312583   2.110   0.597  13.134  0.1921 -0.6248  0.9347
  857MPD2    C412584   2.066   0.516  13.233  0.7418  0.4467  0.2041
  857MPD2    C512585   1.964   0.431  13.211  0.3381  0.0886 -0.5549
  857MPD2     H12586   2.084   0.646  12.917  0.7964  2.7333  1.3936
  857MPD2    H112587   2.113   0.508  13.331 -3.5225 -0.0530  2.1742
  857MPD2    H212588   1.842   0.335  13.070  0.7603 -1.3401  0.9069
  857MPD2    H312589   1.938   0.367  13.294 -0.0915  1.3248  0.2621
  857MPD2     N12590   2.217   0.692  13.152 -0.1477 -0.0805 -0.5678
  857MPD2    H512591   2.236   0.754  13.074 -2.4309  1.2651 -0.0599
  857MPD2    N112592   1.905   0.457  12.852 -0.3309  0.2303  0.5736
  857MPD2    H712593   1.832   0.387  12.850  0.2835 -0.4544  2.2591
  858MPD2     C12594   2.143   3.680  16.424  0.6111  0.3157 -1.1525
  858MPD2    C112595   2.273   3.731  16.436  0.4145 -0.4758  0.2293
  858MPD2    C212596   2.294   3.830  16.527 -0.3949 -0.3496 -0.3530
  858MPD2    C312597   2.188   3.899  16.595 -0.4054 -0.1618 -0.4839
  858MPD2    C412598   2.057   3.858  16.564 -0.1579  0.0237 -0.3262
  858MPD2    C512599   2.039   3.754  16.475  0.1790  0.8467  0.1690
  858MPD2     H12600   2.395   3.848  16.560 -1.0729 -1.9930  2.5814
  858MPD2    H112601   1.976   3.920  16.600  0.5833  1.3251 -0.9262
  858MPD2    H212602   2.129   3.594  16.359  1.5351 -0.1305 -0.7679
  858MPD2    H312603   1.940   3.710  16.467 -0.0415  1.1978  0.9926
  858MPD2     N12604   2.213   4.011  16.685  0.0490 -0.2247  0.9007
  858MPD2    H512605   2.137   4.053  16.737 -0.3877 -0.2107  0.2534
  858MPD2    N112606   2.376   3.654  16.369 -0.2509  0.5945 -0.6876
  858MPD2    H712607   2.342   3.574  16.317  0.4285 -0.8483  1.0988
  859MPD2     C12608   0.743   1.276  15.005 -0.5266  0.0388 -0.0135
  859MPD2    C112609   0.847   1.301  15.098  0.2184  0.1416  0.2961
  859MPD2    C212610   0.869   1.214  15.196 -0.5335  0.1999  0.0921
  859MPD2    C312611   0.813   1.082  15.188  0.2676 -0.1030 -0.4510
  859MPD2    C412612   0.714   1.062  15.094  0.5103 -0.3961 -0.6779
  859MPD2    C512613   0.670   1.163  15.013  0.8556 -0.6024  0.1887
  859MPD2     H12614   0.946   1.233  15.270 -0.7265 -0.9869  0.6046
  859MPD2    H112615   0.665   0.965  15.090  2.2115 -1.2543 -0.7114
  859MPD2    H212616   0.711   1.346  14.929 -0.9129  2.1661  2.1123
  859MPD2    H312617   0.598   1.145  14.934 -0.1516  0.9917  0.7575
  859MPD2     N12618   0.852   0.974  15.275 -0.1599 -0.6630  0.7647
  859MPD2    H512619   0.807   0.883  15.268 -1.3387  0.0292 -0.5264
  859MPD2    N112620   0.924   1.413  15.074  0.0880 -0.1711  0.3294
  859MPD2    H712621   0.909   1.463  14.986 -0.0300 -2.0452 -0.7262
  860MPD2     C12622   3.002   1.925  11.363  0.3463 -0.5834  0.2071
  860MPD2    C112623   3.052   2.016  11.453 -0.4208 -0.7354  0.2732
  860MPD2    C212624   2.988   2.040  11.573 -0.0994  0.0432 -0.2474
  860MPD2    C312625   2.873   1.970  11.601 -0.5284  0.0807 -0.1774
  860MPD2    C412626   2.816   1.886  11.510  0.2803 -0.1753  0.2077
  860MPD2    C512627   2.878   1.862  11.390  0.4171 -0.0318 -0.1982
  860MPD2     H12628   3.034   2.100  11.650  0.0210  1.6952 -1.6012
  860MPD2    H112629   2.718   1.843  11.528 -0.0232  0.3396 -0.2390
  860MPD2    H212630   3.058   1.910  11.271 -0.2086  0.8666 -0.3758
  860MPD2    H312631   2.833   1.791  11.321  1.1820 -1.5641  0.8800
  860MPD2     N12632   2.812   1.995  11.730  0.5523 -0.3255 -0.9463
  860MPD2    H512633   2.853   2.070  11.784  0.4232  0.8780 -2.5356
  860MPD2    N112634   3.179   2.079  11.436 -1.0987 -0.3299  0.7150
  860MPD2    H712635   3.214   2.108  11.527  2.4272 -0.6637 -0.5284
  861MPD2     C12636   2.445   0.588  10.690 -0.2548  0.4986 -0.0642
  861MPD2    C112637   2.334   0.619  10.764 -0.6424  0.4040 -0.7271
  861MPD2    C212638   2.235   0.695  10.703 -0.1229 -0.5268  0.3896
  861MPD2    C312639   2.253   0.735  10.571 -0.0547 -0.4192  0.7699
  861MPD2    C412640   2.364   0.694  10.490 -0.1347  0.5167  0.4603
  861MPD2    C512641   2.456   0.616  10.559  0.4189 -0.1226  0.7555
  861MPD2     H12642   2.152   0.729  10.764 -1.2183 -0.5755 -1.0727
  861MPD2    H112643   2.370   0.727  10.387  1.3879  1.3374  0.8151
  861MPD2    H212644   2.536   0.544  10.730 -1.6044 -1.2303  1.0548
  861MPD2    H312645   2.535   0.572  10.500 -0.2895 -0.3680 -0.0162
  861MPD2     N12646   2.152   0.809  10.501 -0.4079 -0.9303  0.5125
  861MPD2    H512647   2.159   0.820  10.400  2.0285 -0.3536  0.7458
  861MPD2    N112648   2.317   0.581  10.899 -0.1302  0.2326  0.1298
  861MPD2    H712649   2.224   0.592  10.938 -0.6922  0.5710 -1.3106
  862MPD2     C12650   1.714   1.159   9.984 -0.0702  0.2139  0.5676
  862MPD2    C112651   1.772   1.055  10.049 -0.2417 -0.1752  0.0002
  862MPD2    C212652   1.728   0.924  10.018  0.0199  0.3452 -0.0050
  862MPD2    C312653   1.630   0.894   9.920 -0.4650  0.1221  0.1807
  862MPD2    C412654   1.583   1.007   9.850 -0.0421  0.0657  0.5199
  862MPD2    C512655   1.623   1.140   9.884  0.1701 -0.4036 -0.6881
  862MPD2     H12656   1.786   0.846  10.066  1.0704  0.1809 -1.5524
  862MPD2    H112657   1.503   0.996   9.777 -0.7187  1.9138  0.9853
  862MPD2    H212658   1.737   1.263   9.998  4.8551 -0.6863 -0.8366
  862MPD2    H312659   1.589   1.232   9.838  2.0544  0.9462  0.6192
  862MPD2     N12660   1.579   0.759   9.899  0.3621 -0.0848 -0.0992
  862MPD2    H512661   1.509   0.752   9.826  1.6894  0.0816 -1.3851
  862MPD2    N112662   1.874   1.067  10.147 -0.2222  0.3069  0.4791
  862MPD2    H712663   1.896   0.977  10.189  0.2483 -0.0890 -0.6016
  863MPD2     C12664   0.501   2.994  16.846 -0.3299 -0.3452 -0.3874
  863MPD2    C112665   0.582   2.995  16.738 -0.1879  0.2195 -0.3126
  863MPD2    C212666   0.698   2.921  16.742 -0.1643  0.5310 -0.0566
  863MPD2    C312667   0.741   2.864  16.858  0.1285  0.7602 -0.6050
  863MPD2    C412668   0.661   2.866  16.967  0.6277  0.5712 -0.1305
  863MPD2    C512669   0.540   2.931  16.959  0.4688  0.1493 -0.1093
  863MPD2     H12670   0.767   2.903  16.660  1.3237  1.4305  1.0121
  863MPD2    H112671   0.688   2.799  17.048  0.9600 -0.6550 -1.2474
  863MPD2    H212672   0.407   3.048  16.848  0.1012  0.4092 -0.5772
  863MPD2    H312673   0.472   2.916  17.041  1.1424 -0.3878  0.3554
  863MPD2     N12674   0.866   2.794  16.869  0.2880 -0.2735 -0.7050
  863MPD2    H512675   0.888   2.766  16.964  0.9489  1.0482 -0.4650
  863MPD2    N112676   0.530   3.058  16.617  0.0525  0.2224  0.6081
  863MPD2    H712677   0.438   3.098  16.635  1.0436  3.1194 -0.9595
  864MPD2     C12678   0.990   0.080  16.848  0.2499 -0.5731 -0.4443
  864MPD2    C112679   1.033   4.688  16.787  0.3807 -0.1892 -0.0557
  864MPD2    C212680   1.144   4.694  16.703 -0.3528 -0.2403 -0.1276
  864MPD2    C312681   1.218   0.086  16.683 -0.5722  0.0258 -0.2013
  864MPD2    C412682   1.170   0.197  16.739 -0.2742  0.4959 -0.5010
  864MPD2    C512683   1.058   0.203  16.826  0.5087  0.6791  0.0272
  864MPD2     H12684   1.178   4.597  16.669 -0.2636  0.1624 -1.1707
  864MPD2    H112685   1.218   0.291  16.712  0.2646 -0.0102 -1.3237
  864MPD2    H212686   0.904   0.063  16.912  1.0786  0.2592  0.8990
  864MPD2    H312687   1.025   0.291  16.881 -2.7850  0.1445 -1.0926
  864MPD2     N12688   1.338   0.078  16.614 -0.4947  0.5352  0.3129
  864MPD2    H512689   1.356   4.713  16.567 -1.7576  0.3008  0.2883
  864MPD2    N112690   0.960   4.571  16.807  0.3251 -0.3384  0.7229
  864MPD2    H712691   0.895   4.575  16.885 -2.7816  1.6552 -1.9775
  865MPD2     C12692   1.382   4.670  15.677  0.6482  0.8709  0.1513
  865MPD2    C112693   1.354   4.574  15.778  0.1877  0.8823  0.2924
  865MPD2    C212694   1.380   4.606  15.908 -0.4948  0.0726  0.1155
  865MPD2    C312695   1.426   0.008  15.946 -0.9041 -0.4486 -0.1500
  865MPD2    C412696   1.450   0.097  15.849 -0.0207 -0.2283 -0.2052
  865MPD2    C512697   1.425   0.065  15.715  0.8206  0.1066 -0.4701
  865MPD2     H12698   1.381   4.536  15.991 -1.9764  0.1966  0.2318
  865MPD2    H112699   1.468   0.201  15.874  1.3487 -0.3473 -0.7329
  865MPD2    H212700   1.338   4.657  15.579 -0.0042  1.9522  0.3056
  865MPD2    H312701   1.430   0.143  15.640  1.6160  1.4357  0.9578
  865MPD2     N12702   1.461   0.028  16.079 -0.0878 -0.2578 -0.0410
  865MPD2    H512703   1.460   4.672  16.143 -0.7999 -1.0892 -1.0990
  865MPD2    N112704   1.312   4.443  15.736  0.0269  0.1888  0.3268
  865MPD2    H712705   1.312   4.430  15.636 -0.5669 -0.8465  0.4629
  866MPD2     C12706   2.776   0.962  11.499 -0.3687 -0.8973 -0.0573
  866MPD2    C112707   2.821   0.925  11.374 -0.6042 -0.0680  0.2507
  866MPD2    C212708   2.756   0.988  11.266 -0.4114 -0.3932 -0.0630
  866MPD2    C312709   2.651   1.072  11.285 -1.1245 -0.5292 -0.1119
  866MPD2    C412710   2.613   1.108  11.411  0.1730 -0.3796  1.0153
  866MPD2    C512711   2.680   1.057  11.519 -1.0063  0.4015 -0.0457
  866MPD2     H12712   2.782   0.965  11.163  0.2705  2.9714 -0.6166
  866MPD2    H112713   2.529   1.172  11.433  0.0235 -0.4649  0.6819
  866MPD2    H212714   2.827   0.919  11.584  0.1261 -0.2108 -0.0105
  866MPD2    H312715   2.654   1.090  11.619  2.9398  2.5762  0.2563
  866MPD2     N12716   2.568   1.119  11.179 -0.3226  0.1338 -0.7277
  866MPD2    H512717   2.489   1.176  11.208 -2.8114 -3.3907 -0.5437
  866MPD2    N112718   2.926   0.831  11.360 -0.7371  0.3387  0.7556
  866MPD2    H712719   2.972   0.795  11.444 -0.1809  1.0141  0.7340
  867MPD2     C12720   4.305   4.058  16.747 -0.1147 -0.1389  0.2437
  867MPD2    C112721   4.394   4.027  16.850  0.2214  0.2455 -0.3353
  867MPD2    C212722   4.346   4.003  16.977 -0.3254  0.0874 -1.0998
  867MPD2    C312723   4.210   4.021  17.003 -0.5137 -0.4306 -0.9663
  867MPD2    C412724   4.124   4.061  16.901  0.1383 -0.4121 -0.1232
  867MPD2    C512725   4.176   4.082  16.776  0.4132  0.2298 -0.6227
  867MPD2     H12726   4.417   3.979  17.056 -1.4532 -0.9637 -0.4105
  867MPD2    H112727   4.021   4.088  16.921 -0.2997 -1.2668 -1.2160
  867MPD2    H212728   4.338   4.071  16.645  1.3028 -2.9118  0.3615
  867MPD2    H312729   4.108   4.110  16.697  0.2469  0.3528 -0.4352
  867MPD2     N12730   4.149   4.008  17.128 -0.2786 -0.2727  0.3773
  867MPD2    H512731   4.050   4.030  17.124 -0.1898 -0.1894 -1.3943
  867MPD2    N112732   4.522   4.008  16.807 -0.0538  0.7388 -0.1512
  867MPD2    H712733   4.540   4.039  16.713 -0.3417  1.3378 -0.0093
  868MPD2     C12734   1.915   3.313  12.532 -0.2086  0.3429 -0.7473
  868MPD2    C112735   1.951   3.271  12.657  0.3751  0.4114 -0.2777
  868MPD2    C212736   1.868   3.267  12.765  0.7200 -0.8270  0.9641
  868MPD2    C312737   1.742   3.311  12.748  0.0097 -0.4342  0.6381
  868MPD2    C412738   1.697   3.354  12.627  0.3275 -0.0765  0.3788
  868MPD2    C512739   1.790   3.353  12.518  0.4137 -0.2448 -0.3600
  868MPD2     H12740   1.902   3.257  12.867  1.4509  0.4180  0.8429
  868MPD2    H112741   1.593   3.381  12.612  0.5332  0.2642 -0.4261
  868MPD2    H212742   1.984   3.322  12.449 -1.8384  2.3832 -1.8541
  868MPD2    H312743   1.762   3.397  12.422  1.3401  1.4398  0.1457
  868MPD2     N12744   1.669   3.319  12.874 -0.5581  0.6438  0.4704
  868MPD2    H512745   1.711   3.284  12.959 -1.3937 -0.7618  0.3101
  868MPD2    N112746   2.086   3.234  12.658 -0.4971  0.4289  0.2960
  868MPD2    H712747   2.150   3.258  12.583 -1.1834 -2.2524 -1.1268
  869MPD2     C12748   2.259   0.831   1.521  0.7081 -0.5462  0.4677
  869MPD2    C112749   2.363   0.848   1.608 -0.0951 -0.3861  1.0055
  869MPD2    C212750   2.436   0.957   1.594  0.4297 -0.7216 -0.1495
  869MPD2    C312751   2.411   1.047   1.484 -0.1469 -0.7233 -0.8247
  869MPD2    C412752   2.298   1.031   1.406 -0.2147  0.1579 -0.1268
  869MPD2    C512753   2.216   0.923   1.430  0.6205 -0.3328 -0.3770
  869MPD2     H12754   2.539   0.957   1.626  0.5990  0.9881 -0.6626
  869MPD2    H112755   2.281   1.092   1.318  0.5936 -1.1726 -1.2113
  869MPD2    H212756   2.191   0.750   1.544 -0.9110  1.3911  2.4586
  869MPD2    H312757   2.122   0.902   1.380  0.4440  0.0839 -0.2204
  869MPD2     N12758   2.511   1.136   1.438  0.2783 -0.0826  0.3059
  869MPD2    H512759   2.489   1.157   1.341  2.5999  0.4337 -0.1073
  869MPD2    N112760   2.386   0.749   1.708 -0.4354 -0.4439 -0.0206
  869MPD2    H712761   2.340   0.662   1.683 -3.0036 -0.1314  3.6049
  870MPD2     C12762   1.883   4.392   1.163  0.2523 -0.3309  0.3099
  870MPD2    C112763   1.975   4.481   1.214  0.7303  0.2168  0.1398
  870MPD2    C212764   2.043   4.557   1.126  0.4054  0.6895 -0.1752
  870MPD2    C312765   2.019   4.546   0.991 -0.0030  0.5477 -0.3272
  870MPD2    C412766   1.930   4.454   0.947 -0.4026  0.1007  0.0656
  870MPD2    C512767   1.866   4.375   1.031 -0.3628 -0.3457  0.2482
  870MPD2     H12768   2.098   4.640   1.168  2.4969 -1.7440  1.8836
  870MPD2    H112769   1.919   4.427   0.842 -1.4886 -1.1009  0.4887
  870MPD2    H212770   1.821   4.332   1.229 -3.0684 -0.9013 -3.3258
  870MPD2    H312771   1.790   4.305   1.000  1.1556 -1.5891 -0.7192
  870MPD2     N12772   2.080   4.631   0.887 -0.2326  0.1378  0.4014
  870MPD2    H512773   2.160   4.684   0.922  1.9858 -1.3645 -2.4084
  870MPD2    N112774   1.966   4.493   1.353 -0.6185  0.8657  0.0107
  870MPD2    H712775   1.893   4.441   1.400 -0.9842 -0.6149 -2.2147
  871MPD2     C12776   3.520   4.036  16.961  0.2277 -0.0927 -0.3721
  871MPD2    C112777   3.460   4.087  17.073  0.6735  0.4012 -0.1693
  871MPD2    C212778   3.431   3.993  17.175 -0.4861  0.3768  0.2236
  871MPD2    C312779   3.471   3.855  17.163  0.4457  0.0655 -0.2041
  871MPD2    C412780   3.548   3.818  17.054 -0.2906 -0.5721 -0.4631
  871MPD2    C512781   3.568   3.909  16.950 -0.1957 -0.6830  0.8974
  871MPD2     H12782   3.394   4.030  17.271 -1.1187  1.7453 -0.5452
  871MPD2    H112783   3.575   3.715  17.039 -0.4719 -0.6791 -0.0396
  871MPD2    H212784   3.525   4.100  16.873  0.1920  0.1189 -0.2182
  871MPD2    H312785   3.605   3.874  16.854  1.1945  1.1807  0.7421
  871MPD2     N12786   3.450   3.782  17.284  0.0981 -0.2886  0.4302
  871MPD2    H512787   3.374   3.812  17.345 -0.8107  0.5554 -1.1187
  871MPD2    N112788   3.412   4.219  17.067 -0.8934  0.2014 -0.3815
  871MPD2    H712789   3.447   4.273  16.988  1.0021 -1.7097 -0.8443
  872MPD2     C12790   4.426   2.631  13.679  0.4714  0.4470 -0.4261
  872MPD2    C112791   4.509   2.549  13.757  0.1927  0.4165  0.0930
  872MPD2    C212792   4.450   2.479  13.865  0.2022 -0.6029  0.2020
  872MPD2    C312793   4.318   2.516  13.906  0.0600 -0.2615  0.1334
  872MPD2    C412794   4.245   2.593  13.824 -0.1927 -0.1023  0.5201
  872MPD2    C512795   4.292   2.639  13.701  0.0566 -0.4308  0.7506
  872MPD2     H12796   4.513   2.415  13.926  1.6991 -0.1774 -0.8872
  872MPD2    H112797   4.138   2.604  13.841 -0.4784  1.3795 -2.2573
  872MPD2    H212798   4.455   2.671  13.582 -2.2543  0.5798 -1.1980
  872MPD2    H312799   4.230   2.689  13.628  3.3190  0.6845 -1.2342
  872MPD2     N12800   4.255   2.466  14.022 -0.3490  0.5317 -1.0670
  872MPD2    H512801   4.160   2.496  14.040 -1.3289 -3.0445 -0.2789
  872MPD2    N112802   4.640   2.503  13.723 -0.1274 -0.0561  0.0618
  872MPD2    H712803   4.675   2.422  13.774 -2.8549 -1.0499  0.3231
  873MPD2     C12804   1.758   1.748   0.506 -0.3240 -0.2450  0.4143
  873MPD2    C112805   1.730   1.683   0.625  0.0014  0.0975  0.1858
  873MPD2    C212806   1.698   1.549   0.625 -0.3275  0.5299  0.1213
  873MPD2    C312807   1.688   1.480   0.503  0.3926  0.1924 -0.5886
  873MPD2    C412808   1.710   1.552   0.388 -0.2700  0.7299  0.4030
  873MPD2    C512809   1.749   1.680   0.389  0.2719  0.2939 -0.0514
  873MPD2     H12810   1.697   1.508   0.725 -1.1050 -0.1196 -0.1549
  873MPD2    H112811   1.720   1.496   0.295 -2.4362  1.3367 -0.1931
  873MPD2    H212812   1.781   1.854   0.501  1.2451 -0.6869 -1.4709
  873MPD2    H312813   1.760   1.735   0.296  0.8618 -0.5844 -0.5031
  873MPD2     N12814   1.661   1.339   0.489 -0.8030 -0.7411  0.4244
  873MPD2    H512815   1.642   1.289   0.403 -1.2883 -1.4478  0.9309
  873MPD2    N112816   1.732   1.752   0.751  0.1758  0.5156  0.2006
  873MPD2    H712817   1.714   1.696   0.833  3.6752 -1.6251 -0.4746
  874MPD2     C12818   0.986   1.944  15.957 -0.1970 -0.0568 -0.1128
  874MPD2    C112819   1.089   1.925  16.042 -0.6318  0.5114 -0.0286
  874MPD2    C212820   1.219   1.954  15.995  0.0009 -0.1934  0.7548
  874MPD2    C312821   1.237   1.993  15.861  0.0384 -0.4683 -0.7699
  874MPD2    C412822   1.124   2.017  15.784  0.3597  0.5060  0.2582
  874MPD2    C512823   0.994   1.998  15.831  0.5585  0.0874  0.0440
  874MPD2     H12824   1.299   1.931  16.064  0.9345  0.7452 -0.0174
  874MPD2    H112825   1.127   2.055  15.683 -0.3781  0.9789  0.4134
  874MPD2    H212826   0.884   1.918  15.981  0.3018 -1.6974  0.1796
  874MPD2    H312827   0.908   2.002  15.765  1.4956  0.2608 -1.1587
  874MPD2     N12828   1.360   2.022  15.794  0.1098  0.3087  0.4897
  874MPD2    H512829   1.353   2.066  15.703 -1.2954  1.2501  1.0435
  874MPD2    N112830   1.057   1.875  16.168  0.2386 -0.0516  0.1695
  874MPD2    H712831   0.959   1.856  16.182  0.0703 -0.4027 -1.4838
  875MPD2     C12832   2.582   0.512  14.772 -0.0950  0.5513  0.0941
  875MPD2    C112833   2.464   0.520  14.844  0.5741 -0.2246  0.3869
  875MPD2    C212834   2.473   0.556  14.985 -0.2835  0.4777 -0.3503
  875MPD2    C312835   2.593   0.585  15.041  0.4264  1.4533  0.7282
  875MPD2    C412836   2.704   0.574  14.963 -0.8521  0.2665 -0.9530
  875MPD2    C512837   2.696   0.513  14.840  0.0489 -0.4143 -0.2985
  875MPD2     H12838   2.382   0.546  15.042  0.3081  0.7846  0.6445
  875MPD2    H112839   2.803   0.579  15.007 -1.2548  0.2108 -0.0454
  875MPD2    H212840   2.589   0.488  14.666  1.5420  1.5165 -0.0175
  875MPD2    H312841   2.787   0.504  14.782  0.4452  0.4240  0.1835
  875MPD2     N12842   2.626   0.625  15.177  0.4378 -0.0516  0.1594
  875MPD2    H512843   2.720   0.652  15.203  1.0865 -1.1461 -1.0298
  875MPD2    N112844   2.342   0.497  14.786  0.8932  0.3817 -0.3127
  875MPD2    H712845   2.260   0.527  14.839  0.2219  0.3915 -1.3517
  876MPD2     C12846   1.095   1.619  15.909 -0.2640 -0.0867  0.0350
  876MPD2    C112847   1.210   1.574  15.856  1.1433  0.2056  0.9643
  876MPD2    C212848   1.262   1.457  15.912  0.2333  0.0961 -0.2987
  876MPD2    C312849   1.206   1.414  16.036 -0.2642  0.0885 -0.3155
  876MPD2    C412850   1.094   1.472  16.089 -0.2797  0.6878 -0.5119
  876MPD2    C512851   1.035   1.571  16.021 -0.3206  0.7871  0.0805
  876MPD2     H12852   1.342   1.403  15.863 -1.5921 -0.5298 -2.6391
  876MPD2    H112853   1.047   1.419  16.172  0.9834  0.5043  0.0892
  876MPD2    H212854   1.057   1.706  15.856  0.0424 -0.1770 -0.3343
  876MPD2    H312855   0.945   1.620  16.056 -1.4848 -2.0355  1.0125
  876MPD2     N12856   1.252   1.294  16.090 -0.1223 -0.4351 -0.1312
  876MPD2    H512857   1.286   1.227  16.022 -0.3483 -2.5388  1.8235
  876MPD2    N112858   1.273   1.650  15.755  0.3283  0.1352  0.0874
  876MPD2    H712859   1.210   1.707  15.700 -0.1857 -2.2551 -1.8048
  877MPD2     C12860   1.257   2.110  15.111 -0.0784 -0.2962  0.6799
  877MPD2    C112861   1.383   2.045  15.119 -0.7921  0.2212 -0.1155
  877MPD2    C212862   1.468   2.068  15.010 -0.4215  0.0639  0.5862
  877MPD2    C312863   1.432   2.145  14.901  0.3389  0.1796 -0.6971
  877MPD2    C412864   1.303   2.193  14.899  0.6317 -0.2700  0.3149
  877MPD2    C512865   1.221   2.180  15.008 -0.0314  0.0476  0.5832
  877MPD2     H12866   1.566   2.021  15.006 -0.2577  0.3930  0.8205
  877MPD2    H112867   1.267   2.253  14.817 -0.9075 -0.8011  0.5888
  877MPD2    H212868   1.185   2.112  15.192 -0.8118 -1.2837  0.0603
  877MPD2    H312869   1.125   2.230  15.002 -0.5612 -1.0769 -0.3627
  877MPD2     N12870   1.515   2.165  14.784 -0.3549 -0.1072 -0.0976
  877MPD2    H512871   1.474   2.224  14.712  0.3810  0.7254  0.1700
  877MPD2    N112872   1.428   1.983  15.237 -0.2581  0.5354  0.1053
  877MPD2    H712873   1.522   1.945  15.226 -0.5382 -0.3458  0.7677
  878MPD2     C12874   1.477   1.585  12.388  0.0742 -0.9172 -0.1321
  878MPD2    C112875   1.455   1.710  12.437 -0.1087 -0.2873 -0.1259
  878MPD2    C212876   1.450   1.728  12.569 -0.4456 -0.7504  0.1656
  878MPD2    C312877   1.489   1.628  12.657 -0.5966  0.7913  0.0578
  878MPD2    C412878   1.526   1.506  12.607 -0.5668  0.0778  0.1091
  878MPD2    C512879   1.523   1.482  12.470 -0.1283 -0.3882  0.0891
  878MPD2     H12880   1.397   1.815  12.605 -1.0019 -0.3196 -1.7003
  878MPD2    H112881   1.565   1.424  12.665 -1.5245 -1.2102 -1.0690
  878MPD2    H212882   1.478   1.563  12.282 -0.3514  0.9766 -0.5297
  878MPD2    H312883   1.560   1.388  12.428  2.3919  0.1137  1.1862
  878MPD2     N12884   1.474   1.653  12.798 -0.1952 -0.2165  0.4428
  878MPD2    H512885   1.459   1.752  12.819 -1.1504 -0.1701 -0.4849
  878MPD2    N112886   1.405   1.812  12.346 -0.3300 -0.6504 -0.0970
  878MPD2    H712887   1.388   1.775  12.253 -1.1872  0.8239 -0.5297
  879MPD2     C12888   2.312   2.557  16.447  0.1184  0.4099  0.9935
  879MPD2    C112889   2.219   2.528  16.545  0.2065  0.5576 -0.2681
  879MPD2    C212890   2.092   2.488  16.509 -0.2676 -0.5082  0.2390
  879MPD2    C312891   2.059   2.487  16.372 -0.1526  0.1353 -0.0721
  879MPD2    C412892   2.153   2.520  16.278  0.1830  0.7254  0.2651
  879MPD2    C512893   2.281   2.565  16.317 -0.0116 -0.1424  0.2436
  879MPD2     H12894   2.018   2.456  16.582  0.2141 -1.7361  0.1778
  879MPD2    H112895   2.134   2.504  16.172  0.0282 -3.0592  0.8933
  879MPD2    H212896   2.411   2.581  16.484  0.6904 -0.5180  0.0574
  879MPD2    H312897   2.350   2.596  16.239 -0.9827 -0.9983 -0.9705
  879MPD2     N12898   1.932   2.445  16.323 -0.3819 -0.4250 -0.1732
  879MPD2    H512899   1.924   2.443  16.222 -2.2112  1.1654 -0.0591
  879MPD2    N112900   2.260   2.554  16.677 -0.4814  0.1661 -0.0493
  879MPD2    H712901   2.350   2.601  16.685 -1.0075  0.8707  1.9164
  880MPD2     C12902   2.372   4.698   0.347 -0.1177 -0.3333  0.2059
  880MPD2    C112903   2.489   4.693   0.424  0.5379 -0.1781  0.3378
  880MPD2    C212904   2.493   4.606   0.527 -0.0832  0.0834  0.6398
  880MPD2    C312905   2.378   4.538   0.569 -0.1845  0.1566 -0.2343
  880MPD2    C412906   2.259   4.548   0.499  0.2753  0.5070  0.2084
  880MPD2    C512907   2.262   4.623   0.387  0.1090 -0.0520 -0.6947
  880MPD2     H12908   2.583   4.598   0.586 -1.2328  1.3840  2.6147
  880MPD2    H112909   2.165   4.500   0.525  1.1664 -2.5768 -2.3828
  880MPD2    H212910   2.361   0.039   0.261 -0.1035 -1.4763 -0.6365
  880MPD2    H312911   2.175   4.630   0.323  0.1617  0.8341 -0.6712
  880MPD2     N12912   2.393   4.443   0.668  0.1638 -0.1756  0.2710
  880MPD2    H512913   2.486   4.439   0.709  1.2574  0.1958 -2.1765
  880MPD2    N112914   2.602   0.059   0.390  0.0995 -1.0754 -0.4359
  880MPD2    H712915   2.599   0.127   0.315  0.7713 -1.0853 -0.4752
  881MPD2     C12916   3.108   0.729  17.571  0.0326 -0.2175 -0.4937
  881MPD2    C112917   3.046   0.606  17.536  0.0937  0.0434 -0.3594
  881MPD2    C212918   2.948   0.553  17.618 -0.4607 -0.1760  0.2978
  881MPD2    C312919   2.938   0.595   0.054  0.3586 -0.2913 -0.5587
  881MPD2    C412920   3.014   0.703   0.093 -0.2690 -0.1517  0.0620
  881MPD2    C512921   3.098   0.768   0.004 -0.0448 -0.6172  0.9926
  881MPD2     H12922   2.881   0.477  17.579  1.3842 -0.4497 -2.3590
  881MPD2    H112923   3.017   0.736   0.196  2.4741  0.1710 -0.1041
  881MPD2    H212924   3.189   0.768  17.510  2.0010  0.4687  2.5339
  881MPD2    H312925   3.160   0.848   0.043  2.5448 -2.0234 -0.2588
  881MPD2     N12926   2.867   0.522   0.157  0.4411  0.1345 -0.0640
  881MPD2    H512927   2.875   0.565   0.248  1.8538 -1.3828  0.5233
  881MPD2    N112928   3.067   0.554  17.402 -0.1823  0.8019  0.0615
  881MPD2    H712929   3.134   0.602  17.342  0.5913 -0.9644 -0.4818
  882MPD2     C12930   1.393   1.927  14.071  0.4485 -0.2698 -1.0047
  882MPD2    C112931   1.390   2.039  14.153 -0.1044 -0.2808  0.5188
  882MPD2    C212932   1.265   2.089  14.183  0.5189 -0.0543 -0.3193
  882MPD2    C312933   1.147   2.030  14.134  0.2387 -0.5195  0.5420
  882MPD2    C412934   1.158   1.919  14.056 -0.1165  0.5654  0.2745
  882MPD2    C512935   1.277   1.865  14.024 -1.1171 -0.1634 -0.1767
  882MPD2     H12936   1.254   2.175  14.248  1.8911 -0.4601  0.4397
  882MPD2    H112937   1.071   1.872  14.010 -1.1089  0.3145  2.3785
  882MPD2    H212938   1.490   1.884  14.051  0.6816  0.2035 -0.8921
  882MPD2    H312939   1.278   1.775  13.963  0.0460  0.4941 -1.1250
  882MPD2     N12940   1.022   2.076  14.175  0.1945  0.2453  0.0734
  882MPD2    H512941   0.944   2.022  14.137  0.6481 -0.3152 -0.0550
  882MPD2    N112942   1.509   2.076  14.215  0.3554  0.0835 -0.1088
  882MPD2    H712943   1.593   2.022  14.198 -0.3966 -1.8293  2.2333
  883MPD2     C12944   3.414   1.957  16.623  0.1499  0.0173  0.4688
  883MPD2    C112945   3.496   1.991  16.517  0.7719  0.1822  0.2929
  883MPD2    C212946   3.602   2.080  16.533  0.2240  0.8269  0.3923
  883MPD2    C312947   3.624   2.126  16.660 -0.3737  0.0740 -0.0778
  883MPD2    C412948   3.532   2.097  16.765  0.2254  0.5691  0.2845
  883MPD2    C512949   3.428   2.014  16.750 -0.7292 -0.4979 -0.7627
  883MPD2     H12950   3.670   2.098  16.450  0.5338 -0.8772  0.2607
  883MPD2    H112951   3.542   2.140  16.864  0.6800 -1.5511  1.1615
  883MPD2    H212952   3.327   1.895  16.607 -1.3513  2.1247  0.4815
  883MPD2    H312953   3.354   1.997  16.828  0.0985  2.7869  0.7475
  883MPD2     N12954   3.744   2.195  16.687 -0.4299 -0.1756 -0.3170
  883MPD2    H512955   3.795   2.214  16.601  2.6733 -0.2113  1.5312
  883MPD2    N112956   3.472   1.954  16.381  0.2566 -0.0562 -0.2008
  883MPD2    H712957   3.536   1.996  16.315  0.5889 -0.8472 -0.3865
  884MPD2     C12958   0.672   2.983  14.969 -0.2276  0.0061  0.4732
  884MPD2    C112959   0.617   3.092  14.906  1.4433 -0.2264 -0.6925
  884MPD2    C212960   0.487   3.140  14.929  0.5319  0.1557  0.0925
  884MPD2    C312961   0.406   3.080  15.025  0.0651 -0.0993 -0.1128
  884MPD2    C412962   0.455   2.971  15.093  0.0452  0.7275  0.0721
  884MPD2    C512963   0.585   2.930  15.061 -0.4164 -0.4109  0.0102
  884MPD2     H12964   0.447   3.226  14.877  2.4895  0.0181 -1.6671
  884MPD2    H112965   0.401   2.932  15.179  1.8187  0.9157  1.2807
  884MPD2    H212966   0.762   2.931  14.938 -1.2129 -0.5954 -1.3613
  884MPD2    H312967   0.627   2.851  15.122 -0.8647 -1.2388 -0.7587
  884MPD2     N12968   0.280   3.139  15.065 -0.0277 -0.3338  0.2104
  884MPD2    H512969   0.248   3.222  15.018 -0.6183 -0.1734  0.8926
  884MPD2    N112970   0.686   3.167  14.813 -0.6199  0.3380  0.4151
  884MPD2    H712971   0.651   3.252  14.769 -0.3682  0.0232 -0.3916
  885MPD2     C12972   3.151   3.185   0.276 -0.7098  0.3068 -0.2545
  885MPD2    C112973   3.265   3.120   0.229  0.4382  0.9993  0.1591
  885MPD2    C212974   3.282   3.118   0.100 -0.4591 -0.1925 -0.3504
  885MPD2    C312975   3.208   3.193   0.008 -0.3491  0.4832  0.4683
  885MPD2    C412976   3.101   3.265   0.054 -0.2664  0.1224  0.4586
  885MPD2    C512977   3.070   3.254   0.186 -0.0900 -0.7353  0.2318
  885MPD2     H12978   3.367   3.063   0.061  0.5448  0.0739  1.4618
  885MPD2    H112979   3.045   3.333  17.685  2.1305  1.8621  0.2146
  885MPD2    H212980   3.129   3.175   0.381 -1.6000 -3.0106 -0.7672
  885MPD2    H312981   2.984   3.313   0.215  0.8709  0.7931 -0.0561
  885MPD2     N12982   3.244   3.180  17.566  0.8334  0.3739 -0.4959
  885MPD2    H512983   3.329   3.126  17.549  2.3363  1.6865  2.7645
  885MPD2    N112984   3.346   3.049   0.326 -0.0748 -0.6664  0.6321
  885MPD2    H712985   3.340   3.067   0.425  1.8459  0.0866  0.5980
  886MPD2     C12986   4.460   1.821  15.337 -0.0915 -0.7598 -0.7732
  886MPD2    C112987   4.592   1.799  15.352  0.3356 -0.1596  0.6929
  886MPD2    C212988   4.685   1.879  15.291  0.1836 -0.0940  0.7988
  886MPD2    C312989   4.649   1.990  15.219 -0.4797  0.4396  1.1271
  886MPD2    C412990   4.512   2.013  15.213 -0.7787 -0.1166 -0.0352
  886MPD2    C512991   4.422   1.924  15.263 -0.6398  0.3238 -0.3873
  886MPD2     H12992   0.064   1.850  15.312  0.4694 -0.4340 -1.0672
  886MPD2    H112993   4.477   2.100  15.158 -1.9956 -0.7848 -0.3119
  886MPD2    H212994   4.386   1.774  15.400  0.3710 -1.1563 -0.5308
  886MPD2    H312995   4.315   1.937  15.249 -0.8508 -0.6596  0.3104
  886MPD2     N12996   0.010   2.074  15.147 -0.0909 -0.0407 -0.0939
  886MPD2    H512997   4.692   2.133  15.076 -1.4408 -0.7819  0.0884
  886MPD2    N112998   4.650   1.698  15.434 -0.0567  0.5337 -0.1421
  886MPD2    H712999   0.025   1.699  15.460 -0.1184  0.7422  0.0858
  887MPD2     C13000   0.567   1.452  15.444 -0.8017 -0.4513 -0.3724
  887MPD2    C113001   0.472   1.540  15.483 -0.1054 -0.2724  0.3710
  887MPD2    C213002   0.502   1.671  15.484 -0.1115  1.0751 -0.0479
  887MPD2    C313003   0.628   1.724  15.450  0.1726 -0.2372 -0.4507
  887MPD2    C413004   0.730   1.636  15.435  0.9598  1.2382 -1.0151
  887MPD2    C513005   0.693   1.503  15.427  0.2766 -0.1691 -0.0401
  887MPD2     H13006   0.428   1.744  15.514 -0.9207 -0.2785  1.1808
  887MPD2    H113007   0.832   1.673  15.434  0.5724  2.2654 -2.0158
  887MPD2    H213008   0.548   1.347  15.423  0.9204 -0.6483 -0.9383
  887MPD2    H313009   0.773   1.434  15.401  0.0887 -0.9819  1.5212
  887MPD2     N13010   0.631   1.866  15.452  0.6078  0.2907 -0.3369
  887MPD2    H513011   0.538   1.904  15.464  0.7469 -0.1243  2.0469
  887MPD2    N113012   0.344   1.500  15.521 -0.3075  0.3305 -0.4478
  887MPD2    H713013   0.283   1.575  15.552 -0.2950  1.3360 -2.8609
  888MPD2     C13014   2.376   1.701  14.398 -0.3086 -0.1254 -0.6465
  888MPD2    C113015   2.404   1.697  14.536  0.0819  0.3251  0.3880
  888MPD2    C213016   2.486   1.791  14.591 -0.5076  0.5025 -0.2757
  888MPD2    C313017   2.544   1.881  14.501  0.4101 -0.0835 -0.1631
  888MPD2    C413018   2.519   1.891  14.369  0.1529 -0.3571 -0.0639
  888MPD2    C513019   2.429   1.801  14.321  0.0103 -1.0523  0.6205
  888MPD2     H13020   2.516   1.791  14.695 -2.6750  1.0807  0.3490
  888MPD2    H113021   2.541   1.975  14.305 -2.4065  0.0887 -0.3587
  888MPD2    H213022   2.307   1.628  14.357  0.6981  0.5631 -3.5604
  888MPD2    H313023   2.386   1.820  14.223 -1.5418 -0.5081  1.4142
  888MPD2     N13024   2.633   1.976  14.560 -0.0244 -0.1783 -0.0909
  888MPD2    H513025   2.659   1.959  14.656  1.0123  1.4950 -0.0738
  888MPD2    N113026   2.366   1.600  14.624 -0.5281  0.3444 -0.1236
  888MPD2    H713027   2.416   1.602  14.712  1.9679  2.8083 -1.5997
  889MPD2     C13028   2.222   1.238  12.823 -0.0263 -0.2706 -0.1193
  889MPD2    C113029   2.266   1.265  12.956 -0.1809  0.3609  0.5221
  889MPD2    C213030   2.251   1.394  12.998  0.0728 -0.7933 -0.0977
  889MPD2    C313031   2.214   1.494  12.908 -0.1545 -0.1017  0.4627
  889MPD2    C413032   2.166   1.466  12.779 -0.2380  0.8747  0.7322
  889MPD2    C513033   2.172   1.334  12.744  0.2446 -0.7203 -0.0612
  889MPD2     H13034   2.283   1.415  13.099  1.1496 -1.7568 -0.2337
  889MPD2    H113035   2.127   1.540  12.710 -0.4125 -0.7782 -0.9305
  889MPD2    H213036   2.205   1.134  12.797 -2.6989  0.1715 -0.1021
  889MPD2    H313037   2.129   1.306  12.648 -2.0314  2.1169  0.0967
  889MPD2     N13038   2.206   1.620  12.966 -0.2215 -0.3534 -0.0274
  889MPD2    H513039   2.222   1.623  13.066  0.5645 -1.2714 -0.1232
  889MPD2    N113040   2.291   1.162  13.045  0.6004  0.2853 -0.1111
  889MPD2    H713041   2.238   1.077  13.025  0.1136  0.5182  0.1845
  890MPD2     C13042   1.520   2.701  14.424  0.7987 -0.5212  0.2546
  890MPD2    C113043   1.626   2.764  14.486  0.1159 -0.7971 -0.9460
  890MPD2    C213044   1.674   2.714  14.607 -0.7604 -0.0930  0.3271
  890MPD2    C313045   1.607   2.608  14.674 -0.5161 -0.8591 -0.6215
  890MPD2    C413046   1.491   2.558  14.616  0.4703 -0.0442  0.0976
  890MPD2    C513047   1.453   2.601  14.491 -0.1001  0.1959 -0.1709
  890MPD2     H13048   1.762   2.761  14.650 -1.3515  0.7054  0.6598
  890MPD2    H113049   1.426   2.482  14.657 -0.1277 -0.8213 -2.2882
  890MPD2    H213050   1.484   2.747  14.334 -0.2998 -0.4515  0.7298
  890MPD2    H313051   1.367   2.555  14.445  0.7330 -0.8901 -0.6398
  890MPD2     N13052   1.661   2.572  14.801 -0.2058  0.1725  0.4853
  890MPD2    H513053   1.755   2.604  14.821  0.4309 -0.4801 -1.3760
  890MPD2    N113054   1.672   2.880  14.416  0.2382 -0.5376 -0.0556
  890MPD2    H713055   1.621   2.904  14.332  1.2355  0.4859 -0.3801
  891MPD2     C13056   4.032   0.879  16.935  0.0505  0.1913 -0.5618
  891MPD2    C113057   4.038   1.016  16.942  0.3037  0.5288 -1.0605
  891MPD2    C213058   4.108   1.084  17.035 -0.4286 -0.0298 -0.5437
  891MPD2    C313059   4.202   1.011  17.107 -0.5065  0.2265  0.3120
  891MPD2    C413060   4.200   0.871  17.098  0.0945  0.3609 -0.4744
  891MPD2    C513061   4.111   0.804  17.017  0.4118  0.5168 -0.5265
  891MPD2     H13062   4.099   1.192  17.049 -0.0224  0.0910 -1.2542
  891MPD2    H113063   4.250   0.809  17.173 -0.9851 -1.1351 -0.9950
  891MPD2    H213064   3.970   0.829  16.862  1.3393  1.1424 -2.2910
  891MPD2    H313065   4.090   0.698  17.017 -1.9897  0.9926  0.2746
  891MPD2     N13066   4.300   1.093  17.171  0.1399  0.1810 -0.2335
  891MPD2    H513067   4.293   1.194  17.168  1.3362  0.2248 -1.2289
  891MPD2    N113068   3.943   1.091  16.868  0.9509  0.1536  0.4297
  891MPD2    H713069   3.868   1.037  16.827  2.1774 -1.1175 -0.1359
  892MPD2     C13070   0.624   2.910  14.579  0.4079  0.3277 -0.4989
  892MPD2    C113071   0.556   2.802  14.643 -0.4506 -0.3442 -0.0467
  892MPD2    C213072   0.606   2.672  14.636  0.3628  0.4537 -0.9668
  892MPD2    C313073   0.715   2.644  14.558 -0.6407 -0.2362 -0.2585
  892MPD2    C413074   0.782   2.744  14.505  0.0488  0.1329 -0.0964
  892MPD2    C513075   0.742   2.874  14.516 -0.3080 -0.0416 -0.4832
  892MPD2     H13076   0.538   2.597  14.674  1.0987 -0.4925 -1.5076
  892MPD2    H113077   0.867   2.738  14.438 -0.6176 -3.1138 -0.6202
  892MPD2    H213078   0.580   3.008  14.574 -1.1024 -0.2955  0.4694
  892MPD2    H313079   0.803   2.949  14.466  0.6308  0.1763  0.9742
  892MPD2     N13080   0.750   2.511  14.512  0.0655  0.0567  0.4668
  892MPD2    H513081   0.838   2.498  14.463 -0.4544 -0.4636 -0.3183
  892MPD2    N113082   0.426   2.828  14.691 -0.0886  0.1629  0.4123
  892MPD2    H713083   0.378   2.910  14.656 -0.9636 -0.2096  0.7523
  893MPD2     C13084   1.379   0.146   0.931 -0.7416  0.8681 -0.1496
  893MPD2    C113085   1.441   0.077   1.030  0.3419 -0.1396 -0.0924
  893MPD2    C213086   1.367   4.701   1.099  0.6323 -0.1215  0.7642
  893MPD2    C313087   1.238   4.672   1.067 -0.4061  0.5337 -0.8614
  893MPD2    C413088   1.168   0.027   0.970  1.0783  0.2128  0.6355
  893MPD2    C513089   1.245   0.123   0.897 -0.4412  0.1171 -0.4526
  893MPD2     H13090   1.420   4.633   1.165  0.7707 -2.7222 -2.0267
  893MPD2    H113091   1.063   0.010   0.947 -0.0100  3.6881  2.9613
  893MPD2    H213092   1.439   0.217   0.876 -1.3867  0.0542 -1.8980
  893MPD2    H313093   1.209   0.179   0.811 -0.8459 -1.7455 -1.4953
  893MPD2     N13094   1.160   4.570   1.119 -0.4206  0.5987 -0.0124
  893MPD2    H513095   1.065   4.563   1.084 -0.0734 -2.3051 -0.3881
  893MPD2    N113096   1.577   0.110   1.055 -0.2066 -0.0835 -0.8598
  893MPD2    H713097   1.614   0.184   0.995  1.9096  0.7133  1.4370
  894MPD2     C13098   0.276   3.606   1.500 -0.3537 -0.0529  0.1820
  894MPD2    C113099   0.174   3.537   1.450  0.1104  0.2065  0.0730
  894MPD2    C213100   0.188   3.400   1.430 -0.1319  0.4332 -0.0121
  894MPD2    C313101   0.313   3.348   1.449 -0.2721  0.2008  0.2843
  894MPD2    C413102   0.410   3.415   1.512  0.4298 -0.8177  0.1479
  894MPD2    C513103   0.396   3.546   1.540 -0.2465 -0.0708  0.5354
  894MPD2     H13104   0.116   3.339   1.377  0.1807 -0.5628  0.7209
  894MPD2    H113105   0.507   3.384   1.549 -0.0303 -2.3215  0.0642
  894MPD2    H213106   0.270   3.713   1.518 -0.0220 -0.1511  0.9115
  894MPD2    H313107   0.475   3.603   1.586  1.2586  1.2253 -3.6570
  894MPD2     N13108   0.322   3.214   1.407 -0.2056  0.4508 -0.1529
  894MPD2    H513109   0.242   3.177   1.357  0.6308  0.7831 -1.7752
  894MPD2    N113110   0.045   3.590   1.422  0.1293 -0.4580 -0.1402
  894MPD2    H713111   4.695   3.533   1.379 -1.2545  0.9887  0.3092
  895MPD2     C13112   4.459   2.155  12.795  0.2919  0.4717  0.3103
  895MPD2    C113113   4.507   2.042  12.722 -0.0755  0.0275  0.0106
  895MPD2    C213114   4.561   1.934  12.791  0.5292  0.3638  0.6819
  895MPD2    C313115   4.531   1.918  12.923  0.1650 -0.1003 -0.6169
  895MPD2    C413116   4.472   2.022  12.984  0.7697  0.6052 -0.5088
  895MPD2    C513117   4.439   2.141  12.929 -0.3853 -0.2090 -0.5723
  895MPD2     H13118   4.613   1.856  12.737 -0.1613 -0.1427  0.7467
  895MPD2    H113119   4.452   2.019  13.090  0.4660 -0.5127 -0.5941
  895MPD2    H213120   4.437   2.251  12.749 -0.0688  2.1241  3.9209
  895MPD2    H313121   4.393   2.220  12.987  1.1727  0.9666 -0.9371
  895MPD2     N13122   4.563   1.801  12.999  0.3088  0.1354  0.2544
  895MPD2    H513123   4.510   1.802  13.086 -2.7872 -0.9008 -1.6182
  895MPD2    N113124   4.510   2.053  12.578  0.0437  0.2402  0.5039
  895MPD2    H713125   4.527   2.147  12.543  1.7680  0.6742  2.5014
  896MPD2     C13126   0.774   3.873   1.532 -0.5485 -0.6794 -0.0415
  896MPD2    C113127   0.860   3.771   1.493  0.0312 -0.2815 -0.6772
  896MPD2    C213128   0.806   3.669   1.414 -0.3744  0.1639 -0.0493
  896MPD2    C313129   0.672   3.670   1.368  0.5340 -0.2226  0.0346
  896MPD2    C413130   0.591   3.775   1.410 -0.1039 -0.2524 -0.8334
  896MPD2    C513131   0.642   3.873   1.489 -0.1538  0.4560  0.1541
  896MPD2     H13132   0.866   3.587   1.376  1.5022  2.1613 -1.3530
  896MPD2    H113133   0.488   3.781   1.376 -0.3113 -0.3371 -0.2316
  896MPD2    H213134   0.817   3.953   1.591  0.6083 -0.6150 -0.9777
  896MPD2    H313135   0.585   3.957   1.527 -2.0800 -0.1195 -1.5162
  896MPD2     N13136   0.626   3.565   1.279 -0.0510  0.5914  0.2536
  896MPD2    H513137   0.686   3.485   1.263  0.5039  0.7450  1.5874
  896MPD2    N113138   1.000   3.779   1.516 -0.1391 -0.4211 -0.1572
  896MPD2    H713139   1.043   3.870   1.533  0.0088 -0.3371 -1.0122
  897MPD2     C13140   3.064   1.487  10.038  0.2561  0.8033  0.7591
  897MPD2    C113141   2.980   1.569  10.113  0.3958 -0.5355  0.5442
  897MPD2    C213142   2.914   1.520  10.221  0.5513  0.5723  0.2452
  897MPD2    C313143   2.941   1.391  10.265 -0.5182  0.0932 -0.1474
  897MPD2    C413144   3.030   1.313  10.198 -0.1841  0.1513 -0.3256
  897MPD2    C513145   3.087   1.361  10.080 -0.3933 -0.1609  0.2556
  897MPD2     H13146   2.842   1.581  10.274 -3.1757 -1.7835 -2.0255
  897MPD2    H113147   3.067   1.227  10.251  2.5151  1.7690  0.4206
  897MPD2    H213148   3.092   1.520   9.938 -0.2393 -0.4018  0.2184
  897MPD2    H313149   3.168   1.301  10.038  1.6907  1.5314  1.8825
  897MPD2     N13150   2.868   1.344  10.369  0.3932 -0.1380 -0.0529
  897MPD2    H513151   2.804   1.413  10.406  0.8040  0.8238 -1.1452
  897MPD2    N113152   2.955   1.701  10.068 -0.1649  0.0195  0.1840
  897MPD2    H713153   2.961   1.722   9.969 -1.7500  0.4270  0.1747
  898MPD2     C13154   0.114   2.105   0.608  0.0147  0.0073 -0.2508
  898MPD2    C113155   0.188   2.049   0.506  0.2267 -0.5857  0.2308
  898MPD2    C213156   0.216   2.127   0.395 -0.7664 -0.8111 -0.8437
  898MPD2    C313157   0.167   2.254   0.378  0.0546 -0.1098  0.7195
  898MPD2    C413158   0.099   2.310   0.485 -0.4420 -1.1198 -0.1448
  898MPD2    C513159   0.080   2.237   0.594  0.2874 -0.0022 -0.1800
  898MPD2     H13160   0.282   2.086   0.320  0.3196 -1.2925  0.3744
  898MPD2    H113161   0.060   2.411   0.479 -0.0221 -0.9565 -0.0764
  898MPD2    H213162   0.093   2.055   0.701  0.0587  0.4667  0.0051
  898MPD2    H313163   0.024   2.292   0.668 -0.3378  0.5560 -1.0725
  898MPD2     N13164   0.194   2.334   0.258 -0.0711  0.1111 -0.0760
  898MPD2    H513165   0.256   2.292   0.190  0.9360  0.4193  0.6556
  898MPD2    N113166   0.264   1.925   0.512 -0.2702  0.1430  0.3685
  898MPD2    H713167   0.339   1.907   0.446  0.0582  0.2300  0.7160
  899MPD2     C13168   1.347   2.293  17.318 -0.0796  0.1093 -0.8268
  899MPD2    C113169   1.302   2.422  17.302  0.1224  0.0039 -0.7850
  899MPD2    C213170   1.255   2.484  17.413  0.0127  0.4012 -0.3267
  899MPD2    C313171   1.226   2.413  17.531 -0.0154 -0.5083 -0.1939
  899MPD2    C413172   1.260   2.280  17.535  0.0518 -0.1633  0.2531
  899MPD2    C513173   1.315   2.217  17.431 -0.6428  0.2282 -0.0474
  899MPD2     H13174   1.232   2.589  17.420 -1.3786 -0.1369  3.1023
  899MPD2    H113175   1.252   2.220  17.625  0.0352 -0.1431  0.2650
  899MPD2    H213176   1.385   2.240  17.232  3.3009  0.0787  0.7089
  899MPD2    H313177   1.339   2.112  17.426 -1.0507  0.2167 -1.6108
  899MPD2     N13178   1.185   2.496  17.645  0.4286 -0.6273 -0.0740
  899MPD2    H513179   1.176   2.597  17.637  2.6866 -0.4295 -0.2450
  899MPD2    N113180   1.297   2.471  17.173 -0.0602  0.3444 -0.1296
  899MPD2    H713181   1.334   2.416  17.096 -1.8803 -1.1361  0.0744
  900MPD2     C13182   0.522   4.708  12.655 -0.1410  0.5792 -0.4738
  900MPD2    C113183   0.499   4.573  12.638  0.8352 -0.1086  0.7283
  900MPD2    C213184   0.378   4.535  12.586 -0.5548 -0.2033 -1.1013
  900MPD2    C313185   0.282   4.629  12.549 -0.6806 -0.2613 -0.1693
  900MPD2    C413186   0.308   0.037  12.565  0.3666 -0.5662 -0.4562
  900MPD2    C513187   0.431   0.077  12.614 -0.8040 -0.3547  0.5176
  900MPD2     H13188   0.347   4.431  12.586 -2.0759  0.2442 -2.2826
  900MPD2    H113189   0.239   0.116  12.540  1.1865  0.6108  0.9719
  900MPD2    H213190   0.621   0.020  12.683 -0.4381 -0.2499  1.6071
  900MPD2    H313191   0.447   0.184  12.623 -0.2452 -0.3896 -0.0870
  900MPD2     N13192   0.169   4.581  12.478  0.1411 -0.1210  0.1433
  900MPD2    H513193   0.168   4.481  12.460  1.2231  0.2795 -2.2390
  900MPD2    N113194   0.600   4.478  12.664 -0.1687 -0.8686  0.3575
  900MPD2    H713195   0.577   4.381  12.646 -0.5015 -0.2104 -2.9152
  901MPD2     C13196   0.513   3.543  12.683  0.5293  0.4526  0.1088
  901MPD2    C113197   0.646   3.537  12.660 -0.3482 -0.4724 -0.0066
  901MPD2    C213198   0.704   3.662  12.646 -0.2277  0.7732  0.2141
  901MPD2    C313199   0.640   3.785  12.674  0.5387  0.7228  0.1915
  901MPD2    C413200   0.505   3.778  12.697  0.2370 -0.0583 -0.0912
  901MPD2    C513201   0.447   3.657  12.707  0.6951  0.1490 -0.0582
  901MPD2     H13202   0.812   3.667  12.631 -0.1729 -0.6522  0.0635
  901MPD2    H113203   0.449   3.867  12.726 -0.0550 -0.2657 -0.0261
  901MPD2    H213204   0.456   3.451  12.689  1.7902 -0.4171 -1.3371
  901MPD2    H313205   0.349   3.653  12.754 -0.1349 -0.2590 -1.8411
  901MPD2     N13206   0.720   3.904  12.674 -0.0165 -0.7044  0.4958
  901MPD2    H513207   0.818   3.899  12.650 -0.0495  0.8157  0.0164
  901MPD2    N113208   0.700   3.408  12.637 -0.6031 -0.0840 -0.0701
  901MPD2    H713209   0.640   3.327  12.650 -0.5616 -0.2555 -0.9215
  902MPD2     C13210   4.139   2.170  13.078  0.0567 -0.1074  0.3685
  902MPD2    C113211   4.112   2.253  12.972 -0.3342  0.2795  0.5180
  902MPD2    C213212   4.063   2.199  12.856 -0.2217 -0.0293  0.6576
  902MPD2    C313213   4.050   2.063  12.845  0.2082 -0.0872  0.0067
  902MPD2    C413214   4.071   1.980  12.951 -0.2230  0.1338 -0.2513
  902MPD2    C513215   4.112   2.038  13.067 -0.4782 -0.7357  0.1648
  902MPD2     H13216   4.050   2.271  12.776 -0.9913 -1.0697 -0.1669
  902MPD2    H113217   4.065   1.872  12.948  2.0305  0.0627 -2.0020
  902MPD2    H213218   4.188   2.209  13.166  0.6200  0.2680 -0.1111
  902MPD2    H313219   4.144   1.983  13.154  0.9404 -0.2755 -0.0520
  902MPD2     N13220   4.015   2.001  12.719  0.0080  0.3990  0.2764
  902MPD2    H513221   4.013   1.899  12.715 -0.2062  0.4554 -1.0710
  902MPD2    N113222   4.129   2.387  12.969 -0.2149 -0.7139 -0.2272
  902MPD2    H713223   4.089   2.435  12.889 -0.2107  1.7636  1.2357
  903MPD2     C13224   3.735   2.369  12.104  0.1537  0.1758  1.1040
  903MPD2    C113225   3.706   2.239  12.103  0.4150  0.0453  0.3716
  903MPD2    C213226   3.641   2.197  11.988 -0.9714  0.1317  0.3367
  903MPD2    C313227   3.621   2.274  11.877  0.1875  0.1569 -0.0906
  903MPD2    C413228   3.660   2.405  11.886  0.5148  0.4419  0.0921
  903MPD2    C513229   3.726   2.446  11.996  0.8078 -0.0809 -0.1031
  903MPD2     H13230   3.615   2.094  11.965  2.7435 -0.8972  0.7752
  903MPD2    H113231   3.657   2.476  11.804  0.6005  0.0762 -0.2257
  903MPD2    H213232   3.768   2.416  12.196  0.1156 -0.4827  1.4524
  903MPD2    H313233   3.749   2.551  12.009 -1.8503  0.4453  0.4392
  903MPD2     N13234   3.567   2.215  11.763  0.5517 -0.2469 -0.2274
  903MPD2    H513235   3.547   2.116  11.762  2.6110 -0.6787  0.1191
  903MPD2    N113236   3.739   2.148  12.208 -0.5750  1.0211 -0.2600
  903MPD2    H713237   3.804   2.194  12.271  1.4278  0.3238 -1.8477
  904MPD2     C13238   4.712   1.300  14.449 -0.6209  0.0405 -0.4011
  904MPD2    C113239   4.716   1.327  14.316 -0.1683  0.2588 -0.1834
  904MPD2    C213240   0.110   1.359  14.250 -0.5819 -1.3288 -0.6568
  904MPD2    C313241   0.224   1.369  14.316 -0.0378  0.1065 -0.0155
  904MPD2    C413242   0.228   1.350  14.455  0.1186  0.5664  0.9579
  904MPD2    C513243   0.111   1.318  14.519  0.4262  0.0535  0.3922
  904MPD2     H13244   0.116   1.395  14.148 -0.9908 -0.8029 -0.4954
  904MPD2    H113245   0.319   1.344  14.514  1.1022 -0.2069 -0.6278
  904MPD2    H213246   4.629   1.266  14.508  0.9657 -1.1290  1.1648
  904MPD2    H313247   0.122   1.288  14.623  3.2445 -1.8269 -0.4350
  904MPD2     N13248   0.341   1.408  14.246 -0.5170  0.4066  0.1820
  904MPD2    H513249   0.342   1.404  14.144  1.9506  0.7933  0.1892
  904MPD2    N113250   4.591   1.317  14.253  0.0966  0.3886 -0.2861
  904MPD2    H713251   4.512   1.298  14.314 -0.4393  0.6320 -0.9030
  905MPD2     C13252   4.002   1.532  13.566 -0.0358  0.5824 -0.0684
  905MPD2    C113253   4.118   1.458  13.582  0.2328  1.1296  0.0506
  905MPD2    C213254   4.198   1.429  13.478  0.5532 -0.5284 -0.2454
  905MPD2    C313255   4.175   1.485  13.355  0.2753 -0.8418  0.1922
  905MPD2    C413256   4.058   1.554  13.340 -0.9527  0.8482  0.2802
  905MPD2    C513257   3.970   1.569  13.440  0.3193  0.1987 -0.5588
  905MPD2     H13258   4.284   1.365  13.497  1.8345  1.3920  0.4233
  905MPD2    H113259   4.024   1.596  13.245  0.3001  2.2867  0.4720
  905MPD2    H213260   3.937   1.569  13.645 -1.7877 -1.0056 -0.7550
  905MPD2    H313261   3.886   1.632  13.416  0.6651  0.1732 -1.8505
  905MPD2     N13262   4.272   1.475  13.241  0.3299 -0.6281 -0.0712
  905MPD2    H513263   4.248   1.526  13.156 -0.7584  0.3929  0.8518
  905MPD2    N113264   4.157   1.434  13.713  0.3078 -0.3808  0.1764
  905MPD2    H713265   4.104   1.478  13.788 -0.1759 -1.2518  0.3454
  906MPD2     C13266   1.515   1.504  10.976  0.1285  0.0028  0.2921
  906MPD2    C113267   1.518   1.430  10.860  0.2887 -0.2694  0.2831
  906MPD2    C213268   1.468   1.303  10.865 -0.2103  0.4088  0.2921
  906MPD2    C313269   1.401   1.248  10.978 -0.7506  0.1501 -0.1256
  906MPD2    C413270   1.394   1.328  11.088 -0.3363  0.1408  0.0888
  906MPD2    C513271   1.459   1.450  11.086 -1.2527 -0.8187 -0.1801
  906MPD2     H13272   1.466   1.253  10.769 -2.4585 -0.5480  0.8353
  906MPD2    H113273   1.324   1.295  11.164 -1.2687  1.2755 -0.2936
  906MPD2    H213274   1.560   1.602  10.981  1.4277 -0.6270  1.0826
  906MPD2    H313275   1.462   1.505  11.179 -0.4792 -1.2793  0.0606
  906MPD2     N13276   1.329   1.129  10.974  0.2156 -0.3364  0.0628
  906MPD2    H513277   1.267   1.107  11.051  0.5283  2.6353  1.1790
  906MPD2    N113278   1.571   1.478  10.739  0.5618 -0.2972  0.0719
  906MPD2    H713279   1.602   1.416  10.665  0.1037 -0.4932  0.0443
  907MPD2     C13280   0.213   0.548  16.038 -1.1423 -0.1266 -0.1903
  907MPD2    C113281   0.285   0.436  15.992 -0.2556 -0.4392 -0.5912
  907MPD2    C213282   0.349   0.358  16.091  0.1005 -0.4838  0.5078
  907MPD2    C313283   0.334   0.387  16.226 -0.2853  0.2928 -0.8138
  907MPD2    C413284   0.265   0.498  16.271  0.3289 -0.2711  0.3736
  907MPD2    C513285   0.203   0.571  16.176  0.5537 -0.1942  0.4070
  907MPD2     H13286   0.392   0.262  16.064 -0.3431 -0.2331 -1.0671
  907MPD2    H113287   0.240   0.517  16.375 -1.7578 -2.4916  0.2922
  907MPD2    H213288   0.166   0.614  15.966  0.4751  0.9372 -0.2644
  907MPD2    H313289   0.130   0.649  16.195  1.0785  0.0264  1.5079
  907MPD2     N13290   0.400   0.303  16.321 -0.2421  0.2663  0.3314
  907MPD2    H513291   0.453   0.226  16.281 -1.1974 -0.5585  0.6570
  907MPD2    N113292   0.301   0.400  15.857 -0.0338  0.3786  0.0975
  907MPD2    H713293   0.362   0.322  15.834 -0.1907 -0.4461  2.5172
  908MPD2     C13294   2.528   1.725   9.351 -0.4168  0.1174  0.6226
  908MPD2    C113295   2.602   1.644   9.427  0.1621 -0.2061  0.0890
  908MPD2    C213296   2.657   1.693   9.546 -0.5783  0.2980  0.0450
  908MPD2    C313297   2.641   1.822   9.585 -0.1593  0.7512 -0.1180
  908MPD2    C413298   2.570   1.908   9.500 -0.2563  0.1620  0.2349
  908MPD2    C513299   2.514   1.857   9.385  0.5061  0.2382  0.3627
  908MPD2     H13300   2.718   1.624   9.604  0.8357  0.5053 -1.2111
  908MPD2    H113301   2.559   2.008   9.541  0.0096  0.0804  0.5093
  908MPD2    H213302   2.493   1.706   9.250  1.7863  0.6642 -0.2635
  908MPD2    H313303   2.455   1.916   9.316  2.2705  2.0601  0.3982
  908MPD2     N13304   2.689   1.862   9.714 -0.0800 -0.0211  0.0190
  908MPD2    H513305   2.722   1.788   9.775 -0.7126  0.1574  0.5796
  908MPD2    N113306   2.624   1.510   9.394  0.4305 -0.4414  0.5018
  908MPD2    H713307   2.678   1.461   9.465 -1.1925 -0.8552  1.4713
  909MPD2     C13308   3.332   4.305  11.500 -1.1625 -0.1555  0.3290
  909MPD2    C113309   3.299   4.427  11.451  0.4700  0.1307 -0.4478
  909MPD2    C213310   3.276   4.527  11.542 -0.6862 -0.0378  0.0535
  909MPD2    C313311   3.263   4.497  11.676  0.6228  0.4370 -0.1944
  909MPD2    C413312   3.275   4.363  11.720 -0.5639 -0.0629  0.2317
  909MPD2    C513313   3.307   4.265  11.627  0.6151 -0.1673 -0.4023
  909MPD2     H13314   3.254   4.628  11.508  1.2908  0.8151  1.3509
  909MPD2    H113315   3.257   4.334  11.822 -0.8458  0.3911  0.3120
  909MPD2    H213316   3.373   4.225  11.439  2.4853  2.4621 -0.6637
  909MPD2    H313317   3.328   4.167  11.669 -2.2565 -0.6987 -0.1721
  909MPD2     N13318   3.219   4.606  11.756  0.9283 -0.3071 -0.8975
  909MPD2    H513319   3.181   4.688  11.709 -0.2929 -0.3765 -0.0264
  909MPD2    N113320   3.313   4.464  11.316 -0.1836  0.4313  0.6116
  909MPD2    H713321   3.308   4.563  11.293  0.1574 -0.0071 -1.3746
  910MPD2     C13322   4.152   0.607  16.243 -0.4643 -0.9771  0.3662
  910MPD2    C113323   4.265   0.605  16.170  0.1867 -0.8331 -0.0323
  910MPD2    C213324   4.261   0.673  16.050  0.0271 -0.2524 -0.5625
  910MPD2    C313325   4.145   0.736  16.004  0.4424 -0.4127  0.2718
  910MPD2    C413326   4.026   0.720  16.071 -0.4287 -0.3761  0.0945
  910MPD2    C513327   4.035   0.648  16.191  0.5044  0.1634  0.5946
  910MPD2     H13328   4.351   0.690  15.992  0.8243  0.9149  1.0298
  910MPD2    H113329   3.934   0.760  16.029 -1.6408 -0.9983  2.0896
  910MPD2    H213330   4.156   0.583  16.348  0.4162 -1.3521  0.2477
  910MPD2    H313331   3.945   0.654  16.251  0.3574  1.5348  0.2528
  910MPD2     N13332   4.128   0.820  15.888  0.2573  0.0018  0.4255
  910MPD2    H513333   4.032   0.840  15.860 -0.5086  0.1751  3.2303
  910MPD2    N113334   4.389   0.547  16.216  0.1500  0.2591 -0.2806
  910MPD2    H713335   4.470   0.558  16.155 -0.7640  0.6703 -1.4192
  911MPD2     C13336   2.467   1.253  16.039  0.0967  0.2440  0.4379
  911MPD2    C113337   2.506   1.340  16.141  0.2828 -0.1274  0.1315
  911MPD2    C213338   2.439   1.463  16.156  0.1718  0.8177  0.4709
  911MPD2    C313339   2.344   1.502  16.068 -0.0835  0.7532  0.4131
  911MPD2    C413340   2.325   1.427  15.954  0.5367  0.2613  0.2457
  911MPD2    C513341   2.386   1.306  15.940  0.3225 -0.0841 -0.6369
  911MPD2     H13342   2.454   1.530  16.240  1.1074  3.5121 -1.8538
  911MPD2    H113343   2.261   1.464  15.875 -1.8601 -0.8406  1.6521
  911MPD2    H213344   2.519   1.160  16.015 -1.0638 -0.3430  0.2130
  911MPD2    H313345   2.372   1.242  15.853  1.6279 -0.0384 -0.8696
  911MPD2     N13346   2.277   1.626  16.079  0.1048  0.0054  0.1043
  911MPD2    H513347   2.198   1.640  16.016  2.0030  2.1452 -1.7939
  911MPD2    N113348   2.597   1.288  16.243 -0.5190  0.3217 -0.0903
  911MPD2    H713349   2.622   1.191  16.231 -0.2611  0.3447  0.2848
  912MPD2     C13350   1.932   1.520  15.642 -0.2169  0.6372  0.0621
  912MPD2    C113351   1.951   1.537  15.776  0.2239  0.1772 -0.5343
  912MPD2    C213352   1.969   1.428  15.861 -0.4984 -0.6492 -0.1750
  912MPD2    C313353   1.978   1.299  15.810 -0.0748 -1.3242 -0.4710
  912MPD2    C413354   1.965   1.277  15.675 -0.4185  0.0430  0.3032
  912MPD2    C513355   1.940   1.391  15.590 -0.2342  0.2138 -0.2950
  912MPD2     H13356   1.981   1.436  15.969  1.3359 -0.5709 -0.3913
  912MPD2    H113357   1.982   1.178  15.633  0.7888 -1.0786  3.3964
  912MPD2    H213358   1.908   1.606  15.581 -2.2928 -0.2208 -0.3373
  912MPD2    H313359   1.927   1.374  15.484  0.4047 -0.2002 -0.3102
  912MPD2     N13360   2.015   1.196  15.898 -0.9419  0.2551  0.3336
  912MPD2    H513361   2.004   1.215  15.997  1.1805  1.1984  0.3752
  912MPD2    N113362   1.941   1.661  15.823 -0.0366 -0.2477  0.1308
  912MPD2    H713363   1.932   1.737  15.755  3.4257 -0.8550 -0.9674
  913MPD2     C13364   2.263   3.057  10.322 -0.5832 -0.9278  0.5268
  913MPD2    C113365   2.356   3.153  10.283  0.2515  0.5831  0.3280
  913MPD2    C213366   2.321   3.243  10.186 -0.5565 -0.0648  0.0568
  913MPD2    C313367   2.211   3.228  10.111 -0.0204 -0.2670 -0.0174
  913MPD2    C413368   2.120   3.126  10.141  0.6360 -0.7385  0.8052
  913MPD2    C513369   2.146   3.050  10.251 -0.7331  0.0777  0.1068
  913MPD2     H13370   2.388   3.325  10.164 -2.5882  1.1942 -1.4437
  913MPD2    H113371   2.025   3.112  10.090  0.2361 -1.0488  1.6421
  913MPD2    H213372   2.278   2.983  10.400 -3.4821 -1.6527  0.3831
  913MPD2    H313373   2.077   2.976  10.290  2.5642 -2.8985  0.2580
  913MPD2     N13374   2.165   3.320  10.011 -0.2021  0.4283  0.5513
  913MPD2    H513375   2.076   3.303   9.966  0.8055  1.0854 -1.7195
  913MPD2    N113376   2.484   3.158  10.347  0.0641  0.0549 -0.4633
  913MPD2    H713377   2.501   3.095  10.424  1.3836  1.8947  0.7558
  914MPD2     C13378   0.255   2.956  12.053 -0.1943  0.0376 -0.1548
  914MPD2    C113379   0.280   3.087  12.077  0.3858  0.2326  0.0700
  914MPD2    C213380   0.374   3.110  12.177 -1.1599  0.5342  0.4748
  914MPD2    C313381   0.440   3.010  12.247  0.5118 -0.5680 -0.0463
  914MPD2    C413382   0.406   2.878  12.222  0.0598  0.1606  0.2598
  914MPD2    C513383   0.326   2.853  12.115  0.0516 -0.5348  0.3282
  914MPD2     H13384   0.400   3.214  12.193  3.4831 -0.4660 -0.4633
  914MPD2    H113385   0.459   2.799  12.275 -0.9602 -1.2461 -0.7869
  914MPD2    H213386   0.181   2.928  11.979 -1.4530 -2.6307  2.1319
  914MPD2    H313387   0.312   2.751  12.080 -1.2096  0.0693 -0.9031
  914MPD2     N13388   0.540   3.058  12.336 -0.3488 -0.2083  0.3625
  914MPD2    H513389   0.536   3.154  12.370 -1.8904 -0.7199  1.6042
  914MPD2    N113390   0.216   3.183  11.997 -0.1154 -0.3441 -0.3308
  914MPD2    H713391   0.161   3.153  11.917  0.0033 -0.5207 -0.3460
  915MPD2     C13392   3.908   2.933  15.395 -0.1405  0.1486 -0.2608
  915MPD2    C113393   3.776   2.966  15.403 -0.0013 -0.1014  0.5310
  915MPD2    C213394   3.717   3.009  15.524  0.0498  0.8167  0.7774
  915MPD2    C313395   3.796   3.011  15.637  0.3211 -0.5590  0.0263
  915MPD2    C413396   3.926   2.970  15.630 -0.2123  0.1965  0.1035
  915MPD2    C513397   3.981   2.935  15.509 -0.3183  0.6463 -0.0620
  915MPD2     H13398   3.609   3.012  15.532 -0.1369 -2.4046 -0.4346
  915MPD2    H113399   3.988   2.951  15.717 -0.1788  0.6962  0.1915
  915MPD2    H213400   3.938   2.891  15.300  1.6005  1.4703 -0.3089
  915MPD2    H313401   4.088   2.916  15.502 -0.2399  1.4413 -1.0357
  915MPD2     N13402   3.741   3.027  15.764 -0.4496 -0.0385  0.4083
  915MPD2    H513403   3.641   3.039  15.771 -0.7114 -2.2880  0.7213
  915MPD2    N113404   3.697   2.947  15.287 -1.0752  0.1194  0.1221
  915MPD2    H713405   3.742   2.919  15.200 -1.2769 -0.6586  0.2686
  916MPD2     C13406   1.577   1.021  15.717  0.6437  0.5830  0.1993
  916MPD2    C113407   1.575   0.922  15.810 -0.2171 -0.6707 -0.3377
  916MPD2    C213408   1.668   0.826  15.801 -0.4229  0.1926 -0.2154
  916MPD2    C313409   1.754   0.816  15.693  0.4292  0.0490  0.3837
  916MPD2    C413410   1.744   0.910  15.593  0.2750 -0.1008 -0.2446
  916MPD2    C513411   1.654   1.009  15.603 -0.5371 -0.0122  0.2289
  916MPD2     H13412   1.683   0.759  15.885 -0.9073 -1.0406 -1.1273
  916MPD2    H113413   1.819   0.921  15.516  1.5076 -1.7246  0.7120
  916MPD2    H213414   1.513   1.108  15.723  0.8231  0.6443  1.1024
  916MPD2    H313415   1.659   1.090  15.531 -0.0820 -0.5655 -0.3632
  916MPD2     N13416   1.851   0.717  15.692  0.1247  0.9402  0.5605
  916MPD2    H513417   1.857   0.657  15.774 -1.8709 -2.9295 -2.1235
  916MPD2    N113418   1.494   0.947  15.924  0.1213 -0.4947 -0.6306
  916MPD2    H713419   1.418   1.013  15.910  0.8746  0.5337  0.1626
  917MPD2     C13420   1.507   4.148  10.900 -0.2813 -0.8971 -0.0683
  917MPD2    C113421   1.614   4.154  10.982 -0.5950  0.1653 -0.5048
  917MPD2    C213422   1.716   4.246  10.968  0.2414  0.2459 -0.4713
  917MPD2    C313423   1.695   4.340  10.872  0.6523  0.2568 -0.4382
  917MPD2    C413424   1.593   4.334  10.780  0.1670 -0.2821 -0.0873
  917MPD2    C513425   1.497   4.238  10.798  0.7462 -0.4807  0.1134
  917MPD2     H13426   1.800   4.260  11.035 -0.5437  1.4469  0.2619
  917MPD2    H113427   1.589   4.403  10.696 -1.3547 -0.5305 -0.2141
  917MPD2    H213428   1.430   4.072  10.904 -1.0566 -0.0650  0.8732
  917MPD2    H313429   1.417   4.222  10.727 -0.0105 -0.0207  0.8717
  917MPD2     N13430   1.782   4.450  10.851 -0.6117  0.4023  0.2991
  917MPD2    H513431   1.754   4.507  10.772  3.1015 -1.5394 -2.3934
  917MPD2    N113432   1.621   4.053  11.079 -0.0715 -0.3905  0.0918
  917MPD2    H713433   1.546   3.986  11.073  0.2794 -0.8795  1.2972
  918MPD2     C13434   2.045   4.047  12.020  0.1324 -0.0504 -0.4580
  918MPD2    C113435   2.118   3.970  11.934  0.1147 -0.4836 -0.6737
  918MPD2    C213436   2.061   3.937  11.813 -0.4699 -0.4402  0.1799
  918MPD2    C313437   1.932   3.971  11.785  0.2533  0.5332 -0.3424
  918MPD2    C413438   1.856   4.023  11.884  0.7676  0.9128 -0.0898
  918MPD2    C513439   1.913   4.069  11.997  0.4883 -0.1649  0.0010
  918MPD2     H13440   2.114   3.871  11.745 -0.7594 -1.1529  0.6499
  918MPD2    H113441   1.751   4.046  11.877  0.3521 -0.4722  1.6675
  918MPD2    H213442   2.077   4.085  12.117 -1.8649 -1.8140  0.8884
  918MPD2    H313443   1.845   4.108  12.072 -1.0243 -3.6971  0.4472
  918MPD2     N13444   1.867   3.933  11.664 -0.3319  0.0823 -0.1762
  918MPD2    H513445   1.926   3.889  11.595 -0.8007  1.0935 -1.2283
  918MPD2    N113446   2.242   3.918  11.969  0.3835 -0.4605 -0.4153
  918MPD2    H713447   2.279   3.845  11.909 -1.5135 -1.1044 -0.8076
  919MPD2     C13448   2.679   3.052  11.882 -0.0673 -0.2775  0.5346
  919MPD2    C113449   2.611   2.951  11.820 -0.3560 -0.2211  0.7214
  919MPD2    C213450   2.607   2.941  11.682 -0.0042  0.4948  0.2921
  919MPD2    C313451   2.676   3.029  11.603 -0.6050  0.6937  0.3915
  919MPD2    C413452   2.741   3.137  11.668 -0.8330  0.1169 -0.1919
  919MPD2    C513453   2.742   3.147  11.810 -0.1024 -0.3992 -0.0032
  919MPD2     H13454   2.563   2.852  11.639 -0.9579  1.7073 -1.2868
  919MPD2    H113455   2.805   3.204  11.612 -3.1383  2.6640  0.2252
  919MPD2    H213456   2.698   3.056  11.989  1.8305 -1.2165  0.2126
  919MPD2    H313457   2.800   3.220  11.865 -0.2992  0.9739 -1.6069
  919MPD2     N13458   2.675   3.022  11.461 -0.4382  0.3929 -0.3612
  919MPD2    H513459   2.725   3.098  11.417 -2.6259  0.2744 -3.0718
  919MPD2    N113460   2.551   2.848  11.895  0.3195  0.0804  0.1584
  919MPD2    H713461   2.503   2.780  11.837 -0.8626 -0.4333  1.7340
  920MPD2     C13462   2.645   3.524  10.603 -0.2188 -0.0458  0.0393
  920MPD2    C113463   2.539   3.440  10.602  0.0003  0.1898 -0.4886
  920MPD2    C213464   2.538   3.334  10.695  0.0013  0.6652  0.4425
  920MPD2    C313465   2.644   3.310  10.782 -0.0759  0.1048 -0.4377
  920MPD2    C413466   2.757   3.397  10.778 -0.0335  0.2633 -0.5542
  920MPD2    C513467   2.754   3.498  10.687  0.5113 -0.4949 -0.1203
  920MPD2     H13468   2.465   3.255  10.691  1.7313 -0.8891 -0.4252
  920MPD2    H113469   2.851   3.376  10.828  0.0571  0.5272 -0.6157
  920MPD2    H213470   2.665   3.604  10.533  0.5522  0.8957  1.3284
  920MPD2    H313471   2.844   3.558  10.683 -0.3166  0.7338 -0.0220
  920MPD2     N13472   2.632   3.198  10.869 -0.5353  0.5703 -0.2731
  920MPD2    H513473   2.541   3.152  10.870  0.3904 -1.2698 -1.2758
  920MPD2    N113474   2.430   3.457  10.510 -0.9211 -0.0488  0.6316
  920MPD2    H713475   2.351   3.397  10.528 -1.1618  0.4625  1.3053
  921MPD2     C13476   3.320   1.663  16.783 -0.2145  0.8992  0.0071
  921MPD2    C113477   3.341   1.525  16.765  0.3948  0.0426  0.0108
  921MPD2    C213478   3.231   1.449  16.744 -0.0055 -0.3642  0.4827
  921MPD2    C313479   3.101   1.500  16.730 -0.1153 -0.4851 -0.3454
  921MPD2    C413480   3.085   1.640  16.746  0.4302  1.1320 -0.0289
  921MPD2    C513481   3.193   1.722  16.775  0.3011  0.0521 -0.2850
  921MPD2     H13482   3.254   1.347  16.717  1.1984 -0.1543  0.7086
  921MPD2    H113483   2.991   1.693  16.746 -0.1438  0.1215  1.1637
  921MPD2    H213484   3.409   1.725  16.791 -0.3580  0.8871  1.6124
  921MPD2    H313485   3.172   1.828  16.775 -0.3612 -0.0738  1.2432
  921MPD2     N13486   2.990   1.433  16.677  0.0062 -0.4046 -0.2240
  921MPD2    H513487   2.912   1.491  16.649  1.8920  2.4117  0.3570
  921MPD2    N113488   3.465   1.459  16.752 -0.0422 -0.7843  0.7157
  921MPD2    H713489   3.477   1.360  16.731 -0.0592 -0.8185  0.8708
  922MPD2     C13490   4.509   4.249  17.220  0.5417  0.0967 -0.1091
  922MPD2    C113491   4.549   4.192  17.341  0.2156  0.4086 -0.2490
  922MPD2    C213492   4.466   4.192  17.452 -0.1635  0.7160 -0.0653
  922MPD2    C313493   4.350   4.264  17.446  0.1854 -0.3927 -0.3316
  922MPD2    C413494   4.316   4.318  17.329  0.0882 -0.7824  0.4161
  922MPD2    C513495   4.388   4.308  17.214 -0.2416 -0.1626  0.2489
  922MPD2     H13496   4.501   4.137  17.539 -1.1419 -0.5517 -0.4718
  922MPD2    H113497   4.219   4.363  17.314  0.7479  0.1696 -1.0740
  922MPD2    H213498   4.573   4.255  17.133  0.5180 -4.2250 -0.4230
  922MPD2    H313499   4.360   4.358  17.123 -1.3474 -0.9403  0.1470
  922MPD2     N13500   4.251   4.273  17.544  1.0716  0.3232 -0.0254
  922MPD2    H513501   4.167   4.323  17.517  0.2559 -0.5463  0.8878
  922MPD2    N113502   4.680   4.133  17.362 -0.1920  0.3447  0.2328
  922MPD2    H713503   4.692   4.090  17.453 -0.6234  0.9428  0.5759
  923MPD2     C13504   0.761   2.187   9.253 -0.4624  0.8962  0.9858
  923MPD2    C113505   0.813   2.311   9.264  0.0291 -0.2882 -0.2736
  923MPD2    C213506   0.912   2.340   9.358  0.3785  0.0317  0.4665
  923MPD2    C313507   0.975   2.239   9.427 -0.6194 -0.5693  0.5890
  923MPD2    C413508   0.917   2.115   9.419 -0.3984 -0.4686  0.1152
  923MPD2    C513509   0.822   2.081   9.325 -0.0544 -0.1271  0.1888
  923MPD2     H13510   0.943   2.443   9.372 -1.4028  0.6059  0.1640
  923MPD2    H113511   0.951   2.035   9.485 -1.8947  0.0880  1.5725
  923MPD2    H213512   0.684   2.159   9.181  0.8998 -1.4997  0.4452
  923MPD2    H313513   0.775   1.984   9.329  1.0494 -0.7924 -3.0272
  923MPD2     N13514   1.076   2.265   9.529 -0.0367 -0.3311  0.4838
  923MPD2    H513515   1.099   2.187   9.589  1.7422  0.1610  0.4541
  923MPD2    N113516   0.750   2.399   9.181 -0.0574 -0.5729 -0.3202
  923MPD2    H713517   0.674   2.359   9.126 -0.5536  1.7572 -1.3047
  924MPD2     C13518   0.896   4.494  15.980 -0.3090 -0.1900  0.4172
  924MPD2    C113519   0.856   4.442  16.100  0.1263 -0.8563 -0.7849
  924MPD2    C213520   0.834   4.533  16.202  0.3695 -0.7266  0.1790
  924MPD2    C313521   0.844   4.671  16.192 -0.1572 -0.7301  0.6383
  924MPD2    C413522   0.899   4.715  16.067  0.5752 -0.3070 -0.6088
  924MPD2    C513523   0.922   4.627  15.963 -0.4706 -0.2571  0.5183
  924MPD2     H13524   0.805   4.486  16.296  1.3344 -2.6512 -0.5002
  924MPD2    H113525   0.920   0.098  16.056 -1.5538  0.1714 -0.1539
  924MPD2    H213526   0.926   4.432  15.896 -0.3313  0.1661  0.1424
  924MPD2    H313527   0.975   4.669  15.878 -0.8737  0.8473  0.8143
  924MPD2     N13528   0.818   0.037  16.297  0.3274 -0.0338  0.6270
  924MPD2    H513529   0.844   0.135  16.283 -0.9957  0.2149 -0.0291
  924MPD2    N113530   0.816   4.307  16.109  0.6132  0.2247 -0.4251
  924MPD2    H713531   0.807   4.254  16.022 -1.4020  0.1844 -0.1782
  925MPD2     C13532   4.194   2.216  14.857 -0.3981  0.5191 -0.1761
  925MPD2    C113533   4.082   2.217  14.773 -0.7300 -0.2286 -0.1933
  925MPD2    C213534   3.958   2.189  14.820 -0.0751  0.5496 -0.9946
  925MPD2    C313535   3.936   2.180  14.957  0.2652 -0.3949  0.0812
  925MPD2    C413536   4.041   2.193  15.036  0.1752 -1.2249 -0.4236
  925MPD2    C513537   4.173   2.204  14.989 -0.1754  0.3751 -1.0136
  925MPD2     H13538   3.873   2.183  14.753 -1.3803  0.1064  0.6913
  925MPD2    H113539   4.029   2.172  15.142  1.9818 -0.5541 -0.0947
  925MPD2    H213540   4.290   2.237  14.813 -0.7012 -1.1697 -1.6252
  925MPD2    H313541   4.259   2.208  15.055  0.3473  0.9756 -1.7299
  925MPD2     N13542   3.808   2.163  15.018 -0.7518  0.2319 -0.2628
  925MPD2    H513543   3.800   2.157  15.119 -3.9062  2.4658 -0.3819
  925MPD2    N113544   4.090   2.228  14.631 -0.0535  0.0635  0.6193
  925MPD2    H713545   4.004   2.236  14.577  0.1929 -1.7923 -0.0548
  926MPD2     C13546   2.837   0.535  13.930 -0.3294  0.3515 -0.1611
  926MPD2    C113547   2.762   0.561  13.821 -0.1865  0.1991  0.1276
  926MPD2    C213548   2.817   0.611  13.705 -0.2228  0.4633 -0.1325
  926MPD2    C313549   2.949   0.660  13.712  0.5735 -0.3964  0.3922
  926MPD2    C413550   3.031   0.627  13.829 -0.9578 -0.4575  0.0295
  926MPD2    C513551   2.970   0.574  13.937  0.2117  0.5596  1.2565
  926MPD2     H13552   2.749   0.635  13.624 -1.4119  0.6911  0.9329
  926MPD2    H113553   3.136   0.653  13.840 -1.0144 -1.5997  3.2155
  926MPD2    H213554   2.804   0.490  14.023  1.1688  1.0123  0.6942
  926MPD2    H313555   3.021   0.535  14.025  0.6720 -1.8393 -0.0810
  926MPD2     N13556   3.014   0.735  13.612  0.0789 -0.1138 -0.3245
  926MPD2    H513557   3.105   0.771  13.639  0.1887  0.9593 -2.1084
  926MPD2    N113558   2.626   0.526  13.819 -0.1183  0.3813  0.1430
  926MPD2    H713559   2.581   0.544  13.730  2.0349  1.4793 -0.7081
  927MPD2     C13560   2.551   2.582  17.578 -0.1832 -0.1503 -0.2040
  927MPD2    C113561   2.567   2.554   0.015  0.4021 -0.5305  0.0012
  927MPD2    C213562   2.611   2.428   0.049  0.3887  0.1486  0.3219
  927MPD2    C313563   2.629   2.331  17.653  0.3313  0.2955  0.1572
  927MPD2    C413564   2.616   2.356  17.517  0.6156  0.1822  0.0095
  927MPD2    C513565   2.589   2.486  17.483 -0.0938  0.3048  0.2239
  927MPD2     H13566   2.630   2.400   0.152 -2.4702  1.5909  1.2288
  927MPD2    H113567   2.639   2.290  17.435 -1.0530 -2.8138  1.9606
  927MPD2    H213568   2.509   2.678  17.551  0.9445  0.3069 -0.3282
  927MPD2    H313569   2.555   2.517  17.385  0.3655 -1.8974 -0.6263
  927MPD2     N13570   2.678   2.208   0.006 -0.4224  0.2616  0.3515
  927MPD2    H513571   2.674   2.196   0.107  2.4875  1.5670  0.6446
  927MPD2    N113572   2.559   2.657   0.110  0.0622  0.7122  0.2645
  927MPD2    H713573   2.533   2.746   0.069 -0.2434  0.5686  0.1481
  928MPD2     C13574   0.054   1.345   0.631  0.0574 -0.3246  0.7847
  928MPD2    C113575   0.164   1.275   0.672 -0.0569 -0.2628 -0.2461
  928MPD2    C213576   0.273   1.263   0.588  0.9248  0.5889  0.2897
  928MPD2    C313577   0.278   1.328   0.464  0.7500  0.0733 -0.0066
  928MPD2    C413578   0.165   1.399   0.427 -0.2773 -0.6832 -0.1790
  928MPD2    C513579   0.053   1.401   0.502  0.0925  0.0744 -0.1145
  928MPD2     H13580   0.369   1.226   0.620  0.4316 -0.8041  0.1444
  928MPD2    H113581   0.156   1.448   0.330  0.6025  0.0205  0.1002
  928MPD2    H213582   4.695   1.368   0.698 -0.5720 -0.7735  0.1665
  928MPD2    H313583   4.687   1.443   0.457 -0.9971 -3.9356 -1.6434
  928MPD2     N13584   0.395   1.342   0.377 -0.3930  0.2856 -0.5204
  928MPD2    H513585   0.389   1.413   0.305  3.4121 -0.0671 -1.2161
  928MPD2    N113586   0.162   1.219   0.797 -0.1883 -0.1805  0.6119
  928MPD2    H713587   0.073   1.226   0.844 -0.5028  2.1218 -0.3548
  929MPD2     C13588   0.596   2.314   9.508  0.7791 -0.4275  0.1101
  929MPD2    C113589   0.509   2.210   9.514  0.3299 -0.4423  0.5039
  929MPD2    C213590   0.379   2.236   9.471 -0.0607  0.6444  0.4487
  929MPD2    C313591   0.345   2.365   9.436  0.6804 -0.2973  0.9212
  929MPD2    C413592   0.431   2.471   9.447 -0.0608  0.3881 -0.2500
  929MPD2    C513593   0.556   2.442   9.487  0.2184 -0.3097 -0.1094
  929MPD2     H13594   0.303   2.159   9.472 -1.5588  2.1440  1.5369
  929MPD2    H113595   0.409   2.574   9.421 -1.2688  0.2263  0.1111
  929MPD2    H213596   0.702   2.303   9.527  0.9248  0.9496  0.0907
  929MPD2    H313597   0.637   2.514   9.485 -0.9367  1.0228  1.2573
  929MPD2     N13598   0.212   2.404   9.403  0.2432 -0.3817  0.5547
  929MPD2    H513599   0.196   2.502   9.422 -0.5361 -0.7373  1.7441
  929MPD2    N113600   0.560   2.083   9.562  0.8810  0.5494  0.7196
  929MPD2    H713601   0.653   2.081   9.603  1.4764  0.1538 -0.6621
  930MPD2     C13602   2.115   3.341  13.901  0.4802  0.2440  0.2294
  930MPD2    C113603   2.248   3.328  13.897  1.0025  0.0901  0.7125
  930MPD2    C213604   2.314   3.305  13.778 -0.7159  0.1578 -0.9618
  930MPD2    C313605   2.235   3.317  13.662 -0.4587  0.0626 -0.2547
  930MPD2    C413606   2.099   3.335  13.670  0.6118  0.2401 -0.0130
  930MPD2    C513607   2.036   3.349  13.792 -0.4833  0.7814  0.6964
  930MPD2     H13608   2.421   3.293  13.769 -0.4060  1.8122  0.4015
  930MPD2    H113609   2.038   3.344  13.581  1.9886 -0.1643 -0.9917
  930MPD2    H213610   2.053   3.352  13.990  1.4403  0.3625  0.8848
  930MPD2    H313611   1.928   3.360  13.791 -0.5245 -0.1674 -3.4264
  930MPD2     N13612   2.296   3.330  13.531  0.2074  0.1721  0.0345
  930MPD2    H513613   2.238   3.359  13.452 -0.3981  1.3731  0.9295
  930MPD2    N113614   2.316   3.354  14.018 -0.6249  0.7040  0.4735
  930MPD2    H713615   2.269   3.402  14.094 -2.4802 -2.5246  1.3598
  931MPD2     C13616   2.671   3.045   0.952 -0.8103  0.4605 -0.8247
  931MPD2    C113617   2.696   2.927   0.882  0.1023  0.0202 -0.7176
  931MPD2    C213618   2.716   2.806   0.941  0.6827 -0.8822  0.3454
  931MPD2    C313619   2.723   2.799   1.080 -0.4493 -0.3319  0.4776
  931MPD2    C413620   2.710   2.919   1.152 -0.4468  0.1004  0.3257
  931MPD2    C513621   2.680   3.040   1.088  0.0310  0.4949  0.0909
  931MPD2     H13622   2.707   2.714   0.885 -2.8194  0.7305 -1.7233
  931MPD2    H113623   2.713   2.928   1.260 -1.4226  0.3722  0.3348
  931MPD2    H213624   2.648   3.141   0.908  3.1836  1.7596 -0.0633
  931MPD2    H313625   2.652   3.129   1.143 -1.8737  0.6799 -1.1816
  931MPD2     N13626   2.728   2.682   1.161  0.0382 -0.9213 -0.2225
  931MPD2    H513627   2.719   2.698   1.261 -1.7785  1.0907 -0.7271
  931MPD2    N113628   2.659   2.942   0.748  0.3095  0.6086 -0.1971
  931MPD2    H713629   2.633   3.036   0.719  0.6862  1.0636  0.9225
  932MPD2     C13630   3.781   2.279  11.262  0.4730 -0.7396 -0.4034
  932MPD2    C113631   3.900   2.236  11.320  0.2644 -0.4044  0.2165
  932MPD2    C213632   3.940   2.105  11.302  0.2494  0.4055 -1.2741
  932MPD2    C313633   3.860   2.014  11.236  0.3134 -0.0625 -0.5061
  932MPD2    C413634   3.750   2.062  11.178 -0.1909 -0.2643 -0.5700
  932MPD2    C513635   3.712   2.193  11.185  0.6702 -0.1858  0.7475
  932MPD2     H13636   4.033   2.074  11.349 -1.3427 -0.5256  1.2838
  932MPD2    H113637   3.686   1.993  11.124  0.0677 -1.0709  0.1457
  932MPD2    H213638   3.727   2.372  11.279  1.8630 -0.1734  0.9726
  932MPD2    H313639   3.619   2.229  11.143  0.7516  0.5389  1.1876
  932MPD2     N13640   3.888   1.873  11.235  0.1554  0.3457  0.4051
  932MPD2    H513641   3.821   1.802  11.209  1.3554 -0.2671 -1.0123
  932MPD2    N113642   3.985   2.318  11.397  0.3882  0.4683  0.0074
  932MPD2    H713643   4.081   2.291  11.420 -0.1217 -0.0684  1.5192
  933MPD2     C13644   4.479   1.367   1.256 -0.0728 -0.4387 -0.3722
  933MPD2    C113645   4.596   1.327   1.316 -0.0473  1.1128  0.2849
  933MPD2    C213646   4.616   1.370   1.442 -0.2885 -0.7891 -0.7173
  933MPD2    C313647   4.538   1.462   1.503 -0.5415 -0.3658  0.4571
  933MPD2    C413648   4.424   1.498   1.438  0.4543 -0.0950  0.7637
  933MPD2    C513649   4.387   1.446   1.317  0.1217  0.9115  0.0340
  933MPD2     H13650   4.703   1.323   1.488 -0.3099  0.2903  0.4261
  933MPD2    H113651   4.350   1.566   1.478 -1.1057 -1.6946  0.5704
  933MPD2    H213652   4.453   1.326   1.159 -1.1463 -2.4469  0.7513
  933MPD2    H313653   4.298   1.482   1.268  0.0871  1.4028  0.4632
  933MPD2     N13654   4.560   1.499   1.637 -0.1919  0.4318 -0.4312
  933MPD2    H513655   4.478   1.539   1.682 -0.8547 -0.2420 -1.0531
  933MPD2    N113656   4.676   1.242   1.243  0.2325  0.6739 -0.5137
  933MPD2    H713657   4.653   1.233   1.145  0.1488  1.5078 -0.5719
  934MPD2     C13658   1.178   3.712   1.905 -0.2128  0.0271 -0.9771
  934MPD2    C113659   1.305   3.681   1.881 -0.0016 -0.7586  0.4171
  934MPD2    C213660   1.333   3.554   1.828 -0.7137  0.6857  0.5836
  934MPD2    C313661   1.228   3.468   1.792 -0.5282 -0.2308 -0.5187
  934MPD2    C413662   1.098   3.506   1.818 -0.8117  0.1891  0.2483
  934MPD2    C513663   1.074   3.630   1.863 -0.4568 -0.0484  0.5297
  934MPD2     H13664   1.436   3.525   1.810 -1.0646 -1.0646  1.4273
  934MPD2    H113665   1.017   3.439   1.792 -1.0265  1.1506 -1.5777
  934MPD2    H213666   1.143   3.809   1.940  0.0200  0.3284 -1.5798
  934MPD2    H313667   0.974   3.661   1.894 -0.5586 -0.5361  0.6844
  934MPD2     N13668   1.245   3.334   1.745 -0.8590 -0.3270 -0.6187
  934MPD2    H513669   1.159   3.285   1.725  0.1976 -1.9477 -1.1559
  934MPD2    N113670   1.413   3.763   1.907  0.8143 -1.1923  0.3177
  934MPD2    H713671   1.504   3.730   1.876  1.1787 -0.4692  0.6099
  935MPD2     C13672   1.983   2.895   1.230  0.1321 -0.0003 -0.0586
  935MPD2    C113673   1.889   2.793   1.241 -0.0074  0.5326 -0.6828
  935MPD2    C213674   1.776   2.821   1.320  0.3247 -0.4368  0.0889
  935MPD2    C313675   1.758   2.942   1.378 -0.2785  0.1729 -0.5300
  935MPD2    C413676   1.858   3.035   1.370  0.4736  0.8759  0.0451
  935MPD2    C513677   1.967   3.017   1.293 -0.2535 -0.0569 -0.1439
  935MPD2     H13678   1.698   2.746   1.325  0.3972 -0.3292  2.6057
  935MPD2    H113679   1.846   3.132   1.417 -0.7689 -0.0341  1.5961
  935MPD2    H213680   2.067   2.885   1.162  1.4453  1.5353  1.3141
  935MPD2    H313681   2.047   3.090   1.292  2.1625 -2.6641  0.4310
  935MPD2     N13682   1.650   2.972   1.463 -0.2727 -0.7352  0.2659
  935MPD2    H513683   1.671   3.051   1.523  0.2276 -2.0448  1.8004
  935MPD2    N113684   1.887   2.676   1.165  0.4256  0.8395  0.0476
  935MPD2    H713685   1.796   2.633   1.149 -1.3791  5.4338 -2.0344
  936MPD2     C13686   4.373   0.623  12.424 -0.2985 -0.6659 -0.4341
  936MPD2    C113687   4.371   0.746  12.479  0.7527 -0.4741  0.0120
  936MPD2    C213688   4.363   0.855  12.401  0.2187 -0.3597  0.1076
  936MPD2    C313689   4.360   0.845  12.263 -0.0338  0.0424 -0.7742
  936MPD2    C413690   4.367   0.720  12.205  0.1413  0.3279 -0.5106
  936MPD2    C513691   4.373   0.612  12.287 -0.8001  0.4751 -0.5857
  936MPD2     H13692   4.335   0.948  12.448 -0.4320 -0.5847  0.1778
  936MPD2    H113693   4.377   0.698  12.099 -0.3876  1.0105 -0.7055
  936MPD2    H213694   4.378   0.531  12.481  2.4539 -0.3005 -0.0802
  936MPD2    H313695   4.375   0.511  12.250 -0.2045 -0.1720  1.2159
  936MPD2     N13696   4.363   0.967  12.189 -0.0915  0.5486  0.3169
  936MPD2    H513697   4.368   1.048  12.250 -1.2260  0.3718  0.6609
  936MPD2    N113698   4.366   0.760  12.621 -0.4035 -0.0693 -0.3212
  936MPD2    H713699   4.349   0.850  12.665  0.1581 -0.5638  0.9143
  937MPD2     C13700   2.416   2.179  11.728  0.2253  0.1371  0.3342
  937MPD2    C113701   2.466   2.303  11.722 -0.0487 -0.0072 -0.2394
  937MPD2    C213702   2.557   2.322  11.618 -0.2464 -0.0291  0.0473
  937MPD2    C313703   2.591   2.225  11.527  0.8706  0.2629 -0.7999
  937MPD2    C413704   2.529   2.102  11.530  0.0205 -0.2987 -0.2522
  937MPD2    C513705   2.443   2.083  11.634  0.1654  0.3157  1.0139
  937MPD2     H13706   2.605   2.419  11.612 -0.5588  0.0267 -1.5427
  937MPD2    H113707   2.552   2.021  11.462 -1.8585 -1.2251  0.1866
  937MPD2    H213708   2.334   2.155  11.794 -0.8438  0.8036 -0.7614
  937MPD2    H313709   2.403   1.984  11.655  0.1177 -0.1613 -1.4219
  937MPD2     N13710   2.679   2.265  11.423  0.1466 -0.4082 -0.0539
  937MPD2    H513711   2.728   2.353  11.436  0.7859 -0.9713  1.3571
  937MPD2    N113712   2.450   2.396  11.828  0.3890 -0.3452  0.2374
  937MPD2    H713713   2.492   2.485  11.805  3.1898 -2.8147 -4.1824
  938MPD2     C13714   1.034   1.928   0.857  0.3783 -0.1330  0.8005
  938MPD2    C113715   0.932   2.011   0.888 -0.5022  0.1858 -0.4171
  938MPD2    C213716   0.845   1.973   0.987 -0.2677  0.4854 -0.2259
  938MPD2    C313717   0.861   1.858   1.059 -0.0435  0.0379  0.1763
  938MPD2    C413718   0.973   1.777   1.031  0.0631  0.0607 -0.0603
  938MPD2    C513719   1.058   1.816   0.934  0.0395 -0.4599  0.7810
  938MPD2     H13720   0.752   2.025   1.007 -0.4727 -0.0491  0.1929
  938MPD2    H113721   0.991   1.682   1.080  1.3869  1.0536  1.3818
  938MPD2    H213722   1.104   1.940   0.775 -1.2122  1.2131 -0.3553
  938MPD2    H313723   1.153   1.765   0.921  0.4723 -0.0992  2.5210
  938MPD2     N13724   0.776   1.819   1.166 -0.4500  0.6042  0.5535
  938MPD2    H513725   0.796   1.725   1.199  0.4997  0.8461  0.6670
  938MPD2    N113726   0.901   2.125   0.806  0.6760 -0.4073  0.0379
  938MPD2    H713727   0.829   2.190   0.836  0.6438  0.0479 -1.0245
  939MPD2     C13728   1.321   3.262   0.419  0.1307 -0.5982  0.6600
  939MPD2    C113729   1.263   3.382   0.413  0.4827  0.0436 -0.7431
  939MPD2    C213730   1.311   3.493   0.341 -0.9107 -0.7113 -0.4709
  939MPD2    C313731   1.434   3.476   0.273  0.1535 -0.2332  0.5484
  939MPD2    C413732   1.490   3.350   0.281 -0.1987  0.6474 -0.3945
  939MPD2    C513733   1.434   3.246   0.350 -0.0362  0.7027  0.9637
  939MPD2     H13734   1.270   3.593   0.340 -1.2631 -0.8345  2.0134
  939MPD2    H113735   1.577   3.314   0.227 -0.1540 -3.1527  2.2333
  939MPD2    H213736   1.286   3.171   0.467 -0.1230 -0.9396 -0.1691
  939MPD2    H313737   1.481   3.149   0.340  0.1137  0.9983 -1.1372
  939MPD2     N13738   1.503   3.589   0.217 -0.2027  0.0779  0.5180
  939MPD2    H513739   1.465   3.682   0.212 -0.8990 -0.3351 -1.7909
  939MPD2    N113740   1.145   3.385   0.497 -0.4365  0.1318 -0.0218
  939MPD2    H713741   1.126   3.300   0.548  1.2736 -1.1421 -1.5102
  940MPD2     C13742   1.196   1.202  12.459 -0.0514  0.3388  0.4231
  940MPD2    C113743   1.104   1.107  12.488  0.0202  0.1122  0.1349
  940MPD2    C213744   1.014   1.078  12.390  0.1622 -0.5950  0.7992
  940MPD2    C313745   1.012   1.144  12.265 -0.6002 -0.0711 -0.0935
  940MPD2    C413746   1.099   1.246  12.243 -0.2953 -0.4013  0.2223
  940MPD2    C513747   1.194   1.275  12.341  0.0343  0.7573 -0.5022
  940MPD2     H13748   0.936   1.007  12.413  0.2152 -0.5817  1.0184
  940MPD2    H113749   1.089   1.313  12.158  0.5069 -0.2152  0.2745
  940MPD2    H213750   1.270   1.242  12.528 -2.4527  0.6949  2.7917
  940MPD2    H313751   1.274   1.345  12.320  1.4967 -0.2405  1.7944
  940MPD2     N13752   0.916   1.122  12.167 -0.2946  0.1719 -0.1851
  940MPD2    H513753   0.913   1.186  12.088 -0.3078  0.5797  0.1455
  940MPD2    N113754   1.079   1.045  12.610  0.1662  0.0929  0.3022
  940MPD2    H713755   0.995   0.988  12.616  0.3786 -0.3294 -0.8221
  941MPD2     C13756   4.379   0.466   9.875 -1.4521  0.2023 -0.2360
  941MPD2    C113757   4.461   0.354   9.889  0.1561  0.0749  0.0688
  941MPD2    C213758   4.403   0.236   9.927  0.0911 -0.0317  0.2031
  941MPD2    C313759   4.272   0.224   9.956 -0.5710  0.7260 -0.9087
  941MPD2    C413760   4.189   0.330   9.936  0.0457  0.3701  0.3653
  941MPD2    C513761   4.250   0.447   9.901 -0.4434 -0.6072 -0.9034
  941MPD2     H13762   4.470   0.152   9.941  0.6042  0.3123 -0.2144
  941MPD2    H113763   4.082   0.325   9.951  0.2702 -4.6548  0.3535
  941MPD2    H213764   4.410   0.563   9.839 -2.4498 -0.4638 -2.9435
  941MPD2    H313765   4.179   0.528   9.886 -1.2586 -1.0633  0.5170
  941MPD2     N13766   4.206   0.107   9.997 -0.1483 -0.4488 -0.0433
  941MPD2    H513767   4.106   0.106  10.010 -0.6697 -0.5908 -4.1526
  941MPD2    N113768   4.604   0.361   9.867 -0.3193 -0.5903  0.3074
  941MPD2    H713769   4.647   0.270   9.860 -0.3653 -0.6167  0.3735
  942MPD2     C13770   0.059   1.370   8.885 -0.3712  0.7144 -0.0605
  942MPD2    C113771   0.028   1.494   8.940 -0.3076 -0.0540  0.8062
  942MPD2    C213772   0.128   1.590   8.960 -0.4650  0.1494 -0.4911
  942MPD2    C313773   0.255   1.564   8.913  0.3071  0.5851 -0.3860
  942MPD2    C413774   0.286   1.444   8.860 -0.6223  0.0131 -0.7796
  942MPD2    C513775   0.190   1.345   8.851 -0.1466 -0.4778 -0.1548
  942MPD2     H13776   0.095   1.689   8.988  0.3727  0.4721 -0.6430
  942MPD2    H113777   0.388   1.432   8.827 -0.0279  0.6746  0.8323
  942MPD2    H213778   4.713   1.289   8.862 -0.5378  0.1751  2.3705
  942MPD2    H313779   0.219   1.253   8.802  0.2334  0.6891 -2.1390
  942MPD2     N13780   0.361   1.664   8.917  0.4183  0.0443 -0.1635
  942MPD2    H513781   0.454   1.634   8.890 -0.8868 -1.4940 -2.9653
  942MPD2    N113782   4.619   1.530   8.978  0.2363 -0.3044  0.1131
  942MPD2    H713783   4.601   1.622   9.017 -1.0105 -1.3268  1.9261
  943MPD2     C13784   3.056   4.710   9.328  0.4093 -0.6392  0.1052
  943MPD2    C113785   2.968   4.654   9.414 -0.0877  0.4670  0.5453
  943MPD2    C213786   2.978   4.686   9.550  0.0681 -0.2100 -0.0089
  943MPD2    C313787   3.075   0.042   9.595  0.1379 -0.4263  0.0580
  943MPD2    C413788   3.169   0.095   9.513  0.4448 -0.7834  0.2108
  943MPD2    C513789   3.161   0.061   9.383 -0.3100 -0.5454 -0.5335
  943MPD2     H13790   2.899   4.656   9.618 -1.3938  2.2718 -0.6003
  943MPD2    H113791   3.243   0.168   9.545 -2.1217  1.3690  1.2091
  943MPD2    H213792   3.065   4.692   9.222 -0.9635 -1.1833  0.0862
  943MPD2    H313793   3.242   0.092   9.319 -1.3881  1.8255 -0.7352
  943MPD2     N13794   3.083   0.090   9.729  0.2611  0.8871  0.1805
  943MPD2    H513795   3.154   0.158   9.752  1.6336 -0.1328 -1.0883
  943MPD2    N113796   2.868   4.574   9.364 -0.4609  0.0069 -0.2339
  943MPD2    H713797   2.876   4.545   9.267 -1.8736  0.6446 -0.5301
  944MPD2     C13798   2.933   3.864  10.424 -1.0693 -0.3596 -0.2366
  944MPD2    C113799   3.014   3.970  10.440  0.5701  0.3888 -0.1036
  944MPD2    C213800   3.056   4.017  10.568  0.4311  0.3501 -0.1208
  944MPD2    C313801   3.017   3.943  10.680 -0.4028  0.5368 -0.3182
  944MPD2    C413802   2.930   3.836  10.663  0.0730  0.1338  0.0014
  944MPD2    C513803   2.888   3.804  10.535  0.6761  0.3497  0.2036
  944MPD2     H13804   3.118   4.106  10.577  0.3954  0.1715  2.0328
  944MPD2    H113805   2.895   3.775  10.745 -0.2812 -0.5944 -0.6951
  944MPD2    H213806   2.891   3.841  10.327  0.2762 -2.5422 -0.2939
  944MPD2    H313807   2.818   3.725  10.511 -1.1155  2.2796 -0.9070
  944MPD2     N13808   3.075   3.979  10.808  0.2198  0.1623  0.0068
  944MPD2    H513809   3.151   4.046  10.798  0.7186 -0.5529 -1.0627
  944MPD2    N113810   3.063   4.028  10.323  0.1251 -0.4926  0.2531
  944MPD2    H713811   3.014   3.994  10.241  1.7653  0.0481 -0.9452
    1TCq1    O113812   1.327   4.301  15.001  0.2967  0.7134 -0.1768
    1TCq1    C113813   1.195   4.339  15.016  0.7303  0.1239 -0.4049
    1TCq1    O213814   1.106   4.280  15.076  0.3125 -0.1274  0.0717
    1TCq1    C213815   1.173   4.463  14.942 -0.1252  0.3683  0.1522
    1TCq1    C313816   1.042   4.499  14.935 -0.0999 -0.6398  0.2487
    1TCq1    C413817   1.010   4.607  14.858 -0.9311  0.7593  0.1744
    1TCq1    C513818   1.107   4.671  14.785  0.2097 -0.0011  0.1959
    1TCq1    C613819   1.237   4.620  14.785  0.3497 -0.3292  0.0247
    1TCq1    C713820   1.272   4.523  14.868  0.5766 -0.0396 -0.1033
    1TCq1    C813821   1.348   4.692  14.722  0.2358  0.0128 -0.1670
    1TCq1    O413822   1.457   4.688  14.785  0.1519 -0.3937 -0.5820
    1TCq1    C913823   0.875   4.646  14.860  0.5577 -0.4049  0.2658
    1TCq1    O513824   0.794   4.552  14.884 -0.1707 -0.0938 -0.0816
    1TCq1    O613825   0.848   0.032  14.801 -0.6002 -0.2174  0.5174
    1TCq1    H113826   1.395   4.363  14.970 -0.2387  0.8299 -1.1143
    1TCq1    H213827   0.972   4.446  14.998 -1.1899  0.6788  0.1330
    1TCq1    H313828   1.100   0.036  14.723 -0.3165  1.2730  2.0805
    1TCq1    H413829   1.374   4.488  14.861  0.7069  0.6590 -1.8486
    2MPD2     C13830   1.572   0.283  14.397  0.2599 -0.3557  0.6696
    2MPD2    C113831   1.442   0.274  14.355  0.4039  0.0399 -0.8643
    2MPD2    C213832   1.357   0.186  14.427  0.7773 -0.2739  1.3166
    2MPD2    C313833   1.400   0.123  14.540  0.2268  0.1967 -0.5609
    2MPD2    C413834   1.531   0.139  14.579 -0.0337 -0.0169  0.1755
    2MPD2    C513835   1.616   0.225  14.508  0.6199 -0.1751 -0.4111
    2MPD2     H13836   1.260   0.158  14.387  1.2958  0.6520 -0.6183
    2MPD2    H113837   1.581   0.074  14.649 -1.2240 -2.3011 -1.1162
    2MPD2    H213838   1.639   0.341  14.335 -0.7437  0.4173  0.2874
    2MPD2    H313839   1.722   0.222  14.528 -0.3573  0.5243  5.0158
    2MPD2     N13840   1.316   0.041  14.615  0.5131 -0.4267 -0.5078
    2MPD2    H513841   1.222   0.031  14.579  1.0403 -3.9450 -0.9016
    2MPD2    N113842   1.397   0.342  14.238  0.5936 -0.5566  0.8384
    2MPD2    H713843   1.463   0.398  14.185  1.3496 -2.4634 -0.2307
    3TMC2    C113844   1.252   0.415  14.069 -0.2168  0.0811 -0.7986
    3TMC2    C213845   1.159   0.517  14.074 -0.1304  0.6555  0.2048
    3TMC2    C313846   1.173   0.629  13.995 -0.2032  0.1805  0.0524
    3TMC2    C413847   1.367   0.430  13.990  0.0730  0.1263 -0.3595
    3TMC2    C513848   1.377   0.549  13.917  0.1616  0.3703 -0.4401
    3TMC2    C613849   1.281   0.645  13.915 -0.5558 -0.3065  0.2349
    3TMC2     C13850   1.265   0.351  14.198  0.0903  0.8923 -0.4337
    3TMC2     O13851   1.158   0.323  14.253  0.2249 -0.6378  0.4052
    3TMC2     H13852   1.075   0.527  14.142 -1.0833 -1.9637 -0.5895
    3TMC2    H113853   1.443   0.353  13.979  1.6680  1.8334 -1.3624
    3TMC2    H213854   1.287   0.739  13.862  1.7136 -0.9774 -0.6954
    3TMC2    C713855   1.505   0.581  13.857  0.1795  0.8630 -0.5864
    3TMC2    C813856   1.102   0.751  14.029  0.5556 -0.5373 -0.4614
    3TMC2    O113857   1.600   0.521  13.898 -0.1660 -0.0992 -0.3813
    3TMC2    O213858   1.049   0.774  14.142  0.0966 -0.1728  0.0824
    3TMC2    O513859   1.068   0.801  13.913  0.0984 -0.4559 -0.2638
    3TMC2    H513860   1.106   0.755  13.835 -0.2556 -0.6113 -0.3442
    4MPD2     C13861   0.980   1.466  12.688 -0.1931 -0.6196  0.2396
    4MPD2    C113862   0.929   1.431  12.815  0.1031 -0.2939 -0.3847
    4MPD2    C213863   1.025   1.381  12.900 -0.0692  0.5684 -0.1636
    4MPD2    C313864   1.163   1.394  12.876 -0.1317 -0.1952  0.3478
    4MPD2    C413865   1.208   1.442  12.759  0.2881  0.3927  0.5678
    4MPD2    C513866   1.113   1.467  12.659 -0.1978 -0.3218  0.4951
    4MPD2     H13867   0.999   1.334  12.995 -0.9597  0.3070 -0.5358
    4MPD2    H113868   1.311   1.470  12.742  0.0789  0.6209 -0.3757
    4MPD2    H213869   0.908   1.501  12.615  2.5543  1.6065 -1.4071
    4MPD2    H313870   1.147   1.498  12.561 -0.2854 -0.1790  0.5096
    4MPD2     N13871   1.265   1.345  12.964  0.2017  0.4708 -0.5113
    4MPD2    H513872   1.358   1.345  12.923 -0.4312 -1.8039 -1.9110
    4MPD2    N113873   0.788   1.437  12.835  0.2927  0.3077 -0.2524
    4MPD2    H713874   0.730   1.460  12.755 -0.8877  0.3871  0.6348
    5TCq2    C113875   1.253   1.286  13.094 -0.4232  0.1610 -0.1299
    5TCq2    O213876   1.156   1.304  13.172  0.7192 -0.2612  0.0196
    5TCq2    C213877   1.374   1.223  13.140 -0.2371  1.1187 -0.3716
    5TCq2    C313878   1.461   1.185  13.045 -0.6676  0.0305  0.4758
    5TCq2    C413879   1.574   1.130  13.087 -0.4335 -0.0727 -0.1465
    5TCq2    C513880   1.600   1.108  13.222 -0.2626  0.0259 -0.4251
    5TCq2    C613881   1.514   1.156  13.319  0.1258 -0.1153  0.3428
    5TCq2    C713882   1.395   1.214  13.276 -0.6824  0.9719 -0.7285
    5TCq2    C813883   1.518   1.079  13.449  0.3161 -0.2924  0.5431
    5TCq2    O413884   1.413   1.057  13.501 -0.5255  0.0711  0.2213
    5TCq2    C913885   1.665   1.076  12.987 -0.3857 -0.2061 -0.1707
    5TCq2    O513886   1.773   1.036  13.028 -0.1634 -0.3068  0.2881
    5TCq2    O613887   1.616   1.062  12.871 -0.0612 -0.0781  0.4361
    5TCq2    H213888   1.445   1.195  12.938 -2.7951 -2.0878  0.6127
    5TCq2    H313889   1.689   1.048  13.237 -0.7746 -0.4480  0.7791
    5TCq2    H413890   1.309   1.236  13.339  1.0619 -1.3572  2.4801
    6MPD1     C13891   4.249   2.917  13.322  0.2294  0.6394  0.4258
    6MPD1    C113892   4.350   2.941  13.236 -0.0949 -0.0237  0.0416
    6MPD1    C213893   4.450   2.842  13.221 -0.6594 -0.0115  0.0381
    6MPD1    C313894   4.429   2.711  13.266  0.2642 -0.2416 -0.2861
    6MPD1    C413895   4.316   2.684  13.343 -0.3059  0.5013 -0.9881
    6MPD1    C513896   4.232   2.789  13.370  0.3123  0.3327 -0.2261
    6MPD1     H13897   4.536   2.862  13.157 -0.9139 -0.9621 -0.5994
    6MPD1    H113898   4.294   2.586  13.383 -0.7628  1.1566  0.3738
    6MPD1    H213899   4.168   2.987  13.343 -0.6726 -1.3130  3.3205
    6MPD1    H313900   4.141   2.763  13.424 -0.4550  0.6142 -1.3949
    6MPD1     N13901   4.506   2.596  13.230  0.4016  0.1354 -0.1012
    6MPD1    H513902   4.468   2.503  13.242 -0.4680  0.4508 -0.4229
    6MPD1    N113903   4.381   3.073  13.208  0.1719 -0.9121  0.3047
    6MPD1    H613904   4.430   3.085  13.120  1.4882  1.3705  1.3265
    6MPD1    H713905   4.300   3.128  13.180  0.7096 -0.4791 -0.3988
    7MPD2     C13906   4.717   1.862  13.414 -0.3105 -0.5016  0.3677
    7MPD2    C113907   0.087   1.918  13.333 -0.1180 -0.1919 -0.3951
    7MPD2    C213908   0.179   1.831  13.275  0.0420  0.4803  0.6137
    7MPD2    C313909   0.185   1.692  13.301  0.3432 -0.8340  0.6060
    7MPD2    C413910   0.093   1.638  13.395  0.2320 -0.2598  0.3327
    7MPD2    C513911   0.007   1.729  13.450  0.1592 -0.5738  0.2093
    7MPD2     H13912   0.247   1.884  13.210 -1.7481  0.5864 -1.1545
    7MPD2    H113913   0.095   1.534  13.427  0.9994  0.8084  3.8043
    7MPD2    H213914   4.633   1.913  13.459 -1.2151  1.1705 -3.2779
    7MPD2    H313915   4.674   1.703  13.539 -0.2490  0.4110  0.2343
    7MPD2     N13916   0.274   1.600  13.234 -0.1231 -0.2417 -0.7855
    7MPD2    H513917   0.259   1.501  13.252  1.3930 -0.0160  1.7027
    7MPD2    N113918   0.073   2.049  13.274  0.2428  0.4260 -0.0527
    7MPD2    H713919   0.134   2.060  13.194 -0.5882 -0.3212 -0.7930
    8TMC3    C113920   0.387   1.514  13.042  0.2974 -0.1728  0.5611
    8TMC3    C213921   0.514   1.473  13.050  0.2348  0.7044  0.1841
    8TMC3    C313922   0.575   1.435  12.932 -0.5051 -0.6142  0.4858
    8TMC3    C413923   0.328   1.546  12.922  0.0751 -0.2092 -0.8720
    8TMC3    C513924   0.404   1.525  12.807 -0.1204  0.5915  0.4129
    8TMC3    C613925   0.523   1.460  12.805 -0.3622 -0.6089  0.3499
    8TMC3     C13926   0.352   1.632  13.123  0.0174  0.0320  0.4352
    8TMC3     O13927   0.378   1.738  13.065 -0.4124  0.7685  0.0525
    8TMC3     H13928   0.564   1.467  13.145  2.3829  1.3006 -0.8990
    8TMC3    H113929   0.247   1.618  12.925 -0.4038 -0.7406 -0.9537
    8TMC3    H213930   0.564   1.436  12.707 -2.1366 -0.5979 -0.4110
    8TMC3    C713931   0.376   1.628  12.709  0.4368  0.2848 -0.0991
    8TMC3    C813932   0.723   1.429  12.954 -0.0218  0.4880 -0.2652
    8TMC3    O113933   0.381   1.602  12.588  0.5655 -0.6706 -0.3254
    8TMC3    O213934   0.765   1.402  13.064 -0.5286  0.7393 -0.1867
    9TMC3    C113935   4.670   2.463  13.150  1.0704 -0.4149  0.1949
    9TMC3    C213936   0.021   2.441  13.040  0.6623  0.3922 -0.2179
    9TMC3    C313937   0.044   2.311  13.010  0.0833  0.6302  0.6008
    9TMC3    C413938   4.634   2.359  13.243  0.0333 -0.6402 -0.6001
    9TMC3    C513939   4.684   2.233  13.204 -0.1600 -0.0633  0.3579
    9TMC3    C613940   0.021   2.208  13.090 -0.7303  0.3829  0.0275
    9TMC3     C13941   4.636   2.601  13.182  0.8623  0.5203  0.0318
    9TMC3     O13942   4.709   2.690  13.146 -0.3533 -0.1202  0.1138
    9TMC3     H13943   0.031   2.521  12.968 -2.8161 -0.7382 -1.9280
    9TMC3    H113944   4.582   2.376  13.337 -1.5280  1.5581 -1.8796
    9TMC3    H213945   0.026   2.109  13.045  1.2730  0.0145  1.0744
    9TMC3    C713946   4.715   2.149  13.320 -0.1829 -1.2635  0.1582
    9TMC3    C813947   0.094   2.281  12.877  0.2018  0.0526  0.7598
    9TMC3    O113948   4.657   2.158  13.424 -0.4061 -0.5523  0.0856
    9TMC3    O213949   0.064   2.359  12.788 -0.3783 -0.2492 -0.0499
   10MPD2     C13950   0.236   1.882  12.601  0.0566  0.6417  0.2717
   10MPD2    C113951   0.311   1.874  12.717  0.7434 -0.7330 -0.1693
   10MPD2    C213952   0.288   1.988  12.802 -0.5070 -0.5825  0.8713
   10MPD2    C313953   0.201   2.090  12.780  0.7439 -0.8618 -0.1347
   10MPD2    C413954   0.124   2.086  12.667 -0.6125 -0.5600 -0.0357
   10MPD2    C513955   0.155   1.986  12.576 -0.4543 -0.1691 -0.5863
   10MPD2     H13956   0.342   1.986  12.896 -1.0842 -0.0723  1.2174
   10MPD2    H113957   0.048   2.162  12.653  0.5747  0.0926 -2.7681
   10MPD2    H213958   0.244   1.805  12.525  1.2936 -0.8283  1.8873
   10MPD2    H313959   0.108   1.984  12.479 -0.9332 -0.6611 -0.3486
   10MPD2     N13960   0.183   2.177  12.883  0.3878  0.3144 -0.5898
   10MPD2    H513961   0.230   2.152  12.970  0.3485  3.5656  0.3855
   10MPD2    N113962   0.363   1.750  12.771 -0.2922  0.1045  0.2628
   10MPD2    H713963   0.388   1.756  12.869 -2.0751  0.4292  0.7064
   11MPD2     C13964   1.730   0.771  13.794  0.4354  0.0670  0.0460
   11MPD2    C113965   1.607   0.773  13.734  0.1773 -0.5684  0.7037
   11MPD2    C213966   1.573   0.859  13.631 -0.2601  0.5281  0.3303
   11MPD2    C313967   1.676   0.947  13.589 -0.1653  0.7491  0.1198
   11MPD2    C413968   1.800   0.947  13.648 -0.1860 -0.5927  0.0472
   11MPD2    C513969   1.821   0.861  13.755 -0.2113 -0.0462  0.3143
   11MPD2     H13970   1.471   0.856  13.592  0.3612 -0.9172 -1.1921
   11MPD2    H113971   1.864   1.033  13.630 -0.7059 -0.4383 -1.0815
   11MPD2    H213972   1.743   0.711  13.883  0.9059 -0.3012 -0.2714
   11MPD2    H313973   1.916   0.872  13.806  0.2988 -0.1047 -0.6251
   11MPD2     N13974   1.645   1.043  13.484 -0.6550  0.3808  0.1071
   11MPD2    H513975   1.721   1.092  13.439  0.4997  1.1588  2.8765
   11MPD2    N113976   1.498   0.689  13.768  0.5111 -0.1749  0.4085
   11MPD2    H713977   1.408   0.703  13.724  0.7058 -0.5838 -0.1183
    1MPD1     C13978   3.285   1.710  17.262  0.3983 -0.1649  0.0503
    1MPD1    C113979   3.374   1.798  17.318 -0.4344 -0.2990  0.1780
    1MPD1    C213980   3.487   1.828  17.239  0.4850  0.2183 -0.6101
    1MPD1    C313981   3.513   1.764  17.119  0.0570 -0.1132 -0.6614
    1MPD1    C413982   3.431   1.663  17.085  0.1943  0.5594  0.0949
    1MPD1    C513983   3.312   1.644  17.153  0.4560 -0.0016  0.2589
    1MPD1     H13984   3.548   1.910  17.276  1.4130 -0.6527 -0.2174
    1MPD1    H113985   3.454   1.613  16.991 -0.4584  0.0476  0.2038
    1MPD1    H213986   3.193   1.691  17.318 -0.8277  0.7382 -1.6537
    1MPD1    H313987   3.240   1.572  17.115 -0.0687  0.5801  0.1666
    1MPD1     N13988   3.626   1.783  17.041 -0.9487  0.1914  0.5915
    1MPD1    H513989   3.633   1.736  16.951 -3.0074  0.6930  0.1732
    1MPD1    N113990   3.350   1.864  17.437 -0.4799 -0.0208  0.3603
    1MPD1    H613991   3.283   1.816  17.495  0.5429 -0.5561  1.1027
    1MPD1    H713992   3.433   1.886  17.492  0.9651  1.0646 -2.2602
    2MPD1     C13993   4.558   2.021  17.355 -0.0431 -0.3785  0.0017
    2MPD1    C113994   4.433   2.074  17.400 -0.0938  0.0647 -0.1539
    2MPD1    C213995   4.323   2.063  17.318  0.0956  0.5777  0.8004
    2MPD1    C313996   4.333   2.003  17.197  0.0245 -0.0981  0.1668
    2MPD1    C413997   4.454   1.956  17.158 -0.1406  0.1671  0.3617
    2MPD1    C513998   4.563   1.952  17.240  0.5427  1.2703 -0.2527
    2MPD1     H13999   4.230   2.101  17.358  1.3679  1.6314  2.7501
    2MPD1    H114000   4.469   1.906  17.063 -2.5217 -0.1452  0.1656
    2MPD1    H214001   4.640   2.010  17.425 -0.1468 -1.2221 -0.0005
    2MPD1    H314002   4.656   1.905  17.211  0.9494  0.9118  1.6045
    2MPD1     N14003   4.209   1.974  17.127  0.2389 -0.0303  0.1864
    2MPD1    H514004   4.123   2.016  17.160  0.9482  0.4986  1.3596
    2MPD1    N114005   4.421   2.153  17.511  0.1213 -0.2384  0.7119
    2MPD1    H614006   4.498   2.129  17.574  0.5428  2.7253  1.2966
    2MPD1    H714007   4.328   2.160  17.552  0.3886 -0.4435  1.3560
    3TMC3    C114008   4.064   1.901  16.948  0.2146  0.1068 -0.1861
    3TMC3    C214009   4.049   1.889  16.817 -0.4361  0.2532 -0.5823
    3TMC3    C314010   3.923   1.865  16.770  0.7526 -0.4135  0.0811
    3TMC3    C414011   3.964   1.881  17.038 -0.1613 -0.2145  0.0364
    3TMC3    C514012   3.842   1.860  16.985 -0.1485  0.8027  0.2751
    3TMC3    C614013   3.818   1.842  16.850  0.3885 -0.2611  0.3197
    3TMC3     C14014   4.206   1.910  17.007 -0.0152  0.5933 -0.3272
    3TMC3     O14015   4.293   1.881  16.926  0.1486  0.7631 -0.3911
    3TMC3     H14016   4.135   1.913  16.756  1.2357 -2.5234  0.6341
    3TMC3    H114017   3.974   1.882  17.146 -1.1907  2.0979  0.0928
    3TMC3    H214018   3.714   1.833  16.823  0.3454  1.3750 -0.0733
    3TMC3    C714019   3.728   1.872  17.071  0.1375 -0.0191 -0.7457
    3TMC3    C814020   3.914   1.852  16.628 -0.9926 -0.5227 -0.2872
    3TMC3    O114021   3.739   1.935  17.177 -0.8245  0.4214 -0.0333
    3TMC3    O214022   4.005   1.922  16.578  0.3463  0.6432 -0.0596
    4MPD1     C14023   3.730   1.625  16.205 -0.5284  0.3006 -0.3798
    4MPD1    C114024   3.631   1.629  16.301  0.2675 -0.4214  0.1403
    4MPD1    C214025   3.662   1.684  16.419  0.1679 -0.2671 -0.2156
    4MPD1    C314026   3.768   1.761  16.449  0.0091  0.4681 -0.5911
    4MPD1    C414027   3.856   1.774  16.340 -0.1784  0.0241  0.7641
    4MPD1    C514028   3.841   1.700  16.229 -0.5457 -0.5092 -0.3486
    4MPD1     H14029   3.594   1.677  16.503 -1.0352 -2.7226 -1.4104
    4MPD1    H114030   3.941   1.840  16.355 -0.5384  0.5032  0.6745
    4MPD1    H214031   3.712   1.565  16.117 -0.9679 -2.2958  1.4622
    4MPD1    H314032   3.911   1.703  16.146 -0.4055  0.5474 -0.1888
    4MPD1     N14033   3.803   1.792  16.586 -0.1741  0.2731 -0.4585
    4MPD1    H514034   3.746   1.748  16.657  0.1200 -0.1843 -0.5059
    4MPD1    N114035   3.530   1.527  16.300 -0.2361 -0.0048 -0.6253
    4MPD1    H614036   3.452   1.552  16.360  0.2397  2.9452 -1.2631
    4MPD1    H714037   3.488   1.508  16.209 -2.3291  0.6455  0.1965
    1TCq1    O114038   1.278   0.853  12.111 -0.2057  0.2826  0.2946
    1TCq1    C114039   1.367   0.930  12.175 -0.0162  0.8611 -0.1128
    1TCq1    O214040   1.450   0.997  12.119  0.7761  0.0225 -0.6214
    1TCq1    C214041   1.391   0.886  12.318  0.1395 -0.2298 -0.2245
    1TCq1    C314042   1.522   0.860  12.350  0.2032  0.0470  0.3512
    1TCq1    C414043   1.552   0.787  12.459  1.3589 -0.1831  0.3700
    1TCq1    C514044   1.449   0.746  12.538 -0.3167 -0.4171  0.3031
    1TCq1    C614045   1.322   0.771  12.496  0.4233  0.0191 -0.4909
    1TCq1    C714046   1.284   0.835  12.388 -1.1907  0.1931  0.8660
    1TCq1    C814047   1.213   0.727  12.588  0.1367  1.3683 -0.3902
    1TCq1    O414048   1.099   0.723  12.537  0.6887 -0.5451  1.0071
    1TCq1    C914049   1.682   0.811  12.527 -0.5190  0.6953  0.0659
    1TCq1    O514050   1.777   0.863  12.465 -0.5878 -0.2578  0.1209
    1TCq1    O614051   1.692   0.773  12.646 -0.1419  0.1671 -0.3344
    1TCq1    H114052   1.204   0.815  12.165 -0.7881  1.0176  0.0159
    1TCq1    H214053   1.596   0.926  12.306 -0.1109 -0.5468 -1.0692
    1TCq1    H314054   1.466   0.698  12.633 -1.0982 -2.1299 -0.4170
    1TCq1    H414055   1.187   0.882  12.376 -0.4001  0.8557 -2.9279
    2MPD1     C14056   1.034   0.533  13.033  0.2501  0.6534 -0.1584
    2MPD1    C114057   1.171   0.556  13.039  0.3359  0.2168 -0.1835
    2MPD1    C214058   1.239   0.614  12.936  0.6401 -0.6102 -0.2807
    2MPD1    C314059   1.172   0.645  12.823  0.0539 -0.8207  0.1979
    2MPD1    C414060   1.043   0.603  12.808  0.1449  0.7225 -0.3694
    2MPD1    C514061   0.975   0.550  12.914 -0.0729  0.3765  0.9465
    2MPD1     H14062   1.345   0.635  12.941  0.4672  0.5099 -1.6579
    2MPD1    H114063   0.994   0.611  12.711  0.0482  3.5099 -0.0870
    2MPD1    H214064   0.980   0.481  13.111  2.5535  0.3016  1.1999
    2MPD1    H314065   0.869   0.531  12.906  0.2683 -1.0532 -0.2103
    2MPD1     N14066   1.250   0.709  12.723 -0.3711  0.2120 -0.4744
    2MPD1    H514067   1.344   0.739  12.749 -0.3736 -1.5024  1.5072
    2MPD1    N114068   1.226   0.550  13.172 -0.1361 -0.3199  0.5292
    2MPD1    H614069   1.325   0.531  13.167 -0.5484 -2.0167 -1.0038
    2MPD1    H714070   1.181   0.470  13.215  1.1948 -2.0993 -1.3942
    1TCq1    O114071   3.298   2.385  16.352  0.0219  0.2038 -0.0167
    1TCq1    C114072   3.188   2.457  16.377 -0.3237 -0.1308 -0.3033
    1TCq1    O214073   3.075   2.416  16.359 -0.0167 -0.2267  0.7458
    1TCq1    C214074   3.215   2.573  16.452 -1.4199  0.2553  0.5473
    1TCq1    C314075   3.335   2.632  16.461 -0.0219 -0.4115 -1.3797
    1TCq1    C414076   3.339   2.761  16.511 -0.0404 -0.4332 -0.1000
    1TCq1    C514077   3.237   2.802  16.592  0.1718  0.0128 -0.4676
    1TCq1    C614078   3.116   2.736  16.578 -0.3965 -0.3690 -0.9151
    1TCq1    C714079   3.104   2.625  16.511  0.0484 -1.0293 -0.4173
    1TCq1    C814080   2.996   2.780  16.647 -0.0927 -0.7651  0.1107
    1TCq1    O414081   2.896   2.704  16.639 -0.0908 -0.4618 -0.5675
    1TCq1    C914082   3.467   2.824  16.524 -0.6910 -0.1313 -0.6145
    1TCq1    O514083   3.565   2.759  16.481  0.0567  0.2653 -0.5237
    1TCq1    O614084   3.455   2.945  16.560  0.6929 -0.4873 -0.1099
    1TCq1    H114085   3.364   2.411  16.420  0.2670 -2.0410  0.5835
    1TCq1    H214086   3.419   2.606  16.397  1.1837 -1.9360  0.8217
    1TCq1    H314087   3.249   2.895  16.646 -1.6055 -1.2648  2.1029
    1TCq1    H414088   3.008   2.578  16.495  0.0049 -0.7620 -0.9411
    2MPD1     C14089   2.685   3.139  16.851 -0.1108 -0.4521 -0.2300
    2MPD1    C114090   2.800   3.199  16.829  0.4464 -0.7065 -0.9916
    2MPD1    C214091   2.904   3.120  16.776  0.5040 -0.2752 -0.3160
    2MPD1    C314092   2.890   2.987  16.743  0.2386 -0.0424  0.7232
    2MPD1    C414093   2.772   2.922  16.778 -0.1375  0.4564 -0.0713
    2MPD1    C514094   2.671   3.011  16.815  0.6155  0.1425  0.9441
    2MPD1     H14095   2.999   3.169  16.760  2.0844 -3.9180 -2.1405
    2MPD1    H114096   2.748   2.817  16.765 -0.3952  0.4047  0.8285
    2MPD1    H214097   2.590   3.184  16.876  1.3251  1.3752  1.9227
    2MPD1    H314098   2.576   2.965  16.839  0.3727  0.8099  1.2587
    2MPD1     N14099   3.001   2.911  16.688 -0.3190 -0.1767  0.1878
    2MPD1    H514100   3.083   2.966  16.667 -1.4577  0.8497 -1.5681
    2MPD1    N114101   2.821   3.337  16.857 -0.3220 -0.0170  0.3143
    2MPD1    H614102   2.907   3.372  16.814 -0.4958  1.4602  1.1767
    2MPD1    H714103   2.742   3.386  16.818  1.0084 -0.6165 -3.1294
    1MPD1     C14104   1.427   2.728  11.321 -0.4924  0.0328  0.5310
    1MPD1    C114105   1.455   2.860  11.346  0.8114 -0.3587 -0.1230
    1MPD1    C214106   1.495   2.889  11.476 -0.2630  0.0774 -0.3733
    1MPD1    C314107   1.481   2.797  11.585  0.5471 -0.4644  0.3018
    1MPD1    C414108   1.437   2.672  11.556  0.1728  0.0385 -0.2935
    1MPD1    C514109   1.411   2.636  11.428 -0.8668 -0.3472 -0.3005
    1MPD1     H14110   1.506   2.992  11.508  0.9328  0.0438 -0.7062
    1MPD1    H114111   1.436   2.597  11.635 -2.4534 -0.5990 -0.9380
    1MPD1    H214112   1.419   2.682  11.223 -0.7822  1.2662 -0.0219
    1MPD1    H314113   1.395   2.532  11.401 -0.4985 -0.4364 -0.1708
    1MPD1     N14114   1.524   2.841  11.710  0.3057 -0.3488  0.8548
    1MPD1    H514115   1.538   2.941  11.721  0.8330 -0.1437 -1.7102
    1MPD1    N114116   1.480   2.946  11.245  0.2178 -0.0867 -0.3816
    1MPD1    H614117   1.465   3.041  11.279 -1.7470 -0.9226  1.0268
    1MPD1    H714118   1.421   2.929  11.163 -1.5743 -1.5257  1.2207
    2MPD1     C14119   1.099   2.798  10.763 -0.0370  0.0936 -0.1161
    2MPD1    C114120   1.197   2.752  10.680 -0.2475  1.2798 -0.8009
    2MPD1    C214121   1.238   2.620  10.683 -0.5956  0.1675  0.4589
    2MPD1    C314122   1.184   2.527  10.782 -0.2062 -0.0993  0.6807
    2MPD1    C414123   1.083   2.578  10.863  0.2014 -0.4588 -0.6856
    2MPD1    C514124   1.047   2.715  10.857 -0.4163  0.2834 -0.3363
    2MPD1     H14125   1.322   2.596  10.618 -0.0978 -0.4171  1.3057
    2MPD1    H114126   1.044   2.517  10.943 -0.6137 -1.0486 -1.5376
    2MPD1    H214127   1.081   2.905  10.759  0.0926  0.0556 -1.9527
    2MPD1    H314128   0.985   2.758  10.935 -0.0962 -1.3896  0.8469
    2MPD1     N14129   1.222   2.393  10.788 -0.1267 -0.3768  0.3425
    2MPD1    H514130   1.179   2.341  10.864  0.7192 -2.8466 -0.8426
    2MPD1    N114131   1.244   2.833  10.569  0.5299 -1.2089 -0.3746
    2MPD1    H614132   1.335   2.818  10.526  1.4383  1.1618  0.7642
    2MPD1    H714133   1.250   2.932  10.591 -3.2508 -0.8135 -1.0591
    3MPD1     C14134   1.132   1.666  10.176 -0.2391  0.1082  0.3466
    3MPD1    C114135   1.063   1.782  10.207  0.0924 -0.4903  0.2588
    3MPD1    C214136   1.120   1.872  10.296 -0.1431  0.1714  0.2962
    3MPD1    C314137   1.238   1.839  10.355  0.4992  0.1940  0.0533
    3MPD1    C414138   1.305   1.723  10.320 -0.0557 -1.0003 -0.0647
    3MPD1    C514139   1.247   1.629  10.238  0.3603  0.4355  0.6356
    3MPD1     H14140   1.073   1.965  10.327  0.2751  0.3305  0.4505
    3MPD1    H114141   1.393   1.690  10.375 -0.3707 -0.5735  0.6863
    3MPD1    H214142   1.090   1.599  10.102  4.3032  0.3127 -2.4045
    3MPD1    H314143   1.308   1.540  10.224  0.6978  1.4008 -3.9693
    3MPD1     N14144   1.286   1.931  10.455  0.5393  0.2891 -0.0560
    3MPD1    H514145   1.241   2.020  10.475 -2.3987 -1.0758 -0.5751
    3MPD1    N114146   0.946   1.815  10.132 -0.2757  0.5835 -0.3744
    3MPD1    H614147   0.880   1.841  10.205 -1.6118 -1.1961 -0.9308
    3MPD1    H714148   0.908   1.730  10.091 -1.5414  1.0980 -0.2544
    4MPD2     C14149   1.821   3.108  11.499 -0.0620 -0.3615 -0.5810
    4MPD2    C114150   1.859   2.997  11.578 -0.7079  0.2625  0.3979
    4MPD2    C214151   1.950   2.902  11.533 -0.6226 -0.0291 -0.2475
    4MPD2    C314152   1.994   2.907  11.400  0.2238  0.2738  1.0450
    4MPD2    C414153   1.938   2.999  11.315 -0.3283  0.0536  0.5639
    4MPD2    C514154   1.859   3.100  11.365  0.3838 -0.0017  0.7526
    4MPD2     H14155   1.977   2.822  11.601 -1.3694  0.7801  1.0036
    4MPD2    H114156   1.975   3.002  11.213  0.6142  1.2200  0.9402
    4MPD2    H214157   1.766   3.196  11.529 -0.3468 -0.2832 -1.3264
    4MPD2    H314158   1.814   3.173  11.298  1.5049 -2.0833 -2.2668
    4MPD2     N14159   2.084   2.804  11.362 -0.4790  0.0195 -0.7231
    4MPD2    H514160   2.088   2.729  11.430 -2.3616 -1.1501 -1.8980
    4MPD2    N114161   1.822   2.985  11.713  0.0541  0.0006 -0.3729
    4MPD2    H714162   1.862   2.905  11.761  0.5439 -1.3793 -3.0455
    5TMC3    C114163   1.720   3.008  11.921 -0.5987 -0.3735 -0.3464
    5TMC3    C214164   1.586   2.966  11.922 -0.0093 -0.5180 -0.0131
    5TMC3    C314165   1.566   2.832  11.938 -0.4950 -0.9217 -0.2718
    5TMC3    C414166   1.818   2.916  11.955  0.6478  0.2483  0.3319
    5TMC3    C514167   1.792   2.790  12.000  0.4029 -0.0727 -0.1241
    5TMC3    C614168   1.662   2.752  12.000  0.9294 -0.3144 -0.0112
    5TMC3     C14169   1.744   3.065  11.786  0.2165 -0.7842 -0.9012
    5TMC3     O14170   1.658   3.141  11.743 -0.5630  0.4081  1.0828
    5TMC3     H14171   1.504   3.016  11.870  0.5912 -2.7552 -3.1390
    5TMC3    H114172   1.922   2.947  11.949  0.9350 -1.0473 -1.2990
    5TMC3    H214173   1.641   2.649  12.024 -3.1747  0.0920 -1.7779
    5TMC3    C714174   1.880   2.705  11.929 -0.6879  0.3693 -0.0858
    5TMC3    C814175   1.515   2.766  11.826  0.4438 -0.0871 -0.3081
    5TMC3    O114176   1.885   2.748  11.813  1.3187  0.3651  0.2503
    5TMC3    O214177   1.529   2.645  11.832  0.2204 -0.1401 -0.2949
    6TMC3    C114178   1.323   2.195  10.723  0.2639  0.1218  0.3275
    6TMC3    C214179   1.357   2.132  10.608 -0.6885 -0.5314 -0.4761
    6TMC3    C314180   1.434   2.019  10.611 -0.2722 -0.1889  0.2390
    6TMC3    C414181   1.381   2.158  10.843  0.2811 -0.0922  0.0142
    6TMC3    C514182   1.464   2.042  10.841  1.0429  0.0417 -0.4475
    6TMC3    C614183   1.489   1.971  10.726  0.4430  0.1526 -0.3318
    6TMC3     C14184   1.309   2.334  10.701  0.0204  0.9384  0.1505
    6TMC3     O14185   1.351   2.374  10.594  0.2034  0.1883  0.5813
    6TMC3     H14186   1.307   2.165  10.518  0.2627 -1.3454 -1.2975
    6TMC3    H114187   1.385   2.232  10.922 -1.7390 -0.6680  0.6506
    6TMC3    H214188   1.560   1.889  10.732  0.5478  0.2938  0.2873
    6TMC3    C714189   1.565   2.044  10.951  0.0616 -0.0726  0.4635
    6TMC3    C814190   1.403   1.913  10.515 -0.2941 -0.1453 -0.0350
    6TMC3    O114191   1.567   2.146  11.022 -0.5500 -0.4598  0.7279
    6TMC3    O214192   1.485   1.824  10.506  0.1361 -0.2051  0.9619
    7MPD2     C14193   2.055   2.242  11.774  0.8380 -0.2790 -0.2707
    7MPD2    C114194   2.058   2.364  11.718 -0.5148  0.4565 -0.4641
    7MPD2    C214195   1.991   2.472  11.769  0.2543 -0.3927 -0.2638
    7MPD2    C314196   1.924   2.466  11.894  0.6103 -0.2703  0.6851
    7MPD2    C414197   1.932   2.345  11.959  0.2031 -0.2589 -0.1456
    7MPD2    C514198   2.003   2.240  11.906 -0.9567 -0.5979 -0.4027
    7MPD2     H14199   1.993   2.564  11.711 -5.0052 -0.2774 -0.2164
    7MPD2    H114200   1.911   2.338  12.065 -1.8200 -0.0766 -0.5303
    7MPD2    H214201   2.102   2.155  11.730  1.1040 -0.6632  0.7685
    7MPD2    H314202   1.994   2.148  11.962 -0.9052  0.9034  2.1010
    7MPD2     N14203   1.874   2.572  11.964 -0.3635 -0.6415  0.4075
    7MPD2    H514204   1.848   2.547  12.059 -2.3090  3.5756  0.9755
    7MPD2    N114205   2.123   2.372  11.588 -0.3179 -0.1335  0.1131
    7MPD2    H714206   2.146   2.285  11.541 -2.2953 -0.0471 -1.0193
    8TMC3    C114207   2.201   2.476  11.394 -0.0430 -0.5040 -0.1728
    8TMC3    C214208   2.141   2.382  11.316  0.3580 -0.0047  0.0268
    8TMC3    C314209   2.101   2.416  11.188  0.6792  0.2167  0.3501
    8TMC3    C414210   2.231   2.603  11.340 -0.7528 -0.6144 -0.0569
    8TMC3    C514211   2.181   2.641  11.220 -0.5614 -0.2173  0.1112
    8TMC3    C614212   2.107   2.548  11.142 -0.5414 -0.5690 -0.3239
    8TMC3     C14213   2.158   2.486  11.524 -0.0910  0.3404  0.0258
    8TMC3     O14214   2.158   2.606  11.551 -0.8141 -0.1687 -0.3130
    8TMC3     H14215   2.115   2.283  11.351 -1.4613  1.2876  2.3132
    8TMC3    H114216   2.289   2.679  11.392  0.1850  0.6096 -2.8597
    8TMC3    H214217   2.076   2.575  11.042 -0.3974  0.9217  0.0304
    8TMC3    C714218   2.121   2.776  11.231  0.5725  0.1192 -0.5595
    8TMC3    C814219   2.024   2.321  11.106  0.0736  0.0620  0.0763
    8TMC3    O114220   2.094   2.826  11.120 -0.3777  0.2221 -0.1239
    8TMC3    O214221   1.944   2.360  11.023  0.6468 -0.4632 -0.1717
    9MPD2     C14222   2.061   1.958  11.090 -0.6232 -0.1883 -0.2078
    9MPD2    C114223   1.992   2.078  11.078 -0.6022 -0.4052 -0.1125
    9MPD2    C214224   1.856   2.070  11.031 -0.1650  0.3256 -0.4311
    9MPD2    C314225   1.793   1.952  10.995 -0.4954 -0.3418 -0.3299
    9MPD2    C414226   1.868   1.836  11.002 -0.1537  0.3416 -0.2304
    9MPD2    C514227   1.997   1.836  11.053  0.1445  0.6670 -0.2698
    9MPD2     H14228   1.803   2.165  11.025  1.1632  1.0229 -1.3957
    9MPD2    H114229   1.810   1.745  10.986  0.5634 -0.0052 -0.8725
    9MPD2    H214230   2.164   1.956  11.125 -0.7209 -1.9876 -0.0135
    9MPD2    H314231   2.044   1.742  11.076  0.0625  0.7258  0.1392
    9MPD2     N14232   1.659   1.945  10.943 -0.2822 -0.0305  0.1689
    9MPD2    H514233   1.640   1.863  10.887 -0.9992  0.3342 -0.1265
    9MPD2    N114234   2.060   2.194  11.114  0.5821  0.1946 -0.5703
    9MPD2    H714235   2.150   2.185  11.159  0.1945 -2.5031 -0.3777
    1MPD1     C14236   3.872   1.049  17.247  0.5413  0.3511  0.5197
    1MPD1    C114237   3.912   0.921  17.275 -0.4356 -0.2815 -0.1429
    1MPD1    C214238   3.967   0.903  17.402  0.5222  0.1434 -0.9390
    1MPD1    C314239   4.026   1.012  17.465 -0.0684  0.6851  0.0788
    1MPD1    C414240   3.998   1.137  17.426  0.3679  0.6076  0.0506
    1MPD1    C514241   3.922   1.156  17.314 -0.4729  0.5233  0.9597
    1MPD1     H14242   4.002   0.805  17.433  1.6119  0.0374 -2.5314
    1MPD1    H114243   4.028   1.227  17.479 -1.6730  1.9541 -1.0766
    1MPD1    H214244   3.811   1.071  17.160  1.4445 -2.2298 -0.7901
    1MPD1    H314245   3.901   1.256  17.279  1.3014  0.2648 -0.8398
    1MPD1     N14246   4.113   1.004  17.579 -0.0144 -0.3779 -0.3535
    1MPD1    H514247   4.150   1.089  17.619 -1.2510 -1.1450  2.4514
    1MPD1    N114248   3.846   0.816  17.210 -0.6120  0.0634 -0.2736
    1MPD1    H614249   3.824   0.845  17.115 -1.0886  0.8514  0.0739
    1MPD1    H714250   3.909   0.736  17.200 -0.8725 -0.0971 -0.6410
    2MPD1     C14251   0.333   0.792   0.136  0.7765  0.3251 -0.1650
    2MPD1    C114252   0.290   0.909   0.200  0.3756  0.0256 -0.1046
    2MPD1    C214253   0.151   0.931   0.219 -0.1263 -0.0869 -0.3259
    2MPD1    C314254   0.059   0.830   0.185 -0.3926 -0.2637  0.1555
    2MPD1    C414255   0.107   0.706   0.151  0.4231  0.0047  0.6978
    2MPD1    C514256   0.240   0.694   0.125 -0.5761 -0.7249 -0.3080
    2MPD1     H14257   0.127   1.030   0.258  0.3439  0.6507 -1.9035
    2MPD1    H114258   0.044   0.619   0.136  0.0926  1.0683 -3.9203
    2MPD1    H214259   0.438   0.770   0.119  0.9990  1.9741 -0.9137
    2MPD1    H314260   0.275   0.596   0.094  0.1643 -1.1386  1.9037
    2MPD1     N14261   4.642   0.862   0.205 -0.1861  0.0314 -0.6729
    2MPD1    H514262   4.620   0.954   0.243  0.0208 -1.2311  2.5064
    2MPD1    N114263   0.379   1.015   0.202 -0.3861 -0.2491  0.0493
    2MPD1    H614264   0.477   0.990   0.215 -0.7787 -1.6287  0.4290
    2MPD1    H714265   0.346   1.076   0.277  0.6716 -2.1026  2.0415
    3TCq2    C114266   4.537   0.781   0.171 -0.2794 -0.3297 -0.2552
    3TCq2    O214267   4.545   0.676   0.108 -0.0783 -0.1032 -0.3174
    3TCq2    C214268   4.407   0.840   0.196  0.5061  0.2444 -0.6010
    3TCq2    C314269   4.401   0.958   0.269 -0.0844  0.3465  0.2768
    3TCq2    C414270   4.300   1.043   0.236  0.2327  0.1896  0.3594
    3TCq2    C514271   4.211   1.022   0.134 -0.4283  0.1697  0.4484
    3TCq2    C614272   4.231   0.907   0.055 -0.5819 -0.3215  0.3447
    3TCq2    C714273   4.321   0.814   0.097  0.9100 -0.5878 -0.3039
    3TCq2    C814274   4.166   0.887  17.626  0.0853  0.3202  0.3583
    3TCq2    O414275   4.184   0.781  17.567  0.0959 -0.1985  0.5531
    3TCq2    C914276   4.288   1.167   0.305  0.2795  0.3680 -0.7635
    3TCq2    O514277   4.381   1.189   0.388  0.1767  0.1931 -0.2980
    3TCq2    O614278   4.173   1.213   0.307  0.2687 -0.1318  0.1859
    3TCq2    H214279   4.467   0.980   0.352 -0.6168  1.5999  0.3617
    3TCq2    H314280   4.135   1.095   0.111  0.2796  1.3347  1.8510
    3TCq2    H414281   4.335   0.727   0.034 -1.5246 -0.2714 -1.2620
    1TCq1    O114282   4.026   4.346  12.668 -0.5964 -0.1127 -0.3982
    1TCq1    C114283   3.946   4.333  12.777 -0.1618 -0.3890  0.2084
    1TCq1    O214284   3.828   4.293  12.776  0.1262 -0.0013  0.0499
    1TCq1    C214285   4.003   4.378  12.908 -0.7731  0.0276 -1.0272
    1TCq1    C314286   3.952   4.311  13.017  0.6791  0.1531 -0.5551
    1TCq1    C414287   4.024   4.318  13.136  0.3172 -0.7497 -0.7848
    1TCq1    C514288   4.138   4.386  13.152  0.1978 -0.3112 -0.6925
    1TCq1    C614289   4.190   4.453  13.043  0.9123  0.2642  0.4245
    1TCq1    C714290   4.128   4.437  12.922  0.5139  0.4495 -0.2921
    1TCq1    C814291   4.278   4.566  13.059  0.3537  0.1815 -0.3538
    1TCq1    O414292   4.258   4.657  12.982  0.2765 -0.2431 -0.2195
    1TCq1    C914293   3.975   4.258  13.253 -0.3762  0.1168  0.1012
    1TCq1    O514294   4.027   4.296  13.361 -0.1570  0.9215 -0.1690
    1TCq1    O614295   3.870   4.192  13.248  0.3859  0.1643 -0.0603
    1TCq1    H114296   4.116   4.364  12.704 -1.5656  1.5091  1.1845
    1TCq1    H214297   3.865   4.247  13.024 -0.4091  1.7684  0.3874
    1TCq1    H314298   4.172   4.387  13.255  0.5971  0.6274 -0.8394
    1TCq1    H414299   4.169   4.483  12.833  2.2214  0.1977  0.3723
    2MPD2     C14300   4.462   0.060  13.134 -0.9208  0.2312 -0.1387
    2MPD2    C114301   4.453   4.662  13.201 -0.2902  1.1149  0.3027
    2MPD2    C214302   4.519   4.649  13.319  0.0749  0.2108  0.1989
    2MPD2    C314303   4.608   0.025  13.357  0.0719  0.3315  0.6686
    2MPD2    C414304   4.634   0.140  13.279  0.4071 -0.1590  0.0931
    2MPD2    C514305   4.559   0.157  13.163  0.5324 -0.2210 -0.1491
    2MPD2     H14306   4.505   4.564  13.384 -3.6983  0.3671 -0.4195
    2MPD2    H114307   4.706   0.216  13.305 -0.4914  0.3283  1.1405
    2MPD2    H214308   4.421   0.080  13.036  1.7330 -0.9892 -1.4888
    2MPD2    H314309   4.573   0.245  13.102 -0.2930 -0.1677 -0.2632
    2MPD2     N14310   4.668   0.007  13.481 -0.9045  0.1765  0.5160
    2MPD2    H514311   4.638   4.650  13.536  0.1428 -1.1065 -0.7826
    2MPD2    N114312   4.371   4.555  13.157  0.6090 -0.0637  0.1041
    2MPD2    H714313   4.368   4.469  13.211  1.9241 -0.4848 -0.4726
    3TCq1    O114314   0.300   4.544  13.772  0.1504  0.0176  0.6703
    3TCq1    C114315   0.237   4.572  13.885 -0.4703  0.0204  0.3684
    3TCq1    O214316   0.223   4.489  13.975 -0.0855  0.3641 -0.2004
    3TCq1    C214317   0.140   4.677  13.856  0.2348  0.2239 -0.3429
    3TCq1    C314318   0.151   0.073  13.933 -0.5425 -0.3701 -0.0771
    3TCq1    C414319   0.093   0.186  13.891  1.4392 -0.7749  0.3734
    3TCq1    C514320   0.033   0.188  13.769  0.4710 -0.6217 -0.3187
    3TCq1    C614321   0.028   0.078  13.696 -0.8251 -0.2678  0.1856
    3TCq1    C714322   0.085   4.681  13.734  0.1296  0.2227 -1.1646
    3TCq1    C814323   0.005   0.107  13.554  0.1070 -0.3584  0.0099
    3TCq1    O414324   0.058   0.213  13.514 -0.4571  0.1518 -0.1908
    3TCq1    C914325   0.094   0.299  13.982  0.1504 -0.4100  0.6872
    3TCq1    O514326   0.136   0.279  14.099  0.0492  0.0591 -0.1517
    3TCq1    O614327   0.075   0.406  13.928 -0.1348  0.0402 -0.4485
    3TCq1    H114328   0.346   4.625  13.739  1.4245 -1.0290 -0.1316
    3TCq1    H214329   0.195   0.062  14.031  3.2077  2.2740 -1.4817
    3TCq1    H314330   4.705   0.280  13.742 -0.2867 -0.7704  0.6104
    3TCq1    H414331   0.095   4.592  13.673 -0.3922  0.3996 -1.5080
    1MPD2     C14332   4.089   0.907  15.182  0.3629 -0.6560  0.0975
    1MPD2    C114333   3.983   0.824  15.154 -0.1635  0.3602  0.6627
    1MPD2    C214334   4.002   0.686  15.149 -0.1195 -0.1317  0.6156
    1MPD2    C314335   4.116   0.638  15.208  0.5314  0.0132  0.0534
    1MPD2    C414336   4.213   0.726  15.262 -0.0584 -0.6160  0.4754
    1MPD2    C514337   4.198   0.861  15.239 -0.3360  0.1279 -0.1412
    1MPD2     H14338   3.924   0.613  15.127 -0.7355  1.0350 -1.0776
    1MPD2    H114339   4.305   0.706  15.315  0.8622  0.6827 -0.6080
    1MPD2    H214340   4.075   1.013  15.161  0.9322 -0.4742  0.6148
    1MPD2    H314341   4.280   0.925  15.268 -0.2924 -0.5121  1.1382
    1MPD2     N14342   4.131   0.496  15.219 -0.1064  0.5786  0.2065
    1MPD2    H514343   4.049   0.440  15.200  0.5828 -0.0125 -1.0880
    1MPD2    N114344   3.853   0.887  15.141  0.6248 -0.0977 -0.3569
    1MPD2    H714345   3.856   0.987  15.158  0.2525 -0.1845  0.2324
    2TMC3    C114346   3.616   0.902  15.156  0.3338  0.2466  0.4144
    2TMC3    C214347   3.532   0.845  15.246 -0.3431 -0.0976 -0.7284
    2TMC3    C314348   3.403   0.820  15.220 -0.6288  0.4588 -0.0041
    2TMC3    C414349   3.559   0.944  15.041 -0.4967  0.0940  0.7029
    2TMC3    C514350   3.419   0.944  15.030  0.5740 -0.0010  0.0699
    2TMC3    C614351   3.334   0.884  15.117 -0.5358 -0.1230  0.4967
    2TMC3     C14352   3.736   0.820  15.147 -0.0412 -0.2543 -0.2969
    2TMC3     O14353   3.714   0.703  15.155  0.4937  0.1748  0.0425
    2TMC3     H14354   3.576   0.811  15.339 -2.2521 -0.1009  0.1550
    2TMC3    H114355   3.630   0.972  14.964 -3.5145  1.7978 -1.4877
    2TMC3    H214356   3.233   0.857  15.087 -0.5855  0.4159  0.1703
    2TMC3    C714357   3.358   1.032  14.929 -0.0950  0.4955  0.1266
    2TMC3    C814358   3.357   0.698  15.283 -0.3526 -0.1041 -0.3510
    2TMC3    O114359   3.240   1.033  14.918  0.4500 -0.1945  0.0425
    2TMC3    O214360   3.236   0.683  15.308 -0.8397  0.1797  0.1564
    3TCq1    O114361   3.923   1.875  14.280 -0.1794 -0.1187 -0.5020
    3TCq1    C114362   3.910   1.764  14.204 -0.0359  0.0882 -0.2444
    3TCq1    O214363   3.837   1.765  14.106  0.4003  0.2413  0.2134
    3TCq1    C214364   3.892   1.670  14.307  0.0774 -0.2335  0.1186
    3TCq1    C314365   4.001   1.626  14.385  0.3807 -0.0062  0.3147
    3TCq1    C414366   3.988   1.503  14.445  0.3968 -0.2478 -0.0263
    3TCq1    C514367   3.874   1.424  14.434 -0.5121  1.0399 -0.4227
    3TCq1    C614368   3.768   1.474  14.360 -0.1349  0.9719 -0.3606
    3TCq1    C714369   3.778   1.593  14.297  0.1857 -0.2546 -0.0824
    3TCq1    C814370   3.635   1.421  14.377  0.4933 -0.4757 -0.0867
    3TCq1    O414371   3.567   1.410  14.277  0.0678 -1.0137 -0.0587
    3TCq1    C914372   4.107   1.455  14.509  0.0771 -0.7565  0.3263
    3TCq1    O514373   4.117   1.331  14.534 -0.2967 -1.1240 -0.2252
    3TCq1    O614374   4.208   1.529  14.504  0.0214 -0.2834  0.4100
    3TCq1    H114375   3.944   1.866  14.375 -0.9632 -1.1175 -0.4272
    3TCq1    H214376   4.085   1.690  14.407 -0.3772  0.8921  0.6188
    3TCq1    H314377   3.874   1.326  14.481  0.6040  1.2657  0.0500
    3TCq1    H414378   3.693   1.627  14.240  0.2047 -0.5718 -0.2988
    4MPD2     C14379   3.388   1.286  14.476 -0.0835  0.5782 -0.0300
    4MPD2    C114380   3.513   1.297  14.543  0.1164 -0.5036  0.3690
    4MPD2    C214381   3.523   1.237  14.666  0.0448  0.1325 -0.2584
    4MPD2    C314382   3.419   1.166  14.729  0.0980 -0.8544  0.5350
    4MPD2    C414383   3.296   1.160  14.663 -0.4259  0.3361 -0.4992
    4MPD2    C514384   3.284   1.217  14.536 -0.2042  0.9381 -0.5792
    4MPD2     H14385   3.618   1.246  14.717  1.0805  0.8884 -2.3177
    4MPD2    H114386   3.208   1.115  14.707  0.4919 -1.3739 -0.3899
    4MPD2    H214387   3.363   1.336  14.383 -2.9530 -1.2113 -0.2083
    4MPD2    H314388   3.185   1.218  14.492 -1.6422 -0.8662  2.5956
    4MPD2     N14389   3.445   1.104  14.851 -0.1937 -0.3991 -0.3708
    4MPD2    H514390   3.543   1.102  14.878  0.1943  2.2347 -1.5154
    4MPD2    N114391   3.628   1.361  14.493  0.1940 -0.2752 -0.7754
    4MPD2    H714392   3.702   1.382  14.560 -1.2347 -0.7442  0.9279
    5TMC2    C114393   3.984   0.213  15.327  0.0547 -0.3514 -0.2362
    5TMC2    C214394   4.023   0.160  15.446 -0.1660 -0.0533 -0.3120
    5TMC2    C314395   4.159   0.167  15.466  0.4093  0.8815  0.1004
    5TMC2    C414396   4.075   0.262  15.235  0.9572  0.0084 -0.3374
    5TMC2    C514397   4.207   0.290  15.269  0.4537  0.0761  0.5746
    5TMC2    C614398   4.248   0.237  15.385  0.2870  0.5391  0.1606
    5TMC2     C14399   3.860   0.295  15.322 -0.6523  0.6232  0.4554
    5TMC2     O14400   3.862   0.385  15.237 -0.1689  0.3392  0.5267
    5TMC2     H14401   3.974   0.096  15.520 -0.1935 -0.4413 -0.6663
    5TMC2    H114402   4.040   0.281  15.134 -1.2493  3.2459  1.0257
    5TMC2    H214403   4.342   0.265  15.431  1.1088  1.0588 -1.8526
    5TMC2    C714404   4.239   0.433  15.265  0.0922 -0.5872  0.2711
    5TMC2    C814405   4.223   0.119  15.588  0.3489  0.2324 -0.5655
    5TMC2    O114406   4.345   0.471  15.308 -0.6921  0.1600 -0.3617
    5TMC2    O214407   4.177   0.107  15.700  0.2697  0.3387 -0.1168
    5TMC2    O514408   4.334   0.057  15.546  0.8660 -0.3175 -0.0567
    5TMC2    H514409   4.344   0.056  15.448 -1.0981  1.4476 -0.2797
    6MPD2     C14410   3.370   0.416  15.391  0.0597 -0.1565 -0.3157
    6MPD2    C114411   3.478   0.482  15.339 -0.2634  0.3759  0.6707
    6MPD2    C214412   3.603   0.438  15.340 -0.6695 -0.2853 -0.7762
    6MPD2    C314413   3.626   0.314  15.400 -0.7977 -0.0799 -0.1583
    6MPD2    C414414   3.519   0.257  15.466  0.1632  0.4325 -0.1979
    6MPD2    C514415   3.389   0.300  15.459  0.4336 -0.3912 -0.6990
    6MPD2     H14416   3.682   0.497  15.294  0.1912 -0.6072  0.2999
    6MPD2    H114417   3.530   0.161  15.515  0.3235  0.1679 -0.7516
    6MPD2    H214418   3.267   0.447  15.373  0.5888  1.2290 -0.9515
    6MPD2    H314419   3.315   0.243  15.514  0.8060 -0.5512 -0.3587
    6MPD2     N14420   3.753   0.251  15.400 -0.9884  0.0836  0.4717
    6MPD2    H514421   3.763   0.162  15.447 -0.4218  0.3815  0.9149
    6MPD2    N114422   3.465   0.612  15.288  0.0426  0.4330 -0.0775
    6MPD2    H714423   3.547   0.649  15.242 -0.3826  2.4154  0.7608
  945NH3     N114424   0.820   0.726  14.993 -0.7984  0.3181 -0.3672
  945NH3     H214425   0.795   0.654  14.925 -0.6865 -1.8345  1.8825
  945NH3     H314426   0.804   0.819  14.957  1.4431  1.1100  0.7205
  945NH3     H414427   0.919   0.710  15.006 -1.6469 -2.7863  2.2736
  946SOD     NA14428   3.421   3.779  14.462  0.2518 -0.1083 -0.1243
  947SOD     NA14429   0.438   1.065  15.518 -0.0076 -0.2916 -0.2559
  948SOD     NA14430   1.550   4.575  17.658 -0.2980  0.0151 -0.4721
  949SOD     NA14431   2.820   0.861  10.954  0.2965  0.0651 -0.4467
  950SOD     NA14432   3.661   0.116   9.853  0.5300  0.2692  0.2810
  951SOD     NA14433   1.692   4.700  15.275  0.0295  0.4868  0.0580
  952SOD     NA14434   3.635   0.361   5.181 -0.0489  0.0444  0.2818
  953SOD     NA14435   2.359   2.163   0.728 -0.0072 -0.5726  0.1647
  954SOD     NA14436   0.758   3.916  12.172  0.6248 -0.0375 -0.3646
  955SOD     NA14437   0.778   2.118   0.109  0.0162 -0.4702  0.5326
  956SOD     NA14438   1.454   2.928   1.189  0.0125 -0.0930  0.1563
  957SOD     NA14439   4.313   4.645  11.163 -0.2072  0.0997 -0.0414
  958SOD     NA14440   3.706   2.029   8.060  0.6506 -0.4733 -0.5280
  959SOD     NA14441   0.741   4.351  14.841 -0.0386 -0.6262  0.3275
  960SOD     NA14442   0.649   4.691  14.715  0.6395 -0.2097  0.1124
  961SOD     NA14443   0.026   0.173  11.922 -0.2723  0.3034  0.2405
  962SOD     NA14444   0.019   4.314  11.438 -0.2487 -0.1219  0.0169
  963SOD     NA14445   0.437   0.491  10.687  0.2053  0.2250 -0.5132
  964SOD     NA14446   4.641   1.971  10.258  0.3647  0.1878  0.1487
  965SOD     NA14447   0.908   3.138   1.639  0.1187  0.5168  0.5835
  966SOD     NA14448   2.202   0.656  15.198  0.3982  0.1312  0.2500
  967SOD     NA14449   3.170   3.489  15.058 -0.1831  0.4508 -0.2147
  968SOD     NA14450   3.112   3.745   9.341 -0.1405 -0.2442  0.4931
  969SOD     NA14451   2.870   3.587   8.566  0.1476  0.3831  0.3141
  970SOD     NA14452   1.749   4.497   2.192 -0.2591 -0.8246  0.0286
  971SOD     NA14453   4.305   1.647  16.902 -0.4125  0.2272 -0.4524
  972SOD     NA14454   0.336   0.274  14.192 -0.0965 -0.2742  0.2007
  973SOD     NA14455   1.226   3.046   0.906 -0.0281 -0.1731 -0.2791
  974SOD     NA14456   4.010   3.807  11.541 -0.0110 -0.0102 -0.1571
  975SOD     NA14457   3.054   3.209   2.104 -0.1962  0.0961 -0.2303
  976SOD     NA14458   1.894   0.800  12.290  0.0770  0.2077  0.2781
  977SOD     NA14459   2.273   1.717  13.550  0.2965 -0.4202 -0.2981
  978SOD     NA14460   1.529   2.152   2.251  0.6950  0.5209 -0.5334
  979SOD     NA14461   2.036   0.028  11.390 -0.2511 -0.1624 -0.3494
  980SOD     NA14462   0.951   3.198  16.162  0.3718  0.1036  0.0732
  981SOD     NA14463   3.966   4.478  13.480  0.0171 -0.1833  0.1355
  982SOD     NA14464   2.101   2.128   0.325  0.1968  0.1957 -0.2569
  983SOD     NA14465   0.854   1.604   0.702 -0.2489  0.0262 -0.2978
  984SOD     NA14466   1.771   0.933  12.755 -0.0889  0.1756  0.5512
  985SOD     NA14467   3.729   4.292  10.194 -0.0623 -0.6053  0.0997
  986SOD     NA14468   1.497   0.569  16.081 -0.2222  0.0963 -0.1497
  987SOD     NA14469   2.848   4.001  17.532  0.1557  0.3328 -0.3584
  988SOD     NA14470   0.151   2.409  12.584 -0.2599 -0.1007  0.0382
  989SOD     NA14471   3.479   2.789  10.037  0.0467  0.3063 -0.3071
  990SOD     NA14472   3.493   0.919   2.231 -0.1408 -0.1064  0.3221
  991SOD     NA14473   3.534   3.052   6.659 -0.7321 -0.2713 -0.1836
  992SOD     NA14474   4.351   1.506  14.669  0.1921  0.2758 -0.4005
  993SOD     NA14475   3.482   4.478  10.280 -0.0031  0.5504 -0.2228
  994SOD     NA14476   3.227   0.542  11.864  0.2983  0.1184  0.0580
  995SOD     NA14477   2.106   1.023   3.360  0.4824 -0.3404 -0.5185
  996SOD     NA14478   1.611   4.003   0.953 -0.3258 -0.1476  0.3209
  997SOD     NA14479   0.436   2.868   7.798 -0.5371 -0.0604 -0.3728
  998SOD     NA14480   0.472   1.458   1.854  0.1452  0.3510 -0.0766
  999SOD     NA14481   2.727   2.475   9.559  0.0898  0.5638  0.4731
 1000SOD     NA14482   2.257   3.139   9.389 -0.0878 -0.2585  0.0580
 1001SOD     NA14483   3.630   4.538   9.983 -0.2362 -0.1020 -0.2723
 1002SOD     NA14484   0.365   4.686  13.349 -0.0647 -0.3005 -0.0292
 1003SOD     NA14485   2.246   3.839  12.672 -0.2628  0.2330 -0.5095
 1004SOD     NA14486   2.516   1.125   5.458 -0.1287 -0.4637 -0.0353
 1005SOD     NA14487   3.426   3.551  13.504 -0.0930  0.7841  0.2408
 1006SOD     NA14488   0.990   2.441  15.946  0.1514  0.3907  0.1284
 1007SOD     NA14489   3.342   2.503   0.642  0.2060 -0.5323  0.5594
 1008SOD     NA14490   1.919   1.051  12.482  0.6214  0.3868  0.4030
 1009SOD     NA14491   2.596   1.265   1.849 -0.1775  0.0534  0.2040
 1010SOD     NA14492   3.749   4.206   9.864 -0.1040 -0.2419 -0.1667
 1011SOD     NA14493   4.689   4.476  11.721  0.1043  0.0057 -0.3906
 1012SOL     OW14494   4.606   0.524  11.055 -0.3236  0.2816  0.0742
 1012SOL    HW114495   4.546   0.565  10.992 -1.2812 -1.1244  0.0676
 1012SOL    HW214496   4.628   0.440  11.014 -2.2529  0.2406 -0.9100
 1013SOL     OW14497   0.862   3.921   0.393 -0.4272  0.0473  0.0426
 1013SOL    HW114498   0.772   3.949   0.406 -0.1721  0.4517  0.9864
 1013SOL    HW214499   0.915   3.999   0.378 -0.3803 -0.0440 -0.2635
 1014SOL     OW14500   0.291   1.830  16.227  0.2012  0.5571 -0.0326
 1014SOL    HW114501   0.234   1.821  16.303 -1.0742  1.7265 -0.8568
 1014SOL    HW214502   0.261   1.756  16.175 -1.1605  0.5789  0.7077
 1015SOL     OW14503   0.420   2.629   6.684 -0.2488 -0.6252 -0.2245
 1015SOL    HW114504   0.492   2.593   6.631 -0.2891 -1.5688  0.3679
 1015SOL    HW214505   0.465   2.626   6.768 -0.6264  0.3307  0.0152
 1016SOL     OW14506   1.186   4.461   4.372  0.0663  0.4321  0.5094
 1016SOL    HW114507   1.160   4.554   4.374  1.4993  0.7953  1.7327
 1016SOL    HW214508   1.101   4.422   4.391 -0.3110  0.9899  0.0036
 1017SOL     OW14509   4.211   1.954   7.007 -0.0046  0.0203 -0.5505
 1017SOL    HW114510   4.246   2.039   6.980  0.4805  1.1459  3.5112
 1017SOL    HW214511   4.198   1.910   6.923 -0.9285 -0.6887 -0.0481
 1018SOL     OW14512   2.263   0.022   2.477 -0.4521 -0.0282  0.0833
 1018SOL    HW114513   2.214   4.679   2.526 -3.1773  1.5715 -0.4932
 1018SOL    HW214514   2.229   0.031   2.388  0.2345  3.9055  0.2383
 1019SOL     OW14515   1.926   3.194   9.356  0.0413 -0.5738  0.1062
 1019SOL    HW114516   1.972   3.218   9.437 -1.5943 -0.3084  0.9600
 1019SOL    HW214517   1.989   3.217   9.287 -1.1540  0.8457 -0.5115
 1020SOL     OW14518   4.499   0.882  15.444 -0.0462 -0.8595 -0.6577
 1020SOL    HW114519   4.534   0.876  15.356  1.4499  1.9401 -0.2387
 1020SOL    HW214520   4.472   0.792  15.462 -1.0188 -0.3564  0.4065
 1021SOL     OW14521   3.748   1.732   6.690  0.3190  0.8592 -0.6626
 1021SOL    HW114522   3.827   1.735   6.744  0.7813 -0.6679 -1.2444
 1021SOL    HW214523   3.679   1.767   6.747 -1.5700 -0.3938 -2.1930
 1022SOL     OW14524   2.829   0.648   8.244 -0.6092 -0.0972 -0.8618
 1022SOL    HW114525   2.873   0.719   8.290  0.1221  0.7320 -2.8284
 1022SOL    HW214526   2.783   0.612   8.320  2.0770 -0.3769  0.6561
 1023SOL     OW14527   2.008   1.432   3.995  0.4610 -0.1912 -0.2599
 1023SOL    HW114528   2.082   1.469   4.041 -0.3221  0.4477  0.4881
 1023SOL    HW214529   1.981   1.505   3.939 -0.4108 -2.0133 -2.2585
 1024SOL     OW14530   3.578   1.140   0.831  0.0560 -0.2843  0.6004
 1024SOL    HW114531   3.529   1.158   0.912  0.9886 -0.0673  1.1132
 1024SOL    HW214532   3.618   1.055   0.848  1.8282  0.3952 -0.2599
 1025SOL     OW14533   3.773   0.265  14.510  0.3270 -0.0858 -0.1110
 1025SOL    HW114534   3.788   0.336  14.572  0.4864  0.3130 -0.6000
 1025SOL    HW214535   3.735   0.202  14.571 -0.6538  1.3976  0.8090
 1026SOL     OW14536   2.265   0.004  12.202  0.1519  0.0471  0.0990
 1026SOL    HW114537   2.190   0.041  12.156  1.0029  4.5703  2.3750
 1026SOL    HW214538   2.214   4.674  12.263  0.0525  0.6787  0.5648
 1027SOL     OW14539   1.389   1.580   5.904  0.2678  0.3570  0.3447
 1027SOL    HW114540   1.338   1.648   5.949 -0.3659 -0.5448  0.9811
 1027SOL    HW214541   1.420   1.523   5.974  1.5403 -0.2781 -0.7452
 1028SOL     OW14542   4.072   1.870  13.583  0.1171 -0.0916  0.3223
 1028SOL    HW114543   4.120   1.944  13.620  0.7218  0.3855 -1.4315
 1028SOL    HW214544   4.137   1.801  13.594  1.6253  1.0520 -1.4924
 1029SOL     OW14545   3.144   4.101   7.892  0.6202  0.2738  0.2326
 1029SOL    HW114546   3.088   4.176   7.913  1.2257  0.1700  2.1899
 1029SOL    HW214547   3.172   4.121   7.803 -0.5329  0.4058 -0.1092
 1030SOL     OW14548   2.124   2.912   7.666  0.3675 -0.3631 -0.6349
 1030SOL    HW114549   2.061   2.857   7.712  0.6829 -0.4370 -0.2900
 1030SOL    HW214550   2.094   2.999   7.693 -0.8582 -1.0440  0.1604
 1031SOL     OW14551   0.573   1.996   6.491 -0.3374  0.1839 -0.5958
 1031SOL    HW114552   0.481   1.976   6.471 -0.0136 -1.4378 -0.4394
 1031SOL    HW214553   0.602   2.028   6.405 -1.9929  2.6081 -0.2464
 1032SOL     OW14554   0.582   2.294  10.105 -0.2188 -0.1146 -0.2399
 1032SOL    HW114555   0.518   2.295  10.177  1.1455  0.6342  0.9682
 1032SOL    HW214556   0.564   2.372  10.053 -0.8960 -0.5185 -0.6021
 1033SOL     OW14557   1.063   0.108   6.147 -0.5246 -0.0755  0.0598
 1033SOL    HW114558   1.023   0.137   6.229  1.0298  1.4609  0.2875
 1033SOL    HW214559   1.026   0.020   6.134 -1.9528  0.5196  0.0832
 1034SOL     OW14560   1.238   4.502  11.650 -0.4631  0.1086 -0.2008
 1034SOL    HW114561   1.330   4.493  11.628 -1.2203  0.4079 -3.4804
 1034SOL    HW214562   1.227   4.597  11.649 -2.7460 -0.1487 -0.9748
 1035SOL     OW14563   4.263   3.112   6.128 -0.7161  0.6619 -0.5926
 1035SOL    HW114564   4.256   3.117   6.223  1.7477  0.8051 -0.4333
 1035SOL    HW214565   4.336   3.172   6.114 -0.1621 -0.5986 -3.1063
 1036SOL     OW14566   1.565   3.496  15.073 -0.2125 -0.7223  0.2543
 1036SOL    HW114567   1.597   3.549  15.000  0.2369  0.2686  1.1485
 1036SOL    HW214568   1.576   3.408  15.038  2.0414  0.0192 -0.8963
 1037SOL     OW14569   3.896   2.887   5.176 -0.3449 -0.4476 -0.2867
 1037SOL    HW114570   3.883   2.982   5.170  1.5235 -0.0939  1.0165
 1037SOL    HW214571   3.992   2.884   5.166 -0.0543  0.0984  2.5919
 1038SOL     OW14572   0.311   3.321  12.841  0.1364  0.6710  0.1721
 1038SOL    HW114573   0.355   3.376  12.906 -0.1060  1.4993 -0.3805
 1038SOL    HW214574   0.260   3.379  12.785 -1.8834 -1.5456 -0.2753
 1039SOL     OW14575   3.788   2.188   5.860 -0.0979  0.0117  0.4033
 1039SOL    HW114576   3.743   2.270   5.881 -1.4670 -0.4457 -0.7411
 1039SOL    HW214577   3.850   2.222   5.795 -0.1422 -0.6205  0.0314
 1040SOL     OW14578   3.199   2.038   3.776  0.0890 -0.4584 -0.2763
 1040SOL    HW114579   3.130   2.009   3.836  0.1092 -0.3647 -0.2075
 1040SOL    HW214580   3.280   2.037   3.827 -0.2050  0.9471  0.2139
 1041SOL     OW14581   0.646   1.147  16.455  0.5250  0.1085 -0.4415
 1041SOL    HW114582   0.685   1.230  16.425 -2.3556  0.6042 -2.7251
 1041SOL    HW214583   0.631   1.115  16.366 -1.7770  0.0627 -0.0293
 1042SOL     OW14584   3.327   4.637   3.195  0.3757  1.0602 -0.0413
 1042SOL    HW114585   3.328   4.555   3.146 -1.6062  1.3562 -0.5580
 1042SOL    HW214586   3.405   4.627   3.249  1.8651  1.0001 -2.1815
 1043SOL     OW14587   1.903   3.229   6.979  0.6624 -0.4170 -0.4948
 1043SOL    HW114588   1.936   3.166   7.043  2.8649  1.3214  0.0681
 1043SOL    HW214589   1.867   3.294   7.039  0.0774  1.2521 -2.6327
 1044SOL     OW14590   1.755   1.202   7.990 -0.0006  0.3453  0.8173
 1044SOL    HW114591   1.811   1.220   7.914  0.4587 -0.0613  1.0623
 1044SOL    HW214592   1.800   1.127   8.029  0.7682 -0.0360 -0.8376
 1045SOL     OW14593   2.867   0.197   4.918 -0.0997  0.1877  0.0048
 1045SOL    HW114594   2.948   0.247   4.912  0.7673 -1.2978 -0.6008
 1045SOL    HW214595   2.889   0.137   4.989  0.3569  1.6818  1.1156
 1046SOL     OW14596   1.805   2.115   1.911 -0.0366  0.0111  0.4280
 1046SOL    HW114597   1.771   2.153   1.830 -1.2818 -2.8391 -0.3892
 1046SOL    HW214598   1.745   2.150   1.977 -0.3326 -1.9208  1.1963
 1047SOL     OW14599   2.196   2.322   0.420 -0.0191 -0.0779  0.2123
 1047SOL    HW114600   2.192   2.336   0.514  0.4734  0.8515  0.0894
 1047SOL    HW214601   2.287   2.296   0.410 -0.4427 -1.3464 -0.4269
 1048SOL     OW14602   3.674   0.806   1.715 -0.1002 -0.7868  0.6474
 1048SOL    HW114603   3.587   0.841   1.733 -0.7419 -1.3662 -1.3468
 1048SOL    HW214604   3.652   0.713   1.724 -1.2372 -0.6486 -0.7188
 1049SOL     OW14605   0.103   0.466   6.346 -0.1504  0.0506  0.4238
 1049SOL    HW114606   0.036   0.399   6.359  0.8134 -0.5906  2.0184
 1049SOL    HW214607   0.075   0.484   6.256  1.5146 -0.6639 -0.2437
 1050SOL     OW14608   3.854   1.888   4.158  0.1492  0.1899  0.4047
 1050SOL    HW114609   3.888   1.931   4.080  1.4018 -0.6296  0.4919
 1050SOL    HW214610   3.934   1.865   4.206  0.4926  0.0425 -0.2422
 1051SOL     OW14611   4.322   1.133   3.598  0.0729 -0.3631  0.4446
 1051SOL    HW114612   4.329   1.228   3.592 -0.7364 -0.4277 -1.3769
 1051SOL    HW214613   4.300   1.132   3.691 -1.2666  1.2313  0.1399
 1052SOL     OW14614   3.785   2.207  13.018 -0.0828  0.3909 -0.2500
 1052SOL    HW114615   3.826   2.271  13.077  0.4553  0.7985 -1.0746
 1052SOL    HW214616   3.838   2.128  13.025 -1.2047 -0.3719 -0.5099
 1053SOL     OW14617   1.021   0.339   8.778 -0.4399 -0.3764 -0.1011
 1053SOL    HW114618   1.094   0.305   8.727 -1.3533  0.5713 -2.0315
 1053SOL    HW214619   1.034   0.269   8.842  0.3434  0.0342  0.1866
 1054SOL     OW14620   3.003   1.159   0.016  0.4766  0.3376  0.0477
 1054SOL    HW114621   3.069   1.147  17.642  0.2862 -4.4042  0.6482
 1054SOL    HW214622   3.014   1.087   0.078  0.8312 -0.1691 -0.6018
 1055SOL     OW14623   2.435   2.614   7.007  0.6845  0.2406  0.2331
 1055SOL    HW114624   2.501   2.548   7.032  0.3831 -0.2888 -0.3807
 1055SOL    HW214625   2.474   2.671   6.941  2.1318  0.2496  1.0973
 1056SOL     OW14626   0.385   0.664   5.608  0.4266  0.5966 -0.3576
 1056SOL    HW114627   0.398   0.574   5.638 -1.4538 -0.0814 -1.5806
 1056SOL    HW214628   0.365   0.706   5.692 -3.4060  0.8829 -1.4608
 1057SOL     OW14629   3.916   4.371   5.194  0.0621 -0.0381 -0.3698
 1057SOL    HW114630   3.823   4.354   5.179 -0.4177  2.1123  0.1754
 1057SOL    HW214631   3.934   4.285   5.231  1.2895 -0.2539 -1.4937
 1058SOL     OW14632   2.689   4.445   2.956 -0.2363 -0.5528  0.1469
 1058SOL    HW114633   2.735   4.375   2.909  0.4843  0.1751 -0.2363
 1058SOL    HW214634   2.763   4.493   2.994  0.4357 -0.9591 -0.6512
 1059SOL     OW14635   1.425   0.826   7.714  0.1342  0.1147  0.1842
 1059SOL    HW114636   1.473   0.785   7.786 -1.4643 -0.0352  1.1436
 1059SOL    HW214637   1.407   0.751   7.658 -1.1353  0.4696  0.1187
 1060SOL     OW14638   2.654   1.573  13.532  0.1611 -0.0494  0.4106
 1060SOL    HW114639   2.713   1.544  13.601  2.5259  0.2246 -1.5238
 1060SOL    HW214640   2.712   1.615  13.469 -1.2727 -0.6527 -1.3092
 1061SOL     OW14641   0.627   3.145  17.284 -0.0716  0.0136 -0.0022
 1061SOL    HW114642   0.709   3.192  17.298  0.2296 -0.5581  0.1140
 1061SOL    HW214643   0.563   3.215  17.301 -0.7006 -0.6302  0.2722
 1062SOL     OW14644   0.052   4.679   1.082  0.3179  0.4520 -0.0101
 1062SOL    HW114645   0.078   4.656   0.993  1.6843 -0.7969  0.7145
 1062SOL    HW214646   0.136   4.692   1.126  0.7460  0.6369 -0.8987
 1063SOL     OW14647   0.120   4.547  14.615 -0.2159 -0.1521  0.0327
 1063SOL    HW114648   0.146   4.636  14.641 -0.8181 -0.5041  1.8108
 1063SOL    HW214649   0.203   4.504  14.638 -0.0758 -0.6000 -1.3470
 1064SOL     OW14650   1.235   2.816   4.871 -0.0422  0.4360 -0.1350
 1064SOL    HW114651   1.186   2.824   4.789 -1.4578 -1.4073  0.5306
 1064SOL    HW214652   1.234   2.908   4.898  1.9823  0.4239 -0.0129
 1065SOL     OW14653   2.691   4.647   4.508  0.3229 -0.3279 -0.6673
 1065SOL    HW114654   2.736   4.627   4.426 -0.8982 -1.1509 -1.1149
 1065SOL    HW214655   2.600   4.651   4.479 -0.0884  1.6122  0.8893
 1066SOL     OW14656   0.211   3.220   7.680 -0.2223  0.6915  0.5043
 1066SOL    HW114657   0.187   3.309   7.654  0.5959  0.4876 -0.9750
 1066SOL    HW214658   0.132   3.188   7.722 -0.5734  0.8158 -0.0642
 1067SOL     OW14659   4.321   4.566   1.287 -0.4132 -0.1914 -0.0872
 1067SOL    HW114660   4.381   4.564   1.213 -0.6715 -3.6374 -0.2432
 1067SOL    HW214661   4.368   4.611   1.357  0.9296  0.8941 -1.6792
 1068SOL     OW14662   0.236   0.268   4.263  0.5594 -0.5251  0.1737
 1068SOL    HW114663   0.191   0.342   4.222  1.1601 -0.2325  0.0343
 1068SOL    HW214664   0.328   0.286   4.240  0.6496 -1.8781 -0.5508
 1069SOL     OW14665   2.777   4.558   4.280 -0.0405 -0.3420 -0.4949
 1069SOL    HW114666   2.777   4.564   4.184 -2.7209 -2.4434 -0.6096
 1069SOL    HW214667   2.832   4.479   4.288 -0.2863 -0.4403  0.2499
 1070SOL     OW14668   0.416   0.720   5.203 -0.2606 -0.1879  0.3523
 1070SOL    HW114669   0.325   0.741   5.182 -0.1876 -0.7537 -0.5408
 1070SOL    HW214670   0.453   0.753   5.122 -0.5767 -1.3649 -0.2827
 1071SOL     OW14671   1.978   1.937   2.239 -0.5956 -0.1715  0.0505
 1071SOL    HW114672   2.059   1.972   2.276 -0.0188 -0.8463 -0.5932
 1071SOL    HW214673   1.987   1.970   2.150  2.9658  0.0058  0.4727
 1072SOL     OW14674   0.966   1.783   0.587 -0.1433  0.3825  0.3448
 1072SOL    HW114675   0.953   1.877   0.601  0.7361  0.7468 -1.2808
 1072SOL    HW214676   1.020   1.791   0.508  0.4400 -1.0488  0.6028
 1073SOL     OW14677   2.130   0.274   7.821  0.1494  0.2110 -0.6672
 1073SOL    HW114678   2.083   0.332   7.761 -1.4198 -1.0938 -0.6880
 1073SOL    HW214679   2.130   0.329   7.899  2.1021  1.3523 -1.4829
 1074SOL     OW14680   3.227   3.960   4.930 -0.0753  0.3364 -0.2645
 1074SOL    HW114681   3.139   3.996   4.942 -0.1295  0.9748 -2.7295
 1074SOL    HW214682   3.267   3.992   5.011  2.5814  0.7862 -1.7340
 1075SOL     OW14683   4.063   1.376   4.669 -0.2504 -0.0460  0.4807
 1075SOL    HW114684   4.024   1.314   4.608 -0.4024 -1.3964  1.9564
 1075SOL    HW214685   4.139   1.398   4.614 -0.6447 -0.8683 -0.3787
 1076SOL     OW14686   2.750   0.461   2.520  0.8815 -0.1638 -0.4715
 1076SOL    HW114687   2.715   0.536   2.568 -0.1252 -0.4190 -0.8074
 1076SOL    HW214688   2.691   0.450   2.445 -1.2508 -0.5862  1.2655
 1077SOL     OW14689   4.336   4.358   1.748 -0.2089  0.8627 -0.2571
 1077SOL    HW114690   4.323   4.264   1.738  3.3496  0.5688 -2.0437
 1077SOL    HW214691   4.415   4.373   1.697 -0.7710  2.6002 -0.6363
 1078SOL     OW14692   4.186   4.181   8.017 -0.0932 -0.7811  0.0178
 1078SOL    HW114693   4.193   4.217   7.928  1.5191  1.0643  0.8927
 1078SOL    HW214694   4.193   4.263   8.066  1.8401 -1.5081  0.9393
 1079SOL     OW14695   3.962   2.976   7.975 -0.1179 -0.0962  0.3837
 1079SOL    HW114696   3.934   2.998   7.886 -0.1614 -1.0072  0.1643
 1079SOL    HW214697   3.881   2.945   8.016 -0.8719  3.3460  1.4772
 1080SOL     OW14698   3.330   0.573   5.396  0.0140 -0.8234  0.2272
 1080SOL    HW114699   3.273   0.622   5.337 -0.9889 -1.9586  0.2665
 1080SOL    HW214700   3.374   0.638   5.452 -0.2906  1.5519 -2.2747
 1081SOL     OW14701   3.649   3.198   6.516  0.0254  0.2377  0.3368
 1081SOL    HW114702   3.590   3.267   6.484  1.5488  0.1344 -2.7076
 1081SOL    HW214703   3.735   3.231   6.492  0.0958 -1.0583 -1.1974
 1082SOL     OW14704   4.656   0.771   6.054 -0.0756 -0.5594 -0.2314
 1082SOL    HW114705   4.623   0.757   6.143  0.3182  0.6955  0.1104
 1082SOL    HW214706   4.600   0.841   6.021  0.7901 -0.7266 -2.0656
 1083SOL     OW14707   1.123   3.138   8.575 -0.0879  0.1474  0.0901
 1083SOL    HW114708   1.173   3.076   8.628  0.1668  0.0875 -0.2190
 1083SOL    HW214709   1.044   3.146   8.628  0.5450  0.5222  0.9760
 1084SOL     OW14710   0.426   4.525   8.992 -0.5176 -0.0292  0.6067
 1084SOL    HW114711   0.339   4.496   9.019 -0.0518 -2.7258 -0.7568
 1084SOL    HW214712   0.485   4.512   9.067  0.3148  0.1395 -0.0112
 1085SOL     OW14713   3.035   4.056   3.364 -0.1750  0.0134 -0.0008
 1085SOL    HW114714   2.949   4.023   3.389 -0.6252  1.7383  0.7174
 1085SOL    HW214715   3.069   4.100   3.441 -0.1359 -1.3080  0.7342
 1086SOL     OW14716   2.199   3.307  13.047 -0.1916 -0.2018 -0.6374
 1086SOL    HW114717   2.157   3.242  12.991 -0.2183 -0.1598 -0.6657
 1086SOL    HW214718   2.194   3.381  12.987  1.4394 -0.2870 -0.8937
 1087SOL     OW14719   4.230   3.192   2.112  0.4483  0.0651  0.1171
 1087SOL    HW114720   4.274   3.250   2.174  0.2059 -0.7236  1.0285
 1087SOL    HW214721   4.136   3.203   2.125  0.1138  0.1467 -2.3997
 1088SOL     OW14722   3.924   0.164  10.112 -0.3296  0.6861 -0.5309
 1088SOL    HW114723   3.838   0.127  10.090  0.7600 -2.6011  0.7880
 1088SOL    HW214724   3.888   0.252  10.124 -1.2030  0.3162 -0.4617
 1089SOL     OW14725   2.592   1.738   8.397  0.2101 -0.4380 -0.2967
 1089SOL    HW114726   2.513   1.750   8.344  0.5727 -0.4769 -0.8434
 1089SOL    HW214727   2.651   1.679   8.350 -1.3706 -1.2804 -1.2296
 1090SOL     OW14728   0.115   1.926  12.210 -0.7559  0.1012 -0.5101
 1090SOL    HW114729   0.073   2.009  12.230  2.5153  0.9613  2.7090
 1090SOL    HW214730   0.204   1.943  12.240 -1.0222  1.3455 -0.4614
 1091SOL     OW14731   1.214   0.989   1.768 -0.4216 -0.7148  0.1471
 1091SOL    HW114732   1.171   0.906   1.789 -1.8367 -0.0016  0.0521
 1091SOL    HW214733   1.172   1.043   1.835 -2.0918 -0.5149 -1.0574
 1092SOL     OW14734   4.104   0.809   5.989 -0.0287 -0.6124 -0.5570
 1092SOL    HW114735   4.015   0.844   5.984  0.4058  0.3564 -1.5474
 1092SOL    HW214736   4.146   0.894   6.002  1.5987 -1.5979  0.6633
 1093SOL     OW14737   3.413   3.971  10.955 -1.1523  0.5113  0.0683
 1093SOL    HW114738   3.384   4.023  11.030  2.1342 -1.3172  2.5963
 1093SOL    HW214739   3.443   3.890  10.996  0.9942  0.1539 -2.2230
 1094SOL     OW14740   4.249   2.229  11.551  0.3855 -0.0365  0.2523
 1094SOL    HW114741   4.285   2.151  11.509  0.1688  0.2011 -0.3794
 1094SOL    HW214742   4.203   2.187  11.623 -0.4062  0.7947  0.2375
 1095SOL     OW14743   1.783   2.483  14.078  0.1769 -0.0315 -0.2123
 1095SOL    HW114744   1.797   2.578  14.083 -0.8444  0.0469  1.1420
 1095SOL    HW214745   1.703   2.466  14.128 -0.5456  0.9744 -1.0262
 1096SOL     OW14746   3.362   3.695   4.932  0.7026 -0.7225 -0.5648
 1096SOL    HW114747   3.402   3.753   4.997  1.2919 -1.6383 -0.1148
 1096SOL    HW214748   3.436   3.647   4.894  1.9046  0.1771  0.6315
 1097SOL     OW14749   3.175   2.758   5.263  0.3314  0.2737  0.2574
 1097SOL    HW114750   3.131   2.836   5.229  1.1484  0.4326 -0.4105
 1097SOL    HW214751   3.203   2.710   5.185  0.0656  0.0067  0.3237
 1098SOL     OW14752   2.113   3.518   8.821 -0.2956 -0.0744 -0.2441
 1098SOL    HW114753   2.046   3.481   8.763  0.2547  0.0262 -0.9270
 1098SOL    HW214754   2.156   3.581   8.764  0.2184 -1.9067 -1.8926
 1099SOL     OW14755   0.599   2.644   2.199 -0.1853 -0.2578  0.1353
 1099SOL    HW114756   0.641   2.730   2.198 -1.3015  0.2946 -0.0903
 1099SOL    HW214757   0.645   2.595   2.267  0.9285 -0.3725 -0.7061
 1100SOL     OW14758   3.120   0.861   1.320 -0.2995 -0.1569  0.0240
 1100SOL    HW114759   3.129   0.898   1.408  0.6773  0.3943 -0.3143
 1100SOL    HW214760   3.201   0.886   1.276  0.2217  0.2351  1.2255
 1101SOL     OW14761   1.102   4.040  10.172 -0.4716 -0.1928  0.4196
 1101SOL    HW114762   1.049   3.964  10.196 -1.9972  0.0329 -2.2786
 1101SOL    HW214763   1.143   4.062  10.256  1.2323  2.8934 -1.2508
 1102SOL     OW14764   0.018   2.579  16.660  0.1527 -0.3764  0.1294
 1102SOL    HW114765   0.024   2.495  16.614 -1.4805 -0.6995  0.4931
 1102SOL    HW214766   4.691   2.633  16.599 -1.5074 -1.7924  0.2428
 1103SOL     OW14767   0.953   3.595   4.001 -0.4753 -0.2067 -0.1993
 1103SOL    HW114768   0.975   3.535   4.072 -0.7977 -0.6012 -0.4393
 1103SOL    HW214769   1.028   3.594   3.941  1.1252 -1.2275  1.8191
 1104SOL     OW14770   1.373   3.746  13.987  0.4899  0.0813  1.1898
 1104SOL    HW114771   1.391   3.669  13.934 -0.4521  0.0103  0.9812
 1104SOL    HW214772   1.354   3.703  14.070  0.6968  0.8385  1.6325
 1105SOL     OW14773   2.398   3.866   6.220  0.1097  0.9462 -0.0680
 1105SOL    HW114774   2.417   3.915   6.300 -1.0149 -0.4934  1.0879
 1105SOL    HW214775   2.471   3.807   6.203  0.3796  1.5046 -0.8259
 1106SOL     OW14776   4.102   3.967  15.176  0.3701  0.2209 -0.1065
 1106SOL    HW114777   4.034   4.029  15.203  0.7418  0.3082  0.6086
 1106SOL    HW214778   4.177   4.026  15.169  0.8316 -0.3074  0.4356
 1107SOL     OW14779   4.166   2.889   3.226 -0.3891  0.0795 -0.5054
 1107SOL    HW114780   4.156   2.979   3.256 -1.9806 -0.6178  1.0916
 1107SOL    HW214781   4.175   2.904   3.132 -0.2894 -1.0008 -0.6639
 1108SOL     OW14782   2.906   2.574   6.161  0.5156  0.1881 -0.0382
 1108SOL    HW114783   2.843   2.552   6.092  0.9146  0.7665 -0.5827
 1108SOL    HW214784   2.963   2.497   6.161  0.1569 -0.0768  1.6106
 1109SOL     OW14785   0.034   2.563   1.661 -0.1116  0.0357  0.3625
 1109SOL    HW114786   0.114   2.522   1.695 -0.3543 -0.6807  0.0509
 1109SOL    HW214787   4.691   2.553   1.730 -0.3996 -2.9477 -0.3444
 1110SOL     OW14788   2.585   3.129  14.384 -0.3093  0.2160  0.5527
 1110SOL    HW114789   2.641   3.052  14.387  0.2247  0.5450 -1.1492
 1110SOL    HW214790   2.498   3.092  14.397 -0.0445 -0.9901 -1.2138
 1111SOL     OW14791   1.461   4.027   3.018  0.4488  0.2523  0.2059
 1111SOL    HW114792   1.396   3.993   2.956  0.7571  1.4035 -0.7579
 1111SOL    HW214793   1.437   4.119   3.028 -5.1411 -1.0475 -1.2972
 1112SOL     OW14794   2.888   1.991   1.986 -0.0242  0.5011 -0.3581
 1112SOL    HW114795   2.825   1.924   2.011 -1.7869  2.4929  0.4571
 1112SOL    HW214796   2.843   2.060   2.034 -0.1660  0.7198 -0.8110
 1113SOL     OW14797   4.346   0.504   4.565 -0.1670  0.1772 -0.4134
 1113SOL    HW114798   4.434   0.541   4.564 -1.4174  3.1537 -0.3748
 1113SOL    HW214799   4.331   0.474   4.655  1.4643  1.0661  0.1499
 1114SOL     OW14800   1.747   2.451   9.228 -0.2150 -0.2752 -0.0856
 1114SOL    HW114801   1.694   2.418   9.302 -1.6098  1.2829 -0.3780
 1114SOL    HW214802   1.697   2.422   9.152  0.3649 -0.5605 -0.3565
 1115SOL     OW14803   1.965   3.599  13.487 -0.1214  0.3948  0.6901
 1115SOL    HW114804   1.935   3.540  13.419  0.9708 -0.9872  1.3949
 1115SOL    HW214805   1.984   3.678  13.436  0.0527 -0.5849 -0.7558
 1116SOL     OW14806   3.785   1.444   5.800  0.0142 -0.0147 -0.1864
 1116SOL    HW114807   3.730   1.384   5.851  1.0895 -2.0835 -1.4306
 1116SOL    HW214808   3.767   1.527   5.843  1.2091  0.9202 -1.5065
 1117SOL     OW14809   0.055   3.732   4.893 -0.2973  0.1843 -0.2151
 1117SOL    HW114810   0.076   3.709   4.983 -2.9707  0.8639  0.5827
 1117SOL    HW214811   4.697   3.684   4.878 -0.9555  0.8821  1.1151
 1118SOL     OW14812   0.348   2.502   7.398  0.1726 -0.0757 -0.0958
 1118SOL    HW114813   0.371   2.459   7.480 -1.3325 -0.4722  0.1175
 1118SOL    HW214814   0.414   2.571   7.397  0.2074 -0.1066  0.3273
 1119SOL     OW14815   0.406   0.065   9.968  0.1906  0.4365 -0.0513
 1119SOL    HW114816   0.321   0.022   9.960  0.7912 -1.1685  2.2135
 1119SOL    HW214817   0.374   0.137  10.022  1.0710  0.2030  0.7833
 1120SOL     OW14818   0.864   2.459   3.955  0.3672 -0.1100  0.2398
 1120SOL    HW114819   0.868   2.436   3.862  3.8739  1.4115  0.0147
 1120SOL    HW214820   0.953   2.433   3.980  0.2965 -0.2064  0.3919
 1121SOL     OW14821   0.340   3.887   6.975 -0.7110  0.4207  0.1297
 1121SOL    HW114822   0.258   3.937   6.970 -0.3863  0.7612 -1.8248
 1121SOL    HW214823   0.400   3.924   6.910  2.0593 -0.5332  2.1585
 1122SOL     OW14824   3.380   1.533   9.597  0.0455  0.6036 -0.2545
 1122SOL    HW114825   3.334   1.455   9.627 -0.9237  1.5818  0.8233
 1122SOL    HW214826   3.318   1.564   9.531  1.0042 -0.1306 -1.4923
 1123SOL     OW14827   4.594   3.389   1.330 -0.1984 -0.5389  0.0620
 1123SOL    HW114828   4.551   3.320   1.280  1.4648 -0.4783 -1.4262
 1123SOL    HW214829   4.546   3.387   1.413  0.0171 -1.9603  0.1542
 1124SOL     OW14830   3.427   1.346   5.981 -0.3078 -0.0614 -0.0189
 1124SOL    HW114831   3.460   1.394   5.905  1.6925 -1.0563  0.2449
 1124SOL    HW214832   3.336   1.376   5.982 -0.0077  0.9224 -2.6610
 1125SOL     OW14833   0.968   1.108   8.263 -0.4986  0.1692  0.3238
 1125SOL    HW114834   0.978   1.126   8.170 -0.8990 -0.6311  0.1300
 1125SOL    HW214835   0.913   1.030   8.265  0.4189 -0.4868 -0.2626
 1126SOL     OW14836   1.847   0.454  10.994  0.1285  0.5896  0.1796
 1126SOL    HW114837   1.852   0.410  11.080 -3.2872 -0.2780 -0.0767
 1126SOL    HW214838   1.761   0.497  10.996  0.6092  1.6314 -1.6730
 1127SOL     OW14839   1.569   3.098   2.640 -0.0545 -0.0186 -0.2234
 1127SOL    HW114840   1.491   3.131   2.684  0.3919 -0.1651  0.6896
 1127SOL    HW214841   1.521   3.030   2.593 -1.4212  1.0268 -0.3388
 1128SOL     OW14842   3.517   4.028  10.297  0.3209 -0.2613 -0.0235
 1128SOL    HW114843   3.559   4.112  10.317  1.4690 -0.4063 -1.8219
 1128SOL    HW214844   3.431   4.043  10.337  0.6679  1.8431 -0.0563
 1129SOL     OW14845   2.471   3.149   3.219 -0.2787 -0.3316  0.1054
 1129SOL    HW114846   2.396   3.194   3.181  0.6859  2.7084  1.7839
 1129SOL    HW214847   2.479   3.079   3.155  0.0892  0.3351 -0.5881
 1130SOL     OW14848   0.704   0.842   7.194  0.7527 -0.2887 -0.4227
 1130SOL    HW114849   0.752   0.881   7.268  1.9681  2.0976 -2.4440
 1130SOL    HW214850   0.669   0.760   7.227 -1.0102  0.2586 -0.9637
 1131SOL     OW14851   2.215   3.683  13.603 -0.7677 -0.0300  0.5665
 1131SOL    HW114852   2.132   3.638  13.589  0.1538 -1.4478 -0.3755
 1131SOL    HW214853   2.181   3.769  13.629 -2.1917 -0.1141 -1.0869
 1132SOL     OW14854   2.750   0.665   3.348  0.3270 -0.0112 -0.2491
 1132SOL    HW114855   2.838   0.627   3.344 -0.0255 -1.1042  2.4626
 1132SOL    HW214856   2.702   0.585   3.370 -1.0865  1.4915  2.0968
 1133SOL     OW14857   3.448   4.456   9.374 -0.2469  0.1558  0.0740
 1133SOL    HW114858   3.493   4.376   9.398 -1.0133 -0.4784 -0.6090
 1133SOL    HW214859   3.447   4.499   9.459  1.8661  2.8569 -1.2723
 1134SOL     OW14860   2.376   0.394   5.024  0.0709 -0.2773 -0.3726
 1134SOL    HW114861   2.462   0.435   5.034  0.7214 -1.1045 -2.5852
 1134SOL    HW214862   2.394   0.306   5.056 -1.9308 -1.3748 -2.3403
 1135SOL     OW14863   2.539   4.334   2.374  0.7217 -0.3026 -0.2555
 1135SOL    HW114864   2.502   4.408   2.326  0.6540  0.0033  0.2684
 1135SOL    HW214865   2.463   4.277   2.363  0.1302  0.7969 -1.8020
 1136SOL     OW14866   4.513   4.033   6.051 -0.2357  0.4620 -0.1134
 1136SOL    HW114867   4.588   4.092   6.044  0.7153 -0.7024  0.3065
 1136SOL    HW214868   4.498   4.036   6.146  2.6502 -0.5666  0.3686
 1137SOL     OW14869   4.237   3.611   3.407  0.5001  0.6492 -0.6562
 1137SOL    HW114870   4.165   3.549   3.397  1.0591 -0.1375  0.0936
 1137SOL    HW214871   4.194   3.676   3.462  2.6090  0.6904  0.9879
 1138SOL     OW14872   2.418   0.294  15.512  0.4167 -0.4916  0.1576
 1138SOL    HW114873   2.457   0.207  15.519  0.5502 -0.4519 -0.1076
 1138SOL    HW214874   2.399   0.301  15.418 -3.4578  0.8014  1.0024
 1139SOL     OW14875   3.221   1.038  10.428  0.6351  0.1223 -0.0425
 1139SOL    HW114876   3.172   1.120  10.417 -1.8483 -1.2728  0.6438
 1139SOL    HW214877   3.149   0.979  10.448 -0.7729  2.2237  1.0564
 1140SOL     OW14878   0.743   1.126  15.765 -0.0921 -0.0951 -0.2516
 1140SOL    HW114879   0.819   1.081  15.801 -0.7698 -1.1444 -0.1145
 1140SOL    HW214880   0.781   1.211  15.744  1.9559 -0.9976 -0.2435
 1141SOL     OW14881   1.787   0.446   1.477  0.1047  0.0166  0.4969
 1141SOL    HW114882   1.760   0.483   1.561 -1.8423 -0.1940 -0.0363
 1141SOL    HW214883   1.851   0.513   1.453 -1.8244  1.4543 -0.6783
 1142SOL     OW14884   2.227   0.453   6.956  0.1231 -0.1347 -0.2192
 1142SOL    HW114885   2.135   0.476   6.944 -0.2232 -1.8322 -0.7645
 1142SOL    HW214886   2.260   0.521   7.016  0.1749  0.6786 -1.1782
 1143SOL     OW14887   3.244   2.919   8.785  0.2646  0.0666 -0.6828
 1143SOL    HW114888   3.281   2.852   8.726 -0.4439  0.0533 -1.1084
 1143SOL    HW214889   3.273   2.997   8.737 -0.8244  0.0739 -1.3231
 1144SOL     OW14890   1.602   4.088  16.393  0.5038 -0.4612 -0.2795
 1144SOL    HW114891   1.649   4.069  16.311 -0.5325  1.9808 -1.4552
 1144SOL    HW214892   1.523   4.035  16.383  2.7760 -3.7547 -1.0099
 1145SOL     OW14893   3.842   1.447   0.399  0.0277 -0.5762  0.2986
 1145SOL    HW114894   3.813   1.484   0.483 -0.0883 -0.3583  0.1613
 1145SOL    HW214895   3.931   1.422   0.421  0.5829 -1.2115 -2.7946
 1146SOL     OW14896   0.028   4.150  15.714  0.0019  0.0551 -0.6561
 1146SOL    HW114897   4.691   4.174  15.784  2.3573  2.8473  0.4361
 1146SOL    HW214898   0.100   4.213  15.711 -0.3683  0.5118  0.1018
 1147SOL     OW14899   2.221   1.769   7.760  0.5115  0.3223  0.5162
 1147SOL    HW114900   2.299   1.752   7.813  1.9813  0.4662 -1.6098
 1147SOL    HW214901   2.160   1.783   7.833  1.5367  1.6962  1.1272
 1148SOL     OW14902   3.715   3.702  14.878 -0.3478  0.0460 -0.2585
 1148SOL    HW114903   3.719   3.626  14.936 -1.8732 -0.5687 -0.9643
 1148SOL    HW214904   3.803   3.739  14.885 -1.1201  2.5383 -3.7190
 1149SOL     OW14905   3.628   3.614  15.282  0.1909 -0.8927  0.2627
 1149SOL    HW114906   3.650   3.590  15.192 -1.2041 -1.3132  0.0363
 1149SOL    HW214907   3.715   3.611  15.323  0.5425  1.0454 -0.3061
 1150SOL     OW14908   1.932   3.494   9.032  0.3471 -0.5987 -0.0413
 1150SOL    HW114909   1.851   3.532   8.998  1.2634  0.2228 -1.3198
 1150SOL    HW214910   1.987   3.501   8.954 -0.4466  1.8168 -0.3901
 1151SOL     OW14911   1.108   2.794   7.486 -0.0788 -0.0032  0.1920
 1151SOL    HW114912   1.135   2.855   7.554  3.6356 -1.7988  0.3208
 1151SOL    HW214913   1.045   2.846   7.436 -0.3373  0.5117  1.0599
 1152SOL     OW14914   3.758   1.504   7.868 -0.2144  0.1174  0.7232
 1152SOL    HW114915   3.673   1.547   7.875 -0.3219 -0.1511  1.1137
 1152SOL    HW214916   3.745   1.429   7.927 -1.8487 -0.8411 -0.8772
 1153SOL     OW14917   1.767   2.048   9.062  0.5924 -0.6027 -0.0102
 1153SOL    HW114918   1.676   2.074   9.051 -0.1254 -1.1204  4.5135
 1153SOL    HW214919   1.781   1.960   9.027 -0.2049 -1.0974  0.8949
 1154SOL     OW14920   1.785   0.397  14.920  0.1238  0.2679 -0.0567
 1154SOL    HW114921   1.758   0.306  14.913  0.9564  0.1503 -1.6831
 1154SOL    HW214922   1.815   0.411  15.010 -2.5521 -0.1834  0.8987
 1155SOL     OW14923   4.349   1.763   9.977 -0.7565  0.7788 -0.1866
 1155SOL    HW114924   4.364   1.694  10.042  0.8192  1.2441 -0.0581
 1155SOL    HW214925   4.358   1.712   9.896 -0.6690  1.6305 -0.7144
 1156SOL     OW14926   4.236   0.869   3.116  0.2411  0.0041  0.4758
 1156SOL    HW114927   4.154   0.834   3.082  0.6214 -0.9327  0.4979
 1156SOL    HW214928   4.206   0.926   3.186 -1.5140 -3.9549  2.9572
 1157SOL     OW14929   4.121   4.461   3.091  0.7281  0.2266 -0.4983
 1157SOL    HW114930   4.170   4.484   3.170 -0.0031  0.5424 -0.1439
 1157SOL    HW214931   4.133   4.538   3.035  1.8042  1.1523  1.0202
 1158SOL     OW14932   4.121   1.459  10.888  0.2202 -0.1077 -0.5436
 1158SOL    HW114933   4.147   1.371  10.860 -0.5750 -1.1026  1.8522
 1158SOL    HW214934   4.068   1.440  10.965 -0.2718  2.7644 -0.1634
 1159SOL     OW14935   2.095   4.186   0.347  0.2027  0.1696 -0.2002
 1159SOL    HW114936   2.052   4.118   0.399 -0.1969 -0.3957 -1.2717
 1159SOL    HW214937   2.050   4.263   0.380  0.5849  0.3724 -0.1465
 1160SOL     OW14938   3.455   2.789   1.120  0.1730  0.0756 -0.4488
 1160SOL    HW114939   3.516   2.782   1.046 -0.7075  0.9576 -1.2617
 1160SOL    HW214940   3.423   2.879   1.122  0.4645  0.1710  0.0077
 1161SOL     OW14941   3.057   4.627   1.433 -0.0910 -0.3607 -0.1369
 1161SOL    HW114942   3.132   4.603   1.378 -0.4337  1.3205 -1.3501
 1161SOL    HW214943   3.023   4.704   1.387 -1.2042 -1.4302 -1.0911
 1162SOL     OW14944   4.059   3.413   2.576 -0.2852 -0.7533  0.2131
 1162SOL    HW114945   4.142   3.371   2.602  1.0422  0.9918 -1.2354
 1162SOL    HW214946   4.011   3.345   2.529  0.5200 -0.4813 -0.9882
 1163SOL     OW14947   3.311   0.097  13.191 -0.1169 -0.1838 -0.2152
 1163SOL    HW114948   3.321   0.051  13.274  0.2745  0.9326  0.3523
 1163SOL    HW214949   3.216   0.111  13.195 -0.3491 -2.2501  1.1320
 1164SOL     OW14950   3.637   2.212   7.188 -0.1744  0.6571  0.1150
 1164SOL    HW114951   3.553   2.180   7.221  0.4327  0.4307  1.4272
 1164SOL    HW214952   3.693   2.161   7.247  0.9024  1.6674 -0.0318
 1165SOL     OW14953   3.502   2.897  12.139  0.2074  0.0517  0.3228
 1165SOL    HW114954   3.595   2.874  12.138 -0.4293 -2.5609  0.8857
 1165SOL    HW214955   3.473   2.807  12.124  1.9315 -0.8016  2.0888
 1166SOL     OW14956   2.070   1.371  11.848 -0.1280  0.3237  0.5511
 1166SOL    HW114957   2.099   1.456  11.883  1.0034  0.4332 -0.6152
 1166SOL    HW214958   2.155   1.340  11.815 -1.7303 -3.7466  0.3475
 1167SOL     OW14959   2.996   3.892   7.069 -0.3326  0.0379  0.6300
 1167SOL    HW114960   3.043   3.920   6.990 -0.8867 -0.3543  0.1670
 1167SOL    HW214961   3.072   3.856   7.115 -1.0125 -3.4956 -1.0542
 1168SOL     OW14962   3.529   1.229   1.110  0.4988 -0.8945  0.2415
 1168SOL    HW114963   3.542   1.305   1.168  0.3423  0.4998 -1.5613
 1168SOL    HW214964   3.591   1.167   1.148  2.7688  1.4515  0.4044
 1169SOL     OW14965   2.987   2.381   4.317 -0.5032  0.0549  0.0467
 1169SOL    HW114966   2.939   2.380   4.234  0.4175  0.1314 -0.4901
 1169SOL    HW214967   2.916   2.381   4.381 -0.4975 -0.3389  0.0531
 1170SOL     OW14968   0.786   0.853   1.972  0.9068 -0.2057  0.0284
 1170SOL    HW114969   0.801   0.780   2.032  1.0140  0.9058  1.3558
 1170SOL    HW214970   0.777   0.914   2.045  1.9714 -1.9548  1.6179
 1171SOL     OW14971   1.146   3.862  12.670  0.2445  0.0979  0.1688
 1171SOL    HW114972   1.169   3.895  12.756 -0.3371  0.6059  0.1306
 1171SOL    HW214973   1.129   3.937  12.613 -0.7001 -0.1198  0.1601
 1172SOL     OW14974   3.500   2.057   5.634 -0.1168  0.1951  0.5763
 1172SOL    HW114975   3.545   2.112   5.570 -2.4855  2.1525  0.5994
 1172SOL    HW214976   3.564   2.006   5.683 -0.8026  0.9561  2.2549
 1173SOL     OW14977   4.377   4.504   0.769 -0.1864 -0.7453  0.0377
 1173SOL    HW114978   4.300   4.554   0.794  0.8238  1.9010 -2.1201
 1173SOL    HW214979   4.433   4.581   0.779  1.1089 -1.6384 -0.3140
 1174SOL     OW14980   1.750   2.072   6.053  0.1852  0.2602  0.0151
 1174SOL    HW114981   1.680   2.015   6.083 -1.6787  2.8082  0.4666
 1174SOL    HW214982   1.700   2.152   6.035  0.2734  0.4895  0.7765
 1175SOL     OW14983   0.513   3.782   6.750  0.1789  0.2563 -0.0923
 1175SOL    HW114984   0.584   3.728   6.714  0.2146 -0.4285  0.9738
 1175SOL    HW214985   0.561   3.863   6.766  0.0653  0.3643 -0.3160
 1176SOL     OW14986   3.236   2.637  10.022 -0.5069 -0.1819 -0.2661
 1176SOL    HW114987   3.238   2.726   9.989  0.4694  0.5919  1.8401
 1176SOL    HW214988   3.145   2.633  10.051  0.4703 -1.4232  2.6587
 1177SOL     OW14989   2.507   2.852   2.452  0.3923 -0.0172  0.3033
 1177SOL    HW114990   2.560   2.904   2.393 -0.3222 -0.7080 -0.9479
 1177SOL    HW214991   2.571   2.811   2.510 -1.6190  1.5386  3.6791
 1178SOL     OW14992   2.291   1.576  15.206  0.3982  0.1274 -0.3849
 1178SOL    HW114993   2.218   1.606  15.260  1.1656  1.7286 -0.2383
 1178SOL    HW214994   2.241   1.553  15.128 -1.8208 -0.0199  1.0710
 1179SOL     OW14995   2.185   2.183   3.873 -0.2020  0.4362  0.5865
 1179SOL    HW114996   2.234   2.224   3.944 -1.5244  0.2764  1.5735
 1179SOL    HW214997   2.258   2.143   3.824 -1.9525 -1.3601 -0.5405
 1180SOL     OW14998   3.806   1.214   3.742  0.2148 -0.2946  0.2429
 1180SOL    HW114999   3.822   1.122   3.761 -0.2378 -0.3376  0.4115
 1180SOL    HW215000   3.728   1.236   3.793 -0.8289 -0.2823 -1.3328
 1181SOL     OW15001   3.733   4.260   1.741 -0.1012  0.5280 -0.1781
 1181SOL    HW115002   3.664   4.304   1.790  0.8011  1.1743  0.5222
 1181SOL    HW215003   3.754   4.321   1.670  0.0051  1.3400  0.5425
 1182SOL     OW15004   1.126   0.537  16.023 -0.2359  0.0460 -0.0359
 1182SOL    HW115005   1.143   0.444  16.007  0.4618 -0.5120  3.9426
 1182SOL    HW215006   1.099   0.561  15.934  0.5091  1.4119  0.1039
 1183SOL     OW15007   0.698   1.208   6.295 -0.0098  0.0763  0.4823
 1183SOL    HW115008   0.746   1.184   6.374  0.1031  0.4214  0.5202
 1183SOL    HW215009   0.721   1.134   6.239  1.3774 -0.2011  1.4366
 1184SOL     OW15010   4.389   3.821   3.642  0.1014 -0.6514  0.0934
 1184SOL    HW115011   4.336   3.884   3.594  0.3583  0.0220  0.6826
 1184SOL    HW215012   4.323   3.759   3.675  0.0702 -0.4645  0.3772
 1185SOL     OW15013   1.711   3.485   5.972  0.3296 -0.6519  0.1246
 1185SOL    HW115014   1.738   3.419   6.036 -2.0380  1.0494  2.9120
 1185SOL    HW215015   1.629   3.456   5.931 -0.7345  1.7044  0.5699
 1186SOL     OW15016   0.948   0.260   3.269  0.1154 -0.0340  0.1818
 1186SOL    HW115017   0.869   0.210   3.291 -1.4540  0.8940 -3.2863
 1186SOL    HW215018   0.915   0.344   3.238  1.9218  0.7486  0.3728
 1187SOL     OW15019   1.253   2.059   7.532  0.2162  0.3517  0.1555
 1187SOL    HW115020   1.160   2.040   7.534  0.3808 -0.4831 -0.1518
 1187SOL    HW215021   1.260   2.081   7.439  0.6114  0.2468  0.1587
 1188SOL     OW15022   2.312   0.989   3.253 -0.0730 -0.2673  0.0434
 1188SOL    HW115023   2.402   0.982   3.283  0.1245 -0.8895 -0.6815
 1188SOL    HW215024   2.317   0.992   3.157  0.8113  0.8848  0.1319
 1189SOL     OW15025   1.797   3.174  16.248  0.3671 -0.4186 -0.1018
 1189SOL    HW115026   1.708   3.146  16.229 -0.3547  2.3094 -0.7867
 1189SOL    HW215027   1.823   3.218  16.167 -1.5331 -0.4427 -0.7315
 1190SOL     OW15028   0.676   1.939  10.339  0.2498 -0.6153 -0.3184
 1190SOL    HW115029   0.705   1.871  10.400  2.0282 -0.2124 -0.7094
 1190SOL    HW215030   0.625   1.995  10.396  0.3037  0.2104 -1.0828
 1191SOL     OW15031   0.697   1.883   7.193 -0.2150  0.1612  0.4686
 1191SOL    HW115032   0.790   1.883   7.217 -0.0458  0.9463 -0.1869
 1191SOL    HW215033   0.658   1.924   7.271 -0.9623  0.4722 -0.0729
 1192SOL     OW15034   2.070   1.669  12.499  0.7353  0.1431 -0.0051
 1192SOL    HW115035   2.160   1.668  12.466  0.4703 -0.8834 -0.7161
 1192SOL    HW215036   2.051   1.579  12.472  2.2640 -0.5580  1.1827
 1193SOL     OW15037   4.638   2.360   9.047 -0.0050  0.4262 -0.2685
 1193SOL    HW115038   4.585   2.288   9.080 -0.1695  0.1411 -1.1825
 1193SOL    HW215039   4.617   2.432   9.107  2.5946  0.4463  0.6481
 1194SOL     OW15040   4.141   0.732   1.073  1.1004 -0.5535  0.5295
 1194SOL    HW115041   4.129   0.638   1.085 -0.7787 -0.3612  0.1442
 1194SOL    HW215042   4.236   0.734   1.061  1.0913 -4.0574 -0.2184
 1195SOL     OW15043   3.690   1.765   4.718 -0.4443 -0.5844 -1.1010
 1195SOL    HW115044   3.766   1.819   4.697 -0.5410 -0.4996 -1.2324
 1195SOL    HW215045   3.708   1.691   4.661  0.1307 -0.6060 -0.8862
 1196SOL     OW15046   0.729   0.166   8.829  0.1460  0.0994 -0.2629
 1196SOL    HW115047   0.663   0.235   8.840  1.0521  1.2666 -1.9830
 1196SOL    HW215048   0.786   0.181   8.904 -1.0579  0.6900  0.5431
 1197SOL     OW15049   3.506   3.831   7.258  0.2575  0.6101 -0.4614
 1197SOL    HW115050   3.533   3.769   7.190 -2.0038 -2.9656  1.9353
 1197SOL    HW215051   3.580   3.891   7.256  0.6442  0.1650  1.1647
 1198SOL     OW15052   2.136   4.058   0.078 -0.2417  0.1075  0.0481
 1198SOL    HW115053   2.231   4.047   0.073 -0.3304 -1.2907  1.3767
 1198SOL    HW215054   2.120   4.056   0.172 -0.2488  3.9078  0.1061
 1199SOL     OW15055   4.135   1.979  16.290  0.1567  0.0959  0.0573
 1199SOL    HW115056   4.112   1.954  16.380  2.4690  0.4087  0.7383
 1199SOL    HW215057   4.174   2.066  16.302 -3.3291  1.3522  1.9549
 1200SOL     OW15058   4.653   2.650   6.443 -0.6527 -0.5030 -0.1529
 1200SOL    HW115059   0.010   2.631   6.491 -0.2146  0.8390 -0.3595
 1200SOL    HW215060   4.694   2.634   6.358 -0.7431  0.1609 -0.3228
 1201SOL     OW15061   1.548   2.459   5.429 -0.7954  0.0557 -0.6038
 1201SOL    HW115062   1.485   2.531   5.433  0.3540  1.0974 -1.0925
 1201SOL    HW215063   1.601   2.480   5.506  0.2456 -0.3154 -1.2123
 1202SOL     OW15064   3.023   1.052   8.789  0.5556 -0.2385 -0.2442
 1202SOL    HW115065   2.938   1.010   8.781 -1.0238  2.9327  0.0069
 1202SOL    HW215066   3.044   1.037   8.881  1.4448  1.8302 -0.0968
 1203SOL     OW15067   1.771   2.190   3.601 -0.1571 -0.0889  0.3657
 1203SOL    HW115068   1.855   2.205   3.644 -0.7884  0.3033  1.4738
 1203SOL    HW215069   1.704   2.191   3.669  0.0232 -0.7647  0.5488
 1204SOL     OW15070   2.576   1.656  14.905  0.0538  0.5428  0.5595
 1204SOL    HW115071   2.603   1.576  14.860 -1.9082  1.4000 -2.1338
 1204SOL    HW215072   2.555   1.624  14.992 -2.4837 -0.0239 -0.2558
 1205SOL     OW15073   3.046   1.523   3.933 -0.0905  0.0005  0.3935
 1205SOL    HW115074   2.958   1.511   3.897 -0.4646  0.4649  1.1408
 1205SOL    HW215075   3.014   1.513   4.023  1.4747  2.2371  1.2101
 1206SOL     OW15076   2.443   2.437   4.516 -0.3405  0.3157  0.1036
 1206SOL    HW115077   2.365   2.402   4.559 -0.9236  0.9679 -0.4195
 1206SOL    HW215078   2.502   2.440   4.591 -1.2506  2.8731  0.7195
 1207SOL     OW15079   3.035   2.787   1.510 -0.3604  0.2284 -0.0701
 1207SOL    HW115080   3.033   2.724   1.437  0.7926 -2.5094  2.2713
 1207SOL    HW215081   3.102   2.846   1.474 -0.2015  0.2267  0.2251
 1208SOL     OW15082   4.421   2.115   3.883 -0.2329  0.3293 -0.3958
 1208SOL    HW115083   4.374   2.070   3.813 -3.1118  2.0584  0.4249
 1208SOL    HW215084   4.363   2.189   3.896 -1.3887 -0.2892 -2.0201
 1209SOL     OW15085   1.537   4.371  13.729 -0.1580  0.3066 -0.3513
 1209SOL    HW115086   1.458   4.347  13.776 -0.6384  0.8777 -0.8749
 1209SOL    HW215087   1.501   4.450  13.691 -0.0254  0.4829 -0.1090
 1210SOL     OW15088   4.100   2.835   3.815  0.0856  0.1194 -0.5303
 1210SOL    HW115089   4.164   2.906   3.815  2.1121 -1.7150  1.1848
 1210SOL    HW215090   4.135   2.789   3.739 -1.6921 -1.6224 -0.3023
 1211SOL     OW15091   0.609   0.833  10.862  0.4843 -0.5022 -0.2133
 1211SOL    HW115092   0.672   0.832  10.935 -0.3042 -0.1146  0.4733
 1211SOL    HW215093   0.603   0.738  10.852  2.4488 -0.6679  0.2721
 1212SOL     OW15094   3.534   1.593   8.535  0.0687  0.0164  0.2888
 1212SOL    HW115095   3.584   1.655   8.587  0.2964  1.1354 -1.2563
 1212SOL    HW215096   3.598   1.585   8.464 -2.0705  0.9989 -1.7604
 1213SOL     OW15097   3.244   2.280   4.498 -0.2390 -0.3711  0.4853
 1213SOL    HW115098   3.169   2.284   4.438  0.4365 -0.9345 -0.4033
 1213SOL    HW215099   3.300   2.354   4.477  0.7120 -1.2650 -0.1555
 1214SOL     OW15100   1.433   4.605   1.494  0.0186 -0.1002 -0.5382
 1214SOL    HW115101   1.406   4.526   1.447 -0.8385 -0.1138 -0.0186
 1214SOL    HW215102   1.360   4.658   1.462 -2.4732 -1.5072  2.7973
 1215SOL     OW15103   2.491   3.102   8.356  0.4752 -0.3469  0.2663
 1215SOL    HW115104   2.542   3.053   8.420 -1.1639  0.8981  2.5200
 1215SOL    HW215105   2.517   3.055   8.277 -0.0352  0.2661 -0.2694
 1216SOL     OW15106   3.462   3.443   2.897 -0.3499 -0.3478  0.0449
 1216SOL    HW115107   3.535   3.504   2.901 -0.5132 -0.1689  0.2648
 1216SOL    HW215108   3.494   3.376   2.958  0.8810  1.2125  1.0889
 1217SOL     OW15109   1.559   2.832   4.839 -0.1056 -0.0206 -0.2794
 1217SOL    HW115110   1.526   2.916   4.871  2.2531  1.4466 -1.7409
 1217SOL    HW215111   1.478   2.789   4.811 -0.2295  0.5327 -0.7513
 1218SOL     OW15112   3.678   4.448   1.514  0.2695  0.1676 -0.2051
 1218SOL    HW115113   3.605   4.418   1.460  0.6235  0.3737 -0.7922
 1218SOL    HW215114   3.735   4.500   1.458 -0.7172  0.5283 -0.8735
 1219SOL     OW15115   2.100   2.448   2.521  0.0058  0.5854  0.2245
 1219SOL    HW115116   2.159   2.373   2.533 -0.2997  0.3174  0.0508
 1219SOL    HW215117   2.161   2.510   2.482 -0.2407  0.8140  0.1980
 1220SOL     OW15118   1.000   1.713   3.160  0.2435 -0.4361 -0.1914
 1220SOL    HW115119   0.956   1.657   3.097 -1.1160 -0.8749  1.1424
 1220SOL    HW215120   1.017   1.793   3.110  2.2562  1.0965  2.9298
 1221SOL     OW15121   3.960   2.720   9.627 -0.1238 -0.5967  0.4886
 1221SOL    HW115122   3.977   2.800   9.578 -1.5375 -0.1490  0.7144
 1221SOL    HW215123   3.901   2.754   9.695  0.0326  1.1003 -0.2494
 1222SOL     OW15124   4.464   0.000   8.388 -0.3533 -0.5764  0.5462
 1222SOL    HW115125   4.400   0.026   8.455 -2.4026 -1.2584 -1.1343
 1222SOL    HW215126   4.518   0.074   8.361 -0.7486 -0.1461  0.9338
 1223SOL     OW15127   2.531   2.875   6.496  0.1326  0.7409  0.6239
 1223SOL    HW115128   2.495   2.937   6.560  0.7367 -1.3975  3.0492
 1223SOL    HW215129   2.623   2.870   6.524  0.4844  0.3077 -0.6151
 1224SOL     OW15130   1.603   4.280  11.763  0.5301  0.0221 -0.3920
 1224SOL    HW115131   1.554   4.224  11.823 -0.0713  1.6796  0.6957
 1224SOL    HW215132   1.621   4.210  11.701  0.0028 -0.4818  0.0305
 1225SOL     OW15133   0.636   2.770   9.376 -0.8236 -0.8075 -0.9840
 1225SOL    HW115134   0.679   2.843   9.330  1.0116 -1.8603 -0.9210
 1225SOL    HW215135   0.587   2.814   9.445  3.2010  1.0904  0.6496
 1226SOL     OW15136   2.967   1.725  10.756  0.4066  0.1130  0.0879
 1226SOL    HW115137   3.018   1.803  10.733 -2.6822  2.0752 -0.0462
 1226SOL    HW215138   3.029   1.679  10.813  0.6080 -0.5774 -0.6936
 1227SOL     OW15139   3.016   2.138   8.489 -0.6677  0.8479  0.3937
 1227SOL    HW115140   3.036   2.049   8.516 -0.0495  1.2825  1.3736
 1227SOL    HW215141   3.080   2.158   8.421 -1.8831 -2.0416 -1.5482
 1228SOL     OW15142   4.454   3.687   7.005 -0.1234  0.0767 -0.1865
 1228SOL    HW115143   4.490   3.601   7.026 -0.5140 -0.0975 -0.2397
 1228SOL    HW215144   4.429   3.720   7.091 -0.6968  1.3948 -0.8562
 1229SOL     OW15145   0.728   4.478   6.351 -0.2128 -0.1909 -0.0011
 1229SOL    HW115146   0.771   4.435   6.276  0.4331 -0.0646  0.2992
 1229SOL    HW215147   0.797   4.538   6.378 -0.8475  0.5019  0.0605
 1230SOL     OW15148   3.826   1.746   2.551 -0.3582 -0.0529  0.5203
 1230SOL    HW115149   3.920   1.758   2.539 -0.2949 -1.4774 -0.4049
 1230SOL    HW215150   3.818   1.780   2.641  0.8295  2.3441 -0.2845
 1231SOL     OW15151   2.680   2.703   5.657 -0.6323 -0.2705  0.0638
 1231SOL    HW115152   2.710   2.789   5.627  0.3206 -1.2791 -1.8238
 1231SOL    HW215153   2.612   2.695   5.591  0.5950 -0.1759 -1.2166
 1232SOL     OW15154   0.010   3.310   2.309 -0.3225 -0.1589  0.2669
 1232SOL    HW115155   4.672   3.259   2.361  0.2539 -0.0891  1.0022
 1232SOL    HW215156   0.053   3.362   2.377 -0.5321 -0.8771  0.9403
 1233SOL     OW15157   2.978   1.042  14.993  0.4930  0.3014  0.1722
 1233SOL    HW115158   3.016   1.125  15.022 -1.8664  1.4933 -0.1428
 1233SOL    HW215159   3.063   1.009  14.965  0.0955 -0.6550  0.0979
 1234SOL     OW15160   4.658   0.321   3.367 -0.5232  0.1976  0.0009
 1234SOL    HW115161   0.012   0.264   3.369  0.4371  1.5492  0.6002
 1234SOL    HW215162   4.688   0.397   3.318 -0.6189 -0.1431 -0.5979
 1235SOL     OW15163   1.887   1.493   2.252 -0.0917  0.0281 -0.6623
 1235SOL    HW115164   1.854   1.583   2.243 -0.8788 -0.1892  0.0415
 1235SOL    HW215165   1.950   1.495   2.181  0.1615  0.4332 -0.4308
 1236SOL     OW15166   4.419   3.805   8.888  0.3313  0.2083 -1.0460
 1236SOL    HW115167   4.373   3.764   8.961 -0.2148 -1.0251 -2.0743
 1236SOL    HW215168   4.429   3.895   8.920  1.0793 -1.7892  4.3326
 1237SOL     OW15169   1.880   3.261   5.490 -0.2700 -0.1400 -0.0609
 1237SOL    HW115170   1.844   3.275   5.578 -0.0482  0.5147 -0.0712
 1237SOL    HW215171   1.882   3.350   5.455  0.2094  0.2968  1.0520
 1238SOL     OW15172   3.282   2.582   1.218 -0.2028  0.1302 -0.0144
 1238SOL    HW115173   3.311   2.499   1.181  1.3111 -0.3385  2.2883
 1238SOL    HW215174   3.354   2.634   1.182 -0.0949  1.0039  1.4753
 1239SOL     OW15175   0.797   0.602   2.954 -0.6931  0.1360 -0.0659
 1239SOL    HW115176   0.856   0.675   2.934  1.7769 -1.5990  0.8572
 1239SOL    HW215177   0.805   0.595   3.049  0.0861 -2.7779 -0.3541
 1240SOL     OW15178   0.213   1.690   8.236 -0.4693 -0.1156 -0.6206
 1240SOL    HW115179   0.229   1.785   8.236 -2.8367  0.2729 -3.5413
 1240SOL    HW215180   0.206   1.683   8.331  0.1877  0.7749 -0.5073
 1241SOL     OW15181   2.820   0.310   3.563  0.4561  0.2242  0.1789
 1241SOL    HW115182   2.804   0.231   3.614  0.6090  0.9354  1.3365
 1241SOL    HW215183   2.894   0.358   3.602  0.0412  2.3860 -1.7130
 1242SOL     OW15184   4.628   4.249   9.773  0.0596 -0.1241 -0.2274
 1242SOL    HW115185   4.667   4.319   9.720 -0.7936  0.4751 -0.0636
 1242SOL    HW215186   4.643   4.278   9.863 -0.6989 -1.2260  0.2533
 1243SOL     OW15187   0.358   1.455   4.862 -0.1527  0.6885 -0.0002
 1243SOL    HW115188   0.329   1.383   4.918 -1.6029  0.3214 -1.2275
 1243SOL    HW215189   0.449   1.432   4.842 -0.2116  0.5825 -0.1440
 1244SOL     OW15190   0.401   3.262   4.084  0.2286  0.2525  0.4747
 1244SOL    HW115191   0.431   3.176   4.113 -0.4828 -0.5025 -0.9774
 1244SOL    HW215192   0.477   3.319   4.096  0.7757 -0.3358 -0.2131
 1245SOL     OW15193   2.684   0.947   6.186 -0.0936 -0.6571 -0.0048
 1245SOL    HW115194   2.600   0.947   6.233  1.4676  1.3098  2.7509
 1245SOL    HW215195   2.733   1.009   6.239  0.8697 -1.8368  0.4909
 1246SOL     OW15196   2.277   1.074  11.456  0.2999 -0.2672 -0.2947
 1246SOL    HW115197   2.202   1.021  11.482  0.5389 -0.8176 -0.7267
 1246SOL    HW215198   2.233   1.127  11.390  0.0628  1.1640  1.0066
 1247SOL     OW15199   0.454   0.471  17.662  0.2323  0.1605 -0.5022
 1247SOL    HW115200   0.368   0.437  17.684  0.7359 -1.3781 -0.8614
 1247SOL    HW215201   0.488   0.489   0.054 -0.2793 -0.9356 -0.0847
 1248SOL     OW15202   3.755   2.260   2.896 -0.4179 -0.2094  0.0994
 1248SOL    HW115203   3.737   2.199   2.824 -0.6328  1.4518 -1.2718
 1248SOL    HW215204   3.838   2.300   2.869 -0.8208  0.1672 -0.5766
 1249SOL     OW15205   3.507   2.857   6.801 -0.2311  0.3572  0.1229
 1249SOL    HW115206   3.424   2.838   6.844 -0.6638  1.4695 -0.2333
 1249SOL    HW215207   3.558   2.892   6.874 -0.4395 -0.4765  0.6747
 1250SOL     OW15208   3.894   2.795   6.855 -0.3141 -0.0243 -0.3332
 1250SOL    HW115209   3.881   2.710   6.813  0.0102 -0.6167  0.7697
 1250SOL    HW215210   3.987   2.802   6.834 -0.3056 -1.7181 -0.8424
 1251SOL     OW15211   1.600   0.752   1.557 -0.1689  0.6036 -0.1234
 1251SOL    HW115212   1.636   0.782   1.640  1.6018  0.6640 -0.9272
 1251SOL    HW215213   1.512   0.715   1.569  0.7879 -1.1885  1.5021
 1252SOL     OW15214   0.384   1.439   7.055 -0.7965  0.2769  0.0194
 1252SOL    HW115215   0.431   1.501   7.110  0.4168  0.0478 -0.7484
 1252SOL    HW215216   0.380   1.368   7.119 -2.6150  0.1959 -0.1958
 1253SOL     OW15217   0.351   4.421   5.245  0.4017 -0.1731 -0.0014
 1253SOL    HW115218   0.381   4.475   5.318  1.1977 -1.3042  0.4986
 1253SOL    HW215219   0.417   4.352   5.240  2.3567  1.9172 -3.2229
 1254SOL     OW15220   3.566   2.159   6.728  0.1347  0.2826  0.1224
 1254SOL    HW115221   3.482   2.148   6.774  0.0550  0.9604  0.1369
 1254SOL    HW215222   3.550   2.245   6.691  0.3086  0.3544  0.2141
 1255SOL     OW15223   1.655   0.173   6.398 -0.2203  0.7296 -0.1048
 1255SOL    HW115224   1.721   0.240   6.380 -0.8084  0.7867 -1.9970
 1255SOL    HW215225   1.581   0.220   6.435 -0.8428 -2.0699  2.2748
 1256SOL     OW15226   0.322   2.703   2.221 -0.3288  0.3962 -0.4496
 1256SOL    HW115227   0.416   2.689   2.215 -0.2506  1.4622 -1.6431
 1256SOL    HW215228   0.287   2.615   2.204  0.5062 -0.2381  1.1141
 1257SOL     OW15229   2.060   0.435   8.330 -0.5417  0.2817  0.3989
 1257SOL    HW115230   2.036   0.452   8.421  0.0444  0.6341  0.4910
 1257SOL    HW215231   2.056   0.340   8.332  0.1010  0.1942 -2.8780
 1258SOL     OW15232   4.221   4.603  17.488  0.5145 -0.4706  0.4442
 1258SOL    HW115233   4.210   4.578  17.396  0.6056  2.2515 -0.2809
 1258SOL    HW215234   4.209   4.695  17.465  0.4133 -0.0643  2.1401
 1259SOL     OW15235   0.125   3.257   2.097 -0.4166 -0.6846 -0.0784
 1259SOL    HW115236   0.072   3.282   2.173 -2.3607 -0.5574 -1.4757
 1259SOL    HW215237   0.062   3.207   2.044 -1.5683 -1.3632  1.9431
 1260SOL     OW15238   2.288   1.123   0.984  0.6429  0.0795  0.1424
 1260SOL    HW115239   2.194   1.121   1.006  0.1166  1.6783 -1.9812
 1260SOL    HW215240   2.300   1.029   0.984  2.4100  0.3184 -0.5176
 1261SOL     OW15241   3.517   0.254   8.137  0.4523 -0.0204  0.2853
 1261SOL    HW115242   3.446   0.224   8.194  0.0829  1.4093  0.5714
 1261SOL    HW215243   3.468   0.307   8.074 -1.1386  0.0755  1.5850
 1262SOL     OW15244   3.972   2.381  16.064 -0.2894  0.1417  0.3930
 1262SOL    HW115245   3.895   2.437  16.053 -0.0428  0.6181  1.0951
 1262SOL    HW215246   4.011   2.430  16.137  1.0737 -2.2478  1.2811
 1263SOL     OW15247   3.154   4.117   9.282  0.2543  0.4599 -0.0696
 1263SOL    HW115248   3.144   4.036   9.332 -0.3123  0.5177 -0.0873
 1263SOL    HW215249   3.068   4.157   9.295 -0.2880 -1.1537  1.2371
 1264SOL     OW15250   4.601   1.789   9.054  0.1691 -0.5281  0.5907
 1264SOL    HW115251   4.631   1.836   9.132 -1.5676  0.2724  0.7927
 1264SOL    HW215252   4.627   1.846   8.982  0.2781  0.0851  1.1190
 1265SOL     OW15253   0.663   1.504   3.985 -0.2810  0.5099  0.4629
 1265SOL    HW115254   0.687   1.462   4.068 -0.9351  0.3147  0.5575
 1265SOL    HW215255   0.716   1.582   3.975 -2.2029  1.5096 -2.0740
 1266SOL     OW15256   0.711   3.973   4.266  0.7366 -0.2743  0.2198
 1266SOL    HW115257   0.687   4.066   4.270 -0.5911 -0.7184  2.5214
 1266SOL    HW215258   0.658   3.936   4.196 -0.3340 -0.5182  1.1555
 1267SOL     OW15259   1.067   3.081   2.500  0.9015  1.2674 -0.4662
 1267SOL    HW115260   1.010   3.124   2.436 -1.9325  0.6854  1.6979
 1267SOL    HW215261   1.152   3.101   2.461  2.5662 -2.2642  1.2634
 1268SOL     OW15262   3.917   3.431   0.504  0.5776  0.3958  0.0024
 1268SOL    HW115263   3.855   3.412   0.575  1.0427 -0.6376  0.1344
 1268SOL    HW215264   3.924   3.524   0.525 -2.3427  0.9938 -1.5989
 1269SOL     OW15265   0.876   2.957   8.518  0.1254  0.3654 -0.3376
 1269SOL    HW115266   0.803   2.904   8.485 -0.5213  0.3945  1.0484
 1269SOL    HW215267   0.825   3.022   8.566 -0.6318 -0.1953 -0.3668
 1270SOL     OW15268   3.759   2.995   9.015  0.5896 -0.0617  0.0159
 1270SOL    HW115269   3.700   2.949   8.955  0.9825  0.4868 -0.7976
 1270SOL    HW215270   3.813   2.918   9.033 -1.2187 -1.1008  0.9641
 1271SOL     OW15271   3.250   2.927   7.503  0.3367  0.2183 -0.5332
 1271SOL    HW115272   3.323   2.961   7.554  0.9661 -1.7678 -0.0990
 1271SOL    HW215273   3.277   2.835   7.504 -0.6434 -0.1009 -2.5536
 1272SOL     OW15274   2.203   4.473   8.070 -0.0516 -0.4371  0.1773
 1272SOL    HW115275   2.282   4.498   8.022  0.9548 -2.7757  0.5756
 1272SOL    HW215276   2.242   4.422   8.141 -1.8072 -1.1754  0.6148
 1273SOL     OW15277   1.211   3.074   4.932 -0.1303 -0.1445  0.2086
 1273SOL    HW115278   1.277   3.141   4.944 -0.6145  0.1582  1.2003
 1273SOL    HW215279   1.151   3.120   4.873 -0.2768  1.1321  1.3528
 1274SOL     OW15280   1.217   1.916   1.788 -0.1778  0.5550 -0.0158
 1274SOL    HW115281   1.243   2.003   1.817 -1.0096  0.6120  0.5744
 1274SOL    HW215282   1.146   1.903   1.851 -0.1631 -2.6048 -0.6062
 1275SOL     OW15283   2.455   0.319   2.428 -0.1293 -0.2428 -0.7157
 1275SOL    HW115284   2.516   0.245   2.434 -1.3748 -1.3808 -2.0419
 1275SOL    HW215285   2.502   0.374   2.365  0.6574 -0.4655 -0.3312
 1276SOL     OW15286   2.213   0.952   4.971 -0.4205  0.0607 -0.5960
 1276SOL    HW115287   2.231   0.882   4.908 -0.6490 -0.0708 -0.5145
 1276SOL    HW215288   2.120   0.938   4.986 -0.2885 -0.7466 -0.5249
 1277SOL     OW15289   2.953   4.677   8.880  0.4844 -0.4114 -0.2465
 1277SOL    HW115290   2.961   4.705   8.789  1.8258  0.9830  0.2977
 1277SOL    HW215291   2.930   4.585   8.870  1.8442 -1.0376  2.4683
 1278SOL     OW15292   3.933   1.918   0.494 -0.4069  0.5706  0.2593
 1278SOL    HW115293   3.975   1.832   0.483 -2.0242 -0.2302  0.4418
 1278SOL    HW215294   3.889   1.881   0.570 -1.7093  0.3479 -0.6016
 1279SOL     OW15295   0.153   4.327   7.111  0.1276  0.0761 -0.0518
 1279SOL    HW115296   0.113   4.413   7.094  0.8905  0.6379  0.9917
 1279SOL    HW215297   0.235   4.348   7.155  1.0837 -1.0274 -1.3240
 1280SOL     OW15298   3.905   1.134   6.518  0.2559 -0.2105 -0.5589
 1280SOL    HW115299   3.827   1.190   6.524 -0.3325 -1.1083  0.1759
 1280SOL    HW215300   3.974   1.192   6.553 -0.3506  1.1190 -1.5388
 1281SOL     OW15301   3.988   3.192   9.378 -0.5801 -0.1268 -0.4117
 1281SOL    HW115302   3.958   3.270   9.331  0.9075  1.0444  0.5974
 1281SOL    HW215303   4.043   3.233   9.445  0.9611 -0.7293 -1.3250
 1282SOL     OW15304   0.593   0.723   3.120  0.4024  0.2823 -0.0866
 1282SOL    HW115305   0.658   0.717   3.049 -0.0487 -0.1297 -0.4673
 1282SOL    HW215306   0.520   0.751   3.066 -0.1189 -1.0868 -0.1067
 1283SOL     OW15307   3.671   2.740   9.304  0.9494  0.0413 -0.1734
 1283SOL    HW115308   3.613   2.809   9.273  0.0988  0.0379  1.4238
 1283SOL    HW215309   3.677   2.667   9.241 -0.4525 -0.6777  0.5298
 1284SOL     OW15310   2.881   2.349   4.056 -0.0406  0.0115 -0.2429
 1284SOL    HW115311   2.867   2.429   4.006 -0.9288 -0.4009 -0.6621
 1284SOL    HW215312   2.899   2.289   3.984  0.0567 -1.8486  1.3389
 1285SOL     OW15313   0.373   1.015   9.315 -0.1992  0.4504  0.1756
 1285SOL    HW115314   0.326   0.980   9.391 -1.0235 -1.6218 -1.2672
 1285SOL    HW215315   0.310   1.075   9.275  0.2126 -0.4267 -1.8261
 1286SOL     OW15316   0.895   2.030   8.098  0.0918 -0.1469  0.0306
 1286SOL    HW115317   0.982   2.052   8.132 -0.1879 -1.8811  1.8507
 1286SOL    HW215318   0.889   1.941   8.131 -1.3242 -0.0433  0.0454
 1287SOL     OW15319   4.228   1.980   7.635  0.0507  0.1126  0.1270
 1287SOL    HW115320   4.307   1.931   7.613 -0.4697  0.6085 -2.7706
 1287SOL    HW215321   4.175   1.909   7.670  0.2723 -0.2514 -0.2745
 1288SOL     OW15322   2.969   0.392   6.474  0.2469 -0.5017  0.5220
 1288SOL    HW115323   2.886   0.347   6.492 -0.5877  0.4795 -0.8416
 1288SOL    HW215324   2.943   0.478   6.509 -1.2463  0.1687 -2.2453
 1289SOL     OW15325   2.110   4.350  13.781  0.0296  0.3224  0.6228
 1289SOL    HW115326   2.143   4.440  13.770  2.5484 -0.6330  0.3936
 1289SOL    HW215327   2.125   4.327  13.872 -1.2759  0.1144  0.7902
 1290SOL     OW15328   2.198   3.374  16.244 -0.3186  0.6579  0.1878
 1290SOL    HW115329   2.208   3.405  16.154 -1.7530  2.7771  0.7594
 1290SOL    HW215330   2.236   3.287  16.232 -0.4731  0.7147 -0.7243
 1291SOL     OW15331   2.245   2.325   6.295 -0.6986 -0.2573  0.1700
 1291SOL    HW115332   2.310   2.287   6.354 -0.9391 -2.6856 -1.1533
 1291SOL    HW215333   2.181   2.360   6.357 -2.0707 -2.1068 -0.2099
 1292SOL     OW15334   1.609   4.633  16.962  0.0277  0.6307  0.2039
 1292SOL    HW115335   1.667   4.580  16.907 -0.8657 -0.0447 -0.0902
 1292SOL    HW215336   1.537   4.654  16.903 -1.7050  0.2028  2.1518
 1293SOL     OW15337   0.183   0.509   8.969  0.2936 -0.5816  0.1807
 1293SOL    HW115338   0.149   0.565   9.039 -1.1138 -0.4365 -0.6182
 1293SOL    HW215339   0.277   0.524   8.980 -0.2559  1.8925  1.5566
 1294SOL     OW15340   3.323   2.366   2.080  0.0253 -0.0780  0.0598
 1294SOL    HW115341   3.324   2.270   2.074  0.9329 -0.0747  0.1956
 1294SOL    HW215342   3.241   2.379   2.128  0.4697  0.3897  0.6894
 1295SOL     OW15343   0.115   4.428  16.994 -0.2324  0.9995 -0.3696
 1295SOL    HW115344   0.034   4.478  16.991 -1.8477 -1.5810  0.4169
 1295SOL    HW215345   0.090   4.350  17.043 -1.2951  1.7046  0.2136
 1296SOL     OW15346   1.162   3.982  10.872 -0.1125  0.1020  0.0229
 1296SOL    HW115347   1.075   3.946  10.852 -0.9762  1.0040  2.0780
 1296SOL    HW215348   1.173   3.992  10.967  0.2448 -2.6422  0.2456
 1297SOL     OW15349   0.302   2.486  17.341 -0.1783 -0.3597  0.1539
 1297SOL    HW115350   0.345   2.566  17.310 -1.0109 -0.1947 -0.5734
 1297SOL    HW215351   0.282   2.440  17.259 -2.0473  2.5898 -1.0556
 1298SOL     OW15352   0.937   3.805  10.867 -0.0709 -0.3102  0.0670
 1298SOL    HW115353   0.887   3.752  10.805  0.2901  0.4738 -0.9045
 1298SOL    HW215354   0.923   3.751  10.945  0.7246 -0.6685 -0.0419
 1299SOL     OW15355   1.135   4.028   3.102 -0.4811  0.4762  0.7452
 1299SOL    HW115356   1.189   4.106   3.092 -3.0976  2.0662 -1.2646
 1299SOL    HW215357   1.142   4.011   3.195 -2.3146 -0.6741  0.6711
 1300SOL     OW15358   1.023   1.977   7.221 -0.3525 -0.3659  0.1130
 1300SOL    HW115359   1.105   2.028   7.222 -1.3397  1.2385 -0.3393
 1300SOL    HW215360   0.972   2.018   7.291 -1.0635 -1.4106  0.2047
 1301SOL     OW15361   4.687   3.035   7.497  0.5055  0.1922  0.2450
 1301SOL    HW115362   4.695   3.105   7.561 -0.2257  2.3815 -2.0549
 1301SOL    HW215363   4.622   3.061   7.432  1.4397  0.8256 -0.4341
 1302SOL     OW15364   1.751   3.816   0.669  0.4357 -0.1419  0.2443
 1302SOL    HW115365   1.663   3.780   0.666  1.1549 -1.8413 -0.4001
 1302SOL    HW215366   1.752   3.891   0.728  1.0508 -0.4427  0.6228
 1303SOL     OW15367   2.482   1.613  14.013  0.1091 -0.5713 -0.2299
 1303SOL    HW115368   2.405   1.573  14.054  0.2930  1.9783  2.6267
 1303SOL    HW215369   2.530   1.613  14.096  1.3902 -1.7082 -0.9607
 1304SOL     OW15370   4.552   0.772  10.502  0.5164 -0.1286  0.7083
 1304SOL    HW115371   4.604   0.700  10.538  1.2080  0.5728  1.1016
 1304SOL    HW215372   4.615   0.842  10.490 -0.6919  0.8766  0.2446
 1305SOL     OW15373   3.073   3.355   7.400  0.6152 -0.0496  0.0292
 1305SOL    HW115374   3.130   3.346   7.476  2.1448 -0.7160 -1.1753
 1305SOL    HW215375   3.002   3.300   7.433  1.6508 -0.7843  1.0128
 1306SOL     OW15376   3.958   2.152   8.668  0.2690  0.3822  0.3069
 1306SOL    HW115377   3.973   2.245   8.654 -1.1927  0.3679 -1.3356
 1306SOL    HW215378   3.906   2.139   8.748  0.9632  0.2912  0.7441
 1307SOL     OW15379   0.245   2.570  15.536  0.2987  0.6663  0.0609
 1307SOL    HW115380   0.221   2.607  15.451 -0.1440 -1.6297 -0.8215
 1307SOL    HW215381   0.185   2.608  15.600 -1.0258  1.5022 -1.6854
 1308SOL     OW15382   1.499   4.117  12.439 -0.4057 -0.2530  0.2693
 1308SOL    HW115383   1.527   4.206  12.417  1.2705 -0.8603 -0.0685
 1308SOL    HW215384   1.461   4.135  12.525 -1.7686 -1.0444 -0.1718
 1309SOL     OW15385   3.215   0.280   2.501  0.3835  0.2886 -0.0142
 1309SOL    HW115386   3.182   0.334   2.572 -1.4648  2.3181 -2.4098
 1309SOL    HW215387   3.238   0.203   2.553  0.0305  0.5143  0.4725
 1310SOL     OW15388   2.424   2.440   1.942  0.1757 -0.6693 -0.3537
 1310SOL    HW115389   2.464   2.360   1.907 -1.0849 -1.9524  1.1197
 1310SOL    HW215390   2.358   2.455   1.874 -0.7102  0.6721  0.7945
 1311SOL     OW15391   0.075   4.463   4.322  0.1620 -0.6008 -0.5764
 1311SOL    HW115392   0.041   4.454   4.411  0.1575  0.4240 -0.4792
 1311SOL    HW215393   0.085   4.558   4.329  0.3899 -0.7342  0.9371
 1312SOL     OW15394   1.405   0.223  13.281 -0.5711 -0.0822  0.2125
 1312SOL    HW115395   1.476   0.159  13.289  1.2769  1.7693 -1.3721
 1312SOL    HW215396   1.445   0.299  13.323 -0.7207 -0.7549  1.5719
 1313SOL     OW15397   0.151   1.359   7.523  0.2770  0.1887  0.3047
 1313SOL    HW115398   0.113   1.414   7.591  0.1693  1.3072 -0.6600
 1313SOL    HW215399   0.065   1.349   7.482  0.1402 -0.1503  0.6678
 1314SOL     OW15400   1.942   1.014   8.062 -0.4729  0.2509  0.2086
 1314SOL    HW115401   1.988   0.983   7.984 -2.0608 -0.6098 -0.3937
 1314SOL    HW215402   2.014   1.012   8.125 -1.6349 -0.7655  1.4932
 1315SOL     OW15403   0.788   2.855  16.039  0.5535 -0.0477  0.1627
 1315SOL    HW115404   0.782   2.844  16.134  0.1278 -0.8701  0.0443
 1315SOL    HW215405   0.771   2.949  16.037  2.6249  0.2889 -2.2124
 1316SOL     OW15406   0.066   1.866   2.674  0.0200 -0.0209 -0.2336
 1316SOL    HW115407   4.723   1.931   2.652 -0.2714 -0.2337  0.0298
 1316SOL    HW215408   0.121   1.878   2.596 -0.1763 -1.4791 -0.5957
 1317SOL     OW15409   1.542   4.218   0.880 -0.3850  0.0311 -0.0586
 1317SOL    HW115410   1.565   4.297   0.928 -1.2841  0.1728  0.1277
 1317SOL    HW215411   1.457   4.238   0.840  0.1387  0.8781 -0.7580
 1318SOL     OW15412   1.883   3.027   3.745  0.2335  0.2349  0.2634
 1318SOL    HW115413   1.864   3.121   3.739  0.2216  0.2734  0.8857
 1318SOL    HW215414   1.891   3.013   3.839 -1.2142 -0.2265  0.3128
 1319SOL     OW15415   1.919   1.128   3.406  0.0348  0.9011  0.9412
 1319SOL    HW115416   1.883   1.186   3.473 -0.8558  1.4163  0.0123
 1319SOL    HW215417   1.844   1.115   3.348 -0.2471 -1.7558  1.9154
 1320SOL     OW15418   1.750   3.245   5.212 -0.8784 -0.0318  0.7757
 1320SOL    HW115419   1.809   3.288   5.273 -0.4297  0.8758 -0.2930
 1320SOL    HW215420   1.731   3.308   5.142 -1.1450 -1.4380 -0.4243
 1321SOL     OW15421   3.287   4.594   0.446  0.5299 -0.5459 -0.5873
 1321SOL    HW115422   3.192   4.599   0.453  0.6286 -1.5105  1.5621
 1321SOL    HW215423   3.293   4.513   0.396  3.1797 -1.2687  0.9064
 1322SOL     OW15424   2.944   3.209   9.356  0.0101  0.0393 -0.3871
 1322SOL    HW115425   2.976   3.227   9.444 -0.5740 -0.5720 -0.0574
 1322SOL    HW215426   2.861   3.165   9.370 -1.3423  2.8000  0.2953
 1323SOL     OW15427   2.676   4.466   0.814 -0.1812 -0.2299  0.4978
 1323SOL    HW115428   2.752   4.524   0.817 -0.3238 -0.1598  2.3930
 1323SOL    HW215429   2.723   4.393   0.773  1.7671  1.2818  0.0494
 1324SOL     OW15430   4.648   1.819   7.934 -0.3326 -0.7232  0.7385
 1324SOL    HW115431   4.629   1.835   8.026 -0.7802  0.6135  0.4170
 1324SOL    HW215432   4.582   1.880   7.902 -1.4052 -3.3062 -2.0127
 1325SOL     OW15433   4.195   0.053   8.952 -0.0134  0.2230  0.0236
 1325SOL    HW115434   4.108   0.093   8.955  0.0136  0.3078 -0.3452
 1325SOL    HW215435   4.241   0.108   8.888  0.1944  0.1419  0.1031
 1326SOL     OW15436   0.945   2.612  15.594  0.4166 -0.2729  0.0610
 1326SOL    HW115437   0.963   2.531  15.640 -0.6024  0.8768  2.4801
 1326SOL    HW215438   0.924   2.665  15.671  2.5639 -0.5578  0.8260
 1327SOL     OW15439   3.332   2.348   1.102  0.6472 -0.1321  0.2281
 1327SOL    HW115440   3.243   2.369   1.073  0.2655 -3.1927 -0.8156
 1327SOL    HW215441   3.342   2.254   1.088  0.3047  0.1835 -2.2599
 1328SOL     OW15442   0.507   3.011   3.298  0.2381  0.6921  0.1858
 1328SOL    HW115443   0.561   3.051   3.365  2.0380  0.5246 -1.1558
 1328SOL    HW215444   0.442   2.959   3.344  0.4033  0.3864  0.0733
 1329SOL     OW15445   1.128   2.028   2.408 -0.4382  0.1838 -0.3591
 1329SOL    HW115446   1.124   1.997   2.498  0.3362 -2.4215 -1.2310
 1329SOL    HW215447   1.035   2.039   2.386 -0.9526 -1.6381  0.9159
 1330SOL     OW15448   1.364   1.706   7.215  0.1924 -0.1428 -0.0959
 1330SOL    HW115449   1.444   1.736   7.173 -0.8947  0.7352 -1.5390
 1330SOL    HW215450   1.312   1.690   7.137 -0.3579 -0.5199  0.3450
 1331SOL     OW15451   1.627   2.436  11.226  0.6678  0.7791  0.0405
 1331SOL    HW115452   1.590   2.354  11.258  0.7441  1.3956  1.7075
 1331SOL    HW215453   1.695   2.460  11.288 -1.6313 -0.6319  3.1295
 1332SOL     OW15454   4.694   3.375  16.083 -0.2605 -0.4040  0.7748
 1332SOL    HW115455   4.682   3.296  16.031  0.3344 -0.0547  0.1095
 1332SOL    HW215456   0.063   3.373  16.109 -0.5353 -2.1345  1.6352
 1333SOL     OW15457   2.867   1.216   2.687  0.0937 -0.2213 -0.2969
 1333SOL    HW115458   2.916   1.260   2.617 -3.1547  1.3564 -1.5961
 1333SOL    HW215459   2.945   1.201   2.741 -0.2863  0.4959  0.4505
 1334SOL     OW15460   1.519   3.878   4.327  0.0572 -0.3965  0.7244
 1334SOL    HW115461   1.549   3.860   4.239 -0.6917 -2.6157  0.9234
 1334SOL    HW215462   1.435   3.832   4.329 -1.6801  2.7737  0.7327
 1335SOL     OW15463   2.950   2.751   9.292  0.3065 -0.2784 -0.0064
 1335SOL    HW115464   3.043   2.766   9.273 -0.2303  2.4506 -0.4659
 1335SOL    HW215465   2.924   2.825   9.347 -3.5122  0.3970 -2.7222
 1336SOL     OW15466   3.618   3.535   8.229 -0.0593  0.8044 -0.0267
 1336SOL    HW115467   3.662   3.559   8.310 -1.5619  1.7457  0.4921
 1336SOL    HW215468   3.586   3.621   8.201 -0.3309  1.2392  1.6346
 1337SOL     OW15469   3.800   3.475   2.335  0.2234 -0.2056  0.3624
 1337SOL    HW115470   3.838   3.404   2.387 -0.0509 -0.8810 -0.3572
 1337SOL    HW215471   3.820   3.456   2.243 -0.8825  1.3158 -0.2053
 1338SOL     OW15472   0.328   2.489   5.938  0.3972  0.2851 -0.3796
 1338SOL    HW115473   0.334   2.568   5.992  0.6753  0.1526 -0.2164
 1338SOL    HW215474   0.232   2.486   5.931  0.4332  1.4399 -1.3062
 1339SOL     OW15475   4.642   3.885   1.991  0.2855 -0.4364  0.3807
 1339SOL    HW115476   4.575   3.826   1.957 -0.3695  0.3978  0.2440
 1339SOL    HW215477   4.609   3.966   1.951  1.5148 -0.4067 -0.5965
 1340SOL     OW15478   4.462   2.193  11.295  0.2587 -0.0117  0.0282
 1340SOL    HW115479   4.393   2.216  11.232 -0.9601  0.8394  1.6754
 1340SOL    HW215480   4.425   2.131  11.358  0.4322 -2.3139 -2.1239
 1341SOL     OW15481   2.354   3.679  11.801  0.1936 -0.3211  0.2369
 1341SOL    HW115482   2.281   3.642  11.752  1.0974 -1.4398 -0.2877
 1341SOL    HW215483   2.418   3.608  11.795 -0.7191 -1.0778 -0.5875
 1342SOL     OW15484   1.596   0.006   8.567 -0.4063  0.1753 -0.2449
 1342SOL    HW115485   1.685   0.039   8.582 -1.2499  3.0391 -1.6721
 1342SOL    HW215486   1.601   4.635   8.555  0.0554  0.4097 -1.9289
 1343SOL     OW15487   4.374   0.777  16.630 -0.2001  0.3739  0.1891
 1343SOL    HW115488   4.398   0.869  16.624  0.5367  0.1648 -0.1861
 1343SOL    HW215489   4.461   0.762  16.669 -0.2153  1.4924  0.6454
 1344SOL     OW15490   2.419   0.752   5.229 -0.4894 -0.2551  0.1766
 1344SOL    HW115491   2.377   0.684   5.177  0.7721  1.2485 -2.8279
 1344SOL    HW215492   2.514   0.751   5.219 -0.7818 -0.4824 -2.5190
 1345SOL     OW15493   3.772   4.329  13.519 -0.0015  0.8194 -0.0292
 1345SOL    HW115494   3.768   4.277  13.439  0.1538 -0.4283  0.7617
 1345SOL    HW215495   3.679   4.340  13.540  0.1290 -1.6164  1.8616
 1346SOL     OW15496   1.882   4.355   0.423  0.3199  0.1447 -0.8899
 1346SOL    HW115497   1.837   4.373   0.506  0.8308  0.5390 -0.7023
 1346SOL    HW215498   1.807   4.304   0.392 -0.1671  0.3717 -0.0931
 1347SOL     OW15499   1.648   3.841   3.000  0.6147  0.4147  0.0459
 1347SOL    HW115500   1.583   3.909   3.013 -1.7255 -1.3462 -2.2611
 1347SOL    HW215501   1.700   3.894   2.939  2.0913 -1.4718 -0.3537
 1348SOL     OW15502   1.111   1.691  12.122 -0.6115 -0.1344  0.1972
 1348SOL    HW115503   1.054   1.747  12.069 -0.6617 -2.6891 -2.4241
 1348SOL    HW215504   1.069   1.670  12.206  0.5849  1.2242  1.1374
 1349SOL     OW15505   0.579   2.581   6.378 -0.0493  0.3465  0.4826
 1349SOL    HW115506   0.622   2.535   6.450  1.5661 -1.4638 -1.6374
 1349SOL    HW215507   0.495   2.535   6.371  1.2346 -2.0256  0.6965
 1350SOL     OW15508   4.646   3.564   8.513 -0.1029 -0.3698  0.2545
 1350SOL    HW115509   0.016   3.569   8.493 -0.2213  2.5351  0.4379
 1350SOL    HW215510   4.630   3.470   8.513  0.1596 -0.4133 -0.9491
 1351SOL     OW15511   4.583   1.549  14.654  0.1794 -0.1848 -0.7887
 1351SOL    HW115512   4.636   1.604  14.597 -1.3610  1.4817 -0.6125
 1351SOL    HW215513   4.640   1.483  14.693  0.4119  0.5007  0.0210
 1352SOL     OW15514   2.385   3.291   7.322 -0.5023  0.3142 -0.5894
 1352SOL    HW115515   2.402   3.377   7.360  1.2041 -0.5075  0.4842
 1352SOL    HW215516   2.466   3.240   7.328 -0.3797  0.5200 -0.4866
 1353SOL     OW15517   0.840   3.405  10.217 -0.2340 -0.2591 -0.5589
 1353SOL    HW115518   0.751   3.373  10.208 -0.6495  0.6828  0.1815
 1353SOL    HW215519   0.889   3.324  10.203  2.4428  1.0601  1.1792
 1354SOL     OW15520   2.788   2.613   4.073 -0.7251 -0.0520 -0.0808
 1354SOL    HW115521   2.880   2.609   4.100 -0.2209  0.1217 -1.8213
 1354SOL    HW215522   2.746   2.615   4.159 -1.5177 -1.5562 -0.4426
 1355SOL     OW15523   3.548   4.402   0.361 -0.1885  0.1975 -0.7120
 1355SOL    HW115524   3.622   4.347   0.334 -1.2007 -0.8676 -1.3302
 1355SOL    HW215525   3.509   4.352   0.433  0.1631 -1.2424 -1.5142
 1356SOL     OW15526   0.002   4.484   1.433  0.1366 -0.2849 -0.4219
 1356SOL    HW115527   0.017   4.436   1.514 -0.1951  0.5478  0.1356
 1356SOL    HW215528   4.692   4.415   1.376 -1.0848 -2.3435  2.8438
 1357SOL     OW15529   1.265   0.805   5.287 -0.1337  0.1354  0.3330
 1357SOL    HW115530   1.324   0.831   5.358  0.9369  1.5763 -1.0616
 1357SOL    HW215531   1.254   0.711   5.296 -0.9706  0.1453 -0.4898
 1358SOL     OW15532   0.921   4.657   9.265 -0.1170 -0.6929 -0.4968
 1358SOL    HW115533   0.961   4.585   9.314  1.8414  1.0946  0.5273
 1358SOL    HW215534   0.941   4.720   9.334  1.3799 -3.4099  1.5296
 1359SOL     OW15535   3.503   4.200   6.839  0.6884 -0.0315 -0.1815
 1359SOL    HW115536   3.535   4.266   6.777  1.6139 -0.0169  0.2991
 1359SOL    HW215537   3.476   4.135   6.775 -0.2021  0.5137 -0.3541
 1360SOL     OW15538   2.467   2.646   1.626  0.1135 -0.2766 -0.0135
 1360SOL    HW115539   2.412   2.644   1.547 -1.6069 -2.1879  1.2377
 1360SOL    HW215540   2.546   2.684   1.587  0.4381  0.6007  1.5006
 1361SOL     OW15541   2.936   2.343   6.012  0.6733  0.3974  0.5477
 1361SOL    HW115542   3.023   2.311   5.991  0.7517 -0.3406  1.9674
 1361SOL    HW215543   2.893   2.349   5.927 -0.2529  4.0312  1.2486
 1362SOL     OW15544   0.174   2.107   5.784  0.3545 -0.0893 -0.3115
 1362SOL    HW115545   0.257   2.066   5.810  0.3567 -0.4162 -0.8309
 1362SOL    HW215546   0.210   2.186   5.743 -1.0731 -0.2945 -1.9705
 1363SOL     OW15547   1.021   0.808   8.277 -0.6003 -0.1477  0.0781
 1363SOL    HW115548   0.951   0.851   8.326 -0.1524 -0.3369  0.8829
 1363SOL    HW215549   1.009   0.717   8.304 -0.7650 -0.5623 -1.3627
 1364SOL     OW15550   1.889   2.703   8.781 -0.2800  0.0861  0.0742
 1364SOL    HW115551   1.930   2.778   8.738 -0.8664 -0.2689 -1.0774
 1364SOL    HW215552   1.904   2.735   8.870 -0.7854  0.5500 -0.0077
 1365SOL     OW15553   4.027   3.948   5.079 -0.3005 -0.1635  0.0100
 1365SOL    HW115554   3.975   4.019   5.117 -1.2189 -1.2186  0.7027
 1365SOL    HW215555   4.046   3.898   5.158  0.0152  0.6814  0.4739
 1366SOL     OW15556   2.519   3.665  13.624  0.8043  1.0188  0.1710
 1366SOL    HW115557   2.434   3.621  13.620  0.9843  0.7998 -1.1391
 1366SOL    HW215558   2.527   3.698  13.714 -0.0716  0.5834  0.4124
 1367SOL     OW15559   4.366   2.102  15.512  0.2050  0.4103  0.0247
 1367SOL    HW115560   4.382   2.120  15.604  0.8154 -2.0107  0.3820
 1367SOL    HW215561   4.450   2.090  15.468 -1.0345 -0.2063 -2.1848
 1368SOL     OW15562   1.484   3.840  14.981 -0.6240 -0.2880  0.5964
 1368SOL    HW115563   1.404   3.891  14.974 -1.5470 -1.5345  2.1235
 1368SOL    HW215564   1.489   3.807  14.891  1.3699  0.4571  0.4294
 1369SOL     OW15565   2.218   3.681   2.832  0.4435  0.3579 -0.0430
 1369SOL    HW115566   2.193   3.679   2.924 -0.4600 -1.5987 -0.3351
 1369SOL    HW215567   2.136   3.681   2.783  1.3142 -0.3554 -1.5288
 1370SOL     OW15568   0.824   4.557   1.677 -0.3258 -0.3322  0.6538
 1370SOL    HW115569   0.747   4.574   1.623  0.1372 -0.2048  0.0278
 1370SOL    HW215570   0.784   4.504   1.746 -0.3106 -0.2109  0.7552
 1371SOL     OW15571   3.058   0.981   4.354  0.3726 -0.0687 -0.0697
 1371SOL    HW115572   3.020   0.942   4.276  1.2328 -1.7905  0.3743
 1371SOL    HW215573   3.001   1.058   4.359 -1.0443 -1.1111 -0.0258
 1372SOL     OW15574   2.693   4.283   8.974 -0.3748  0.0793 -0.4955
 1372SOL    HW115575   2.697   4.352   8.908 -2.9416  1.6199  0.9610
 1372SOL    HW215576   2.754   4.314   9.040 -0.7311  0.6679 -0.4428
 1373SOL     OW15577   2.535   2.375   6.444 -0.8260  0.6567 -0.6456
 1373SOL    HW115578   2.591   2.431   6.498 -0.5332 -1.5250  1.3576
 1373SOL    HW215579   2.449   2.413   6.462 -1.4355 -1.0635  0.1407
 1374SOL     OW15580   3.943   2.918   7.226 -0.2728 -0.2176 -0.3942
 1374SOL    HW115581   3.916   2.832   7.258  0.6287 -0.5334 -0.5004
 1374SOL    HW215582   3.955   2.958   7.313  0.3971 -3.0428  0.8110
 1375SOL     OW15583   2.077   0.025   7.676 -0.4359  0.0455 -0.3369
 1375SOL    HW115584   2.133   0.103   7.675 -0.3351 -0.0329 -0.8964
 1375SOL    HW215585   2.015   0.057   7.741 -0.5213 -3.2149  1.1726
 1376SOL     OW15586   1.638   2.687   6.524 -0.1326  0.2083  0.2010
 1376SOL    HW115587   1.715   2.647   6.483 -1.4811 -2.9335  0.7679
 1376SOL    HW215588   1.629   2.773   6.482 -0.8259  0.3194  0.5893
 1377SOL     OW15589   4.408   4.063   8.977 -0.0043 -0.1607  0.3935
 1377SOL    HW115590   4.476   4.129   8.962 -1.6203  1.5095  0.4850
 1377SOL    HW215591   4.325   4.108   8.964  0.4036  0.3583 -0.4127
 1378SOL     OW15592   1.917   2.749   4.167 -0.8974 -0.0322 -0.1547
 1378SOL    HW115593   1.943   2.690   4.238 -0.1082  0.5112  0.0046
 1378SOL    HW215594   1.882   2.677   4.114 -0.5352 -0.6431  0.4327
 1379SOL     OW15595   2.842   1.103   9.988  0.3412  0.2159 -0.2485
 1379SOL    HW115596   2.811   1.045   9.919  0.4840  0.9296 -0.9177
 1379SOL    HW215597   2.879   1.042  10.052  0.6379  1.7664  1.0709
 1380SOL     OW15598   1.097   4.705   7.678 -0.4501  0.4048 -0.4004
 1380SOL    HW115599   1.144   4.622   7.672 -1.8658 -0.2788 -1.7912
 1380SOL    HW215600   1.173   0.039   7.687 -0.6363  0.6811 -0.5983
 1381SOL     OW15601   0.585   0.613  16.835  0.0146 -0.3850  0.1230
 1381SOL    HW115602   0.498   0.580  16.811  0.6396 -0.9278 -1.4194
 1381SOL    HW215603   0.598   0.569  16.919  0.7671  1.0776  0.7696
 1382SOL     OW15604   3.165   0.633  10.911 -0.0828  0.0677 -0.1672
 1382SOL    HW115605   3.079   0.674  10.922  1.2682  2.3401  1.9751
 1382SOL    HW215606   3.216   0.713  10.922 -2.4206  1.1875  2.5574
 1383SOL     OW15607   1.249   2.602  14.919  0.1032 -0.3531 -0.3476
 1383SOL    HW115608   1.238   2.607  14.824 -0.0336  3.0807 -0.1636
 1383SOL    HW215609   1.341   2.575  14.925 -0.0470 -0.6854  0.4259
 1384SOL     OW15610   1.101   1.042  13.495 -0.0305  0.8103  0.0862
 1384SOL    HW115611   1.190   1.076  13.488  0.4816 -1.0644 -2.6218
 1384SOL    HW215612   1.101   1.004  13.407 -2.4430 -0.9590  0.8450
 1385SOL     OW15613   1.036   3.162   6.793  1.0915  0.1416  0.0177
 1385SOL    HW115614   1.120   3.116   6.798  1.1512  0.0475 -1.7274
 1385SOL    HW215615   0.977   3.096   6.754  0.6397  0.3483  0.3558
 1386SOL     OW15616   1.021   4.561   1.995 -0.0972  0.0376 -0.2852
 1386SOL    HW115617   1.039   4.587   1.905 -0.0925  0.1528 -0.2517
 1386SOL    HW215618   0.926   4.565   1.988 -0.0984  1.7774  0.7663
 1387SOL     OW15619   2.244   3.757   4.987 -0.3321  0.4811  0.2317
 1387SOL    HW115620   2.292   3.695   4.932 -1.2081 -1.6713  1.8752
 1387SOL    HW215621   2.286   3.738   5.071 -1.5498  0.2041  0.7700
 1388SOL     OW15622   0.771   0.598   4.482  0.6336  0.1925  0.1262
 1388SOL    HW115623   0.804   0.518   4.440  0.8141 -0.1608  0.9353
 1388SOL    HW215624   0.850   0.651   4.493 -0.6749  1.4316  3.4904
 1389SOL     OW15625   0.037   2.619   4.054  0.1132 -0.1214  0.3055
 1389SOL    HW115626   0.078   2.607   4.140 -1.7169  2.0095  1.4870
 1389SOL    HW215627   0.005   2.710   4.053  0.6698  0.0736  0.4549
 1390SOL     OW15628   0.256   0.276   5.410  0.5448 -0.1222  0.1549
 1390SOL    HW115629   0.302   0.312   5.486 -2.4464 -0.4688  2.1698
 1390SOL    HW215630   0.203   0.356   5.406 -1.2834 -1.4421 -1.8739
 1391SOL     OW15631   1.547   1.904  11.560  0.0144 -0.4129 -0.0789
 1391SOL    HW115632   1.622   1.860  11.601 -0.9805  0.3684  2.6254
 1391SOL    HW215633   1.586   1.924  11.475  0.7687  2.6450  1.0011
 1392SOL     OW15634   0.514   0.467   0.249  0.0070  0.6987 -0.1166
 1392SOL    HW115635   0.481   0.540   0.301 -3.4271 -1.6822  1.0073
 1392SOL    HW215636   0.497   0.395   0.309  1.4559  0.5394  0.1239
 1393SOL     OW15637   1.992   2.019   4.717  0.0561  0.0025 -0.0123
 1393SOL    HW115638   1.983   2.086   4.784 -0.9480  0.6022 -0.7531
 1393SOL    HW215639   1.920   1.962   4.745  0.7712 -0.4314  0.9518
 1394SOL     OW15640   3.875   0.035  10.950  0.2660  0.1348  0.1428
 1394SOL    HW115641   3.816   4.699  10.903  1.2749 -1.0004  0.3155
 1394SOL    HW215642   3.814   0.092  10.997 -0.2312 -1.5812  1.6197
 1395SOL     OW15643   3.729   0.236  11.099 -0.5787 -0.5278 -0.3263
 1395SOL    HW115644   3.643   0.268  11.126  0.5727  0.9003  1.6355
 1395SOL    HW215645   3.781   0.314  11.087  1.1182 -1.8103 -1.2834
 1396SOL     OW15646   3.130   3.198  12.869  0.0911 -0.3609  0.5923
 1396SOL    HW115647   3.218   3.162  12.856 -0.7157 -0.7125 -3.6381
 1396SOL    HW215648   3.089   3.127  12.918  1.2000 -1.4704 -0.1007
 1397SOL     OW15649   3.469   1.522  10.825 -0.4293 -0.1254  0.5589
 1397SOL    HW115650   3.498   1.521  10.916 -1.2452  4.6553  0.8593
 1397SOL    HW215651   3.490   1.611  10.798  0.0780 -0.8400 -1.4689
 1398SOL     OW15652   0.664   1.899   6.183  0.1959 -0.1495  0.2589
 1398SOL    HW115653   0.673   1.911   6.089 -1.0596 -0.2560  0.1264
 1398SOL    HW215654   0.667   1.992   6.205 -0.5235  0.3936 -1.9516
 1399SOL     OW15655   4.036   3.614  12.744 -0.0741  0.7708 -0.3321
 1399SOL    HW115656   3.955   3.609  12.692 -0.7165 -1.2570  0.8487
 1399SOL    HW215657   4.083   3.694  12.721 -0.9064  1.4103  0.1471
 1400SOL     OW15658   2.189   3.425   4.546  0.3022 -0.2698 -0.4303
 1400SOL    HW115659   2.097   3.449   4.555  0.1566 -0.5183 -1.2459
 1400SOL    HW215660   2.227   3.512   4.534  2.9908 -1.1991  1.2445
 1401SOL     OW15661   1.563   3.956   6.969 -0.2247  0.1711 -0.0143
 1401SOL    HW115662   1.635   3.920   7.020 -0.8676 -1.8478 -0.5362
 1401SOL    HW215663   1.554   4.041   7.013 -0.4032 -0.6808  1.6075
 1402SOL     OW15664   2.246   4.012  15.452 -0.3252 -0.6951 -0.0757
 1402SOL    HW115665   2.175   3.967  15.408  0.1587 -1.7018  0.1701
 1402SOL    HW215666   2.235   3.990  15.545  1.6816 -0.1696  0.2900
 1403SOL     OW15667   4.118   4.379   7.272  0.3013 -0.2348 -0.0577
 1403SOL    HW115668   4.045   4.419   7.226  1.1547 -1.6363 -2.6344
 1403SOL    HW215669   4.184   4.448   7.278 -0.6353  0.3540  3.2210
 1404SOL     OW15670   1.656   3.807  13.669 -0.4361  0.1390 -0.7929
 1404SOL    HW115671   1.663   3.821  13.574  0.0309  1.1228 -0.6164
 1404SOL    HW215672   1.743   3.782  13.700 -1.5826 -2.3117  0.4121
 1405SOL     OW15673   3.549   0.313   1.095  0.1928  0.5821 -0.0786
 1405SOL    HW115674   3.629   0.345   1.052 -0.6371  1.5567 -0.8971
 1405SOL    HW215675   3.520   0.396   1.132  1.4431  0.1599  1.8132
 1406SOL     OW15676   1.887   1.181   6.815 -0.0591  0.1425  0.2556
 1406SOL    HW115677   1.829   1.252   6.787  1.2106  2.4092  3.3580
 1406SOL    HW215678   1.970   1.229   6.814  0.9527 -1.6464 -0.7050
 1407SOL     OW15679   3.124   0.409   2.720  0.3427  0.5724 -0.1999
 1407SOL    HW115680   3.122   0.363   2.804 -0.3059  1.8834  0.5008
 1407SOL    HW215681   3.122   0.499   2.753  0.4534 -0.1428  1.7748
 1408SOL     OW15682   4.508   4.465  15.310  0.4657  0.3690 -0.3140
 1408SOL    HW115683   4.466   4.422  15.236 -1.1957  2.7254 -0.7406
 1408SOL    HW215684   4.461   4.548  15.299 -1.3800 -0.6887 -0.4000
 1409SOL     OW15685   2.968   2.349   1.409  0.5736 -0.4363  0.4076
 1409SOL    HW115686   3.029   2.324   1.479  0.5974 -0.8959  0.2263
 1409SOL    HW215687   2.885   2.340   1.457 -0.1654 -0.7925 -0.9372
 1410SOL     OW15688   3.994   2.082  12.049 -0.0461  0.2675 -0.1056
 1410SOL    HW115689   3.974   2.152  12.111  2.6074  1.8800 -1.0915
 1410SOL    HW215690   4.089   2.072  12.053 -0.1595 -0.8468 -0.1682
 1411SOL     OW15691   2.835   1.022   0.575 -0.1391 -0.5088 -0.1853
 1411SOL    HW115692   2.811   1.088   0.510 -1.7813 -2.5554 -1.6680
 1411SOL    HW215693   2.889   1.076   0.632 -1.1099 -0.1797  0.4201
 1412SOL     OW15694   0.040   2.135   6.067  0.5396 -0.1138  0.5690
 1412SOL    HW115695   0.060   2.172   5.981  0.7049 -0.0161  0.6505
 1412SOL    HW215696   4.712   2.057   6.045  0.8439 -0.1402 -0.0409
 1413SOL     OW15697   3.051   4.030  17.652 -0.9513 -0.1638 -0.5917
 1413SOL    HW115698   3.080   4.005   0.045 -0.5092 -0.3871 -0.8025
 1413SOL    HW215699   3.127   4.073  17.615 -0.3408 -0.1459  0.6646
 1414SOL     OW15700   4.511   4.644   7.721 -0.3518  0.3139  0.3393
 1414SOL    HW115701   4.492   4.577   7.787  1.6509 -0.4035  0.1775
 1414SOL    HW215702   4.606   4.650   7.721 -0.3138 -0.0922 -1.9954
 1415SOL     OW15703   2.570   2.108   8.119  0.3295  0.6566  0.6797
 1415SOL    HW115704   2.476   2.124   8.125  0.2448  1.0193 -1.4922
 1415SOL    HW215705   2.598   2.187   8.164 -1.4732  0.1925  2.6318
 1416SOL     OW15706   2.011   1.015   5.273  0.5766  0.2283 -0.2812
 1416SOL    HW115707   2.010   0.937   5.217 -0.5669  0.0373  0.0140
 1416SOL    HW215708   1.917   1.027   5.283  0.3357 -1.1146 -0.9034
 1417SOL     OW15709   0.415   2.003  12.314 -0.6033 -0.2592 -0.3746
 1417SOL    HW115710   0.450   2.017  12.403 -0.8675 -1.3696 -0.0953
 1417SOL    HW215711   0.481   2.054  12.266 -0.5663  0.2602  0.2234
 1418SOL     OW15712   4.509   3.915  15.821  0.2287 -0.4860 -0.5876
 1418SOL    HW115713   4.434   3.924  15.762 -0.7703 -0.7633  0.6243
 1418SOL    HW215714   4.466   3.874  15.897  1.8897 -2.7712 -0.8640
 1419SOL     OW15715   4.114   4.047   0.899  0.2367 -0.2279 -0.1395
 1419SOL    HW115716   4.201   4.082   0.880  0.7925 -1.0461  0.8834
 1419SOL    HW215717   4.084   4.099   0.974  1.2849  0.8408 -0.4637
 1420SOL     OW15718   0.819   1.711   5.330  0.3673 -0.3873 -0.5169
 1420SOL    HW115719   0.749   1.698   5.267 -0.9477 -0.5068  0.9674
 1420SOL    HW215720   0.773   1.753   5.403 -0.3627 -1.9030 -0.0956
 1421SOL     OW15721   1.387   2.685   7.430 -0.1571 -1.0270  0.6231
 1421SOL    HW115722   1.365   2.591   7.430 -0.6458 -0.9125 -0.4448
 1421SOL    HW215723   1.307   2.726   7.462 -0.5001 -1.8476  0.8283
 1422SOL     OW15724   0.502   4.664   9.731  0.5696 -0.1024  0.4595
 1422SOL    HW115725   0.489   4.709   9.815 -1.0795  0.2183  0.0473
 1422SOL    HW215726   0.441   4.722   9.685  1.4590  0.7210  0.3210
 1423SOL     OW15727   1.791   0.345   4.761  0.0169  0.7629  0.8291
 1423SOL    HW115728   1.821   0.256   4.743  0.5519  1.3361 -1.1575
 1423SOL    HW215729   1.713   0.358   4.707 -1.2408  0.0427  2.4646
 1424SOL     OW15730   4.706   0.205   6.377 -0.0777 -0.1244 -0.0015
 1424SOL    HW115731   0.062   0.171   6.417  0.5533 -0.5775 -1.6330
 1424SOL    HW215732   4.669   0.129   6.332  2.1400 -0.4093 -1.3126
 1425SOL     OW15733   2.578   1.188   4.566  0.4089 -0.3539  0.2527
 1425SOL    HW115734   2.629   1.126   4.514 -0.1408  0.5092 -1.3046
 1425SOL    HW215735   2.649   1.239   4.605  0.8734 -0.4394 -0.4846
 1426SOL     OW15736   0.310   4.158   8.774 -0.6998  0.2896 -0.2162
 1426SOL    HW115737   0.373   4.116   8.716 -0.5123 -1.0432  0.9614
 1426SOL    HW215738   0.313   4.247   8.741 -0.2040 -0.2689 -1.6749
 1427SOL     OW15739   2.025   2.003   0.999 -0.0834  0.3470 -0.3628
 1427SOL    HW115740   2.058   1.994   0.909 -1.1540  2.7472 -0.9730
 1427SOL    HW215741   2.097   1.967   1.051  0.2548  0.0982 -0.9951
 1428SOL     OW15742   4.324   0.861  10.063  0.6076 -0.6830 -0.5191
 1428SOL    HW115743   4.280   0.902   9.989  2.6200 -2.7245 -2.8234
 1428SOL    HW215744   4.263   0.797  10.099 -0.3138  0.2148 -0.4917
 1429SOL     OW15745   3.871   3.797  12.130  0.3715  0.0507  0.1836
 1429SOL    HW115746   3.884   3.728  12.195  2.2844 -0.1537 -0.4168
 1429SOL    HW215747   3.784   3.773  12.097  0.4452 -0.7447  0.5727
 1430SOL     OW15748   3.431   2.066  13.598  0.3115  0.1087  0.6097
 1430SOL    HW115749   3.397   2.140  13.548  0.4245 -2.2131 -2.9725
 1430SOL    HW215750   3.394   1.991  13.551 -0.0697 -0.3421  1.6224
 1431SOL     OW15751   0.928   2.434   2.434 -0.3658  0.0892 -0.5300
 1431SOL    HW115752   0.943   2.486   2.513  0.7588  0.4051 -0.9566
 1431SOL    HW215753   0.934   2.347   2.474 -0.1044  0.8755  1.1614
 1432SOL     OW15754   4.000   1.427   6.921 -0.2319 -0.3171 -0.5182
 1432SOL    HW115755   4.095   1.438   6.927  0.0988 -2.6464 -1.4927
 1432SOL    HW215756   3.963   1.483   6.989  0.6446 -0.5166  0.1408
 1433SOL     OW15757   0.346   0.270   4.788 -0.0698 -0.0697  0.4495
 1433SOL    HW115758   0.337   0.205   4.858  0.3394  0.9329  1.4374
 1433SOL    HW215759   0.275   0.331   4.808 -0.4568 -0.4783  0.3271
 1434SOL     OW15760   0.278   0.916  15.591  0.3136  0.1769 -0.1915
 1434SOL    HW115761   0.188   0.900  15.620  0.4510  0.4686  0.4053
 1434SOL    HW215762   0.332   0.893  15.667  1.2766  0.3672 -0.8139
 1435SOL     OW15763   3.222   4.497  13.589 -0.3269 -0.6269  0.4885
 1435SOL    HW115764   3.245   4.428  13.527 -1.5292 -1.3448  0.8395
 1435SOL    HW215765   3.256   4.569  13.536  0.4014 -0.1822  1.5609
 1436SOL     OW15766   3.298   1.829   9.734 -0.1514 -0.0439  0.4465
 1436SOL    HW115767   3.379   1.850   9.781 -0.0394  1.1650 -0.2785
 1436SOL    HW215768   3.318   1.842   9.641 -1.3219 -1.7900 -0.0397
 1437SOL     OW15769   1.967   1.325   2.826 -0.3442 -0.4801  0.4741
 1437SOL    HW115770   1.898   1.376   2.784  1.3148  1.3642 -0.0136
 1437SOL    HW215771   1.909   1.258   2.862 -0.1957 -0.7413  0.2178
 1438SOL     OW15772   3.499   2.076   0.111  0.2587 -0.3393  0.5549
 1438SOL    HW115773   3.409   2.106   0.123  0.6108  1.5340 -1.5093
 1438SOL    HW215774   3.532   2.120   0.190 -0.5879 -1.4118  1.5048
 1439SOL     OW15775   1.460   4.688   9.585 -0.0967 -0.3367  0.0063
 1439SOL    HW115776   1.366   4.698   9.569 -0.3942 -2.9095  0.1531
 1439SOL    HW215777   1.463   4.682   9.681  1.6318  0.1340 -0.0295
 1440SOL     OW15778   0.759   0.265   2.127 -0.3168  0.3878 -0.0696
 1440SOL    HW115779   0.711   0.182   2.126 -2.1712  1.4447  0.6704
 1440SOL    HW215780   0.695   0.332   2.150 -0.9035 -0.6395  1.3129
 1441SOL     OW15781   1.779   3.447  15.799 -0.3078  0.1775  0.1182
 1441SOL    HW115782   1.762   3.450  15.893 -0.3500  0.7504  0.0917
 1441SOL    HW215783   1.870   3.416  15.797 -0.4897 -0.2745 -1.0634
 1442SOL     OW15784   3.562   4.370   2.485  0.6050  0.3923 -0.3862
 1442SOL    HW115785   3.653   4.394   2.504 -0.0206  0.6349  2.3635
 1442SOL    HW215786   3.535   4.346   2.574  1.5048 -0.7223 -0.4023
 1443SOL     OW15787   3.758   0.817  14.765 -0.8564 -0.3339  0.3111
 1443SOL    HW115788   3.776   0.896  14.714 -0.7811 -1.1025 -0.8432
 1443SOL    HW215789   3.843   0.775  14.770 -1.2902 -0.9554  2.7402
 1444SOL     OW15790   3.076   1.243   0.428  0.0973  0.1614  0.6507
 1444SOL    HW115791   3.060   1.328   0.387  0.8038  0.4058  0.8968
 1444SOL    HW215792   2.996   1.226   0.478  0.4921 -2.8163  0.3181
 1445SOL     OW15793   2.515   0.047   6.775 -0.4947 -0.1700  0.4321
 1445SOL    HW115794   2.436   4.722   6.751 -0.6428  1.2112 -1.8834
 1445SOL    HW215795   2.485   0.137   6.767 -0.8727 -0.3566 -0.1819
 1446SOL     OW15796   0.227   1.551   2.286  0.1610  0.0626  0.6908
 1446SOL    HW115797   0.224   1.460   2.314 -1.6519 -0.5982 -1.6096
 1446SOL    HW215798   0.166   1.598   2.343 -0.0800 -0.9380  1.2612
 1447SOL     OW15799   3.802   0.477   0.788  0.7008 -0.3537 -0.0688
 1447SOL    HW115800   3.801   0.454   0.695  1.9435 -1.2010  0.1229
 1447SOL    HW215801   3.872   0.424   0.825  0.6230 -0.2091  0.2797
 1448SOL     OW15802   3.072   3.746  15.436 -0.4690 -0.7189 -0.6748
 1448SOL    HW115803   3.034   3.830  15.413  0.4651  0.4138  1.9006
 1448SOL    HW215804   2.992   3.693  15.435  0.2286 -1.7792 -0.0567
 1449SOL     OW15805   1.396   0.788   9.686  0.5521  0.4032  0.1403
 1449SOL    HW115806   1.319   0.750   9.644 -1.2427  1.2734  2.6583
 1449SOL    HW215807   1.461   0.786   9.615 -1.4855  1.2067 -1.7225
 1450SOL     OW15808   1.612   4.129   9.095 -0.3651  0.3109 -0.5199
 1450SOL    HW115809   1.643   4.212   9.131  0.2294  0.0022 -0.3066
 1450SOL    HW215810   1.551   4.099   9.163 -0.5441  0.1881 -0.7342
 1451SOL     OW15811   3.584   0.645  13.493 -0.4249  0.0527 -0.3331
 1451SOL    HW115812   3.663   0.671  13.540  0.0202 -2.3856  0.2288
 1451SOL    HW215813   3.543   0.728  13.468  2.1257  0.9141 -1.6410
 1452SOL     OW15814   1.815   4.252   3.200  0.2485  0.0589 -0.0558
 1452SOL    HW115815   1.746   4.215   3.255 -1.0160  2.0173 -0.3141
 1452SOL    HW215816   1.885   4.195   3.233 -1.4884 -2.3283 -0.5038
 1453SOL     OW15817   3.576   0.902   3.552 -0.3963 -0.1610 -0.2326
 1453SOL    HW115818   3.541   0.838   3.614 -1.4779  0.8450  0.1927
 1453SOL    HW215819   3.550   0.986   3.589 -0.7312 -0.1700 -0.4470
 1454SOL     OW15820   1.068   0.715   6.779  0.1674  0.6101  0.5366
 1454SOL    HW115821   1.039   0.717   6.870  0.0027  0.4648  0.4893
 1454SOL    HW215822   0.984   0.747   6.744  0.0075 -0.4569 -0.0809
 1455SOL     OW15823   0.447   4.476  13.347 -0.6123 -0.0767  0.2103
 1455SOL    HW115824   0.505   4.416  13.299 -0.9657  2.2628 -3.1795
 1455SOL    HW215825   0.488   4.458  13.431  0.3577 -0.4340 -0.3413
 1456SOL     OW15826   0.385   3.606   3.085  0.1597 -0.1319  0.0333
 1456SOL    HW115827   0.466   3.638   3.046  0.7970 -2.1240 -0.2863
 1456SOL    HW215828   0.392   3.513   3.064  0.0005 -0.7808  2.7622
 1457SOL     OW15829   3.870   1.931   4.621  0.1895 -0.3732  0.2123
 1457SOL    HW115830   3.922   1.942   4.541 -3.5008 -1.4039 -2.3297
 1457SOL    HW215831   3.932   1.963   4.687 -2.2457  2.0521  1.3166
 1458SOL     OW15832   4.354   1.083   5.294  0.2138  0.5675 -0.0576
 1458SOL    HW115833   4.316   1.160   5.252  0.9220  0.9887  0.0691
 1458SOL    HW215834   4.387   1.037   5.217  0.5120 -0.2995  0.5917
 1459SOL     OW15835   0.182   3.756   5.504 -0.1467  0.1840  0.1671
 1459SOL    HW115836   0.236   3.694   5.554 -0.6210  0.2211  0.7349
 1459SOL    HW215837   0.246   3.827   5.505 -0.4254  0.4266  2.0219
 1460SOL     OW15838   2.857   2.277  16.487  0.0969 -0.2186  0.0394
 1460SOL    HW115839   2.912   2.321  16.423 -1.9689  1.6265 -0.4644
 1460SOL    HW215840   2.919   2.241  16.550 -0.3623  0.2814  0.7863
 1461SOL     OW15841   4.689   4.533   7.113 -0.0272 -0.2294 -0.2211
 1461SOL    HW115842   4.652   4.621   7.118  0.5394 -0.0214  0.3023
 1461SOL    HW215843   4.637   4.487   7.179 -1.3211  0.2128 -0.9454
 1462SOL     OW15844   1.785   0.308   3.910 -0.6330  0.3422 -0.1892
 1462SOL    HW115845   1.738   0.331   3.830  0.5924 -1.5020 -1.4602
 1462SOL    HW215846   1.855   0.255   3.870 -1.1751 -0.4476 -0.1029
 1463SOL     OW15847   4.573   4.543  14.501  0.6690  0.6661 -0.5736
 1463SOL    HW115848   4.595   4.450  14.499 -2.3047 -0.0525  0.3406
 1463SOL    HW215849   4.656   4.576  14.537  0.4730  1.4489 -0.8317
 1464SOL     OW15850   3.958   1.718  13.860  0.2206  0.1471  0.1151
 1464SOL    HW115851   3.907   1.737  13.938 -3.3554 -0.6180 -2.0359
 1464SOL    HW215852   3.983   1.801  13.819  1.0139 -0.8798 -1.4686
 1465SOL     OW15853   3.051   2.015   2.318  0.3251 -0.0796 -0.5001
 1465SOL    HW115854   2.982   1.960   2.281 -1.5081  1.0719  1.1921
 1465SOL    HW215855   3.103   1.972   2.386 -0.3157 -1.2219 -0.7327
 1466SOL     OW15856   3.784   2.817  17.360 -0.5714 -0.2420 -0.3072
 1466SOL    HW115857   3.756   2.765  17.435 -0.6465 -2.0274 -1.5832
 1466SOL    HW215858   3.743   2.898  17.391  1.5037  1.6397 -2.4923
 1467SOL     OW15859   1.257   3.400   4.239  0.5685  0.3611  0.0507
 1467SOL    HW115860   1.276   3.453   4.317 -0.5217 -2.0217  1.9432
 1467SOL    HW215861   1.166   3.427   4.225  1.1014  3.7588  3.1447
 1468SOL     OW15862   4.088   0.086  16.764  0.3473 -0.5251  0.4924
 1468SOL    HW115863   4.159   0.137  16.803 -1.7130  1.6097  1.4668
 1468SOL    HW215864   4.082   0.126  16.677  2.0565  3.2503  2.1009
 1469SOL     OW15865   2.114   0.023   6.576  0.2457  0.1323 -0.3520
 1469SOL    HW115866   2.073   4.664   6.550  1.2113 -1.2532  2.5712
 1469SOL    HW215867   2.043   0.056   6.631  0.8926 -0.0379  0.5969
 1470SOL     OW15868   4.308   1.085   7.950  0.0315 -0.5672 -0.1616
 1470SOL    HW115869   4.305   0.991   7.935 -1.4784 -0.7298  1.1702
 1470SOL    HW215870   4.323   1.115   7.861 -0.5106 -2.6292 -0.9488
 1471SOL     OW15871   4.478   3.188   1.144  0.1911  0.0159 -0.4220
 1471SOL    HW115872   4.537   3.225   1.078  0.4669 -1.1723 -0.8342
 1471SOL    HW215873   4.391   3.215   1.115  0.6512  0.4803 -1.3809
 1472SOL     OW15874   0.244   2.451   0.779  0.3126  0.0150 -0.2608
 1472SOL    HW115875   0.288   2.491   0.705 -0.3644 -2.6811 -2.1239
 1472SOL    HW215876   0.313   2.456   0.846  0.3213  0.2791 -0.2905
 1473SOL     OW15877   0.557   2.359  15.299 -0.6547  0.3707 -0.3284
 1473SOL    HW115878   0.598   2.421  15.239 -0.7352  0.9797  0.2461
 1473SOL    HW215879   0.571   2.413  15.377  0.9087 -1.5303  0.7099
 1474SOL     OW15880   1.402   1.606   4.873 -0.2329  0.4843  0.5494
 1474SOL    HW115881   1.421   1.665   4.946 -0.6013  0.9736  0.2577
 1474SOL    HW215882   1.489   1.600   4.833 -0.0370 -1.6054  1.3295
 1475SOL     OW15883   2.038   0.545   2.876 -0.4785  0.5540  0.2654
 1475SOL    HW115884   2.082   0.629   2.857  3.0227 -1.1556  0.8687
 1475SOL    HW215885   2.097   0.533   2.950  0.2720  0.9319 -0.2684
 1476SOL     OW15886   4.563   3.052   5.795 -0.1156  0.0107 -0.0440
 1476SOL    HW115887   4.587   3.021   5.708  0.9422 -1.2549  0.6987
 1476SOL    HW215888   4.519   3.132   5.767 -0.6127 -0.2375  0.0314
 1477SOL     OW15889   1.168   2.861   3.497 -0.5678 -0.0801  0.0013
 1477SOL    HW115890   1.170   2.805   3.575  1.2813 -0.9702 -0.7069
 1477SOL    HW215891   1.254   2.850   3.458 -0.5639  0.9945 -0.2887
 1478SOL     OW15892   3.736   3.762   9.243 -0.2892 -0.0567 -0.2941
 1478SOL    HW115893   3.663   3.706   9.217 -1.1179 -0.5397  3.0848
 1478SOL    HW215894   3.806   3.707   9.277  1.0146  2.3008  0.8629
 1479SOL     OW15895   0.342   4.083  14.974 -0.5323  0.3768  0.1748
 1479SOL    HW115896   0.291   4.003  14.965 -1.3881  1.0167 -0.6784
 1479SOL    HW215897   0.420   4.046  15.016 -0.7195 -0.4130 -0.1780
 1480SOL     OW15898   1.299   0.964   6.152 -0.3607 -0.0665 -0.1716
 1480SOL    HW115899   1.334   0.876   6.142  2.6248  1.1957 -0.7234
 1480SOL    HW215900   1.363   1.003   6.212  0.3443  0.7392 -1.4579
 1481SOL     OW15901   3.149   1.130   4.687  0.1017 -0.0510 -0.0610
 1481SOL    HW115902   3.161   1.100   4.597 -0.8785  0.5069 -0.3749
 1481SOL    HW215903   3.179   1.221   4.683 -1.3439  0.3348 -2.0540
 1482SOL     OW15904   2.808   2.778   3.236  0.5425  0.2139  0.6215
 1482SOL    HW115905   2.874   2.715   3.206 -0.1444  1.0147 -2.5588
 1482SOL    HW215906   2.839   2.857   3.193 -0.7346  0.2064 -0.3253
 1483SOL     OW15907   1.003   0.653   4.780 -0.0425  0.2957  0.0263
 1483SOL    HW115908   1.089   0.642   4.820 -0.4177  1.2052  1.0967
 1483SOL    HW215909   0.963   0.569   4.804 -0.0291  0.0764 -0.7303
 1484SOL     OW15910   1.059   1.252   3.133  0.3093  0.1019 -0.3271
 1484SOL    HW115911   0.972   1.291   3.144 -0.0199 -0.4017 -1.1472
 1484SOL    HW215912   1.040   1.158   3.129  2.0856 -0.2124 -1.5566
 1485SOL     OW15913   1.966   0.740   1.721 -0.6643  0.1946  0.3474
 1485SOL    HW115914   2.036   0.783   1.770  0.1713  2.0532 -2.5106
 1485SOL    HW215915   1.950   0.662   1.774  0.6252 -1.5897 -1.8706
 1486SOL     OW15916   1.838   3.967  10.098 -0.4507  0.5779  0.4347
 1486SOL    HW115917   1.894   3.891  10.080  1.0253  2.1311 -1.6294
 1486SOL    HW215918   1.876   3.991  10.182  0.8663  0.3692 -0.1019
 1487SOL     OW15919   1.607   4.427   4.907 -0.2470  0.0942  0.0845
 1487SOL    HW115920   1.601   4.333   4.926  1.2244 -0.1675 -0.7993
 1487SOL    HW215921   1.568   4.431   4.820 -1.0635  1.8898  0.5372
 1488SOL     OW15922   0.417   4.151   4.050 -0.0603 -0.0883  0.5393
 1488SOL    HW115923   0.384   4.207   4.120  0.9314  1.2947 -0.0932
 1488SOL    HW215924   0.350   4.177   3.988  0.8601  2.0089  0.4244
 1489SOL     OW15925   3.760   0.268   5.983  0.1388 -0.3910  0.2616
 1489SOL    HW115926   3.793   0.185   6.018 -1.1923 -0.1765  1.9975
 1489SOL    HW215927   3.829   0.306   5.928 -0.6389 -2.2281 -2.0183
 1490SOL     OW15928   3.884   2.719   0.912 -0.1825 -0.3259  0.4592
 1490SOL    HW115929   3.918   2.668   0.985  0.8020  0.7890  0.7757
 1490SOL    HW215930   3.966   2.767   0.903  0.4598 -1.7538 -1.3979
 1491SOL     OW15931   2.919   3.128   2.307 -0.3772 -0.6201  0.2758
 1491SOL    HW115932   2.833   3.089   2.294 -0.0948 -1.0159 -0.4208
 1491SOL    HW215933   2.959   3.073   2.374 -1.6601 -2.3425 -0.3909
 1492SOL     OW15934   3.240   2.695  14.615 -0.7509 -0.6636  0.0472
 1492SOL    HW115935   3.182   2.619  14.619 -0.6146 -0.6512  2.0221
 1492SOL    HW215936   3.310   2.640  14.580 -2.3132 -1.4950 -1.7595
 1493SOL     OW15937   3.965   3.608   0.786 -1.2643 -0.0366  0.6045
 1493SOL    HW115938   3.953   3.700   0.767  0.3494 -0.4489 -2.3555
 1493SOL    HW215939   4.054   3.593   0.752 -1.9837 -0.2530 -1.1499
 1494SOL     OW15940   3.469   0.956   2.686 -0.2879 -0.6983 -0.0329
 1494SOL    HW115941   3.459   0.861   2.679 -0.4667 -0.7922  1.6629
 1494SOL    HW215942   3.392   0.974   2.632 -0.7776 -1.2017  0.5002
 1495SOL     OW15943   2.163   3.953   6.766  0.2264 -0.2426 -0.2950
 1495SOL    HW115944   2.164   3.893   6.840 -2.7953  0.0024 -0.0653
 1495SOL    HW215945   2.089   4.010   6.787 -1.6713 -3.7617  2.5526
 1496SOL     OW15946   2.046   3.421  11.180 -0.0842  0.0071 -0.3831
 1496SOL    HW115947   2.109   3.441  11.111  0.5540  0.7095  0.4099
 1496SOL    HW215948   2.011   3.347  11.129 -2.7234  0.2413  1.1116
 1497SOL     OW15949   4.053   4.411  10.503 -0.0449 -0.4441  0.6732
 1497SOL    HW115950   4.005   4.493  10.512 -0.3728 -0.6194  0.4760
 1497SOL    HW215951   4.138   4.449  10.480 -1.8229  3.0625 -0.1098
 1498SOL     OW15952   1.672   2.536   5.654 -0.0877  0.6517  0.2825
 1498SOL    HW115953   1.717   2.619   5.643  0.9762 -0.0038 -0.2616
 1498SOL    HW215954   1.706   2.513   5.740  2.8789  2.0739 -0.5360
 1499SOL     OW15955   3.983   3.452   7.546 -0.2694 -0.0739 -0.2831
 1499SOL    HW115956   3.968   3.468   7.639 -0.1229 -1.1342 -0.0804
 1499SOL    HW215957   4.032   3.527   7.512 -0.4806 -0.2732 -1.0485
 1500SOL     OW15958   3.203   1.765   8.226 -0.0066 -0.1438  0.5245
 1500SOL    HW115959   3.175   1.680   8.194  0.2488  0.3177 -0.9293
 1500SOL    HW215960   3.296   1.765   8.204 -0.1119 -0.1510  0.0862
 1501SOL     OW15961   1.010   4.601   9.736  0.3182  0.0813 -1.1575
 1501SOL    HW115962   0.924   4.586   9.696  1.5028  2.3760 -4.5561
 1501SOL    HW215963   0.984   4.636   9.821 -1.7226 -0.4700 -1.5464
 1502SOL     OW15964   2.329   1.325   7.440  0.1991  0.7660  0.1206
 1502SOL    HW115965   2.294   1.250   7.391  0.0387  1.0484 -0.1932
 1502SOL    HW215966   2.402   1.354   7.386 -1.0985 -0.2469 -2.1813
 1503SOL     OW15967   3.296   2.289   3.209  0.0927  0.0112  0.4278
 1503SOL    HW115968   3.256   2.339   3.280 -3.1687 -3.1973  0.8215
 1503SOL    HW215969   3.321   2.356   3.145 -0.0195  1.0469  1.4853
 1504SOL     OW15970   0.023   2.379   2.503  0.4751  0.0727 -0.5923
 1504SOL    HW115971   4.708   2.457   2.544 -0.8916 -1.2073  0.5642
 1504SOL    HW215972   0.078   2.411   2.431 -0.1812  0.8091 -0.7674
 1505SOL     OW15973   3.346   1.826   2.693 -0.0061  0.3431 -0.6885
 1505SOL    HW115974   3.283   1.809   2.763 -1.1916 -2.7262 -2.5090
 1505SOL    HW215975   3.427   1.812   2.743  0.3973  2.2964 -0.7930
 1506SOL     OW15976   0.136   0.416   6.795 -0.3463 -0.6065 -0.3138
 1506SOL    HW115977   0.172   0.363   6.866 -0.2284  1.2943  1.0327
 1506SOL    HW215978   0.078   0.346   6.764  0.9148 -1.9724  0.4509
 1507SOL     OW15979   4.448   2.165   4.762 -0.2440  0.5347  0.4230
 1507SOL    HW115980   4.452   2.252   4.802 -0.0407 -0.2418  2.1220
 1507SOL    HW215981   4.498   2.182   4.683 -0.3198  2.0994  0.7235
 1508SOL     OW15982   1.435   0.540   2.572  0.1941  0.5863  0.3837
 1508SOL    HW115983   1.518   0.493   2.562 -1.5168 -2.3771  0.0362
 1508SOL    HW215984   1.397   0.534   2.485  1.0453  1.6835 -0.0701
 1509SOL     OW15985   4.445   0.682   9.190 -0.0809 -0.5515 -0.1852
 1509SOL    HW115986   4.357   0.648   9.206  0.0462 -1.8095 -2.2238
 1509SOL    HW215987   4.501   0.605   9.185 -0.6567 -0.9697 -0.2264
 1510SOL     OW15988   2.542   3.433  17.628  0.7214  0.3548  0.1707
 1510SOL    HW115989   2.524   3.394  17.543  1.4403 -1.7470  0.9747
 1510SOL    HW215990   2.465   3.405  17.677  1.9947 -0.9575  1.4369
 1511SOL     OW15991   0.328   1.999  16.581 -0.0067  0.0519  0.5220
 1511SOL    HW115992   0.326   2.093  16.600 -1.8017  0.5653 -2.1479
 1511SOL    HW215993   0.249   1.992  16.527 -0.1001 -0.8459  0.7657
 1512SOL     OW15994   1.096   0.322   5.981  0.0872  0.1000 -0.7274
 1512SOL    HW115995   1.165   0.354   6.039 -0.8937  0.2935  0.3426
 1512SOL    HW215996   1.090   0.234   6.020 -1.0443  0.6613  0.3738
 1513SOL     OW15997   2.868   3.511  13.715  0.4614 -0.4682  0.1341
 1513SOL    HW115998   2.953   3.475  13.738  1.2128  1.5647  0.5259
 1513SOL    HW215999   2.808   3.438  13.732 -2.9916  2.5651  1.0735
 1514SOL     OW16000   1.154   3.673   5.254  0.6384 -0.2655 -0.6991
 1514SOL    HW116001   1.245   3.686   5.280 -0.1499  0.9852  1.4866
 1514SOL    HW216002   1.114   3.659   5.340 -0.1883  2.5678 -0.6104
 1515SOL     OW16003   1.565   0.117   3.255 -0.1747  0.1405 -0.1754
 1515SOL    HW116004   1.493   0.094   3.195  0.3364 -1.6731 -0.1040
 1515SOL    HW216005   1.638   0.122   3.194 -1.6284 -0.0229 -1.9484
 1516SOL     OW16006   3.283   1.420   5.602 -0.1114  0.1385 -0.3205
 1516SOL    HW116007   3.212   1.433   5.540 -1.6833 -1.4808  1.1336
 1516SOL    HW216008   3.317   1.333   5.583 -0.6188 -0.6085  2.1354
 1517SOL     OW16009   3.953   2.800   9.113 -0.5599  0.6338 -0.2224
 1517SOL    HW116010   3.899   2.798   9.192 -0.1890  0.3328  0.0225
 1517SOL    HW216011   3.942   2.714   9.073  3.0396 -0.2278  0.6150
 1518SOL     OW16012   2.743   3.833   2.105 -0.1610  0.1556 -0.3655
 1518SOL    HW116013   2.692   3.899   2.152 -0.4765 -0.3372 -0.0071
 1518SOL    HW216014   2.688   3.755   2.108 -1.1497  0.8699  0.0762
 1519SOL     OW16015   3.667   2.617  11.610 -0.1371  0.5151  0.2217
 1519SOL    HW116016   3.740   2.599  11.551  0.9384 -1.3798  2.1042
 1519SOL    HW216017   3.616   2.536  11.610  0.5371  0.0840 -0.8575
 1520SOL     OW16018   4.689   3.178  15.904 -0.2053 -0.3676 -0.3937
 1520SOL    HW116019   4.628   3.216  15.840 -0.1082 -0.9017 -0.8086
 1520SOL    HW216020   4.655   3.088  15.901  1.2644 -1.0949  5.0530
 1521SOL     OW16021   4.470   1.454   6.856 -0.7657  0.3602 -0.3806
 1521SOL    HW116022   4.454   1.375   6.805  2.1346 -0.9876  0.7911
 1521SOL    HW216023   4.548   1.422   6.902 -0.7087  0.9614 -0.0620
 1522SOL     OW16024   0.476   1.727   4.623 -0.1766  0.1294 -0.0148
 1522SOL    HW116025   0.486   1.822   4.629 -1.4916  0.4756 -2.9064
 1522SOL    HW216026   0.555   1.699   4.668 -0.4978 -0.7541 -0.0086
 1523SOL     OW16027   1.034   3.040  16.001 -0.4711  0.2340 -0.5398
 1523SOL    HW116028   0.977   3.035  15.924  0.1888 -2.6566 -0.8327
 1523SOL    HW216029   1.116   3.025  15.953 -0.8399 -0.8315 -0.8423
 1524SOL     OW16030   3.271   2.370   6.299 -0.4352 -0.4646  0.4417
 1524SOL    HW116031   3.239   2.296   6.351  2.8804 -0.5103  2.3790
 1524SOL    HW216032   3.263   2.438   6.367  1.9973 -0.9072  1.1520
 1525SOL     OW16033   1.901   3.519   5.360  0.2811 -0.0102 -0.5436
 1525SOL    HW116034   1.814   3.525   5.398  0.4447 -1.2017  0.0342
 1525SOL    HW216035   1.887   3.554   5.272  1.2906  0.8838 -0.3465
 1526SOL     OW16036   0.208   0.365   0.849  0.6329 -0.7007 -0.5963
 1526SOL    HW116037   0.189   0.376   0.756 -0.0739 -0.2964 -0.3991
 1526SOL    HW216038   0.303   0.348   0.845  0.6391 -0.0266 -3.5207
 1527SOL     OW16039   3.970   2.219   6.841 -0.2467  0.3700  0.1927
 1527SOL    HW116040   3.971   2.260   6.755 -1.0900 -0.5087 -0.2272
 1527SOL    HW216041   3.907   2.149   6.828 -0.1839 -0.0119  1.9202
 1528SOL     OW16042   0.204   0.965   5.134  0.1583  0.4053 -0.4738
 1528SOL    HW116043   0.288   1.009   5.124  1.0943 -0.9594  1.2785
 1528SOL    HW216044   0.175   0.966   5.043  1.9326 -1.5672 -1.0427
 1529SOL     OW16045   4.408   0.334   8.451  0.2141  0.1038 -0.0006
 1529SOL    HW116046   4.320   0.370   8.441  0.0734 -0.0276  0.7907
 1529SOL    HW216047   4.455   0.391   8.512  0.4683  2.2207 -2.1788
 1530SOL     OW16048   0.183   4.716   6.465 -0.1761 -0.2059 -0.2056
 1530SOL    HW116049   0.153   4.628   6.440 -1.8016  0.8329 -1.8586
 1530SOL    HW216050   0.238   0.017   6.391 -0.0828  0.8507  0.2148
 1531SOL     OW16051   3.718   4.648   8.303 -0.0342  0.2693 -0.3073
 1531SOL    HW116052   3.665   4.612   8.231 -0.1525  0.8597 -0.5130
 1531SOL    HW216053   3.802   4.607   8.282  0.5692  0.5020  1.6692
 1532SOL     OW16054   1.801   1.763   6.422 -0.1782  0.0807 -0.1030
 1532SOL    HW116055   1.850   1.844   6.437 -1.2543  0.6287  0.4349
 1532SOL    HW216056   1.713   1.785   6.452  0.4016  3.1903 -0.6694
 1533SOL     OW16057   1.649   3.491   2.659  0.6721 -0.6127 -0.7430
 1533SOL    HW116058   1.610   3.563   2.708  2.5461  1.5667 -2.4224
 1533SOL    HW216059   1.599   3.484   2.578  0.2314  0.1364 -0.5297
 1534SOL     OW16060   0.626   0.134   6.130  0.0070  0.0884  0.2685
 1534SOL    HW116061   0.560   0.078   6.090  1.4786 -2.0131  0.7783
 1534SOL    HW216062   0.634   0.089   6.214 -1.2780  1.5370  1.1679
 1535SOL     OW16063   0.088   3.860   6.077 -0.3708  0.0563  0.2264
 1535SOL    HW116064   0.127   3.945   6.096 -0.1896  0.6522 -2.7546
 1535SOL    HW216065   0.125   3.807   6.147  1.3066  0.2435 -0.5244
 1536SOL     OW16066   1.317   3.299   6.846  0.2842 -0.1385  0.0084
 1536SOL    HW116067   1.320   3.205   6.829  3.2909  0.3450 -2.1454
 1536SOL    HW216068   1.322   3.299   6.942  0.4090 -0.4537  0.0023
 1537SOL     OW16069   0.603   2.495  17.179  0.4361 -0.8101 -0.2138
 1537SOL    HW116070   0.674   2.495  17.244  1.1583 -0.4520 -0.9981
 1537SOL    HW216071   0.545   2.556  17.223  0.9249  0.0223 -0.7288
 1538SOL     OW16072   3.467   1.437   7.152  0.2539 -0.3581 -0.0739
 1538SOL    HW116073   3.460   1.351   7.192  0.2010 -1.1157 -1.6939
 1538SOL    HW216074   3.536   1.474   7.205  0.2573  0.9605 -0.9952
 1539SOL     OW16075   1.866   3.768  14.207  0.6864  0.0545  0.2628
 1539SOL    HW116076   1.863   3.693  14.267 -2.4153  0.3103  0.3897
 1539SOL    HW216077   1.820   3.735  14.130  0.2441  0.1480  0.4921
 1540SOL     OW16078   2.123   0.534  15.002 -0.5550 -0.0496 -0.5683
 1540SOL    HW116079   2.036   0.560  14.972 -0.0376  1.1518 -1.0341
 1540SOL    HW216080   2.103   0.455  15.052 -1.5357  0.8323  0.4246
 1541SOL     OW16081   3.890   2.167   1.931 -0.3966  0.1094  0.1668
 1541SOL    HW116082   3.862   2.082   1.897 -2.0452  0.5886  0.3098
 1541SOL    HW216083   3.962   2.193   1.874  0.3486 -0.2256  0.9600
 1542SOL     OW16084   2.660   2.544  10.042  0.3191 -0.1432  0.2747
 1542SOL    HW116085   2.643   2.463  10.091 -0.7904 -0.0007  0.1155
 1542SOL    HW216086   2.704   2.513   9.963 -0.5404 -1.6713  0.3994
 1543SOL     OW16087   0.231   1.507  17.569 -0.3268 -0.2592  0.4284
 1543SOL    HW116088   0.140   1.534  17.563 -0.3501 -0.9043 -2.1242
 1543SOL    HW216089   0.261   1.454  17.495 -0.1319  0.4459  0.0100
 1544SOL     OW16090   4.706   4.224   6.576  0.5061  0.1675 -0.2434
 1544SOL    HW116091   4.660   4.308   6.569 -1.0840 -0.7279 -0.5833
 1544SOL    HW216092   4.707   4.194   6.486  0.1585 -2.0395  0.4858
 1545SOL     OW16093   1.079   1.352   8.594  0.0002 -0.1379 -0.4905
 1545SOL    HW116094   1.153   1.324   8.648 -1.6534 -1.1628  1.2229
 1545SOL    HW216095   1.088   1.448   8.595  2.2293 -0.3447 -1.6232
 1546SOL     OW16096   0.851   3.069   1.418 -0.8098  0.3318  0.2846
 1546SOL    HW116097   0.919   3.053   1.353 -2.1458  3.1500 -1.8032
 1546SOL    HW216098   0.780   3.094   1.359 -0.1498  1.5279 -0.0069
 1547SOL     OW16099   1.344   2.588   8.921 -0.1692 -0.2036  0.4979
 1547SOL    HW116100   1.338   2.683   8.915  1.5894 -0.1736 -0.6632
 1547SOL    HW216101   1.366   2.571   8.829  2.0999  3.9227  0.2961
 1548SOL     OW16102   2.133   3.185   7.380  0.0757  0.1568  0.0897
 1548SOL    HW116103   2.126   3.089   7.385  2.1975  0.0573  1.3409
 1548SOL    HW216104   2.215   3.203   7.334 -0.7693  1.0455 -1.0675
 1549SOL     OW16105   2.078   2.179  12.597 -0.1358 -0.1462  0.2021
 1549SOL    HW116106   2.117   2.092  12.598 -0.4034 -0.2680  0.2663
 1549SOL    HW216107   2.051   2.181  12.689  0.3310  0.1351  0.3328
 1550SOL     OW16108   1.084   4.576   5.342 -0.1077 -0.0513 -0.1133
 1550SOL    HW116109   1.090   4.671   5.347  1.7041 -0.3225  3.2622
 1550SOL    HW216110   1.079   4.563   5.247 -1.7752  1.4136 -0.2049
 1551SOL     OW16111   3.122   3.778   3.305 -0.1223 -0.2757  0.1742
 1551SOL    HW116112   3.104   3.866   3.339  2.5139  0.0753  0.6624
 1551SOL    HW216113   3.044   3.763   3.252  0.0789  0.7680 -0.4325
 1552SOL     OW16114   2.171   2.880   4.649  0.0612  0.4030  0.1483
 1552SOL    HW116115   2.203   2.897   4.737 -1.0951 -0.8741  0.8144
 1552SOL    HW216116   2.131   2.963   4.622 -0.3890 -0.1098 -0.7760
 1553SOL     OW16117   4.200   4.205   5.278  0.7937  0.0493  0.2215
 1553SOL    HW116118   4.203   4.287   5.228  0.8234 -0.0999 -0.0178
 1553SOL    HW216119   4.264   4.152   5.231  0.3670 -1.8139  1.7547
 1554SOL     OW16120   0.654   1.028   7.859  0.1541  0.2474  0.3937
 1554SOL    HW116121   0.748   1.032   7.842 -0.3852  1.2430 -2.4088
 1554SOL    HW216122   0.623   1.042   7.769  0.4826  2.1701  0.5846
 1555SOL     OW16123   0.418   0.501  12.606  0.2883 -0.2429  0.5734
 1555SOL    HW116124   0.496   0.544  12.642  0.2660 -0.2080  0.5799
 1555SOL    HW216125   0.459   0.446  12.539  0.3941  1.0381 -0.4324
 1556SOL     OW16126   0.853   1.970   0.241 -0.2260  0.2422  0.3415
 1556SOL    HW116127   0.841   1.877   0.223 -0.1868 -0.1415  2.2248
 1556SOL    HW216128   0.943   1.964   0.273 -0.5997 -1.8794  0.9875
 1557SOL     OW16129   1.327   2.696   4.167  0.0338  0.0357 -0.3931
 1557SOL    HW116130   1.411   2.741   4.173  0.0404 -0.0431  0.0635
 1557SOL    HW216131   1.312   2.674   4.259 -0.4721 -1.7148 -0.8887
 1558SOL     OW16132   0.765   4.398   1.267 -0.5795 -0.0629  0.1262
 1558SOL    HW116133   0.673   4.389   1.292 -0.1394 -3.3103  0.6016
 1558SOL    HW216134   0.806   4.341   1.332  0.4651 -1.8884 -2.1063
 1559SOL     OW16135   3.068   3.159   5.770  0.2660 -0.1008 -0.0020
 1559SOL    HW116136   3.069   3.134   5.863 -0.3843 -1.2610 -0.3120
 1559SOL    HW216137   3.086   3.073   5.732 -1.9951 -1.3627  1.7257
 1560SOL     OW16138   1.765   4.505   8.059  0.2332  0.1339  0.3151
 1560SOL    HW116139   1.737   4.594   8.081  0.7179  0.4859 -0.4784
 1560SOL    HW216140   1.812   4.520   7.977 -0.5365  1.4150  0.1065
 1561SOL     OW16141   1.001   0.942  16.260 -0.3406 -0.4533  0.2016
 1561SOL    HW116142   0.917   0.897  16.249 -1.0288  0.7967  0.2503
 1561SOL    HW216143   1.046   0.905  16.184 -0.4855 -0.6795  0.2259
 1562SOL     OW16144   1.122   1.113   1.985 -0.4005 -0.4406  0.1660
 1562SOL    HW116145   1.049   1.124   2.046  0.1738 -1.0833  0.9441
 1562SOL    HW216146   1.144   1.203   1.960  0.2474 -0.5317  0.4290
 1563SOL     OW16147   2.150   4.104   5.736  0.0854 -0.1070  0.1892
 1563SOL    HW116148   2.227   4.077   5.686 -0.1284 -0.6830  0.1719
 1563SOL    HW216149   2.101   4.168   5.684 -1.3825 -1.8010 -0.5313
 1564SOL     OW16150   1.288   2.266   7.025 -0.5924  0.3377 -0.6672
 1564SOL    HW116151   1.259   2.197   6.965 -1.8978 -1.7191  2.3237
 1564SOL    HW216152   1.366   2.295   6.977  1.6315 -2.6163  1.1985
 1565SOL     OW16153   1.330   4.228   6.366 -0.1472  0.1195 -0.3724
 1565SOL    HW116154   1.293   4.142   6.349 -1.3653  0.9376 -1.8214
 1565SOL    HW216155   1.386   4.251   6.292  0.1166  2.9862  0.7156
 1566SOL     OW16156   4.665   3.367   3.946  0.1452 -0.8423  0.1278
 1566SOL    HW116157   4.663   3.358   3.851 -0.0483  0.3238  0.0240
 1566SOL    HW216158   4.622   3.452   3.956  0.8331 -0.7378  2.2485
 1567SOL     OW16159   3.059   3.908   6.419  0.0343 -0.4043 -0.5102
 1567SOL    HW116160   3.041   3.979   6.357  1.9704 -0.2035 -0.8218
 1567SOL    HW216161   3.000   3.927   6.492  0.8328 -1.2650  0.3514
 1568SOL     OW16162   2.127   0.164   4.904  0.2659  0.2431  0.8071
 1568SOL    HW116163   2.137   0.070   4.917  0.8837  0.1508 -0.3218
 1568SOL    HW216164   2.075   0.184   4.982 -2.4101 -0.2369 -0.8657
 1569SOL     OW16165   0.107   0.524   7.878 -0.2815 -0.1712 -0.4516
 1569SOL    HW116166   0.102   0.582   7.803 -4.3517 -0.6255 -0.5547
 1569SOL    HW216167   0.129   0.592   7.941 -1.4639  2.0138 -2.4110
 1570SOL     OW16168   1.619   1.756   3.918  0.1584  0.0361  0.5883
 1570SOL    HW116169   1.594   1.785   4.006  1.5290  2.4330  0.2093
 1570SOL    HW216170   1.552   1.693   3.892  0.7858  0.1837 -1.3909
 1571SOL     OW16171   1.164   0.419  16.462  0.0292 -0.1640  0.4391
 1571SOL    HW116172   1.149   0.485  16.529  0.5849  1.4375 -1.0034
 1571SOL    HW216173   1.227   0.360  16.504  3.9002  2.9926 -0.9387
 1572SOL     OW16174   3.861   3.274  16.873  0.5153 -0.0785  0.0431
 1572SOL    HW116175   3.805   3.197  16.865  0.3795  0.1304 -0.9931
 1572SOL    HW216176   3.806   3.317  16.938 -0.3525 -0.2489 -0.5684
 1573SOL     OW16177   2.068   1.299   5.440 -0.6304 -0.2755  0.2187
 1573SOL    HW116178   2.010   1.235   5.400 -2.1598  0.9982  0.3717
 1573SOL    HW216179   2.011   1.328   5.512  0.5531  0.4705  0.8619
 1574SOL     OW16180   4.590   0.354   1.489 -0.4330  0.1388 -0.6697
 1574SOL    HW116181   4.507   0.317   1.521  0.9552 -2.5409 -0.1466
 1574SOL    HW216182   4.570   0.353   1.396 -0.9268 -1.2044 -0.5632
 1575SOL     OW16183   3.618   3.187  11.262 -0.5517  0.1974 -0.3820
 1575SOL    HW116184   3.643   3.249  11.331  0.6658  0.0828 -0.7158
 1575SOL    HW216185   3.701   3.183  11.214 -2.0103  0.8392 -2.9825
 1576SOL     OW16186   4.640   0.434   5.894 -0.1870 -0.6074  0.0552
 1576SOL    HW116187   4.611   0.354   5.938 -2.1401  0.2550  0.3536
 1576SOL    HW216188   4.575   0.437   5.824 -0.3451 -0.8466  0.1928
 1577SOL     OW16189   2.573   4.038   2.264  0.2036 -0.2807  0.6320
 1577SOL    HW116190   2.549   4.025   2.172 -1.4230 -0.1057  1.0189
 1577SOL    HW216191   2.489   4.070   2.298  1.3138  2.1089  1.1380
 1578SOL     OW16192   1.008   1.914   6.959 -0.5168  0.4427  0.5041
 1578SOL    HW116193   1.006   1.928   7.054 -2.3928  1.1268  0.3758
 1578SOL    HW216194   1.044   1.826   6.955  0.6890  0.7998  3.5837
 1579SOL     OW16195   2.023   2.063   5.991 -0.6517 -0.3659 -0.3526
 1579SOL    HW116196   1.967   2.014   5.931  2.3228 -2.5886 -1.3054
 1579SOL    HW216197   1.960   2.113   6.043 -0.7634 -0.2050 -0.6376
 1580SOL     OW16198   2.391   0.935   6.903  0.4055 -0.2981 -0.2822
 1580SOL    HW116199   2.436   1.018   6.913 -0.6442  0.1811  0.4414
 1580SOL    HW216200   2.340   0.941   6.984  1.2754  0.2232  0.2197
 1581SOL     OW16201   2.140   0.370   8.784 -0.0019  0.1615  0.0062
 1581SOL    HW116202   2.076   0.399   8.719  1.7641 -0.5444 -2.0627
 1581SOL    HW216203   2.112   0.408   8.868 -1.2249 -0.2217 -0.2338
 1582SOL     OW16204   4.621   2.754   2.912  0.0849 -0.3710  0.4479
 1582SOL    HW116205   4.629   2.745   2.817 -0.4334 -1.4943  0.5099
 1582SOL    HW216206   4.563   2.678   2.922  2.1939 -2.0823 -0.2121
 1583SOL     OW16207   2.169   1.888   3.915 -0.3898 -0.2687 -0.1564
 1583SOL    HW116208   2.256   1.892   3.875 -0.0680  1.8743  0.7459
 1583SOL    HW216209   2.143   1.979   3.929 -0.5266  0.0646 -2.6418
 1584SOL     OW16210   0.804   4.195  15.850 -0.2460 -0.3368  0.2779
 1584SOL    HW116211   0.812   4.120  15.791 -0.2443  0.1651 -0.3520
 1584SOL    HW216212   0.739   4.249  15.805  0.9925 -0.4002 -1.5791
 1585SOL     OW16213   0.329   3.136  13.261 -0.1998  0.3692 -0.0714
 1585SOL    HW116214   0.308   3.225  13.289  0.5393  0.7070 -0.6110
 1585SOL    HW216215   0.253   3.084  13.289  1.4950 -1.1515  1.7355
 1586SOL     OW16216   4.247   3.307   1.075 -0.3305 -0.6293 -0.4781
 1586SOL    HW116217   4.245   3.366   1.151 -0.4826 -1.9440  0.5314
 1586SOL    HW216218   4.266   3.374   1.008  1.6527 -1.2768 -0.5566
 1587SOL     OW16219   1.313   4.462   7.805 -0.7707 -0.1868 -0.3279
 1587SOL    HW116220   1.399   4.420   7.799  0.0099  1.2375  0.7703
 1587SOL    HW216221   1.265   4.387   7.773  2.0652 -2.3874  0.5856
 1588SOL     OW16222   0.158   4.122   4.601 -0.3852  0.0829  0.3493
 1588SOL    HW116223   0.246   4.087   4.584 -0.5105 -1.4126  2.7789
 1588SOL    HW216224   0.156   4.111   4.696  0.0217  1.1961  0.4793
 1589SOL     OW16225   0.135   2.335  10.151  0.0444 -0.0736  0.3528
 1589SOL    HW116226   0.173   2.409  10.104  0.6730 -0.1182  0.7914
 1589SOL    HW216227   0.224   2.311  10.173 -1.0661 -4.0977  0.4904
 1590SOL     OW16228   2.117   1.213   4.897  0.0285  0.2558 -0.1866
 1590SOL    HW116229   2.184   1.146   4.893  1.2440  1.5962 -2.1060
 1590SOL    HW216230   2.073   1.193   4.815  0.4403 -1.7936  0.1054
 1591SOL     OW16231   3.681   1.839   5.707  0.4862  0.5899 -0.0762
 1591SOL    HW116232   3.665   1.830   5.613 -0.9015  1.7520  0.0489
 1591SOL    HW216233   3.770   1.809   5.727 -0.0208 -0.8164  0.0817
 1592SOL     OW16234   4.267   2.130   7.254  0.3449  0.2049 -0.6800
 1592SOL    HW116235   4.253   2.169   7.167  0.7169  2.0663  0.0925
 1592SOL    HW216236   4.359   2.152   7.270  0.3726 -0.2401 -0.2404
 1593SOL     OW16237   3.041   4.566  15.529  0.4601  0.1539 -0.0676
 1593SOL    HW116238   3.005   4.477  15.520  0.3055  0.1574  0.5000
 1593SOL    HW216239   3.131   4.555  15.497  0.9632  0.6642  1.1869
 1594SOL     OW16240   1.989   2.154  14.893  0.3043  0.4045 -0.5316
 1594SOL    HW116241   1.909   2.106  14.869  1.2063 -1.3983  0.1071
 1594SOL    HW216242   1.976   2.228  14.833 -2.9868 -1.4237 -2.1311
 1595SOL     OW16243   2.466   4.191   7.890  0.1551  0.9221 -0.3306
 1595SOL    HW116244   2.525   4.195   7.815  0.3864 -0.6590 -0.2333
 1595SOL    HW216245   2.456   4.285   7.902 -1.8640  0.7449 -0.5227
 1596SOL     OW16246   4.360   2.751   6.964  0.2599 -0.2244  0.0786
 1596SOL    HW116247   4.266   2.735   6.975  0.1323 -0.3745 -1.2329
 1596SOL    HW216248   4.399   2.764   7.051 -0.2834  0.5551  0.2027
 1597SOL     OW16249   3.258   1.143   3.064 -0.6609 -0.2207 -0.1635
 1597SOL    HW116250   3.259   1.193   3.146 -3.0256 -1.7309  0.8202
 1597SOL    HW216251   3.336   1.178   3.022 -1.2942  0.0980 -1.0677
 1598SOL     OW16252   0.772   0.797  16.021 -0.0072 -0.1431 -0.5151
 1598SOL    HW116253   0.825   0.719  16.002  2.0614  1.2601 -0.5240
 1598SOL    HW216254   0.694   0.769  15.974 -0.5233  0.1469  0.1686
 1599SOL     OW16255   2.184   2.937   6.580 -0.3936  0.1304 -0.3506
 1599SOL    HW116256   2.130   3.001   6.533  3.2866  2.2877 -1.6587
 1599SOL    HW216257   2.232   2.986   6.647  2.0501 -1.2377 -1.1088
 1600SOL     OW16258   1.580   2.458  10.078 -0.1263  0.3271 -0.3816
 1600SOL    HW116259   1.629   2.456  10.161 -3.4010 -0.6089  1.5158
 1600SOL    HW216260   1.539   2.545  10.078 -0.2427  0.2763 -1.7298
 1601SOL     OW16261   0.878   4.705   2.242  0.3104  0.0530  0.1694
 1601SOL    HW116262   0.870   0.024   2.327 -1.9605  0.1974 -0.1256
 1601SOL    HW216263   0.933   0.045   2.196 -2.1367  1.6132 -0.6230
 1602SOL     OW16264   2.677   4.707   2.743 -0.5333  1.2408  0.0953
 1602SOL    HW116265   2.768   4.722   2.767 -0.8328  1.8272  0.8785
 1602SOL    HW216266   2.637   0.069   2.758  0.9053  2.3628 -2.6282
 1603SOL     OW16267   0.955   4.567  13.641 -0.3722 -0.4537 -0.3092
 1603SOL    HW116268   0.896   4.620  13.588 -1.4910 -1.0811  0.3086
 1603SOL    HW216269   0.984   4.624  13.712 -2.1324 -0.0521  0.0938
 1604SOL     OW16270   4.355   2.615   2.653  0.4867 -0.1836  0.0903
 1604SOL    HW116271   4.276   2.636   2.703 -0.2963 -0.2234 -1.1469
 1604SOL    HW216272   4.413   2.686   2.680  0.7379  0.0388 -1.0347
 1605SOL     OW16273   0.114   4.333  11.834 -0.4855  0.4357 -0.0849
 1605SOL    HW116274   0.158   4.255  11.800 -1.4628 -0.8094  1.4779
 1605SOL    HW216275   0.175   4.368  11.899 -1.0406  0.5874  0.3541
 1606SOL     OW16276   1.672   0.471  14.667  0.8771  0.1689  0.2355
 1606SOL    HW116277   1.706   0.449  14.754 -2.1205 -0.0660  1.3448
 1606SOL    HW216278   1.592   0.419  14.664 -0.0037  1.6189 -1.9349
 1607SOL     OW16279   2.286   2.018   0.264  0.0669 -0.6480  0.0201
 1607SOL    HW116280   2.269   1.986   0.176 -1.0992 -1.7928  0.6529
 1607SOL    HW216281   2.381   2.008   0.274  0.7828  3.4846 -2.7476
 1608SOL     OW16282   0.682   1.116  12.500  0.2383 -0.3481  0.8361
 1608SOL    HW116283   0.599   1.071  12.484 -0.6735  1.6865 -0.2239
 1608SOL    HW216284   0.674   1.113  12.596 -1.1478 -0.2151  0.7282
 1609SOL     OW16285   1.822   0.656   2.416 -0.2196  0.0504 -0.3299
 1609SOL    HW116286   1.758   0.585   2.419 -1.5765  1.3309  1.2032
 1609SOL    HW216287   1.806   0.702   2.499 -2.7583 -1.7072  0.1367
 1610SOL     OW16288   0.209   3.103   8.089  0.8152 -0.4908 -0.3323
 1610SOL    HW116289   0.156   3.083   8.166 -0.3672  0.5593 -0.8786
 1610SOL    HW216290   0.227   3.195   8.110 -1.4952 -0.1425  0.0882
 1611SOL     OW16291   0.538   0.637   2.545 -0.0418 -0.4742 -0.0799
 1611SOL    HW116292   0.620   0.595   2.517  0.3579  0.4632 -0.3156
 1611SOL    HW216293   0.506   0.560   2.592 -0.0960 -0.3601  0.0726
 1612SOL     OW16294   0.737   1.313   8.524 -0.3167  0.0382  0.5990
 1612SOL    HW116295   0.814   1.276   8.480 -1.6283 -1.2614 -0.5888
 1612SOL    HW216296   0.707   1.364   8.448  0.5138  0.9594  0.8876
 1613SOL     OW16297   4.283   4.157   7.256  0.1920  0.0676  0.2971
 1613SOL    HW116298   4.330   4.210   7.320  2.0970 -0.8459 -0.3672
 1613SOL    HW216299   4.225   4.230   7.234  0.1620 -0.7624 -2.2986
 1614SOL     OW16300   2.717   3.371   4.661  0.1981  0.8441 -0.1650
 1614SOL    HW116301   2.637   3.350   4.612 -0.8229 -0.7376  2.2191
 1614SOL    HW216302   2.780   3.372   4.588 -2.1309 -1.1162 -2.2173
 1615SOL     OW16303   3.021   1.527   9.576  0.4042  0.1435 -0.7585
 1615SOL    HW116304   3.074   1.450   9.555  2.9693  1.7521 -0.1664
 1615SOL    HW216305   2.933   1.493   9.560  0.7920 -0.5289 -1.5007
 1616SOL     OW16306   0.842   2.187  10.124  0.4244  0.5862  0.3728
 1616SOL    HW116307   0.763   2.238  10.112  1.5070  2.6220  1.9967
 1616SOL    HW216308   0.810   2.109  10.169  1.1137 -1.2374 -2.2895
 1617SOL     OW16309   3.195   1.902   2.020  0.1409  0.0061 -0.3779
 1617SOL    HW116310   3.172   1.992   2.044 -0.1463 -0.0381 -0.4915
 1617SOL    HW216311   3.251   1.868   2.090  1.4917 -0.4776 -1.7027
 1618SOL     OW16312   3.233   2.632   0.475  0.1129 -0.0526  0.5209
 1618SOL    HW116313   3.226   2.552   0.423 -1.8504 -0.2104  1.0470
 1618SOL    HW216314   3.166   2.690   0.440  0.5346  0.0212 -0.1662
 1619SOL     OW16315   3.353   4.506   2.321  0.2394  0.0835  0.0041
 1619SOL    HW116316   3.267   4.485   2.356  0.3282  0.7027  0.5967
 1619SOL    HW216317   3.406   4.455   2.383  1.3917  0.0856 -0.9655
 1620SOL     OW16318   1.838   2.180  13.323  0.1411  0.4012  0.8058
 1620SOL    HW116319   1.823   2.156  13.414 -0.7759  2.2961  1.1644
 1620SOL    HW216320   1.759   2.146  13.282  0.9172  0.7490 -0.9691
 1621SOL     OW16321   3.993   3.680   0.252 -0.3169  0.5707 -0.0991
 1621SOL    HW116322   4.059   3.676   0.183  0.6330 -4.3218  1.1175
 1621SOL    HW216323   3.919   3.639   0.207 -0.4872  0.7990 -0.0240
 1622SOL     OW16324   1.875   0.904   4.752  0.3105  0.1786 -0.4623
 1622SOL    HW116325   1.840   0.942   4.671 -0.5959 -0.6307 -0.4506
 1622SOL    HW216326   1.843   0.814   4.756 -0.2139  0.4871  2.1390
 1623SOL     OW16327   4.441   2.460   7.987  0.3083  0.1479  0.7123
 1623SOL    HW116328   4.440   2.370   7.954  1.4112  0.7459 -0.9677
 1623SOL    HW216329   4.383   2.502   7.924  0.9081  1.4284  1.0060
 1624SOL     OW16330   1.926   3.908   5.284  0.5786  0.0317  0.0933
 1624SOL    HW116331   1.956   3.994   5.314 -1.3360  0.2941  1.2422
 1624SOL    HW216332   1.978   3.852   5.341  0.2601  0.5071  0.8501
 1625SOL     OW16333   4.013   4.086   3.489  0.1154  0.0140  0.3748
 1625SOL    HW116334   3.993   4.101   3.396 -2.9336 -0.0716  1.0027
 1625SOL    HW216335   3.936   4.038   3.519 -1.2569  0.7774 -1.9189
 1626SOL     OW16336   4.303   3.691  11.142 -0.2322 -0.1173  0.0915
 1626SOL    HW116337   4.243   3.626  11.106 -1.0378  1.0823 -0.7516
 1626SOL    HW216338   4.363   3.705  11.068  0.1134  1.1070  0.6022
 1627SOL     OW16339   1.269   1.996   6.084  0.1853  0.3458  0.3099
 1627SOL    HW116340   1.356   1.955   6.080 -0.1795 -0.6622  2.3045
 1627SOL    HW216341   1.212   1.924   6.058 -1.1450  1.6075 -0.2463
 1628SOL     OW16342   2.146   1.028   7.483 -0.1833  0.3582 -0.2768
 1628SOL    HW116343   2.138   0.933   7.480  1.1626  0.2103  0.6389
 1628SOL    HW216344   2.174   1.045   7.574  1.9033 -1.7294 -0.5236
 1629SOL     OW16345   0.463   4.722  17.693  0.2316 -0.1427  0.2607
 1629SOL    HW116346   0.428   0.047  17.618  1.2737  1.9473  1.1315
 1629SOL    HW216347   0.557   0.016  17.681  0.8921 -3.1953  0.8657
 1630SOL     OW16348   3.355   2.923   6.270  0.2982 -0.5430 -0.2423
 1630SOL    HW116349   3.421   2.909   6.202 -0.7585  3.0027 -1.9740
 1630SOL    HW216350   3.334   3.013   6.249  0.9703  0.1083  1.8339
 1631SOL     OW16351   2.702   2.520   6.618 -0.2614 -0.2782 -0.1099
 1631SOL    HW116352   2.769   2.453   6.604 -0.3269 -0.9404  2.7844
 1631SOL    HW216353   2.648   2.465   6.674 -1.3666 -1.6704 -2.5042
 1632SOL     OW16354   1.409   3.942  12.893 -0.8955  0.0120 -0.5974
 1632SOL    HW116355   1.483   3.994  12.925  0.5559 -1.9605 -0.7478
 1632SOL    HW216356   1.457   3.869  12.853  1.2040  1.1684 -0.1369
 1633SOL     OW16357   2.835   1.124   2.415  0.4084 -0.0719 -0.4102
 1633SOL    HW116358   2.828   1.157   2.505  0.0499  1.4379 -0.9815
 1633SOL    HW216359   2.892   1.048   2.426  0.4636  0.0700  0.2592
 1634SOL     OW16360   2.415   4.694   7.064 -0.1560 -0.5330  0.0043
 1634SOL    HW116361   2.457   0.054   7.085 -1.4347 -0.3710  1.8770
 1634SOL    HW216362   2.430   4.684   6.970 -1.3187 -0.4697 -0.1861
 1635SOL     OW16363   0.961   0.961   4.211  0.1774  0.3443  0.3420
 1635SOL    HW116364   0.873   0.945   4.246 -0.7313 -0.2286 -2.1791
 1635SOL    HW216365   0.940   1.029   4.147  1.8887  0.0588 -0.5171
 1636SOL     OW16366   2.627   2.051   6.897 -0.0525  0.2115  0.1915
 1636SOL    HW116367   2.545   2.091   6.866  0.1273  2.0142  2.0231
 1636SOL    HW216368   2.600   2.004   6.976 -1.0352  1.3385  0.5409
 1637SOL     OW16369   1.048   1.584   3.857  0.1244 -0.1806 -0.0241
 1637SOL    HW116370   1.091   1.624   3.782  0.1195 -0.6241 -0.2589
 1637SOL    HW216371   1.020   1.665   3.901 -0.2722 -0.5560  0.4203
 1638SOL     OW16372   2.482   2.229   3.704 -0.2133 -0.0879 -0.2642
 1638SOL    HW116373   2.427   2.278   3.643  0.6509 -1.1102 -1.8797
 1638SOL    HW216374   2.516   2.303   3.755  1.1854  0.7139 -2.3370
 1639SOL     OW16375   0.321   0.548  16.781 -0.2966  0.0240  0.3807
 1639SOL    HW116376   0.244   0.604  16.789  0.1605  0.5424  1.1737
 1639SOL    HW216377   0.304   0.510  16.695 -0.1923 -0.8306  0.7388
 1640SOL     OW16378   4.233   2.096   5.835 -0.0850  0.4303  0.2553
 1640SOL    HW116379   4.185   2.016   5.853 -2.4517  1.4614 -1.5601
 1640SOL    HW216380   4.215   2.098   5.741 -0.6035 -1.3078  0.3263
 1641SOL     OW16381   3.667   1.217  11.010 -0.3977  0.2242  0.2092
 1641SOL    HW116382   3.724   1.278  11.057  1.2442  0.0664 -1.6340
 1641SOL    HW216383   3.588   1.245  11.057 -0.2367  0.4722  0.3333
 1642SOL     OW16384   3.676   2.507   2.296  0.5064 -0.1745  0.7275
 1642SOL    HW116385   3.705   2.428   2.251 -0.2335  0.6708 -1.2120
 1642SOL    HW216386   3.616   2.549   2.236  0.1040 -1.4223  0.2614
 1643SOL     OW16387   4.456   4.114   1.284  0.2907  0.3590  0.2562
 1643SOL    HW116388   4.366   4.136   1.307  0.4150  0.7415  0.3751
 1643SOL    HW216389   4.441   4.058   1.208 -0.6090 -0.6927  1.2074
 1644SOL     OW16390   1.014   3.692   7.332  0.4667 -0.1247 -0.7103
 1644SOL    HW116391   1.031   3.658   7.420  1.5810  0.1744 -0.8160
 1644SOL    HW216392   1.058   3.775   7.347  0.6733 -0.2514 -0.6216
 1645SOL     OW16393   0.320   1.064   1.539 -0.3288 -0.0972  0.6249
 1645SOL    HW116394   0.257   1.101   1.477 -1.4069 -0.2807  1.6205
 1645SOL    HW216395   0.277   1.074   1.624 -0.5785  1.6497  0.2884
 1646SOL     OW16396   0.851   2.037   3.806  0.3685  0.2687 -0.0921
 1646SOL    HW116397   0.849   1.981   3.729  2.3319 -0.6524  0.5331
 1646SOL    HW216398   0.941   2.023   3.837  0.2590 -0.0510  0.0852
 1647SOL     OW16399   3.348   2.516   4.600 -0.4047  0.0783 -0.0169
 1647SOL    HW116400   3.279   2.571   4.638  0.3238 -0.0102  1.4158
 1647SOL    HW216401   3.359   2.563   4.517 -0.4882 -0.9312 -0.5898
 1648SOL     OW16402   2.784   1.107   9.515  0.3543 -0.1711  0.3191
 1648SOL    HW116403   2.729   1.055   9.458 -2.1550  0.7958  1.8605
 1648SOL    HW216404   2.854   1.045   9.534 -1.8442 -2.7559 -0.0761
 1649SOL     OW16405   2.476   1.703  11.310 -0.5706 -0.4799 -0.2094
 1649SOL    HW116406   2.486   1.695  11.405  0.3390 -0.1166 -0.2723
 1649SOL    HW216407   2.533   1.630  11.287 -0.6496 -0.1030 -1.6245
 1650SOL     OW16408   3.465   1.669   5.285 -0.5398 -0.0109 -0.1874
 1650SOL    HW116409   3.546   1.636   5.325 -1.9283 -2.1307  0.8963
 1650SOL    HW216410   3.499   1.719   5.211  1.4356  0.5278  1.0794
 1651SOL     OW16411   2.811   2.499  11.495 -0.4383  0.2284 -0.0746
 1651SOL    HW116412   2.847   2.553  11.425  1.6190 -1.4577 -0.3139
 1651SOL    HW216413   2.779   2.559  11.562 -0.2509 -0.0022  0.2221
 1652SOL     OW16414   0.341   3.574   8.818  0.1476 -0.1024  0.1994
 1652SOL    HW116415   0.328   3.642   8.752 -1.2988 -0.3482  0.2319
 1652SOL    HW216416   0.433   3.564   8.793 -0.5199  0.3669 -2.4482
 1653SOL     OW16417   3.895   2.194  10.917 -0.3392  0.4311 -0.5035
 1653SOL    HW116418   3.966   2.255  10.932 -0.6121  1.5445 -3.7731
 1653SOL    HW216419   3.873   2.166  11.006 -0.7852  2.2162 -0.0649
 1654SOL     OW16420   3.459   1.887   4.770  0.7814  0.3804  0.3072
 1654SOL    HW116421   3.539   1.844   4.740  1.1773  2.0172 -1.0070
 1654SOL    HW216422   3.402   1.849   4.704  1.1565  1.5211 -0.6704
 1655SOL     OW16423   1.449   3.916   5.513 -0.2049 -0.4877  0.1182
 1655SOL    HW116424   1.541   3.890   5.521  0.0786  0.6550  0.4511
 1655SOL    HW216425   1.436   3.925   5.419  1.2666  1.7363  0.1457
 1656SOL     OW16426   1.197   3.959  14.601 -0.7244  0.0826  0.6263
 1656SOL    HW116427   1.285   3.971  14.636  0.0098  4.8232 -2.7968
 1656SOL    HW216428   1.204   3.875  14.555 -0.6257  0.1741  0.4713
 1657SOL     OW16429   2.616   1.474   5.932 -0.1709 -0.5709  0.1126
 1657SOL    HW116430   2.628   1.529   6.009 -0.7486 -0.5670  0.1938
 1657SOL    HW216431   2.617   1.392   5.981 -0.7809 -1.3292 -1.1232
 1658SOL     OW16432   2.328   3.766   2.524  0.1209  0.1566 -0.3665
 1658SOL    HW116433   2.380   3.773   2.604  1.1384 -0.0078 -1.0130
 1658SOL    HW216434   2.366   3.694   2.474  0.5885  0.2135 -0.0890
 1659SOL     OW16435   1.757   0.213  14.136  0.2129 -0.0247 -0.5023
 1659SOL    HW116436   1.818   0.286  14.149  0.3625 -0.2562  0.0809
 1659SOL    HW216437   1.797   0.139  14.181 -0.1848  0.5538  0.8028
 1660SOL     OW16438   2.009   2.411   6.393 -0.2209  0.3130 -0.3047
 1660SOL    HW116439   2.017   2.471   6.467 -2.7538 -0.7078  0.7938
 1660SOL    HW216440   1.916   2.402   6.375 -0.1189 -2.7861  0.6975
 1661SOL     OW16441   2.234   1.136   7.266 -0.7051 -0.3824  0.2493
 1661SOL    HW116442   2.213   1.087   7.345  1.4851  1.7015  2.1313
 1661SOL    HW216443   2.329   1.129   7.256 -0.5674 -0.5948  1.6590
 1662SOL     OW16444   2.403   3.414   7.636  0.1364  0.3807 -0.2203
 1662SOL    HW116445   2.475   3.385   7.691 -2.0686 -1.4688  1.6596
 1662SOL    HW216446   2.330   3.412   7.698 -0.3368 -0.7367 -0.8063
 1663SOL     OW16447   3.549   3.244   8.569  0.5277 -0.6751 -0.3560
 1663SOL    HW116448   3.635   3.285   8.568  0.5767 -0.7707  0.2259
 1663SOL    HW216449   3.512   3.283   8.489 -0.4701 -0.2151  0.3271
 1664SOL     OW16450   1.428   2.871   3.414  0.2546 -0.4826  0.4015
 1664SOL    HW116451   1.523   2.879   3.405 -0.0477  2.6941  0.0044
 1664SOL    HW216452   1.413   2.934   3.343  2.1691 -0.9717 -0.4240
 1665SOL     OW16453   1.532   4.239   7.374  0.1364 -0.3606  0.9164
 1665SOL    HW116454   1.624   4.253   7.397 -0.4993  0.0934  3.1094
 1665SOL    HW216455   1.507   4.173   7.439  0.6089 -1.6362 -0.1777
 1666SOL     OW16456   3.571   2.421   5.865  0.3052  0.4507 -0.1467
 1666SOL    HW116457   3.494   2.364   5.859  0.2568  0.5950 -0.9376
 1666SOL    HW216458   3.551   2.473   5.943  0.8252  0.9417 -0.3454
 1667SOL     OW16459   3.852   3.706   0.519  0.0480  0.2634 -0.2344
 1667SOL    HW116460   3.892   3.772   0.576 -0.0331  1.6041 -1.7308
 1667SOL    HW216461   3.870   3.735   0.430  0.0153 -0.2955 -0.4169
 1668SOL     OW16462   1.543   4.607   2.894 -0.8656  0.0986  0.4439
 1668SOL    HW116463   1.594   4.545   2.945 -0.9316 -0.7425 -0.5122
 1668SOL    HW216464   1.477   4.636   2.957 -0.5872  1.9297 -0.0893
 1669SOL     OW16465   2.932   3.012   1.635 -0.2193  1.2756 -0.4179
 1669SOL    HW116466   3.016   3.040   1.671 -0.1322 -0.1202  0.4634
 1669SOL    HW216467   2.962   2.926   1.605  1.6703  1.6532  0.3918
 1670SOL     OW16468   1.447   1.228   1.767 -0.0664  0.2551  0.3440
 1670SOL    HW116469   1.449   1.195   1.857  1.5689 -0.3485  0.0858
 1670SOL    HW216470   1.370   1.177   1.739 -1.0680  2.6243 -1.1736
 1671SOL     OW16471   4.594   1.145   4.132 -0.0151  0.1371  0.5240
 1671SOL    HW116472   4.534   1.171   4.062 -1.5408 -1.1605  1.3597
 1671SOL    HW216473   4.670   1.145   4.073 -0.7560  0.2072 -0.4231
 1672SOL     OW16474   2.874   0.276  16.200  0.0844 -0.2856 -0.1414
 1672SOL    HW116475   2.868   0.352  16.143 -0.0719 -1.8692 -2.2440
 1672SOL    HW216476   2.780   0.260  16.208  0.5408 -3.1785 -0.4968
 1673SOL     OW16477   2.249   4.282  17.432 -0.1270  0.5072 -0.2415
 1673SOL    HW116478   2.254   4.354  17.494  0.6596  0.4412 -0.2293
 1673SOL    HW216479   2.165   4.240  17.453  1.0161 -1.7328 -0.1122
 1674SOL     OW16480   3.777   2.280  14.540  0.1892  0.3790  0.3347
 1674SOL    HW116481   3.776   2.227  14.461 -2.8783 -0.9956  1.2922
 1674SOL    HW216482   3.813   2.365  14.513 -0.5703  0.6918  0.2946
 1675SOL     OW16483   2.730   4.014   9.185 -0.3842  0.2801 -0.5628
 1675SOL    HW116484   2.772   4.088   9.229  0.7946 -0.6850 -0.0567
 1675SOL    HW216485   2.657   4.053   9.138  0.6897  0.5714 -1.9893
 1676SOL     OW16486   1.453   0.201   7.473  0.7852  0.1773 -0.4419
 1676SOL    HW116487   1.424   0.246   7.552  2.1043 -1.7429  1.1488
 1676SOL    HW216488   1.523   0.150   7.515  0.8918  0.4636 -0.2760
 1677SOL     OW16489   3.671   3.330   1.250 -0.4933  0.0692  0.0300
 1677SOL    HW116490   3.704   3.377   1.326  0.1076 -0.3064 -0.0001
 1677SOL    HW216491   3.746   3.270   1.248 -1.8619 -1.6385  0.1021
 1678SOL     OW16492   4.090   2.061   8.224 -0.6182  0.9015 -0.3497
 1678SOL    HW116493   4.136   2.086   8.145  2.4156  1.6943  1.6793
 1678SOL    HW216494   4.023   2.001   8.191  0.3713 -0.8567  0.8220
 1679SOL     OW16495   2.983   4.303  15.588 -0.0328 -0.2948  0.6076
 1679SOL    HW116496   3.072   4.289  15.618  1.2459 -0.6786 -3.3388
 1679SOL    HW216497   2.937   4.273  15.667 -0.3030 -0.8708  0.2365
 1680SOL     OW16498   1.869   3.108   2.663  0.0730 -0.6388 -0.3768
 1680SOL    HW116499   1.859   3.076   2.753 -1.6092  0.2287 -0.2445
 1680SOL    HW216500   1.777   3.133   2.652 -0.4772 -3.4690 -2.0720
 1681SOL     OW16501   4.140   3.339  10.653 -0.2920  0.6454 -0.1398
 1681SOL    HW116502   4.141   3.434  10.650 -1.1997  0.6392 -0.7812
 1681SOL    HW216503   4.219   3.324  10.602  1.3357 -0.6374  2.7528
 1682SOL     OW16504   0.618   1.431   7.565  0.0973 -0.1976 -0.0546
 1682SOL    HW116505   0.585   1.444   7.476 -0.6017 -0.5865  0.1457
 1682SOL    HW216506   0.584   1.507   7.612  0.1670  1.1762 -2.1960
 1683SOL     OW16507   2.207   2.653   9.291 -0.0119  0.3025 -0.2299
 1683SOL    HW116508   2.122   2.630   9.329  0.6715 -1.3322  0.2999
 1683SOL    HW216509   2.184   2.701   9.212 -0.1997  1.6640  0.6500
 1684SOL     OW16510   1.349   0.464   2.317 -0.6278 -0.6333 -0.2496
 1684SOL    HW116511   1.272   0.520   2.309  0.0963  0.0687 -2.2354
 1684SOL    HW216512   1.391   0.492   2.236 -0.0945  0.2487  0.3374
 1685SOL     OW16513   3.575   3.984   9.332 -0.3361 -0.2729  0.3332
 1685SOL    HW116514   3.595   3.899   9.291  0.8386  0.7982 -1.2922
 1685SOL    HW216515   3.542   3.959   9.419 -2.1202  0.6027 -0.1130
 1686SOL     OW16516   2.383   3.954   5.830 -0.0600 -0.1391  0.1402
 1686SOL    HW116517   2.336   4.000   5.899 -1.1352 -1.2586  0.1553
 1686SOL    HW216518   2.409   3.876   5.878 -0.5117 -1.5826 -1.9336
 1687SOL     OW16519   4.143   2.409   2.135 -0.4338 -0.4537  0.0398
 1687SOL    HW116520   4.228   2.451   2.149 -0.9945  0.8997 -0.6166
 1687SOL    HW216521   4.090   2.487   2.115  0.5036 -0.2520 -1.6764
 1688SOL     OW16522   2.608   4.384  15.778 -0.0225 -0.0041 -0.0393
 1688SOL    HW116523   2.648   4.471  15.783  0.6958 -0.3574  0.3612
 1688SOL    HW216524   2.562   4.397  15.695 -1.1017  0.2999  0.6151
 1689SOL     OW16525   0.230   3.177   4.457 -0.3989  0.0541  0.5195
 1689SOL    HW116526   0.323   3.155   4.466 -0.8932 -1.7754  1.2030
 1689SOL    HW216527   0.227   3.251   4.397 -0.2550 -0.7002 -0.4217
 1690SOL     OW16528   3.469   0.277   9.551  0.6913 -0.3170 -0.1425
 1690SOL    HW116529   3.488   0.190   9.517  0.8696 -1.2339  2.3210
 1690SOL    HW216530   3.561   0.303   9.560 -0.6086  4.3734 -0.3332
 1691SOL     OW16531   4.399   0.225   1.654  0.4970 -0.3198 -0.0355
 1691SOL    HW116532   4.327   0.221   1.717  1.3972  3.5728  1.2696
 1691SOL    HW216533   4.467   0.181   1.705  0.6807 -0.5679 -0.5056
 1692SOL     OW16534   1.541   4.676   5.008  0.1984 -0.1547 -0.8629
 1692SOL    HW116535   1.535   4.582   4.991  1.6220 -0.1139 -1.6198
 1692SOL    HW216536   1.630   4.702   4.985  0.2700  0.5107  0.1710
 1693SOL     OW16537   4.670   2.363   6.718 -0.0470 -0.7069  0.5475
 1693SOL    HW116538   4.629   2.352   6.633  1.3665  0.2991 -0.2686
 1693SOL    HW216539   4.647   2.454   6.739  1.8518  0.0481 -0.6363
 1694SOL     OW16540   3.601   0.805   1.187 -0.5732  0.3362 -0.6021
 1694SOL    HW116541   3.659   0.733   1.210  0.1995  0.5213 -1.9813
 1694SOL    HW216542   3.562   0.806   1.274 -2.8183  3.7649 -1.6278
 1695SOL     OW16543   4.582   3.017   3.212 -0.1024  0.1494 -0.1881
 1695SOL    HW116544   4.656   3.077   3.210  0.3203 -0.3285  1.0879
 1695SOL    HW216545   4.628   2.933   3.208 -1.3915 -0.5778 -0.0946
 1696SOL     OW16546   3.974   2.568   5.978  0.0361 -0.2359  0.1075
 1696SOL    HW116547   4.054   2.578   5.927 -0.0712  1.9542  0.3569
 1696SOL    HW216548   3.989   2.650   6.025 -1.9016  0.4764 -0.5297
 1697SOL     OW16549   0.874   2.410   4.775 -0.2404 -0.7457  0.3266
 1697SOL    HW116550   0.966   2.428   4.756 -0.6715  2.4634  1.2955
 1697SOL    HW216551   0.842   2.492   4.813  0.8944 -0.3371  0.4310
 1698SOL     OW16552   1.282   3.815  10.709 -0.2400 -0.9491 -1.0686
 1698SOL    HW116553   1.255   3.897  10.751 -1.6069 -2.3633  0.7876
 1698SOL    HW216554   1.228   3.804  10.631 -0.9540 -0.4444 -0.6371
 1699SOL     OW16555   1.326   2.862   6.317  0.4235 -0.2579  0.1311
 1699SOL    HW116556   1.268   2.833   6.388 -0.6636 -0.0061 -0.6607
 1699SOL    HW216557   1.406   2.883   6.366  0.9783  0.9092 -1.2576
 1700SOL     OW16558   3.706   0.063   2.208 -0.1062  0.2937 -0.3190
 1700SOL    HW116559   3.676   0.147   2.244  0.2180  0.0926  0.4278
 1700SOL    HW216560   3.622   0.019   2.200  1.1330 -2.2372  0.4105
 1701SOL     OW16561   0.145   0.797   0.797  0.1803  0.0320  0.5388
 1701SOL    HW116562   0.104   0.874   0.837 -0.1988  0.7619 -1.2659
 1701SOL    HW216563   0.083   0.771   0.729  0.5568 -0.2050  0.2830
 1702SOL     OW16564   3.696   4.128   1.980 -0.1270  0.5969  0.1208
 1702SOL    HW116565   3.731   4.195   1.920  1.5788 -0.5634 -0.1942
 1702SOL    HW216566   3.675   4.187   2.053 -1.4292 -0.3413  0.5039
 1703SOL     OW16567   0.938   0.114   2.518  0.4721 -0.5951  0.6943
 1703SOL    HW116568   0.998   0.144   2.587  1.1645 -2.7539  1.0332
 1703SOL    HW216569   0.924   0.024   2.548 -0.3257 -0.9474 -0.7358
 1704SOL     OW16570   2.039   2.756   2.103  0.2289 -0.2884 -0.2589
 1704SOL    HW116571   2.129   2.763   2.133 -0.5823  2.7131  1.5249
 1704SOL    HW216572   2.062   2.765   2.010  0.9982  1.1214  0.0647
 1705SOL     OW16573   3.418   2.463   4.136 -0.3015 -0.2435  0.0995
 1705SOL    HW116574   3.385   2.520   4.206 -0.6516 -1.2888  0.7950
 1705SOL    HW216575   3.339   2.451   4.084 -0.0938 -3.7959  0.5943
 1706SOL     OW16576   4.133   3.826  11.321 -0.4124 -0.0631 -0.3876
 1706SOL    HW116577   4.192   3.771  11.269  0.4168  1.8909 -1.4850
 1706SOL    HW216578   4.129   3.912  11.281 -0.8824  0.4906  0.8495
 1707SOL     OW16579   0.743   0.125   8.542 -0.1988 -0.0021 -0.2987
 1707SOL    HW116580   0.742   0.124   8.638 -0.3776  0.4685 -0.2968
 1707SOL    HW216581   0.684   0.197   8.520 -0.7586 -0.6418 -0.9197
 1708SOL     OW16582   1.640   3.768   7.483 -0.2242  0.0895 -0.3215
 1708SOL    HW116583   1.658   3.836   7.547 -0.8073 -0.5209  0.5003
 1708SOL    HW216584   1.666   3.698   7.544 -2.9534  0.1972  0.9653
 1709SOL     OW16585   3.486   0.948   4.146  0.6127  0.2203 -0.0943
 1709SOL    HW116586   3.515   0.951   4.054  3.1537  1.8288  0.7425
 1709SOL    HW216587   3.463   1.040   4.161  1.0430  0.4707 -0.8896
 1710SOL     OW16588   0.551   1.103  16.026 -0.2086  0.2189 -0.4642
 1710SOL    HW116589   0.601   1.053  16.090 -0.0918 -0.8086 -1.3555
 1710SOL    HW216590   0.622   1.141  15.975  1.2478 -2.9218 -0.7709
 1711SOL     OW16591   4.631   4.190   8.433 -0.2480  0.1437  0.0142
 1711SOL    HW116592   4.551   4.149   8.466 -0.2294  1.1024  1.2495
 1711SOL    HW216593   4.651   4.247   8.507  0.3030 -0.8986  0.6780
 1712SOL     OW16594   0.992   2.351   7.191 -0.4395  0.1729  0.2600
 1712SOL    HW116595   1.022   2.430   7.235 -2.2995  0.1546  1.5363
 1712SOL    HW216596   0.956   2.303   7.265 -1.4946  0.4363 -0.0815
 1713SOL     OW16597   0.206   3.242  10.109 -0.4860  0.1816 -0.0859
 1713SOL    HW116598   0.254   3.235  10.027 -2.0857 -0.6325 -0.9503
 1713SOL    HW216599   0.172   3.331  10.099  0.2292  0.6815  1.8797
 1714SOL     OW16600   0.641   2.782  15.748 -0.5058 -0.1818 -0.4521
 1714SOL    HW116601   0.549   2.806  15.752 -0.1737  0.8185  1.2905
 1714SOL    HW216602   0.682   2.832  15.819  1.4585 -0.4538 -1.3790
 1715SOL     OW16603   0.835   1.414   6.159 -0.2679 -0.2420 -0.5538
 1715SOL    HW116604   0.794   1.359   6.226  1.7406 -1.7818 -0.5853
 1715SOL    HW216605   0.839   1.500   6.201 -0.9528 -0.5895  0.2093
 1716SOL     OW16606   1.519   4.325   8.293  0.1592  0.2080 -0.3462
 1716SOL    HW116607   1.467   4.248   8.315  0.2791  1.3858  4.0127
 1716SOL    HW216608   1.594   4.324   8.352 -0.5846  1.8000  0.6422
 1717SOL     OW16609   2.232   1.462   4.146 -0.4958 -0.6629 -0.1512
 1717SOL    HW116610   2.327   1.460   4.156 -0.3229  2.0164 -1.0267
 1717SOL    HW216611   2.213   1.556   4.152  0.6174 -0.4836  0.3940
 1718SOL     OW16612   1.029   1.159  16.703  0.2542  0.3009  0.5402
 1718SOL    HW116613   1.051   1.170  16.610 -4.8104 -0.1797 -0.7337
 1718SOL    HW216614   0.947   1.205  16.686  0.6264  0.4567 -0.8975
 1719SOL     OW16615   3.754   1.152   4.170 -0.8356  0.3744  0.0774
 1719SOL    HW116616   3.679   1.211   4.179 -0.2717  0.8141  1.9222
 1719SOL    HW216617   3.711   1.068   4.187  0.2854 -0.3374 -0.5836
 1720SOL     OW16618   1.452   4.479   3.599 -1.0360  0.0899  0.2657
 1720SOL    HW116619   1.426   4.569   3.615 -2.7004 -0.0242 -1.6581
 1720SOL    HW216620   1.506   4.488   3.520 -0.3188  0.2110  0.7735
 1721SOL     OW16621   2.530   1.393   6.979  0.6783 -0.3748  0.3783
 1721SOL    HW116622   2.435   1.399   6.986  0.6296 -1.3089  0.5249
 1721SOL    HW216623   2.566   1.458   7.039  0.9236 -0.4083  0.2707
 1722SOL     OW16624   0.305   1.800  14.263  0.5136 -0.1137  0.5490
 1722SOL    HW116625   0.238   1.867  14.262  0.7442  0.1093  0.2938
 1722SOL    HW216626   0.259   1.744  14.326  0.3840 -0.8626 -0.2061
 1723SOL     OW16627   1.317   2.544   7.976  0.1007  0.3818 -0.0423
 1723SOL    HW116628   1.315   2.451   7.999  0.1396 -0.0138 -1.6300
 1723SOL    HW216629   1.368   2.585   8.046 -1.9464  1.3783  0.8760
 1724SOL     OW16630   3.114   4.099   3.996  0.1234 -0.1426  0.6769
 1724SOL    HW116631   3.109   4.080   4.090 -1.0315  1.4772  0.9471
 1724SOL    HW216632   3.047   4.036   3.970 -0.4589  2.2296 -3.6594
 1725SOL     OW16633   2.267   2.083   5.335 -0.2859 -0.1026  0.0188
 1725SOL    HW116634   2.179   2.045   5.338  0.3574 -1.5969  0.1219
 1725SOL    HW216635   2.258   2.119   5.423 -1.5043  2.4121 -1.1200
 1726SOL     OW16636   1.143   2.028   9.986  0.0415 -0.2500 -0.2953
 1726SOL    HW116637   1.098   1.958  10.034 -0.0194 -0.7546 -1.0802
 1726SOL    HW216638   1.237   2.015   9.992 -0.1181 -0.2237  2.1432
 1727SOL     OW16639   2.182   4.392   5.819 -0.1823 -0.3798  0.2048
 1727SOL    HW116640   2.216   4.361   5.902 -2.2508 -3.0459  0.0228
 1727SOL    HW216641   2.109   4.447   5.847  0.3432 -0.0252  0.8872
 1728SOL     OW16642   2.349   4.384  10.905 -0.0398  0.3472  0.1286
 1728SOL    HW116643   2.399   4.433  10.971  1.4427 -1.1192  0.0913
 1728SOL    HW216644   2.292   4.322  10.949 -1.5483  1.0161 -0.8950
 1729SOL     OW16645   3.821   3.116   8.760  0.4308  0.4638  0.2848
 1729SOL    HW116646   3.911   3.091   8.776  0.8423  3.5124  2.8678
 1729SOL    HW216647   3.783   3.084   8.841 -1.0417  0.2021 -0.4928
 1730SOL     OW16648   3.822   2.705   3.388 -0.0881  0.3743  0.5656
 1730SOL    HW116649   3.789   2.727   3.301 -1.8133 -1.1181  0.8387
 1730SOL    HW216650   3.808   2.787   3.436 -0.2071  1.0312 -0.6063
 1731SOL     OW16651   0.107   2.989  16.919  0.4946  0.0885  0.1114
 1731SOL    HW116652   0.037   3.054  16.918 -0.0472 -0.5040 -1.5313
 1731SOL    HW216653   0.168   3.023  16.984 -0.2041 -0.9541  1.3177
 1732SOL     OW16654   2.756   1.192   0.375  0.2910  0.6388 -0.0011
 1732SOL    HW116655   2.754   1.285   0.351  1.2518  0.4847 -0.6877
 1732SOL    HW216656   2.713   1.145   0.304  2.0085 -0.4855 -0.3037
 1733SOL     OW16657   2.331   4.634   5.171  0.1569  0.0033 -0.0347
 1733SOL    HW116658   2.415   4.633   5.125 -0.1130 -1.0565 -0.4998
 1733SOL    HW216659   2.358   4.581   5.246  1.7429 -0.1269 -0.6989
 1734SOL     OW16660   4.283   3.608   2.967  0.4394 -0.3721 -0.7842
 1734SOL    HW116661   4.313   3.652   2.887  0.3600  0.2830 -0.4547
 1734SOL    HW216662   4.303   3.680   3.027  0.2185  0.3961 -1.6401
 1735SOL     OW16663   4.701   4.270   6.289 -0.3241  0.3480  0.1548
 1735SOL    HW116664   0.037   4.338   6.321 -0.2855  0.0222  0.7774
 1735SOL    HW216665   4.628   4.319   6.251  1.1447  0.7905 -2.0978
 1736SOL     OW16666   0.640   0.665  12.654 -0.9006  0.0478  0.8072
 1736SOL    HW116667   0.682   0.715  12.724 -1.7536  1.4448  0.3198
 1736SOL    HW216668   0.681   0.705  12.577 -0.9692 -1.4798 -0.0247
 1737SOL     OW16669   1.553   0.433   4.603  0.2476  0.2274  0.3415
 1737SOL    HW116670   1.470   0.415   4.558  0.7225  2.3332 -1.3831
 1737SOL    HW216671   1.608   0.432   4.525 -2.2035  1.7980 -1.4120
 1738SOL     OW16672   3.298   1.689  13.907 -0.0505  0.3769 -0.2723
 1738SOL    HW116673   3.325   1.775  13.874 -1.1560  0.4833 -0.8957
 1738SOL    HW216674   3.375   1.634  13.913 -0.9081 -0.3114  4.3326
 1739SOL     OW16675   0.751   3.749   6.938 -0.2062 -0.2166  0.0667
 1739SOL    HW116676   0.838   3.738   6.976 -0.2878  1.1410  0.6603
 1739SOL    HW216677   0.740   3.844   6.943  0.4060  0.0511 -3.7300
 1740SOL     OW16678   4.075   1.368   1.618  0.5050  0.1604  0.3883
 1740SOL    HW116679   3.993   1.319   1.616  0.9829 -0.6142 -0.2928
 1740SOL    HW216680   4.063   1.414   1.701 -1.3165 -0.5683  0.5314
 1741SOL     OW16681   3.589   1.582   6.968 -0.0519  0.3147 -0.2945
 1741SOL    HW116682   3.668   1.577   7.022 -0.1305 -0.4079 -0.2424
 1741SOL    HW216683   3.530   1.526   7.018  0.2782  1.6523  1.5838
 1742SOL     OW16684   3.086   3.812   4.088 -0.0221 -0.0735  0.7642
 1742SOL    HW116685   3.108   3.749   4.020 -2.8054  0.5882 -0.7627
 1742SOL    HW216686   3.177   3.831   4.109  0.5965 -2.7128  0.4874
 1743SOL     OW16687   1.503   1.908   1.446 -0.2001  0.2232  0.1735
 1743SOL    HW116688   1.584   1.873   1.407  0.0196  0.5682  0.3214
 1743SOL    HW216689   1.435   1.855   1.404  0.0385 -0.1777  0.2908
 1744SOL     OW16690   0.991   1.233   5.781 -0.0243 -0.2497  0.3206
 1744SOL    HW116691   0.955   1.145   5.790  2.1336 -1.0515  1.2041
 1744SOL    HW216692   0.915   1.289   5.766  0.7286  0.4995 -0.6499
 1745SOL     OW16693   2.849   0.028   7.830  0.1675 -0.5058 -0.0518
 1745SOL    HW116694   2.871   4.723   7.919  0.1112  1.4973  0.5924
 1745SOL    HW216695   2.809   0.113   7.847  0.1803 -0.7879  1.3690
 1746SOL     OW16696   0.213   1.718  16.699  0.2034 -0.0013  0.7189
 1746SOL    HW116697   0.196   1.811  16.716  2.4648  1.0068 -2.5547
 1746SOL    HW216698   0.264   1.705  16.779 -0.1188 -0.1801  0.8920
 1747SOL     OW16699   1.880   2.409  13.793 -0.0214 -0.6266 -0.4079
 1747SOL    HW116700   1.963   2.400  13.841  1.2622 -1.5749 -2.8055
 1747SOL    HW216701   1.826   2.421  13.871 -0.4737  0.8452 -0.9547
 1748SOL     OW16702   1.971   0.676   9.914  0.2961  0.5899  0.4230
 1748SOL    HW116703   2.056   0.700   9.877 -0.6670 -0.4555 -2.5156
 1748SOL    HW216704   1.981   0.581   9.923 -0.0801  0.6369  1.3167
 1749SOL     OW16705   1.928   2.385  16.012 -0.4693  0.3695 -1.0394
 1749SOL    HW116706   1.918   2.292  15.991  0.6290  0.0504 -0.1874
 1749SOL    HW216707   2.020   2.387  15.985 -0.8092  2.8187 -1.9173
 1750SOL     OW16708   2.324   2.713  11.714 -0.2088 -0.2942  0.0145
 1750SOL    HW116709   2.260   2.754  11.773 -0.7391  2.1093 -2.2062
 1750SOL    HW216710   2.264   2.669  11.654  0.3415  0.2251 -0.9152
 1751SOL     OW16711   1.584   3.288   1.979  0.1919 -0.1608 -0.1387
 1751SOL    HW116712   1.665   3.239   1.988 -0.8128 -1.6592  0.7912
 1751SOL    HW216713   1.577   3.325   1.891 -2.7332  3.3445  1.5310
 1752SOL     OW16714   3.002   4.258   1.407 -0.5589 -0.3725  0.8608
 1752SOL    HW116715   3.067   4.252   1.338 -2.7910 -0.0774 -1.2494
 1752SOL    HW216716   3.029   4.187   1.465  0.2354 -0.2714  0.6167
 1753SOL     OW16717   0.837   1.243  16.046  0.0699  0.4611 -0.2387
 1753SOL    HW116718   0.893   1.231  15.969  0.8791  0.9164  0.2814
 1753SOL    HW216719   0.871   1.172  16.101  1.5901 -0.2066 -2.0353
 1754SOL     OW16720   1.767   0.166   5.574  0.5380  0.0307 -0.3222
 1754SOL    HW116721   1.769   0.124   5.660 -0.2479 -0.3554 -0.4924
 1754SOL    HW216722   1.859   0.157   5.549  1.2246  1.7173  1.6201
 1755SOL     OW16723   3.032   3.158   8.462  0.2591 -0.2668  0.2263
 1755SOL    HW116724   3.121   3.191   8.451  0.6845 -1.0318  1.3802
 1755SOL    HW216725   2.983   3.239   8.472 -1.4007 -1.2214 -0.2357
 1756SOL     OW16726   0.370   4.669  14.434 -0.4052 -0.3116  0.1143
 1756SOL    HW116727   0.457   4.704  14.417  0.5443 -2.0674  1.4378
 1756SOL    HW216728   0.374   4.594  14.494 -0.6183  0.1438  0.6996
 1757SOL     OW16729   2.941   4.451   9.111  0.2529  0.2746  0.1956
 1757SOL    HW116730   2.951   4.403   9.029  0.4787  0.6774 -0.0076
 1757SOL    HW216731   3.014   4.422   9.167  0.3534  0.9315  0.3992
 1758SOL     OW16732   4.564   4.333   4.140  0.9616  0.3354 -0.2056
 1758SOL    HW116733   4.636   4.307   4.197  0.3068  0.9750  0.9348
 1758SOL    HW216734   4.554   4.249   4.096 -0.1055  0.7463 -0.7625
 1759SOL     OW16735   0.846   0.508  16.027 -0.8310  0.2895 -0.4761
 1759SOL    HW116736   0.846   0.460  15.944  0.9836 -1.0308  0.2953
 1759SOL    HW216737   0.937   0.498  16.052 -0.1329  1.6456 -2.4316
 1760SOL     OW16738   2.399   2.991   1.344 -0.1146  0.1369 -0.0457
 1760SOL    HW116739   2.337   2.995   1.271 -0.3177  2.8836  0.2857
 1760SOL    HW216740   2.366   2.913   1.389 -0.7176 -0.1005 -0.9132
 1761SOL     OW16741   1.085   0.509   7.249 -0.1489 -0.6386  0.0103
 1761SOL    HW116742   1.157   0.494   7.187 -0.6574 -1.4796 -0.3692
 1761SOL    HW216743   1.005   0.513   7.197 -0.3900 -0.1698  0.4154
 1762SOL     OW16744   2.763   2.114  12.587 -0.0552 -0.2299 -0.2851
 1762SOL    HW116745   2.810   2.041  12.627 -0.1362 -1.3925 -2.3328
 1762SOL    HW216746   2.840   2.166  12.564 -1.8988  2.5346 -0.2309
 1763SOL     OW16747   4.338   4.640   3.433  0.0233 -0.5091 -0.2066
 1763SOL    HW116748   4.391   4.570   3.472 -0.1474 -0.0847  0.7787
 1763SOL    HW216749   4.329   4.706   3.502  0.5744 -1.5857  0.8890
 1764SOL     OW16750   4.129   1.460   7.732  0.5193 -0.3681  0.6686
 1764SOL    HW116751   4.153   1.410   7.810 -1.4981  1.0601  2.1828
 1764SOL    HW216752   4.188   1.534   7.720 -0.8368  0.3447 -1.6538
 1765SOL     OW16753   1.889   3.684   5.129 -0.8436  0.1316 -0.3839
 1765SOL    HW116754   1.829   3.701   5.057 -2.1100  2.0327  1.1116
 1765SOL    HW216755   1.893   3.768   5.175 -0.5992  0.2575 -0.6336
 1766SOL     OW16756   0.349   2.295   4.074 -0.4635 -0.1256 -0.5133
 1766SOL    HW116757   0.444   2.294   4.082 -0.3070  0.1337 -2.4340
 1766SOL    HW216758   0.326   2.203   4.063 -0.4686  0.0957 -2.2744
 1767SOL     OW16759   2.912   1.262   6.991  0.4809  0.2700  0.4896
 1767SOL    HW116760   2.963   1.311   6.927 -2.8399  0.6763 -1.8349
 1767SOL    HW216761   2.887   1.326   7.057  2.4360  0.4409  1.0806
 1768SOL     OW16762   3.100   1.535   4.264 -0.6544  0.2294 -0.0824
 1768SOL    HW116763   3.016   1.546   4.308 -0.7419 -1.4651  0.1590
 1768SOL    HW216764   3.119   1.629   4.252 -1.0326  0.3121 -0.0113
 1769SOL     OW16765   1.013   0.513  17.080  0.1605  0.6087 -0.1333
 1769SOL    HW116766   0.957   0.524  17.157  0.2268  0.2026 -0.0273
 1769SOL    HW216767   0.947   0.495  17.013 -1.4617  0.2428  1.5484
 1770SOL     OW16768   2.476   1.702   5.390 -0.2966 -0.1147 -0.1812
 1770SOL    HW116769   2.401   1.761   5.381 -1.1116 -0.9600  1.1034
 1770SOL    HW216770   2.427   1.621   5.403 -2.1826  0.9027 -1.0141
 1771SOL     OW16771   0.809   2.043   4.462  0.5068  0.3263 -0.2414
 1771SOL    HW116772   0.808   2.013   4.553 -0.4933  0.9323 -0.0536
 1771SOL    HW216773   0.852   2.128   4.472  0.0467  0.4170  0.9371
 1772SOL     OW16774   2.096   2.527  10.630  0.2443  0.4640  0.0708
 1772SOL    HW116775   2.090   2.436  10.659 -2.8017  0.8800  0.6921
 1772SOL    HW216776   2.058   2.570  10.707  1.0366  0.1045  0.6664
 1773SOL     OW16777   3.401   1.591   3.029  0.0139  0.2561 -0.0743
 1773SOL    HW116778   3.323   1.558   2.984 -1.3417  0.6722  1.9976
 1773SOL    HW216779   3.404   1.685   3.016  2.0183  0.0932 -0.7098
 1774SOL     OW16780   2.399   1.450  17.630 -0.5978  0.1600  0.8014
 1774SOL    HW116781   2.355   1.408  17.556  1.5988  0.0621 -0.4287
 1774SOL    HW216782   2.475   1.394  17.644  0.4732  1.2112 -0.8067
 1775SOL     OW16783   1.232   4.095   3.607 -0.3580  0.0005  0.4762
 1775SOL    HW116784   1.240   4.188   3.627 -0.1567 -0.1631  1.1384
 1775SOL    HW216785   1.178   4.060   3.678 -1.9248  0.4195 -0.4850
 1776SOL     OW16786   2.760   1.162   5.031  0.2112 -0.3631  0.2653
 1776SOL    HW116787   2.805   1.217   5.095  0.3439 -1.2289  0.9239
 1776SOL    HW216788   2.838   1.126   4.989  1.6392  2.6757  0.3116
 1777SOL     OW16789   1.616   2.151   3.021 -0.3363 -0.0933 -0.2812
 1777SOL    HW116790   1.653   2.238   3.033  0.4499 -0.3372 -0.8943
 1777SOL    HW216791   1.669   2.114   2.951 -0.9604 -1.7074  0.0859
 1778SOL     OW16792   4.571   4.252   8.176  0.6625  0.1269 -0.4158
 1778SOL    HW116793   4.546   4.345   8.170 -0.1636 -0.1321 -0.9912
 1778SOL    HW216794   4.601   4.249   8.266  1.2771  1.5591 -0.5607
 1779SOL     OW16795   3.135   2.750  13.500 -0.2322 -0.2251 -0.6497
 1779SOL    HW116796   3.166   2.660  13.499 -0.7344 -0.3941 -1.2636
 1779SOL    HW216797   3.080   2.743  13.578 -2.5468  0.7049 -2.1845
 1780SOL     OW16798   3.499   0.361   4.774 -0.1241  0.5863 -0.4280
 1780SOL    HW116799   3.576   0.394   4.821 -0.5011  1.3709 -0.3526
 1780SOL    HW216800   3.483   0.439   4.720 -0.3898  2.1086  1.8509
 1781SOL     OW16801   4.173   0.341   7.434 -0.0799 -0.6809 -0.1210
 1781SOL    HW116802   4.203   0.432   7.440  0.3357 -0.6286 -3.0151
 1781SOL    HW216803   4.130   0.339   7.348  2.8417  0.0828 -1.5663
 1782SOL     OW16804   4.494   4.542  17.573 -0.3446  0.0400  0.2492
 1782SOL    HW116805   4.528   4.528  17.484 -3.0541 -0.0903 -0.7577
 1782SOL    HW216806   4.400   4.547  17.559 -0.0923  2.4867 -0.5808
 1783SOL     OW16807   0.768   1.345   2.079  0.2231 -1.0736 -0.0337
 1783SOL    HW116808   0.678   1.377   2.080  0.4201 -0.5796  1.3350
 1783SOL    HW216809   0.821   1.413   2.036 -2.6504  0.8177 -0.5718
 1784SOL     OW16810   3.530   4.209   0.852 -0.3801 -0.0263 -0.2255
 1784SOL    HW116811   3.588   4.149   0.901  0.3874  1.0105  0.1379
 1784SOL    HW216812   3.586   4.275   0.812  1.5618 -0.4213  1.8443
 1785SOL     OW16813   0.137   0.559   7.465 -0.0052  0.4481  0.3674
 1785SOL    HW116814   0.138   0.638   7.411 -0.6974  0.0987 -0.1624
 1785SOL    HW216815   0.044   0.548   7.488  0.6224 -3.9686  0.7190
 1786SOL     OW16816   2.788   3.967  10.139  0.0891 -0.3498 -0.1172
 1786SOL    HW116817   2.709   3.927  10.175 -1.7578  3.0919 -0.3506
 1786SOL    HW216818   2.749   4.039  10.089  0.3198  0.2188  0.5142
 1787SOL     OW16819   1.866   2.238  11.494  0.8634 -0.3128  0.0880
 1787SOL    HW116820   1.772   2.252  11.483  0.6007 -0.7032  1.7844
 1787SOL    HW216821   1.891   2.330  11.484  2.8064 -0.7786  0.5523
 1788SOL     OW16822   2.753   4.659   4.797  0.0108 -0.0213 -0.1680
 1788SOL    HW116823   2.793   0.021   4.778  0.2895 -0.4517 -1.5066
 1788SOL    HW216824   2.706   4.638   4.716 -1.3331  2.8118 -0.1106
 1789SOL     OW16825   1.786   3.029   7.355  0.2375  0.4393 -0.5696
 1789SOL    HW116826   1.743   2.945   7.373 -1.4796  1.0864 -1.6500
 1789SOL    HW216827   1.800   3.049   7.448  1.3542 -0.8673 -0.4569
 1790SOL     OW16828   1.853   1.486   1.952 -0.1304  0.4455  0.3602
 1790SOL    HW116829   1.810   1.415   2.001  1.7151 -0.2766  0.9309
 1790SOL    HW216830   1.781   1.531   1.908  0.0213  2.9674  2.6554
 1791SOL     OW16831   2.230   0.962   4.559  0.2215  0.1460 -0.1373
 1791SOL    HW116832   2.324   0.947   4.555  0.0657  0.1905 -3.4558
 1791SOL    HW216833   2.206   0.912   4.637  0.1483 -0.8375 -0.7930
 1792SOL     OW16834   3.604   3.472   1.037 -0.0157 -0.4454 -0.5810
 1792SOL    HW116835   3.619   3.423   1.118  0.2255  0.4376 -0.0883
 1792SOL    HW216836   3.577   3.553   1.080 -0.4469  0.2330 -2.1569
 1793SOL     OW16837   3.640   3.201   2.366 -0.2560  0.1467  0.0417
 1793SOL    HW116838   3.577   3.193   2.438  0.2398  2.9381  0.7706
 1793SOL    HW216839   3.592   3.222   2.286 -3.2287 -1.3890  1.3785
 1794SOL     OW16840   2.607   3.888   9.443  0.3808 -0.4261 -0.6026
 1794SOL    HW116841   2.621   3.918   9.353  1.6711  0.7957  0.0056
 1794SOL    HW216842   2.530   3.941   9.462 -0.9749 -1.8284 -2.1203
 1795SOL     OW16843   0.823   1.573   4.986 -0.0352 -0.6017  0.2599
 1795SOL    HW116844   0.797   1.569   5.078  0.0223 -2.1985  0.2043
 1795SOL    HW216845   0.917   1.578   5.006  0.2473  0.0898 -1.2173
 1796SOL     OW16846   3.799   0.701   8.117  0.3435 -0.5630 -0.0964
 1796SOL    HW116847   3.807   0.677   8.025 -1.1847  3.8885 -1.3815
 1796SOL    HW216848   3.759   0.787   8.108 -0.1040 -0.8469 -0.8069
 1797SOL     OW16849   2.132   1.556   1.991  0.0730 -0.2990 -0.3649
 1797SOL    HW116850   2.049   1.533   1.949  0.4878 -3.1348  0.3585
 1797SOL    HW216851   2.128   1.646   2.024 -2.0566 -0.8594  0.9060
 1798SOL     OW16852   2.618   0.541   5.079 -0.2276 -0.2788 -0.3634
 1798SOL    HW116853   2.647   0.632   5.092  0.6390 -0.7650  1.0834
 1798SOL    HW216854   2.690   0.489   5.115 -0.3738  0.1561  0.5551
 1799SOL     OW16855   3.755   0.886   5.340  0.0067  0.5829 -0.2641
 1799SOL    HW116856   3.779   0.874   5.248 -0.5338  1.6305 -0.5345
 1799SOL    HW216857   3.746   0.798   5.378  0.0641  0.4111 -0.6443
 1800SOL     OW16858   2.531   1.544   3.870 -0.8878 -0.1611  0.0743
 1800SOL    HW116859   2.492   1.530   3.957 -0.5054 -0.1751  0.2406
 1800SOL    HW216860   2.455   1.505   3.827  0.1510 -1.4638 -0.5616
 1801SOL     OW16861   4.004   1.195  14.950 -0.2019  0.5170 -0.0335
 1801SOL    HW116862   3.945   1.175  15.023 -0.3573  1.4844  0.1049
 1801SOL    HW216863   4.080   1.187  15.008 -0.0307 -0.9872 -0.4451
 1802SOL     OW16864   2.709   4.076   6.228 -0.3915  0.3179 -0.4874
 1802SOL    HW116865   2.642   4.094   6.294  0.8072  2.9001  0.0399
 1802SOL    HW216866   2.720   3.985   6.254  1.0566  0.8482  0.8279
 1803SOL     OW16867   4.489   3.080   8.414  0.4339 -0.0599  0.2231
 1803SOL    HW116868   4.399   3.110   8.414  0.3881 -0.1870 -0.4680
 1803SOL    HW216869   4.535   3.164   8.421 -1.0995  1.1250 -3.9093
 1804SOL     OW16870   0.040   0.085  14.267 -0.4495 -0.2610 -0.4205
 1804SOL    HW116871   0.110   0.112  14.327 -0.4446 -2.6627  0.6716
 1804SOL    HW216872   0.073   0.107  14.180  1.5352  0.6583  0.5781
 1805SOL     OW16873   1.023   4.669  11.752  0.4967 -0.4128 -0.0615
 1805SOL    HW116874   0.935   4.688  11.785  0.1027  0.2892 -1.5353
 1805SOL    HW216875   1.025   4.573  11.743 -1.5115 -0.4181 -0.4463
 1806SOL     OW16876   2.424   2.800  16.732 -0.1952 -0.5260 -0.0188
 1806SOL    HW116877   2.518   2.782  16.728 -0.0229  0.6509 -1.6377
 1806SOL    HW216878   2.406   2.837  16.645  0.0604 -2.4477 -0.9030
 1807SOL     OW16879   3.972   2.191  13.794 -0.4068 -0.4034 -0.1464
 1807SOL    HW116880   3.889   2.144  13.804  0.0984 -0.7228  2.3275
 1807SOL    HW216881   4.019   2.122  13.841 -0.2520 -1.0400 -1.2301
 1808SOL     OW16882   0.391   1.064   5.393 -0.7472 -0.0276  0.2092
 1808SOL    HW116883   0.311   1.022   5.364 -1.8096  1.7238  0.5649
 1808SOL    HW216884   0.432   0.983   5.423 -0.8862 -1.0394 -2.3861
 1809SOL     OW16885   4.318   4.155  16.355 -0.2931  0.4619  0.0280
 1809SOL    HW116886   4.400   4.105  16.357  0.0063  1.0778  2.4278
 1809SOL    HW216887   4.262   4.093  16.308 -0.1015  1.4735 -1.5345
 1810SOL     OW16888   2.952   2.350   5.563 -0.1173 -0.4624  0.1739
 1810SOL    HW116889   3.041   2.333   5.534 -0.1573 -0.7682  0.2237
 1810SOL    HW216890   2.910   2.281   5.511  1.1300 -0.2793 -1.0835
 1811SOL     OW16891   2.202   3.428   2.204  0.0515  0.6179 -0.2888
 1811SOL    HW116892   2.143   3.366   2.161  1.4896 -1.1181  0.2719
 1811SOL    HW216893   2.195   3.385   2.289 -1.1851  1.9779  0.2903
 1812SOL     OW16894   4.196   2.084  12.304 -0.0141  0.0210  0.3605
 1812SOL    HW116895   4.248   2.108  12.227 -0.4075  1.3090  0.4840
 1812SOL    HW216896   4.212   1.990  12.311  1.2911  0.3327  1.4944
 1813SOL     OW16897   4.503   0.646   3.581  0.4367 -0.1581 -0.1385
 1813SOL    HW116898   4.597   0.650   3.564  0.2858 -1.1056 -1.1766
 1813SOL    HW216899   4.477   0.738   3.569  0.0131 -0.1296  0.9529
 1814SOL     OW16900   3.527   4.590   7.813 -0.6343 -0.8517 -0.6538
 1814SOL    HW116901   3.482   4.627   7.737 -3.3124 -1.9448  0.4071
 1814SOL    HW216902   3.610   4.564   7.773  0.1667 -0.9587  1.0537
 1815SOL     OW16903   0.620   2.995   6.244 -0.3089  0.4506 -0.1937
 1815SOL    HW116904   0.617   3.084   6.279 -1.0547  0.9076 -1.3950
 1815SOL    HW216905   0.546   2.954   6.290 -1.8507  2.5125 -0.8129
 1816SOL     OW16906   2.134   1.812   6.138  0.1622  0.2789 -0.4492
 1816SOL    HW116907   2.138   1.905   6.115  1.0228 -0.0825 -1.7689
 1816SOL    HW216908   2.228   1.793   6.134 -0.1414 -1.1094 -0.8653
 1817SOL     OW16909   1.848   1.104  17.188  0.5700 -0.0807  0.0034
 1817SOL    HW116910   1.782   1.053  17.141  1.9202 -0.4501 -1.4715
 1817SOL    HW216911   1.886   1.035  17.242  0.8879 -1.6135 -2.1937
 1818SOL     OW16912   1.996   1.187   0.808  0.4043  0.1779  0.3662
 1818SOL    HW116913   2.016   1.099   0.777  0.3663  0.1400  0.4486
 1818SOL    HW216914   2.010   1.181   0.902 -2.8172 -2.3082  0.7160
 1819SOL     OW16915   0.853   2.447   3.357 -0.3071  0.4164 -0.1973
 1819SOL    HW116916   0.855   2.519   3.295  1.1847 -0.4159 -1.1380
 1819SOL    HW216917   0.899   2.493   3.427 -0.3559  0.2445 -0.0512
 1820SOL     OW16918   3.857   2.922   3.570 -0.6083  0.2759  0.3260
 1820SOL    HW116919   3.797   2.981   3.615 -1.6321  0.5733 -1.4128
 1820SOL    HW216920   3.934   2.977   3.553 -0.8770 -0.2784 -2.8260
 1821SOL     OW16921   0.624   3.005   6.718  0.6305  0.1532  0.3827
 1821SOL    HW116922   0.585   3.090   6.741 -2.0773 -0.6732 -1.1445
 1821SOL    HW216923   0.586   2.945   6.783  0.4654 -1.2619 -1.0193
 1822SOL     OW16924   2.475   3.507   5.658 -0.4743 -0.2088 -0.4801
 1822SOL    HW116925   2.447   3.493   5.567 -0.5545  0.3583 -0.5418
 1822SOL    HW216926   2.441   3.427   5.697 -0.3797 -0.2031 -0.3852
 1823SOL     OW16927   3.028   0.131  13.268 -0.3566 -0.1941 -0.1158
 1823SOL    HW116928   2.999   0.161  13.181 -1.0978 -0.4763  0.0382
 1823SOL    HW216929   2.977   0.190  13.323 -0.2339 -0.5788  0.4130
 1824SOL     OW16930   3.617   3.719  15.544 -0.2315  0.3792 -0.6587
 1824SOL    HW116931   3.662   3.769  15.476  0.5356 -0.4697 -0.7668
 1824SOL    HW216932   3.580   3.653  15.485 -0.5015 -1.3317  1.3963
 1825SOL     OW16933   3.932   2.907   4.536 -0.6082  0.5155 -0.3269
 1825SOL    HW116934   3.946   2.904   4.442  0.4275 -1.5529 -0.1135
 1825SOL    HW216935   3.925   2.813   4.555  1.9078  0.9342  2.7914
 1826SOL     OW16936   2.306   0.875   0.610  0.7446  0.5781  0.1065
 1826SOL    HW116937   2.395   0.907   0.628  1.9621 -2.2930 -0.8000
 1826SOL    HW216938   2.264   0.905   0.690 -2.3326 -0.2837 -1.2191
 1827SOL     OW16939   0.436   3.355   8.061 -0.0963  0.4208 -0.6414
 1827SOL    HW116940   0.529   3.368   8.079 -0.2177  1.4509 -0.7910
 1827SOL    HW216941   0.425   3.334   7.968  0.5664  1.5279 -0.9600
 1828SOL     OW16942   2.838   4.615  14.607 -0.3636  0.1923 -0.2850
 1828SOL    HW116943   2.911   4.632  14.667  1.7207 -1.1609 -2.4593
 1828SOL    HW216944   2.888   4.595  14.528  0.7819 -1.5310  0.8544
 1829SOL     OW16945   3.578   3.177  16.555  0.6489  0.3432 -0.5702
 1829SOL    HW116946   3.532   3.093  16.555 -0.1702  0.8057  0.8232
 1829SOL    HW216947   3.569   3.193  16.648 -0.3862 -3.5171  0.0021
 1830SOL     OW16948   2.972   2.801  13.227 -0.1982  0.0634 -0.4621
 1830SOL    HW116949   2.966   2.865  13.297  1.0518 -1.7003  1.2667
 1830SOL    HW216950   2.949   2.726  13.282 -0.7880 -0.6631 -1.6910
 1831SOL     OW16951   0.471   3.589   6.244 -0.4118  0.1431  0.2116
 1831SOL    HW116952   0.510   3.651   6.183  0.9147 -0.0911  0.8226
 1831SOL    HW216953   0.479   3.510   6.191 -0.9329  0.9862 -1.1221
 1832SOL     OW16954   3.476   2.285  12.413 -0.2723  0.2575  0.3138
 1832SOL    HW116955   3.408   2.275  12.479 -1.9967  1.4959 -1.2720
 1832SOL    HW216956   3.545   2.324  12.467  0.7153 -1.5524  0.3597
 1833SOL     OW16957   2.933   2.473   6.968 -1.1036 -0.2114 -0.1373
 1833SOL    HW116958   2.949   2.444   7.058  3.5238  0.6678 -0.6891
 1833SOL    HW216959   2.865   2.539   6.979  0.3072  1.5466 -1.9579
 1834SOL     OW16960   0.782   2.414   7.355  0.2516 -0.0120 -0.2988
 1834SOL    HW116961   0.795   2.435   7.262  0.5204  1.9609  0.1836
 1834SOL    HW216962   0.687   2.404   7.362  0.0571  0.2559 -2.6353
 1835SOL     OW16963   0.680   4.712   4.069  0.1915 -0.2267  0.1518
 1835SOL    HW116964   0.752   0.018   4.124  1.3052 -1.2608 -0.7733
 1835SOL    HW216965   0.718   4.634   4.029 -0.6579 -0.5781  0.0364
 1836SOL     OW16966   2.251   4.575  12.722  0.1205  0.7160 -0.7969
 1836SOL    HW116967   2.270   4.543  12.634 -0.1662 -0.6716 -0.3611
 1836SOL    HW216968   2.328   4.546  12.771  0.6870  0.0020 -2.1037
 1837SOL     OW16969   3.002   0.765  15.189  0.1120  0.6411 -0.9625
 1837SOL    HW116970   3.089   0.775  15.229 -0.8581  0.6669  1.1389
 1837SOL    HW216971   3.028   0.692  15.133  2.1417  0.4591  0.2283
 1838SOL     OW16972   1.483   0.036   8.318  0.3529  0.0324  0.1831
 1838SOL    HW116973   1.520   0.022   8.406  1.7131  2.2539 -0.0317
 1838SOL    HW216974   1.448   4.670   8.313  0.7034 -0.1021  0.1357
 1839SOL     OW16975   4.169   1.749   1.571  0.4607 -0.4421 -0.1114
 1839SOL    HW116976   4.164   1.825   1.513  0.3157  0.4726  1.0938
 1839SOL    HW216977   4.147   1.680   1.509  1.4978  0.8472 -1.9141
 1840SOL     OW16978   2.392   0.190   8.300  0.3338 -0.0711 -0.1877
 1840SOL    HW116979   2.404   0.143   8.383  2.5101 -2.4263 -1.8109
 1840SOL    HW216980   2.326   0.137   8.255  0.2837  0.5518 -0.8325
 1841SOL     OW16981   3.027   2.461   2.123  0.1727 -0.1495  0.0379
 1841SOL    HW116982   2.933   2.478   2.132  0.3939  1.4058 -0.6009
 1841SOL    HW216983   3.061   2.491   2.208  0.5269  2.2703 -0.9660
 1842SOL     OW16984   2.407   3.087   6.675 -0.0410  0.0725 -0.2494
 1842SOL    HW116985   2.382   3.146   6.746  0.0104  0.0671 -0.2267
 1842SOL    HW216986   2.416   3.151   6.604 -1.8801  1.4757  0.7937
 1843SOL     OW16987   4.289   1.405  12.861  0.0808  0.1821  0.0534
 1843SOL    HW116988   4.368   1.378  12.813  1.2735  1.7150  1.1564
 1843SOL    HW216989   4.224   1.338  12.838 -0.0763  0.7980 -1.3488
 1844SOL     OW16990   1.446   3.880   2.607  0.2548 -0.2369  0.0601
 1844SOL    HW116991   1.445   3.931   2.526 -2.3039  1.7427  1.3513
 1844SOL    HW216992   1.454   3.786   2.587 -4.1051 -0.6629  0.2725
 1845SOL     OW16993   0.871   0.455   4.911 -0.2682  1.0300  0.6343
 1845SOL    HW116994   0.799   0.516   4.921 -0.2999  1.1250 -0.2113
 1845SOL    HW216995   0.879   0.410   4.995 -2.4277  2.6017  1.6784
 1846SOL     OW16996   2.808   0.719   7.982 -0.2146  0.1863 -0.2465
 1846SOL    HW116997   2.716   0.731   7.960 -0.5882  0.9932  1.7750
 1846SOL    HW216998   2.808   0.686   8.072 -1.9957  1.5546  0.2604
 1847SOL     OW16999   4.076   1.983   4.778 -0.5770  0.1352  0.2902
 1847SOL    HW117000   4.104   2.069   4.808 -2.9935  0.8273  0.5753
 1847SOL    HW217001   4.142   1.970   4.710 -0.6496  0.2390  0.1990
 1848SOL     OW17002   4.237   3.256  15.156  0.4138 -0.6379  1.0208
 1848SOL    HW117003   4.171   3.186  15.154 -1.2286  1.0043 -1.3544
 1848SOL    HW217004   4.208   3.292  15.240  1.0849  1.3578  0.3881
 1849SOL     OW17005   0.115   1.589  10.211  0.1009  0.2557 -0.2146
 1849SOL    HW117006   0.054   1.653  10.246  0.4002 -0.5997  1.9026
 1849SOL    HW217007   0.192   1.646  10.207  0.2588  0.0547 -0.0891
 1850SOL     OW17008   3.128   0.715   8.126 -0.5225  0.5420 -0.1659
 1850SOL    HW117009   3.048   0.768   8.132  0.5760  1.9634  2.2061
 1850SOL    HW217010   3.165   0.716   8.214  2.5785  1.9897 -1.5036
 1851SOL     OW17011   3.124   3.770   8.231 -0.1186  0.2367  0.6664
 1851SOL    HW117012   3.142   3.836   8.163  0.1974  0.6958  1.1934
 1851SOL    HW217013   3.180   3.702   8.191  2.3628  0.3896  3.8902
 1852SOL     OW17014   2.669   0.871   2.379 -0.4128 -0.4388 -0.2864
 1852SOL    HW117015   2.707   0.952   2.346 -1.4434 -0.3005 -1.1223
 1852SOL    HW217016   2.700   0.810   2.313  1.4148 -0.5590  0.6594
 1853SOL     OW17017   3.756   3.758   2.952  0.3197  0.4419  0.0395
 1853SOL    HW117018   3.663   3.736   2.956  0.5648 -0.2718  1.9397
 1853SOL    HW217019   3.778   3.716   2.869  0.5854 -0.7537  0.7142
 1854SOL     OW17020   1.229   2.510  13.642  0.0877 -0.1077  0.3297
 1854SOL    HW117021   1.181   2.429  13.623 -0.9256  0.6272 -0.1604
 1854SOL    HW217022   1.183   2.567  13.581 -0.7007 -2.0504 -0.9059
 1855SOL     OW17023   4.290   2.726   3.650 -0.1050  0.0148  1.2554
 1855SOL    HW117024   4.313   2.781   3.576 -0.8411 -0.4199  0.7024
 1855SOL    HW217025   4.281   2.643   3.603  1.5652  1.1627 -1.0786
 1856SOL     OW17026   2.554   0.846  14.036 -0.1658 -0.1063  0.8430
 1856SOL    HW117027   2.623   0.809  14.091  1.1679  0.6130 -0.3636
 1856SOL    HW217028   2.576   0.939  14.040 -2.2893  0.5042 -1.8285
 1857SOL     OW17029   0.864   0.067   3.793  0.4711 -0.4842  0.0521
 1857SOL    HW117030   0.847   0.155   3.826 -0.9260 -0.5861 -0.3981
 1857SOL    HW217031   0.911   0.024   3.865 -0.3962  1.5747  1.8358
 1858SOL     OW17032   2.527   0.750   3.223  0.1331 -1.0687 -0.0323
 1858SOL    HW117033   2.614   0.726   3.255  0.9227 -0.0643 -1.3735
 1858SOL    HW217034   2.499   0.803   3.298  0.3512  0.6239 -1.1349
 1859SOL     OW17035   3.310   4.324   8.967  0.3029 -0.3357 -0.1133
 1859SOL    HW117036   3.360   4.260   9.019  1.5757  1.2817  0.6528
 1859SOL    HW217037   3.267   4.377   9.033 -0.3977  1.3851 -1.9767
 1860SOL     OW17038   1.437   4.120   5.875 -0.8067  0.1646 -0.3129
 1860SOL    HW117039   1.463   4.028   5.865  1.4190  0.7797 -0.1419
 1860SOL    HW217040   1.517   4.155   5.837  0.0382 -1.1595  0.2425
 1861SOL     OW17041   4.210   3.851   6.298 -0.2419 -0.2273 -0.1327
 1861SOL    HW117042   4.232   3.939   6.269 -1.1160 -0.5002 -1.6078
 1861SOL    HW217043   4.285   3.802   6.264 -1.1446 -2.6673  1.4219
 1862SOL     OW17044   1.870   3.545  14.035  0.4507 -0.0792 -0.7761
 1862SOL    HW117045   1.866   3.601  13.958 -0.4170  0.4307 -0.3722
 1862SOL    HW217046   1.964   3.542  14.050  0.2626  2.1397  0.8235
 1863SOL     OW17047   3.109   2.248   6.832 -0.1797  0.0770  0.5491
 1863SOL    HW117048   3.036   2.188   6.819 -1.2258  1.5760 -0.5589
 1863SOL    HW217049   3.065   2.311   6.890 -1.3822  0.2863 -0.5803
 1864SOL     OW17050   3.039   1.565  11.378  0.0176 -0.0478 -0.0789
 1864SOL    HW117051   3.045   1.614  11.460  2.0497  1.4208 -1.1259
 1864SOL    HW217052   2.949   1.532  11.380  0.4460 -1.3017 -1.6087
 1865SOL     OW17053   1.247   0.239   3.111 -0.1721  0.6298 -0.3490
 1865SOL    HW117054   1.209   0.236   3.023 -1.5376  0.5089  0.2442
 1865SOL    HW217055   1.308   0.313   3.104  2.0393 -1.3574 -2.0479
 1866SOL     OW17056   0.265   3.489   2.723  0.7589  0.2227  0.2356
 1866SOL    HW117057   0.255   3.410   2.670  0.7782 -0.3142  1.0244
 1866SOL    HW217058   0.349   3.523   2.691  1.5529 -1.4855  0.5027
 1867SOL     OW17059   3.104   3.649   7.583 -1.3582  0.2276 -0.5877
 1867SOL    HW117060   3.132   3.558   7.581  0.1702  0.6836 -0.5798
 1867SOL    HW217061   3.017   3.641   7.545 -2.2162  0.2234  1.4067
 1868SOL     OW17062   2.890   2.449  12.608  0.0397 -0.8999 -0.3230
 1868SOL    HW117063   2.804   2.422  12.640  0.6891 -0.7719  1.5541
 1868SOL    HW217064   2.879   2.542  12.587  0.7765 -0.5289  0.9006
 1869SOL     OW17065   2.821   4.280  12.965  0.1110  0.0316  0.3212
 1869SOL    HW117066   2.839   4.302  13.056  1.1137  0.1081  0.1108
 1869SOL    HW217067   2.866   4.195  12.965  0.5549  0.2564  1.8225
 1870SOL     OW17068   1.080   3.772   3.285  0.2037 -0.1366 -0.8954
 1870SOL    HW117069   1.006   3.744   3.339  0.4118  1.3282  0.1492
 1870SOL    HW217070   1.066   3.732   3.200 -0.2974 -0.5901 -0.6019
 1871SOL     OW17071   0.117   1.117   7.326  0.5770 -0.3058 -0.2407
 1871SOL    HW117072   0.084   1.201   7.355  0.3948  0.0193 -1.4072
 1871SOL    HW217073   0.176   1.088   7.396  2.2612 -0.5740 -1.7827
 1872SOL     OW17074   0.968   1.634  12.325  0.2644  0.1593  0.3108
 1872SOL    HW117075   0.890   1.596  12.286  1.6969 -0.6341 -1.8287
 1872SOL    HW217076   0.926   1.662  12.406  0.2623 -0.6359  0.5823
 1873SOL     OW17077   1.698   0.115   9.575 -0.0967  0.1609 -0.2000
 1873SOL    HW117078   1.612   0.100   9.615  0.7107  1.4332  2.0281
 1873SOL    HW217079   1.676   0.105   9.483  1.5940  0.2557 -0.6064
 1874SOL     OW17080   3.492   1.152   5.608  0.5895  0.5320  0.2798
 1874SOL    HW117081   3.446   1.069   5.620  1.1321  0.5239  2.3378
 1874SOL    HW217082   3.524   1.136   5.520  0.8212 -0.7576  0.6024
 1875SOL     OW17083   0.985   4.433   4.883  0.0974 -0.0786  0.0593
 1875SOL    HW117084   0.958   4.347   4.850 -1.1559  0.5145 -0.4713
 1875SOL    HW217085   0.964   4.488   4.807 -1.6385  0.4510  0.9226
 1876SOL     OW17086   4.403   4.203  14.366  0.1428  0.5151  0.5577
 1876SOL    HW117087   4.403   4.107  14.368  3.0017  0.5001  0.1484
 1876SOL    HW217088   4.490   4.227  14.396  0.6978 -1.6078  0.6634
 1877SOL     OW17089   3.623   2.583   4.722  0.3906  0.5489  0.0092
 1877SOL    HW117090   3.532   2.604   4.704  0.2388  0.6210  0.8267
 1877SOL    HW217091   3.604   2.497   4.759  1.3576 -0.4168 -1.7703
 1878SOL     OW17092   1.280   0.432   2.787  0.7221  0.4497  0.0344
 1878SOL    HW117093   1.361   0.382   2.795 -0.3245 -1.4822 -1.3641
 1878SOL    HW217094   1.305   0.479   2.707  1.1368  2.1758  1.1802
 1879SOL     OW17095   2.511   3.338   6.558  0.4063  0.2051  0.0588
 1879SOL    HW117096   2.491   3.399   6.486  1.5146  0.0211 -0.3995
 1879SOL    HW217097   2.535   3.396   6.630  0.7619  2.5773 -1.9445
 1880SOL     OW17098   3.885   0.192   7.546  0.4538 -0.3536 -0.0625
 1880SOL    HW117099   3.832   0.251   7.493  1.2723  0.5618  0.1222
 1880SOL    HW217100   3.924   0.247   7.614  0.9486 -2.7394  1.6005
 1881SOL     OW17101   4.181   3.215   7.731 -0.4672  0.0623  0.4550
 1881SOL    HW117102   4.143   3.287   7.782  1.9170  2.5656 -1.3077
 1881SOL    HW217103   4.173   3.235   7.638  1.7108  0.4977  0.3755
 1882SOL     OW17104   1.413   3.644   7.978 -0.6355 -0.1902  0.2518
 1882SOL    HW117105   1.360   3.712   7.937 -0.9834 -0.4557  0.2588
 1882SOL    HW217106   1.431   3.593   7.899 -0.0871 -1.9698  1.4978
 1883SOL     OW17107   2.445   4.601   2.935  0.2846  0.0716  0.7442
 1883SOL    HW117108   2.421   4.687   2.968  0.0510  0.4576 -0.4279
 1883SOL    HW217109   2.525   4.627   2.889 -0.0768  0.0249  0.0837
 1884SOL     OW17110   3.370   1.704   2.420  0.7373  0.5718 -0.4313
 1884SOL    HW117111   3.363   1.791   2.460 -0.7740  0.0214  0.4705
 1884SOL    HW217112   3.434   1.664   2.478 -1.1935  0.8103  1.8628
 1885SOL     OW17113   1.971   4.573   2.252  0.8164  0.7177 -0.4624
 1885SOL    HW117114   2.022   4.653   2.241  1.2488  0.4281 -0.5818
 1885SOL    HW217115   1.999   4.543   2.339  1.2377 -1.7032 -1.4506
 1886SOL     OW17116   0.964   0.282   4.102  0.1617 -0.1094 -0.1422
 1886SOL    HW117117   1.009   0.321   4.027 -0.9116  0.1000 -0.6712
 1886SOL    HW217118   0.983   0.190   4.083  0.9247 -0.2622  1.3022
 1887SOL     OW17119   1.980   0.960   6.919  0.2563 -0.1793  0.1652
 1887SOL    HW117120   1.935   1.027   6.868 -0.0946  0.5441  1.3992
 1887SOL    HW217121   1.983   1.003   7.005  1.4881 -2.4428  1.2637
 1888SOL     OW17122   0.632   0.531   8.203 -0.4221  0.2061  0.1444
 1888SOL    HW117123   0.644   0.541   8.298  2.1975 -0.2211 -0.1586
 1888SOL    HW217124   0.538   0.547   8.191 -0.1849  1.6178  0.0819
 1889SOL     OW17125   4.485   0.686   4.246 -0.3036  0.0868 -0.4641
 1889SOL    HW117126   4.540   0.742   4.301  1.5655 -2.1822 -0.0422
 1889SOL    HW217127   4.464   0.740   4.170  0.5465  0.3719 -0.4989
 1890SOL     OW17128   1.197   3.367   6.622  0.0802  0.0451  0.0873
 1890SOL    HW117129   1.165   3.288   6.578 -0.4397  0.9622 -1.1851
 1890SOL    HW217130   1.247   3.337   6.698  0.4985  2.6832  0.8781
 1891SOL     OW17131   1.587   2.720   3.161  0.0367 -0.5157  0.7224
 1891SOL    HW117132   1.630   2.783   3.218 -0.6389  0.0591  0.5954
 1891SOL    HW217133   1.643   2.644   3.176 -1.3472 -1.3958  1.4205
 1892SOL     OW17134   1.242   2.314   2.643 -0.0155  0.8205 -0.3169
 1892SOL    HW117135   1.300   2.243   2.671 -0.7733 -0.0574 -0.9473
 1892SOL    HW217136   1.275   2.382   2.701  1.3316 -1.7979  2.0027
 1893SOL     OW17137   4.456   1.776  11.264 -0.5320 -0.2567  0.4891
 1893SOL    HW117138   4.544   1.744  11.241 -0.1867 -0.6987  2.4805
 1893SOL    HW217139   4.407   1.724  11.201 -2.9247  3.6393 -0.8811
 1894SOL     OW17140   4.345   0.555   2.035  0.1436  0.4798  0.8097
 1894SOL    HW117141   4.355   0.641   2.075  2.2824 -1.0536  3.5474
 1894SOL    HW217142   4.323   0.575   1.944 -1.2966  0.1801  1.0961
 1895SOL     OW17143   3.447   3.159  12.080  0.5388 -0.0746 -0.0797
 1895SOL    HW117144   3.425   3.144  11.988  0.9909  0.4328 -0.2699
 1895SOL    HW217145   3.478   3.073  12.110  0.1806 -0.0190  0.4634
 1896SOL     OW17146   1.454   3.535   2.460  0.0094  0.1223 -0.1991
 1896SOL    HW117147   1.463   3.612   2.404 -0.2540  0.3735  0.1085
 1896SOL    HW217148   1.475   3.470   2.392 -2.6280  0.2442 -1.1327
 1897SOL     OW17149   2.294   2.081  12.794 -0.4446  0.0683 -0.1964
 1897SOL    HW117150   2.373   2.117  12.754 -1.4609  2.6358  0.0850
 1897SOL    HW217151   2.257   2.018  12.733  0.2166  1.2950 -1.8577
 1898SOL     OW17152   1.224   1.442  11.392 -0.0679 -0.1939 -0.0266
 1898SOL    HW117153   1.189   1.492  11.465  0.8048 -1.3675  1.1908
 1898SOL    HW217154   1.318   1.441  11.413  0.3239 -1.2381 -1.7921
 1899SOL     OW17155   3.359   4.097   1.026  0.1403  0.1423 -0.5770
 1899SOL    HW117156   3.396   4.136   0.947  1.4651 -0.7846 -0.4205
 1899SOL    HW217157   3.345   4.005   1.006  0.1314 -0.4269  2.0271
 1900SOL     OW17158   3.701   4.046   2.548  0.5937 -0.5414 -0.2872
 1900SOL    HW117159   3.710   3.975   2.612 -1.0003 -1.0280 -0.5954
 1900SOL    HW217160   3.784   4.092   2.556  0.4368 -0.8058  2.7634
 1901SOL     OW17161   2.161   1.286  15.182  0.0879 -0.3824 -0.0453
 1901SOL    HW117162   2.199   1.371  15.205 -0.4758  0.0480 -0.6742
 1901SOL    HW217163   2.175   1.240  15.264 -1.0773 -2.3317 -0.9259
 1902SOL     OW17164   0.414   1.788  12.126  0.8191  0.6949 -0.4242
 1902SOL    HW117165   0.443   1.722  12.188 -0.6395  0.1203 -0.3419
 1902SOL    HW217166   0.378   1.850  12.189 -0.8860 -2.0289  1.3130
 1903SOL     OW17167   2.583   2.975   3.854 -0.0612  0.0943 -0.7051
 1903SOL    HW117168   2.663   2.926   3.872 -0.1792 -0.4068 -1.5796
 1903SOL    HW217169   2.531   2.908   3.810  1.1707 -0.9189 -0.6020
 1904SOL     OW17170   0.051   1.938   4.929 -0.0796  0.4299  0.5928
 1904SOL    HW117171   4.699   1.880   4.929  0.9820 -0.9348  2.4205
 1904SOL    HW217172   0.084   1.935   5.019  0.0412 -0.9037  0.4934
 1905SOL     OW17173   2.748   2.679   3.693 -0.3862  0.5625  0.0099
 1905SOL    HW117174   2.784   2.742   3.756  0.7074  0.0862 -0.1302
 1905SOL    HW217175   2.656   2.684   3.718  0.2575  0.6170  2.3220
 1906SOL     OW17176   2.203   1.847   1.144  0.0163  0.4262 -0.0104
 1906SOL    HW117177   2.249   1.807   1.070  1.8687  2.4267  0.0977
 1906SOL    HW217178   2.252   1.919   1.183  0.4268 -1.4705  2.9407
 1907SOL     OW17179   4.149   0.348   8.038 -0.6003 -0.2563  0.2115
 1907SOL    HW117180   4.189   0.411   7.979 -1.0526 -0.3509 -0.2006
 1907SOL    HW217181   4.081   0.402   8.078 -0.1715  0.9398 -0.6821
 1908SOL     OW17182   2.598   3.657   6.190 -0.1413 -0.1294  0.3205
 1908SOL    HW117183   2.556   3.614   6.116 -2.2493  0.9309  0.9118
 1908SOL    HW217184   2.545   3.622   6.261 -0.8732 -0.4743 -0.3995
 1909SOL     OW17185   1.318   4.244  13.877  0.1854 -0.3286  0.4657
 1909SOL    HW117186   1.347   4.180  13.941  0.5923 -1.9434 -1.3145
 1909SOL    HW217187   1.287   4.188  13.806  1.1146 -0.9984  0.5851
 1910SOL     OW17188   1.802   2.374   3.040  0.3050 -0.0594  0.3578
 1910SOL    HW117189   1.871   2.323   3.082 -1.3942 -0.2655  2.8622
 1910SOL    HW217190   1.836   2.373   2.950 -1.6035  1.9614 -0.3941
 1911SOL     OW17191   1.563   1.784   6.616 -0.1173  0.2074  0.1855
 1911SOL    HW117192   1.486   1.826   6.656 -1.2594  3.2758 -5.2273
 1911SOL    HW217193   1.533   1.769   6.526  0.0493  0.3330  0.1091
 1912SOL     OW17194   2.203   4.351  16.196  0.0456  0.3941  0.3161
 1912SOL    HW117195   2.114   4.325  16.174  0.1888 -0.4367  0.6834
 1912SOL    HW217196   2.190   4.420  16.261 -1.2213  1.0711 -0.6598
 1913SOL     OW17197   2.641   0.198  14.773 -0.4187 -0.5326 -0.2421
 1913SOL    HW117198   2.579   0.264  14.742  1.2730  1.4585  0.6327
 1913SOL    HW217199   2.593   0.122  14.806  0.1812  0.0751  2.0425
 1914SOL     OW17200   4.410   0.756   0.745  0.4139  0.2176  0.1398
 1914SOL    HW117201   4.392   0.845   0.714 -0.8811  0.0121  0.2924
 1914SOL    HW217202   4.501   0.746   0.719  0.5242  2.6765 -0.4363
 1915SOL     OW17203   2.842   2.659   2.443 -0.1499 -0.2569 -0.2747
 1915SOL    HW117204   2.891   2.740   2.430  0.0822 -0.0749  1.6176
 1915SOL    HW217205   2.857   2.646   2.537 -2.1805  0.8919  0.2014
 1916SOL     OW17206   4.249   3.979   7.721 -0.0204 -0.3328 -0.0202
 1916SOL    HW117207   4.313   4.034   7.677  1.1909 -0.2830  1.8007
 1916SOL    HW217208   4.177   4.038   7.743  0.4190  0.3888 -0.5601
 1917SOL     OW17209   3.000   4.365   8.423  0.0113 -0.1666 -0.4637
 1917SOL    HW117210   3.065   4.388   8.489  1.3682  0.0916 -1.8826
 1917SOL    HW217211   2.970   4.453   8.399  0.6906 -0.3251 -1.9257
 1918SOL     OW17212   3.348   3.805  10.717 -0.0199 -0.7465 -0.5631
 1918SOL    HW117213   3.369   3.843  10.802 -1.7383 -0.7199 -0.1379
 1918SOL    HW217214   3.335   3.884  10.664 -2.6148 -1.8788 -1.6315
 1919SOL     OW17215   0.368   0.895   7.946 -0.1569 -0.4904  0.5350
 1919SOL    HW117216   0.439   0.847   7.903 -1.6120  0.3026 -2.7596
 1919SOL    HW217217   0.332   0.824   8.000 -2.2287 -0.2070 -0.4681
 1920SOL     OW17218   2.852   0.847  11.863 -0.1311 -0.3151  0.2368
 1920SOL    HW117219   2.925   0.850  11.801 -2.4585  1.4543 -2.4479
 1920SOL    HW217220   2.893   0.826  11.947  1.0305  5.4742  1.1207
 1921SOL     OW17221   1.497   0.627   2.834  0.3277 -0.3231  0.1275
 1921SOL    HW117222   1.462   0.621   2.745 -1.3747  1.2672  0.6870
 1921SOL    HW217223   1.576   0.574   2.833 -0.5093 -1.5499 -1.6636
 1922SOL     OW17224   0.035   4.130   8.796 -0.3988 -0.5421  0.7002
 1922SOL    HW117225   0.042   4.050   8.848 -0.1227  0.0672  1.6009
 1922SOL    HW217226   0.128   4.141   8.777 -0.7308  2.2125  0.6347
 1923SOL     OW17227   2.230   0.515  17.542  1.2189  0.0568 -0.0094
 1923SOL    HW117228   2.186   0.515  17.627  1.8893 -0.7057  0.3372
 1923SOL    HW217229   2.302   0.577  17.552  1.8141 -0.5237 -0.6793
 1924SOL     OW17230   1.543   2.313   1.420 -0.5404  0.6481 -0.7264
 1924SOL    HW117231   1.577   2.300   1.331 -0.5844 -0.8053 -0.5305
 1924SOL    HW217232   1.605   2.279   1.484 -2.9153  0.9105  1.7235
 1925SOL     OW17233   3.117   3.004   5.148  0.5092 -0.0803 -0.2127
 1925SOL    HW117234   3.135   3.052   5.230 -0.1956  2.4944 -1.5563
 1925SOL    HW217235   3.127   3.081   5.092  2.2243  0.4217  0.7591
 1926SOL     OW17236   1.087   2.818   4.591  0.3699  0.4327  0.1731
 1926SOL    HW117237   1.059   2.842   4.502 -1.1708  2.5605  1.2362
 1926SOL    HW217238   1.007   2.775   4.620 -0.8401  1.5613 -1.4705
 1927SOL     OW17239   0.312   0.956   6.664 -0.2864  0.3649 -0.0108
 1927SOL    HW117240   0.407   0.953   6.664 -0.2621  1.4072  2.0014
 1927SOL    HW217241   0.298   0.861   6.672  0.7674  0.3306  1.4720
 1928SOL     OW17242   4.323   3.266  10.980 -0.1148  0.7388  0.0446
 1928SOL    HW117243   4.270   3.188  10.993 -2.2020  1.8214 -1.9560
 1928SOL    HW217244   4.395   3.224  10.935  0.2564 -0.6120  1.8774
 1929SOL     OW17245   4.052   3.534   9.964 -0.1576  0.0833 -0.2077
 1929SOL    HW117246   4.142   3.530   9.931  0.0551  1.1563  0.2329
 1929SOL    HW217247   4.057   3.575  10.050 -1.8244 -1.2310  0.5132
 1930SOL     OW17248   1.568   0.494   8.999  0.1405  0.5409 -0.1362
 1930SOL    HW117249   1.496   0.436   8.973  1.5216 -0.6916 -1.2100
 1930SOL    HW217250   1.528   0.566   9.047 -0.1774  0.4981 -0.3374
 1931SOL     OW17251   0.311   0.212   3.000 -0.3670 -0.3204 -0.2612
 1931SOL    HW117252   0.350   0.148   2.940  1.2539 -0.3122  0.7857
 1931SOL    HW217253   0.392   0.254   3.027 -0.4654 -0.1886 -0.1730
 1932SOL     OW17254   0.094   2.337  11.223  0.0742  0.1394 -0.0148
 1932SOL    HW117255   0.046   2.291  11.154 -0.5337 -0.9814  1.1645
 1932SOL    HW217256   0.171   2.281  11.225  0.0389  0.0893 -0.0599
 1933SOL     OW17257   4.312   4.548   6.722 -0.0902 -0.1897 -0.1165
 1933SOL    HW117258   4.252   4.536   6.796 -0.1870  1.1418  0.0108
 1933SOL    HW217259   4.366   4.618   6.760 -0.1457 -0.3716  0.2932
 1934SOL     OW17260   4.593   3.084   2.460 -0.2654 -0.3417 -0.1586
 1934SOL    HW117261   4.506   3.062   2.493 -0.2039  1.5109  1.2057
 1934SOL    HW217262   4.654   3.016   2.491  1.2798  1.0118 -0.2693
 1935SOL     OW17263   4.623   2.806  11.750 -0.4770  0.1097 -0.0707
 1935SOL    HW117264   4.534   2.782  11.777  0.2452 -2.9606 -0.4680
 1935SOL    HW217265   4.627   2.754  11.670  2.7516  1.0359 -0.5112
 1936SOL     OW17266   0.269   0.979   3.874 -0.1008 -0.1234  0.1463
 1936SOL    HW117267   0.271   0.914   3.804 -0.4263  0.3009 -0.2595
 1936SOL    HW217268   0.298   1.053   3.821 -3.6707  0.3403 -1.1487
 1937SOL     OW17269   2.631   2.279   5.370  0.0473 -0.1333  0.7199
 1937SOL    HW117270   2.720   2.255   5.344 -0.4422  0.6245 -1.7111
 1937SOL    HW217271   2.617   2.245   5.458  1.6607  0.7457  1.3204
 1938SOL     OW17272   1.339   1.797  14.402 -0.6464 -0.2357 -0.3218
 1938SOL    HW117273   1.320   1.725  14.341  0.5473 -0.1145 -0.8372
 1938SOL    HW217274   1.313   1.864  14.339 -2.1751 -1.3378 -0.8656
 1939SOL     OW17275   4.543   1.549   7.296 -0.8829  0.7645  0.3160
 1939SOL    HW117276   4.471   1.607   7.271 -1.9507 -0.3050  0.9112
 1939SOL    HW217277   4.539   1.492   7.219  0.7693  0.7899  0.2017
 1940SOL     OW17278   1.290   0.062  11.579  0.7375  0.1034  0.0817
 1940SOL    HW117279   1.355   0.048  11.648  1.0977  2.0504  0.1272
 1940SOL    HW217280   1.343   0.058  11.499  0.2483 -0.1654 -0.2237
 1941SOL     OW17281   3.665   2.098   3.457 -0.1561 -0.5232  0.4899
 1941SOL    HW117282   3.635   2.189   3.458  1.3429 -0.0131 -1.5473
 1941SOL    HW217283   3.666   2.080   3.551 -2.4491  0.6179  0.7384
 1942SOL     OW17284   0.489   2.872   8.232  0.6382 -0.2791 -0.3381
 1942SOL    HW117285   0.455   2.961   8.223  2.0024  0.4202  1.3033
 1942SOL    HW217286   0.541   2.880   8.312 -0.6151 -0.8584  0.5247
 1943SOL     OW17287   2.751   1.369   8.009  0.5474  0.0447 -0.5692
 1943SOL    HW117288   2.791   1.282   8.011 -0.6085 -0.4792 -0.4118
 1943SOL    HW217289   2.657   1.351   7.999  0.6523 -2.0589  2.4359
 1944SOL     OW17290   0.070   0.643   4.532  0.3407  0.3672 -0.2031
 1944SOL    HW117291   0.005   0.630   4.601  0.4200  1.2260  0.0329
 1944SOL    HW217292   0.140   0.582   4.555  0.6201 -0.0997 -2.2449
 1945SOL     OW17293   3.453   2.845   3.521 -0.1843  0.6274  0.5366
 1945SOL    HW117294   3.384   2.867   3.457  0.2681 -0.1758 -0.2314
 1945SOL    HW217295   3.521   2.891   3.471 -1.8753  2.5067 -0.0461
 1946SOL     OW17296   0.078   0.665  10.238 -0.0191 -0.5646 -0.3349
 1946SOL    HW117297   0.144   0.724  10.202 -1.9531  1.6027 -0.2826
 1946SOL    HW217298   4.722   0.716  10.230  0.1356 -0.1974  0.4549
 1947SOL     OW17299   0.045   0.526   2.529  0.7316 -0.2992  0.1626
 1947SOL    HW117300   4.713   0.530   2.607 -0.3233 -1.8232 -0.5168
 1947SOL    HW217301   4.711   0.491   2.461 -1.1277  3.1227 -0.0362
 1948SOL     OW17302   1.213   2.799  14.399 -0.5640  0.0289 -1.0798
 1948SOL    HW117303   1.286   2.855  14.375  0.1743 -1.5317 -2.4896
 1948SOL    HW217304   1.160   2.814  14.321 -4.0683  1.8095  1.6515
 1949SOL     OW17305   0.997   0.696   2.505 -0.0352  0.5633 -0.6082
 1949SOL    HW117306   0.924   0.637   2.522 -0.1745  1.0047  0.3566
 1949SOL    HW217307   0.956   0.769   2.458 -3.4690 -0.3608  0.9927
 1950SOL     OW17308   1.601   2.012   2.417  0.1238  0.1085 -0.2941
 1950SOL    HW117309   1.540   2.034   2.487  1.7140  0.7802  0.8740
 1950SOL    HW217310   1.575   1.921   2.406  0.9653 -0.4098  2.0077
 1951SOL     OW17311   2.295   0.053  17.218 -0.3987  0.4918 -0.9918
 1951SOL    HW117312   2.288   0.030  17.125  0.8281  2.0036 -1.4640
 1951SOL    HW217313   2.205   0.040  17.248  0.5114  3.1500  2.8068
 1952SOL     OW17314   3.857   1.893   1.181  0.3254  0.0382  0.4192
 1952SOL    HW117315   3.799   1.969   1.189  1.0343  0.6748 -0.3675
 1952SOL    HW217316   3.801   1.816   1.182 -2.6560  2.2450  1.4176
 1953SOL     OW17317   0.517   4.606   7.644 -0.2224  0.4812 -0.2744
 1953SOL    HW117318   0.552   4.684   7.602  2.3030  0.3020  1.5009
 1953SOL    HW217319   0.533   4.630   7.735  1.7400  1.0560 -0.7742
 1954SOL     OW17320   2.565   0.943   5.610 -0.2252  0.0430  0.4437
 1954SOL    HW117321   2.506   0.881   5.653  0.3426  1.6849  3.5948
 1954SOL    HW217322   2.625   0.937   5.683 -0.2003  1.3438  0.5301
 1955SOL     OW17323   0.299   2.212   5.421 -0.4253 -0.3365  0.0189
 1955SOL    HW117324   0.215   2.165   5.419  0.6639 -2.3838  3.2857
 1955SOL    HW217325   0.299   2.260   5.504  0.4448  1.6441 -1.1140
 1956SOL     OW17326   3.099   2.693   5.528 -0.0194  0.0945  0.3605
 1956SOL    HW117327   3.127   2.713   5.439  2.3240 -0.2837  1.0246
 1956SOL    HW217328   3.177   2.643   5.551 -1.8198 -2.7349  0.4798
 1957SOL     OW17329   3.577   0.313   6.184  0.1355  0.9577 -0.0303
 1957SOL    HW117330   3.640   0.298   6.113  0.5157 -2.1086  0.9487
 1957SOL    HW217331   3.497   0.267   6.159  0.5401  0.7087 -0.8897
 1958SOL     OW17332   0.663   4.040  15.442  0.0050 -0.7043  0.1344
 1958SOL    HW117333   0.717   4.026  15.520  0.3001 -0.6925 -0.0683
 1958SOL    HW217334   0.714   4.101  15.389  0.2311 -1.1985 -0.2175
 1959SOL     OW17335   3.848   0.524  14.151 -0.4668  0.6986 -0.6508
 1959SOL    HW117336   3.805   0.481  14.078  0.4704 -0.2447 -0.6551
 1959SOL    HW217337   3.814   0.481  14.229  1.6694 -0.1189 -0.1837
 1960SOL     OW17338   2.981   4.370  11.938  0.0048  0.5878 -0.5678
 1960SOL    HW117339   2.925   4.297  11.910 -0.2375  0.9386 -1.0162
 1960SOL    HW217340   3.010   4.410  11.856 -1.1036  1.4259 -0.5689
 1961SOL     OW17341   4.421   4.462   5.283  0.7580 -0.0706  0.2847
 1961SOL    HW117342   4.459   4.483   5.197 -0.9377 -0.5894 -0.5868
 1961SOL    HW217343   4.441   4.371   5.302  1.6096 -0.0244 -0.4074
 1962SOL     OW17344   2.834   2.414   5.786  0.1396 -0.0157 -0.0969
 1962SOL    HW117345   2.885   2.387   5.710 -0.2242  1.7978 -0.9861
 1962SOL    HW217346   2.806   2.500   5.755 -3.7035 -1.5627 -0.9167
 1963SOL     OW17347   0.889   4.502   1.057 -0.3523 -0.3223 -0.4484
 1963SOL    HW117348   0.861   4.593   1.043 -0.2432 -0.4524 -1.5517
 1963SOL    HW217349   0.828   4.462   1.119  0.0541 -3.5357 -2.1574
 1964SOL     OW17350   4.057   2.761   6.188 -0.4440 -0.4234 -0.5331
 1964SOL    HW117351   4.068   2.765   6.283 -0.6475  1.4069 -0.5955
 1964SOL    HW217352   4.149   2.769   6.163 -0.5361 -1.2053 -1.1286
 1965SOL     OW17353   3.520   2.417  12.810 -0.1200  0.2476  0.4375
 1965SOL    HW117354   3.598   2.462  12.844 -0.4814  0.9280  0.3625
 1965SOL    HW217355   3.471   2.499  12.802  1.3109  1.2854  2.0263
 1966SOL     OW17356   0.859   3.564   3.425  0.1092  0.5799 -0.0151
 1966SOL    HW117357   0.785   3.614   3.459 -0.2245 -0.2078  0.4039
 1966SOL    HW217358   0.890   3.511   3.498 -1.2991  0.5301  0.5504
 1967SOL     OW17359   1.715   3.064   6.811  0.2818 -0.1279 -0.6556
 1967SOL    HW117360   1.788   3.120   6.837 -0.4865  0.6628 -0.1939
 1967SOL    HW217361   1.765   2.990   6.776  1.5031  0.0160  0.7949
 1968SOL     OW17362   1.833   3.765   6.575  0.0210 -0.6428 -0.5972
 1968SOL    HW117363   1.761   3.807   6.622  0.6929  0.8249 -0.8765
 1968SOL    HW217364   1.864   3.845   6.532 -2.2683 -0.5408 -2.0569
 1969SOL     OW17365   2.328   0.840   0.957  0.1270 -0.0478  0.3761
 1969SOL    HW117366   2.237   0.811   0.951 -0.1758  1.0869 -0.5233
 1969SOL    HW217367   2.349   0.782   1.029 -1.1623 -2.0827 -0.8845
 1970SOL     OW17368   2.698   1.077   1.948 -0.2008 -0.1508 -0.0487
 1970SOL    HW117369   2.642   1.004   1.921 -0.1139 -0.2390  0.0075
 1970SOL    HW217370   2.747   1.036   2.020  1.1999 -1.0440 -1.5122
 1971SOL     OW17371   1.972   4.123  13.703  0.0295  0.3326  0.1424
 1971SOL    HW117372   2.018   4.202  13.729 -2.1262  1.4744  0.5471
 1971SOL    HW217373   1.928   4.105  13.786  0.1456 -1.5142 -0.1877
 1972SOL     OW17374   0.293   1.613  15.821  0.1538 -0.5438  0.1257
 1972SOL    HW117375   0.337   1.697  15.808  0.4891 -1.1174 -2.4688
 1972SOL    HW217376   0.258   1.630  15.909 -1.2762 -2.3911 -0.0986
 1973SOL     OW17377   2.290   3.653   2.066  0.2556 -0.2211  0.0176
 1973SOL    HW117378   2.295   3.617   1.977 -2.2795  2.2339 -1.1093
 1973SOL    HW217379   2.255   3.575   2.108  0.6106 -0.2854  0.1970
 1974SOL     OW17380   4.233   3.065   4.019  0.7082  0.3074 -0.2547
 1974SOL    HW117381   4.202   3.113   3.943  0.3179  0.4097 -0.0328
 1974SOL    HW217382   4.156   3.083   4.074  1.4617 -0.0211  0.8989
 1975SOL     OW17383   2.326   4.021   8.720 -0.5152 -0.1642 -0.0483
 1975SOL    HW117384   2.403   3.966   8.707 -1.0993 -1.5003  2.1225
 1975SOL    HW217385   2.255   3.958   8.730  0.1528 -0.6201  1.8713
 1976SOL     OW17386   1.300   2.787   6.583 -0.0298 -0.1052  0.3809
 1976SOL    HW117387   1.227   2.731   6.608 -0.7511  0.5514 -0.2653
 1976SOL    HW217388   1.373   2.758   6.638  1.1997  1.0573 -0.6177
 1977SOL     OW17389   3.717   0.914   0.908 -0.3377  0.5935  0.2923
 1977SOL    HW117390   3.709   0.848   0.840  0.1565 -0.1167  0.9213
 1977SOL    HW217391   3.702   0.857   0.984  0.5356  0.7081  0.5547
 1978SOL     OW17392   2.438   1.410  13.477  0.4896 -0.4665 -0.1097
 1978SOL    HW117393   2.494   1.367  13.412  2.2782 -0.7117  1.6170
 1978SOL    HW217394   2.497   1.481  13.500  0.5567 -1.1750  1.9351
 1979SOL     OW17395   3.672   0.763   4.665 -0.3954 -0.3457  1.0291
 1979SOL    HW117396   3.618   0.693   4.629  2.7443 -1.3910 -1.6838
 1979SOL    HW217397   3.640   0.839   4.617 -0.1549 -1.6148 -1.1566
 1980SOL     OW17398   0.562   0.504  17.382  0.2278 -0.4123  0.3438
 1980SOL    HW117399   0.490   0.566  17.373 -0.8205 -1.8838 -1.4079
 1980SOL    HW217400   0.537   0.458  17.462 -0.0725  0.0111  0.4941
 1981SOL     OW17401   0.060   3.742   9.215 -0.1307  0.1501  0.3169
 1981SOL    HW117402   0.062   3.781   9.302 -0.9019  2.2941 -0.6100
 1981SOL    HW217403   4.689   3.734   9.204 -0.2841  1.0301  0.9717
 1982SOL     OW17404   1.727   2.701   6.036  0.0556 -0.1554 -0.0795
 1982SOL    HW117405   1.680   2.717   5.955 -1.0311 -2.3175  0.1119
 1982SOL    HW217406   1.647   2.681   6.085 -0.9411  2.4336 -0.6493
 1983SOL     OW17407   2.631   1.920  10.480  0.6759 -0.2678 -0.0718
 1983SOL    HW117408   2.586   1.929  10.564 -0.8254  0.8116 -1.0024
 1983SOL    HW217409   2.579   1.852  10.437 -0.6659  1.4845 -1.1795
 1984SOL     OW17410   0.697   3.157   3.455  0.2712  0.0634  0.2072
 1984SOL    HW117411   0.701   3.088   3.521 -2.4962 -0.5197 -0.2077
 1984SOL    HW217412   0.645   3.225   3.498  0.5280 -0.1893  0.9218
 1985SOL     OW17413   1.974   3.956   7.764  0.3226 -0.2018 -0.6266
 1985SOL    HW117414   2.033   3.895   7.719 -2.1075 -1.9989 -1.3830
 1985SOL    HW217415   2.032   4.002   7.825 -1.6874  0.5238  0.7210
 1986SOL     OW17416   3.103   1.355  12.061 -0.0942 -0.1913  0.4407
 1986SOL    HW117417   3.157   1.282  12.030 -1.6427 -0.8838 -0.6370
 1986SOL    HW217418   3.095   1.403  11.978  2.9095  0.7934  0.7107
 1987SOL     OW17419   2.548   0.610   5.474 -0.2636  1.1187  0.1164
 1987SOL    HW117420   2.461   0.571   5.482 -0.4727  1.7366  0.9133
 1987SOL    HW217421   2.513   0.697   5.457 -0.8828  0.9037  0.2800
 1988SOL     OW17422   1.925   4.396  13.332 -0.4678 -0.0419 -0.2836
 1988SOL    HW117423   1.929   4.330  13.401 -1.2042  0.8715  0.6190
 1988SOL    HW217424   2.006   4.447  13.333 -0.5915  0.1816 -1.6099
 1989SOL     OW17425   4.020   3.422   5.186 -0.1682 -0.1924 -0.1513
 1989SOL    HW117426   3.957   3.494   5.189  0.7434  0.5697  0.7303
 1989SOL    HW217427   4.004   3.370   5.265 -0.1451 -1.3717 -0.9352
 1990SOL     OW17428   4.542   1.923   5.326  0.6535  0.3325 -0.4713
 1990SOL    HW117429   4.501   1.875   5.398  0.7847  0.1689 -0.5025
 1990SOL    HW217430   4.627   1.935   5.369  0.2482 -2.1147  1.0294
 1991SOL     OW17431   0.682   4.442   7.256  0.5382 -0.9122  0.1099
 1991SOL    HW117432   0.684   4.459   7.162 -0.3314 -0.4431  0.1732
 1991SOL    HW217433   0.633   4.361   7.253  0.7727 -1.0590  0.2355
 1992SOL     OW17434   4.627   0.479   9.096  0.1428  0.1854  0.4058
 1992SOL    HW117435   4.685   0.421   9.144  0.5375 -1.3662 -1.9088
 1992SOL    HW217436   4.581   0.410   9.048  0.4778  0.0190  0.3249
 1993SOL     OW17437   0.992   1.912  15.245  0.2173 -0.0407 -0.2119
 1993SOL    HW117438   1.080   1.909  15.283 -0.4520  2.0723  1.4628
 1993SOL    HW217439   0.944   1.922  15.327  1.2567 -1.7992  0.6277
 1994SOL     OW17440   1.409   1.504   6.486 -0.0312  0.2873 -0.0348
 1994SOL    HW117441   1.465   1.427   6.495  0.3279  0.5990  0.4359
 1994SOL    HW217442   1.332   1.465   6.446 -2.4211  2.2497  2.6377
 1995SOL     OW17443   4.233   1.581   6.737 -0.4778  0.4197 -0.0351
 1995SOL    HW117444   4.279   1.614   6.660  1.1459 -0.1055  0.6996
 1995SOL    HW217445   4.311   1.543   6.778  1.6157  4.5816 -0.0882
 1996SOL     OW17446   2.503   1.781   0.204 -0.4955  0.3919  0.0171
 1996SOL    HW117447   2.428   1.817   0.157 -0.0589  0.8137 -0.3679
 1996SOL    HW217448   2.520   1.848   0.270 -1.0286  1.1120 -0.5734
 1997SOL     OW17449   0.441   4.506   6.295 -0.0689 -0.2112 -0.2423
 1997SOL    HW117450   0.435   4.524   6.202  1.3913 -0.1870 -0.3230
 1997SOL    HW217451   0.536   4.508   6.303 -0.2796  0.5730  2.2321
 1998SOL     OW17452   3.232   1.270   3.294  0.4533 -0.1132 -0.0863
 1998SOL    HW117453   3.224   1.364   3.283  0.5213 -0.0645  0.2708
 1998SOL    HW217454   3.272   1.279   3.380 -1.9857  1.0131  0.9392
 1999SOL     OW17455   1.058   2.514  14.435  0.7705  0.1923 -0.4553
 1999SOL    HW117456   1.095   2.592  14.394 -0.6150  0.9897 -0.1855
 1999SOL    HW217457   1.054   2.452  14.362  0.6294 -0.9772  0.5460
 2000SOL     OW17458   0.981   3.821   2.165  0.2753 -0.3361  0.6436
 2000SOL    HW117459   0.886   3.821   2.177  0.0825  0.1169 -0.9265
 2000SOL    HW217460   0.996   3.911   2.135 -1.1460 -0.7600 -1.3309
 2001SOL     OW17461   3.346   4.019   2.310  0.0679 -0.1769 -0.1046
 2001SOL    HW117462   3.317   3.970   2.387 -2.0304 -0.3765 -1.0060
 2001SOL    HW217463   3.263   4.057   2.280 -1.1166 -2.9304 -0.2976
 2002SOL     OW17464   0.669   0.617   8.455  0.0898 -0.2305  0.6995
 2002SOL    HW117465   0.632   0.687   8.401  0.3849 -0.7089 -0.1049
 2002SOL    HW217466   0.720   0.669   8.517  1.7692 -1.0013 -0.0507
 2003SOL     OW17467   2.876   1.158   5.802  0.3432  0.1569 -0.1592
 2003SOL    HW117468   2.842   1.086   5.856 -0.5421  0.7873  0.1291
 2003SOL    HW217469   2.937   1.110   5.747  1.1718  0.3481  0.5938
 2004SOL     OW17470   3.422   1.123  10.057  0.0835  0.2951 -0.2436
 2004SOL    HW117471   3.403   1.068  10.133  0.4016 -1.1476 -1.1975
 2004SOL    HW217472   3.470   1.200  10.087  2.4236 -0.4771 -2.0151
 2005SOL     OW17473   1.278   1.010  13.736  0.1242 -0.0779 -0.2075
 2005SOL    HW117474   1.191   0.991  13.702  0.6339 -1.0363 -0.9629
 2005SOL    HW217475   1.317   1.030  13.651  0.0388  1.1116  0.0230
 2006SOL     OW17476   3.405   2.073   1.032 -0.3904 -0.6776 -0.3089
 2006SOL    HW117477   3.414   2.058   0.938  0.1389 -0.5694 -0.2780
 2006SOL    HW217478   3.330   2.017   1.049 -2.1205  1.7877  0.0878
 2007SOL     OW17479   3.805   1.311   4.423  0.8370 -0.1177  0.5390
 2007SOL    HW117480   3.897   1.336   4.418  1.2974 -1.8813 -0.1423
 2007SOL    HW217481   3.791   1.287   4.332  0.1337  1.0733  0.3449
 2008SOL     OW17482   1.764   1.588  11.850  0.3091  0.5091  0.3222
 2008SOL    HW117483   1.784   1.679  11.831 -0.3048  0.2776 -1.4761
 2008SOL    HW217484   1.808   1.576  11.934  0.8719 -1.2481 -0.2149
 2009SOL     OW17485   1.105   1.465   1.044  0.2705  0.0475 -0.0105
 2009SOL    HW117486   1.182   1.490   1.095  0.7685 -0.2240 -0.6203
 2009SOL    HW217487   1.070   1.384   1.082  3.1720 -0.6154  1.2405
 2010SOL     OW17488   3.309   2.490   8.160 -0.1719  0.0273 -0.2884
 2010SOL    HW117489   3.271   2.570   8.123  0.6291 -0.1269 -1.4212
 2010SOL    HW217490   3.402   2.514   8.151  0.2987 -1.3945  0.7819
 2011SOL     OW17491   0.501   3.175   7.142 -0.6703 -0.7081  0.3046
 2011SOL    HW117492   0.448   3.251   7.165  0.9410  0.9683 -1.4323
 2011SOL    HW217493   0.426   3.119   7.121  0.1409 -1.6440 -0.1134
 2012SOL     OW17494   3.768   1.041   1.154 -0.1322 -0.0402 -0.5010
 2012SOL    HW117495   3.720   0.970   1.197 -0.2239  0.0032 -0.5307
 2012SOL    HW217496   3.780   1.009   1.065  0.2669  0.6959 -0.7125
 2013SOL     OW17497   2.621   2.775   5.910 -0.7014  0.1000  0.1543
 2013SOL    HW117498   2.623   2.726   5.827  0.4388  1.2222 -0.4793
 2013SOL    HW217499   2.712   2.804   5.914 -1.3063  1.7891  1.4052
 2014SOL     OW17500   4.414   1.227   3.908 -0.3487  0.4779  0.6749
 2014SOL    HW117501   4.321   1.247   3.901 -0.7767 -0.9051  2.5506
 2014SOL    HW217502   4.460   1.305   3.878 -1.1247  1.1851  1.3221
 2015SOL     OW17503   4.460   0.942   1.442  0.1835 -0.5486 -0.1491
 2015SOL    HW117504   4.432   0.858   1.478 -2.4308 -0.1955 -1.3626
 2015SOL    HW217505   4.394   1.004   1.472  0.7205  0.3329 -0.7719
 2016SOL     OW17506   1.849   1.174   3.962 -0.0707 -0.3291  1.4911
 2016SOL    HW117507   1.899   1.255   3.972  1.1441 -0.7972 -0.7079
 2016SOL    HW217508   1.761   1.202   3.985 -0.6984 -2.8644  2.1562
 2017SOL     OW17509   4.395   3.379  13.577 -0.2707  0.1129 -0.1253
 2017SOL    HW117510   4.423   3.300  13.532  1.8933  0.2617  0.9769
 2017SOL    HW217511   4.306   3.352  13.602  0.8046 -0.5585  2.9187
 2018SOL     OW17512   1.541   3.049   6.153  0.2207  0.4187 -0.1812
 2018SOL    HW117513   1.455   3.073   6.118  0.5948  2.6281  0.3578
 2018SOL    HW217514   1.527   3.050   6.248  1.5531  0.7963  0.0164
 2019SOL     OW17515   0.907   4.539  12.956 -0.3577  0.0572 -0.6780
 2019SOL    HW117516   0.881   4.588  12.878 -4.5021 -0.8051  0.1403
 2019SOL    HW217517   1.000   4.520  12.943 -0.0505  0.4240  0.9064
 2020SOL     OW17518   0.056   2.512   5.926  0.0832 -0.3059 -0.3748
 2020SOL    HW117519   0.048   2.593   5.875 -0.8963  0.3196  0.7592
 2020SOL    HW217520   4.703   2.461   5.901 -2.1282  1.5569  2.5727
 2021SOL     OW17521   1.505   3.953   7.283 -0.2805  0.0710  0.0924
 2021SOL    HW117522   1.538   4.042   7.278  0.4695 -0.2588 -0.9387
 2021SOL    HW217523   1.539   3.922   7.367  1.3427 -2.8743 -1.6390
 2022SOL     OW17524   2.186   1.291   1.982  0.1413  0.2695  0.4375
 2022SOL    HW117525   2.224   1.276   2.068 -0.3533  0.5571  0.7084
 2022SOL    HW217526   2.197   1.386   1.972 -1.6886  0.3989 -0.4335
 2023SOL     OW17527   0.893   2.717   6.790 -0.1376 -0.0480  0.0850
 2023SOL    HW117528   0.950   2.699   6.716  0.2254 -1.3770  0.6897
 2023SOL    HW217529   0.917   2.810   6.796 -0.2594 -0.1052  1.5523
 2024SOL     OW17530   3.828   2.737   4.924 -0.2296  0.6419 -0.0979
 2024SOL    HW117531   3.888   2.719   4.996  0.2617  0.4694 -0.5524
 2024SOL    HW217532   3.754   2.677   4.934  1.1250 -1.1056 -0.5934
 2025SOL     OW17533   4.411   0.626  10.303  0.2470 -0.2334  0.1789
 2025SOL    HW117534   4.407   0.658  10.394 -0.8259  0.7822 -0.2201
 2025SOL    HW217535   4.383   0.700  10.249 -0.9833  0.7081  2.0984
 2026SOL     OW17536   4.325   2.072   6.545 -0.0199 -0.5662 -0.6585
 2026SOL    HW117537   4.320   2.130   6.469 -1.7835  1.1478  0.7650
 2026SOL    HW217538   4.320   1.984   6.507  2.9131 -0.5779 -0.9958
 2027SOL     OW17539   2.623   3.921   0.256 -0.2453 -0.2141 -0.5125
 2027SOL    HW117540   2.629   3.955   0.345 -0.9341  0.8943 -0.8950
 2027SOL    HW217541   2.707   3.877   0.247  1.0873  1.9371  1.4127
 2028SOL     OW17542   2.737   3.833   6.364  0.0581 -0.0455  0.3251
 2028SOL    HW117543   2.737   3.773   6.438 -2.5621 -1.6689 -1.0093
 2028SOL    HW217544   2.735   3.767   6.295  2.8217  2.3578 -2.1060
 2029SOL     OW17545   3.375   3.038   1.125 -0.0162 -0.4012  0.2753
 2029SOL    HW117546   3.363   3.064   1.217 -1.7855 -0.0435 -0.0474
 2029SOL    HW217547   3.307   3.093   1.086 -0.4198 -1.2249 -0.1919
 2030SOL     OW17548   0.351   4.719   2.801  0.1894 -0.2369  0.3048
 2030SOL    HW117549   0.439   4.682   2.798 -1.0650 -3.1729  0.8079
 2030SOL    HW217550   0.315   4.684   2.719  0.1160 -0.3956  0.4075
 2031SOL     OW17551   2.933   4.156   0.483 -0.2872 -0.0052  0.6234
 2031SOL    HW117552   2.974   4.140   0.398  1.4587  0.6028  1.3537
 2031SOL    HW217553   2.865   4.088   0.491  1.7650 -2.4614 -2.5689
 2032SOL     OW17554   2.825   0.269   8.481  0.2688 -0.2049  0.3030
 2032SOL    HW117555   2.916   0.291   8.502  0.0439  0.1586  0.8952
 2032SOL    HW217556   2.777   0.288   8.562  0.8018 -1.1796  0.8493
 2033SOL     OW17557   3.303   2.768   5.791  0.6307 -0.2260 -0.5111
 2033SOL    HW117558   3.303   2.681   5.750  0.1127 -1.0171  1.1171
 2033SOL    HW217559   3.290   2.744   5.883  0.9154  0.2493 -0.3458
 2034SOL     OW17560   1.384   4.592  13.618  0.1807 -0.1244 -0.0592
 2034SOL    HW117561   1.386   4.637  13.533  0.9804 -0.6178 -0.3083
 2034SOL    HW217562   1.386   4.664  13.680 -1.0259 -0.8454  0.8147
 2035SOL     OW17563   1.043   2.926  11.186  0.0952  0.0631  0.1020
 2035SOL    HW117564   0.970   2.981  11.157  1.1928  1.4273 -0.1005
 2035SOL    HW217565   1.109   2.992  11.165 -0.4212  1.7783  3.8287
 2036SOL     OW17566   2.286   4.341   6.056  0.8763 -0.0403  0.4822
 2036SOL    HW117567   2.285   4.372   6.147 -0.0986 -2.0388  1.1658
 2036SOL    HW217568   2.278   4.246   6.066 -1.2117  0.1833  0.8556
 2037SOL     OW17569   3.213   4.022   6.963  0.3996 -0.2476 -0.5013
 2037SOL    HW117570   3.275   4.003   6.893  0.3808 -2.8440  0.1912
 2037SOL    HW217571   3.271   4.048   7.034  0.9192  1.8393 -1.7135
 2038SOL     OW17572   1.840   2.573   1.736  0.7803  0.3195  0.1459
 2038SOL    HW117573   1.864   2.487   1.701 -0.2122 -1.1372  3.0951
 2038SOL    HW217574   1.767   2.592   1.677  0.5194 -1.1462 -0.0185
 2039SOL     OW17575   3.581   4.708   7.409 -0.0044 -0.0334  0.2178
 2039SOL    HW117576   3.514   4.710   7.477 -0.5407  1.6971 -0.3673
 2039SOL    HW217577   3.600   0.078   7.400  0.9424 -0.1732  0.7953
 2040SOL     OW17578   0.975   0.472  10.573  0.3601  0.0932  0.3886
 2040SOL    HW117579   0.977   0.405  10.640  0.8703 -0.1929  0.0889
 2040SOL    HW217580   0.908   0.531  10.608  0.8303  1.3294 -0.7588
 2041SOL     OW17581   1.448   1.970   8.183  0.4715 -0.5005 -0.7014
 2041SOL    HW117582   1.503   1.972   8.261 -0.6992  1.3095  0.0927
 2041SOL    HW217583   1.486   1.899   8.132 -1.9918 -1.6149 -0.9816
 2042SOL     OW17584   2.220   1.164  15.436 -0.2225 -0.2167 -0.6315
 2042SOL    HW117585   2.182   1.108  15.504  0.8267 -2.6262 -2.0139
 2042SOL    HW217586   2.306   1.184  15.473 -0.5225 -0.4008  0.1709
 2043SOL     OW17587   2.659   0.719   5.826 -0.3398 -0.6582  0.2161
 2043SOL    HW117588   2.596   0.664   5.872 -3.2722  2.2880 -0.2962
 2043SOL    HW217589   2.707   0.647   5.784 -0.3609 -0.6317  0.1458
 2044SOL     OW17590   3.336   1.934   8.683  0.7422 -0.9665  0.3004
 2044SOL    HW117591   3.320   1.860   8.625  2.6985 -0.2107 -1.2229
 2044SOL    HW217592   3.274   1.920   8.754 -0.0334 -2.4722 -0.6894
 2045SOL     OW17593   0.721   3.609   4.642  0.1141  0.2776  0.1110
 2045SOL    HW117594   0.638   3.599   4.595 -0.3926 -0.5293  1.1700
 2045SOL    HW217595   0.690   3.697   4.663  2.0105  0.9574  0.0538
 2046SOL     OW17596   3.139   0.960  17.288 -0.4685 -0.5727 -0.0310
 2046SOL    HW117597   3.045   0.959  17.305 -0.7920  2.7008 -1.4693
 2046SOL    HW217598   3.176   0.999  17.367  0.5053  0.3724 -0.9581
 2047SOL     OW17599   0.502   1.983   4.663  0.4019 -0.5227  0.3731
 2047SOL    HW117600   0.415   2.004   4.695 -0.7197  1.1604 -3.7345
 2047SOL    HW217601   0.556   2.057   4.690 -0.6984 -0.5415  2.5965
 2048SOL     OW17602   0.816   1.775  15.096 -0.4500 -0.2725  0.0097
 2048SOL    HW117603   0.893   1.806  15.144 -0.9710  2.1469 -0.7313
 2048SOL    HW217604   0.746   1.838  15.115  0.6014  1.5741 -2.2920
 2049SOL     OW17605   3.891   1.386  10.689 -0.6232  0.3563  0.2232
 2049SOL    HW117606   3.799   1.388  10.662 -0.6718 -2.0313  0.2441
 2049SOL    HW217607   3.867   1.396  10.781 -2.3595  2.1706 -0.4231
 2050SOL     OW17608   4.499   4.598  11.643  0.3917  0.2197  0.4476
 2050SOL    HW117609   4.405   4.593  11.624  0.1132  0.9276  1.6304
 2050SOL    HW217610   4.503   4.601  11.738  0.5533 -0.3399  0.4632
 2051SOL     OW17611   4.068   4.703   8.287 -0.3901  0.5981  0.3139
 2051SOL    HW117612   4.116   0.022   8.358 -1.3332  0.9271  0.7562
 2051SOL    HW217613   4.118   0.023   8.218  1.2906 -1.7453  0.0753
 2052SOL     OW17614   0.589   1.674   7.058 -0.3748  0.1968 -0.4106
 2052SOL    HW117615   0.547   1.715   6.983  1.6939  1.2469 -0.9799
 2052SOL    HW217616   0.615   1.744   7.119 -0.8051 -0.2513  0.2950
 2053SOL     OW17617   1.816   1.367   7.173 -0.1261  0.1759 -0.2626
 2053SOL    HW117618   1.861   1.422   7.108  1.3208 -0.2707  0.3728
 2053SOL    HW217619   1.844   1.397   7.259 -2.3602 -0.4809  0.6850
 2054SOL     OW17620   3.829   2.161   3.241  0.4287 -0.3411 -0.3382
 2054SOL    HW117621   3.818   2.255   3.253  0.8755 -0.5725  1.8079
 2054SOL    HW217622   3.777   2.132   3.315 -2.2291 -0.0011 -2.0580
 2055SOL     OW17623   3.391   1.307  13.290 -0.0516 -0.5581  0.5370
 2055SOL    HW117624   3.472   1.295  13.339  0.9269  1.0529 -0.6782
 2055SOL    HW217625   3.422   1.315  13.200  2.2518 -2.3109  1.1696
 2056SOL     OW17626   0.317   1.060   7.051 -0.6947 -0.1693  0.1812
 2056SOL    HW117627   0.338   0.966   7.048 -0.1784 -0.1053  1.9580
 2056SOL    HW217628   0.306   1.069   7.146  0.3068  0.9864  0.1743
 2057SOL     OW17629   3.188   0.129   7.765 -0.1741  0.0245  0.8317
 2057SOL    HW117630   3.206   0.220   7.743  1.3437 -0.3492  0.5450
 2057SOL    HW217631   3.092   0.121   7.761 -0.0969 -0.7519  0.5805
 2058SOL     OW17632   2.691   4.574   9.795 -0.2746 -0.2810  0.1069
 2058SOL    HW117633   2.771   4.626   9.798  0.0666 -0.8075  0.1798
 2058SOL    HW217634   2.714   4.527   9.715  0.0135  1.2732 -0.7290
 2059SOL     OW17635   1.180   3.216   2.984  0.7175 -0.8292  0.3977
 2059SOL    HW117636   1.171   3.311   2.975  0.0251 -0.7143  2.2613
 2059SOL    HW217637   1.127   3.189   2.909 -1.9727  3.8172  0.6015
 2060SOL     OW17638   3.479   3.115  10.993  0.4976 -0.3157  0.1724
 2060SOL    HW117639   3.552   3.150  11.044 -0.8070  0.6504  1.3759
 2060SOL    HW217640   3.508   3.128  10.903 -1.1506  0.9673 -0.1679
 2061SOL     OW17641   2.467   3.273   4.551  0.4219 -0.1771  0.0916
 2061SOL    HW117642   2.450   3.188   4.510 -1.0787 -1.1401  2.7180
 2061SOL    HW217643   2.395   3.317   4.507 -0.2384 -0.7616  0.6019
 2062SOL     OW17644   3.920   3.712   5.470 -0.0296 -0.3151  0.5811
 2062SOL    HW117645   3.857   3.655   5.426 -0.1606  0.5166 -0.2967
 2062SOL    HW217646   3.855   3.761   5.519 -0.6663  1.2059 -1.7820
 2063SOL     OW17647   1.453   3.528   3.353 -0.6979  1.0892  0.1367
 2063SOL    HW117648   1.415   3.616   3.345  0.2934  1.4206 -0.9377
 2063SOL    HW217649   1.528   3.535   3.294  0.1126 -2.1589  0.8113
 2064SOL     OW17650   2.725   2.158   8.430  0.0719 -0.1350 -0.4986
 2064SOL    HW117651   2.820   2.159   8.445 -0.0714  2.0855  0.2571
 2064SOL    HW217652   2.690   2.095   8.493 -1.7274  2.0213  0.6886
 2065SOL     OW17653   1.647   1.531  17.686  0.2481  0.2220  0.1250
 2065SOL    HW117654   1.656   1.469   0.064 -1.5118  1.2478  1.2072
 2065SOL    HW217655   1.595   1.480  17.624  3.6799 -1.2264 -1.5821
 2066SOL     OW17656   0.856   1.620   2.738  0.3149  0.3755 -0.3763
 2066SOL    HW117657   0.837   1.676   2.813  0.1780  1.0755 -0.9374
 2066SOL    HW217658   0.771   1.576   2.729 -0.2530  1.5471 -0.6766
 2067SOL     OW17659   2.576   1.735   4.924  0.1010  0.1750  0.1126
 2067SOL    HW117660   2.636   1.784   4.981 -2.7555  3.3291  0.3538
 2067SOL    HW217661   2.534   1.687   4.995  3.0399 -1.3868  0.8204
 2068SOL     OW17662   2.427   2.274   7.758  0.4498 -0.0250  0.2334
 2068SOL    HW117663   2.363   2.206   7.737  1.5367 -1.1202  0.4653
 2068SOL    HW217664   2.412   2.284   7.852 -1.9181 -0.2870 -0.1133
 2069SOL     OW17665   3.430   2.561   3.553  0.5420  0.6411  0.4692
 2069SOL    HW117666   3.500   2.545   3.617  0.4505  0.1747  0.4537
 2069SOL    HW217667   3.426   2.656   3.562 -0.9005  0.4862  1.5031
 2070SOL     OW17668   0.436   2.350  12.247 -0.0023  0.3538  0.0138
 2070SOL    HW117669   0.383   2.357  12.168 -0.4986 -0.2338  0.2958
 2070SOL    HW217670   0.497   2.278  12.236 -0.0856 -0.1326  2.5690
 2071SOL     OW17671   1.061   3.211   7.332  0.0599 -0.0878 -0.0246
 2071SOL    HW117672   1.146   3.170   7.312  0.0769  0.1706 -0.4970
 2071SOL    HW217673   1.089   3.297   7.363 -0.4596  0.6481 -1.5864
 2072SOL     OW17674   2.356   1.005   5.333  0.3239 -0.2254 -0.0581
 2072SOL    HW117675   2.405   0.934   5.292 -0.5524 -1.9654  1.8699
 2072SOL    HW217676   2.292   1.024   5.265  0.6432  0.2256 -0.2302
 2073SOL     OW17677   4.003   3.760   7.999 -0.3073  0.4140 -0.2405
 2073SOL    HW117678   3.964   3.695   8.058  1.8181  0.1309  0.8630
 2073SOL    HW217679   4.051   3.816   8.060 -1.7078  0.9883  0.3327
 2074SOL     OW17680   1.525   3.343   3.624 -0.5864 -0.1125  0.0766
 2074SOL    HW117681   1.603   3.353   3.678 -0.7492 -0.9315  0.4585
 2074SOL    HW217682   1.468   3.289   3.679 -1.7165  0.5228 -0.4735
 2075SOL     OW17683   1.778   1.324  11.768 -0.1273 -0.5395  0.3220
 2075SOL    HW117684   1.869   1.305  11.793  0.1423 -2.4948 -2.0911
 2075SOL    HW217685   1.778   1.419  11.775  0.1257 -0.5620  0.6493
 2076SOL     OW17686   2.858   1.575   8.712  0.1534 -0.3233  0.3708
 2076SOL    HW117687   2.921   1.548   8.778 -0.5128 -3.3715 -0.2488
 2076SOL    HW217688   2.879   1.524   8.634 -2.9171 -0.2550 -0.4946
 2077SOL     OW17689   3.960   4.635   1.804  0.3761 -0.0975  0.1326
 2077SOL    HW117690   4.054   4.622   1.798  0.4906  1.6064 -1.6873
 2077SOL    HW217691   3.960   0.008   1.805 -3.8513 -0.0620 -0.9792
 2078SOL     OW17692   1.906   1.237   6.329  0.1969  0.9396  0.4972
 2078SOL    HW117693   1.908   1.332   6.343  1.3250  1.2646 -1.9116
 2078SOL    HW217694   1.828   1.225   6.276  0.2809 -2.6518  1.1817
 2079SOL     OW17695   3.844   1.655   7.054 -0.7209 -0.0952  0.1735
 2079SOL    HW117696   3.856   1.729   7.114  1.6421  1.8276 -2.6457
 2079SOL    HW217697   3.870   1.688   6.968  0.1667 -0.1643  0.4079
 2080SOL     OW17698   2.423   3.025   4.390 -0.1790 -0.0564  0.6994
 2080SOL    HW117699   2.361   2.952   4.380  0.7940 -0.6408 -1.0405
 2080SOL    HW217700   2.435   3.047   4.298  1.9504 -1.2962  0.6913
 2081SOL     OW17701   0.247   0.025   5.294  0.1835  0.7101 -0.3289
 2081SOL    HW117702   0.265   0.099   5.351  0.3260  0.5904 -0.2166
 2081SOL    HW217703   0.153   0.016   5.311 -0.0312  1.6401 -1.0777
 2082SOL     OW17704   2.851   2.925   9.478  0.2552  0.5578  0.5009
 2082SOL    HW117705   2.901   2.915   9.559  1.9588 -0.4229 -0.6541
 2082SOL    HW217706   2.810   3.009   9.495  0.6227  0.7997  0.1879
 2083SOL     OW17707   0.774   1.265  16.743  0.3429  0.5187 -0.2208
 2083SOL    HW117708   0.786   1.314  16.824 -1.8252  0.4552  0.1290
 2083SOL    HW217709   0.715   1.319  16.690 -3.0691 -0.9476  2.1361
 2084SOL     OW17710   3.543   0.705   2.282 -0.2018  0.5295  0.5575
 2084SOL    HW117711   3.630   0.677   2.310  0.9802  2.6381 -1.0241
 2084SOL    HW217712   3.490   0.627   2.264 -1.7593  1.2776  1.8721
 2085SOL     OW17713   3.847   1.833   8.752  0.2131 -0.5617  0.3719
 2085SOL    HW117714   3.865   1.905   8.813  0.5551  0.4095 -0.8867
 2085SOL    HW217715   3.752   1.825   8.745  0.4869 -1.8761 -1.8021
 2086SOL     OW17716   2.390   2.379   2.947 -0.4107 -0.5886 -0.2702
 2086SOL    HW117717   2.453   2.328   2.898 -1.2876 -0.7042 -1.2814
 2086SOL    HW217718   2.381   2.463   2.902  2.0284  0.5689  1.4211
 2087SOL     OW17719   4.449   1.003  16.897 -0.1582  0.1083 -0.4480
 2087SOL    HW117720   4.357   1.003  16.923  0.3712  0.2283  1.4171
 2087SOL    HW217721   4.481   1.089  16.925  3.8146 -1.6071  0.1990
 2088SOL     OW17722   4.318   3.506   7.299 -0.1359  0.1751  0.5343
 2088SOL    HW117723   4.347   3.588   7.260  3.6070 -0.4680  1.9487
 2088SOL    HW217724   4.243   3.537   7.349 -0.5312  1.0932 -0.6378
 2089SOL     OW17725   1.002   1.025   2.718 -0.5948  0.0371  0.0348
 2089SOL    HW117726   0.937   1.047   2.652  0.8232 -1.1324 -1.7572
 2089SOL    HW217727   1.064   1.095   2.694  0.6779 -1.6763 -1.6074
 2090SOL     OW17728   2.051   2.001   7.326  0.3219  0.2426  0.7611
 2090SOL    HW117729   1.987   2.069   7.347  1.0072  1.1901 -0.2385
 2090SOL    HW217730   2.029   1.930   7.386  1.4456 -0.8219 -0.0727
 2091SOL     OW17731   3.437   1.284   2.855  0.0123  0.2494 -0.2955
 2091SOL    HW117732   3.446   1.372   2.892 -1.5798  0.0093  0.6520
 2091SOL    HW217733   3.393   1.312   2.774 -0.1035 -0.0252 -0.3298
 2092SOL     OW17734   4.144   2.207   8.424  0.4820 -0.0758  0.2286
 2092SOL    HW117735   4.112   2.152   8.495 -0.7139 -0.4808 -0.6239
 2092SOL    HW217736   4.127   2.156   8.345  0.6124  2.1538 -1.2348
 2093SOL     OW17737   2.528   0.615   6.055  0.0100 -0.4704 -0.5001
 2093SOL    HW117738   2.554   0.678   6.123  0.3378  1.7745 -2.6985
 2093SOL    HW217739   2.475   0.556   6.109  0.1549 -0.8003 -0.7261
 2094SOL     OW17740   2.329   3.559  12.045 -0.0850  0.3546  0.0837
 2094SOL    HW117741   2.326   3.649  12.011 -1.0258 -0.1401 -1.1367
 2094SOL    HW217742   2.343   3.501  11.970  2.7874 -1.8121  2.3237
 2095SOL     OW17743   1.085   2.895   8.732  0.5712  0.0072 -0.4994
 2095SOL    HW117744   1.088   2.803   8.761  3.5520  0.2790  0.0045
 2095SOL    HW217745   1.014   2.891   8.668  1.5280 -0.9556 -1.4826
 2096SOL     OW17746   3.072   4.674   2.478  0.7918 -0.0233  0.2636
 2096SOL    HW117747   3.087   4.591   2.432  0.6232 -0.1074  0.3588
 2096SOL    HW217748   2.978   4.684   2.459 -0.0585 -1.2987  3.7813
 2097SOL     OW17749   0.879   0.311  14.213  0.3511 -0.7268 -0.1938
 2097SOL    HW117750   0.973   0.300  14.230  0.1219 -0.1838  1.3678
 2097SOL    HW217751   0.855   0.345  14.299 -0.4536 -2.1787  0.1624
 2098SOL     OW17752   2.140   1.464   5.866  0.2258 -0.0769  0.0935
 2098SOL    HW117753   2.148   1.438   5.957 -0.6125 -0.5121  0.0515
 2098SOL    HW217754   2.228   1.480   5.832  0.0129  0.9509  0.0425
 2099SOL     OW17755   2.978   2.218   7.466  0.0790 -0.0364 -0.1458
 2099SOL    HW117756   3.058   2.172   7.492  1.3406  1.1287 -2.0006
 2099SOL    HW217757   2.910   2.156   7.496  1.1078 -0.8877  0.4190
 2100SOL     OW17758   0.503   2.527  15.519  0.0013  0.5991 -0.2136
 2100SOL    HW117759   0.410   2.543  15.534  0.4252  1.9246  1.0011
 2100SOL    HW217760   0.531   2.615  15.496 -0.7197  0.4882 -1.5275
 2101SOL     OW17761   1.871   3.251   2.354 -0.2044 -0.0141  0.7224
 2101SOL    HW117762   1.791   3.304   2.359 -0.7042 -0.8481  1.5426
 2101SOL    HW217763   1.848   3.162   2.379 -0.6660 -0.0293  0.2257
 2102SOL     OW17764   4.670   2.237  11.034 -0.6255  0.2123  0.8171
 2102SOL    HW117765   4.653   2.143  11.027 -1.9535  0.5155 -0.0898
 2102SOL    HW217766   4.583   2.277  11.028 -0.5238  0.5973  2.0038
 2103SOL     OW17767   4.382   2.084   2.315  0.0367 -0.4096 -0.2753
 2103SOL    HW117768   4.309   2.044   2.269  1.6324 -3.5384 -0.0414
 2103SOL    HW217769   4.421   2.013   2.365  1.8877  0.4888 -0.4353
 2104SOL     OW17770   0.562   0.155   9.421 -0.5725 -0.0267 -0.2206
 2104SOL    HW117771   0.566   0.065   9.387  0.9285  0.7225 -2.0823
 2104SOL    HW217772   0.489   0.153   9.482 -1.1084 -3.2447 -0.9630
 2105SOL     OW17773   2.029   0.050   8.476 -0.1954 -0.7539  0.0637
 2105SOL    HW117774   2.024   4.681   8.501  1.2977 -0.2251  2.3381
 2105SOL    HW217775   2.090   0.090   8.538 -0.6588 -0.7131  0.4943
 2106SOL     OW17776   0.142   0.308   3.901 -0.0939  0.0720  0.6274
 2106SOL    HW117777   0.106   0.325   3.814 -1.8445  0.5605  1.4272
 2106SOL    HW217778   0.148   0.395   3.941  0.1153 -0.0668  0.8960
 2107SOL     OW17779   0.193   0.069   8.405  0.0947 -0.6106 -0.2105
 2107SOL    HW117780   0.279   0.103   8.381 -1.0432  2.3154 -0.1823
 2107SOL    HW217781   0.142   0.086   8.325  0.2511  1.5446  0.1501
 2108SOL     OW17782   3.177   3.018   2.077 -0.2389 -0.1829  0.3462
 2108SOL    HW117783   3.180   2.954   2.006 -0.0936 -1.5856  1.6163
 2108SOL    HW217784   3.272   3.029   2.085 -0.1361  0.5162 -1.8282
 2109SOL     OW17785   0.533   1.451   8.054 -0.0763 -0.4240 -0.5931
 2109SOL    HW117786   0.587   1.385   8.011 -1.0646 -2.1648  0.8182
 2109SOL    HW217787   0.568   1.528   8.009 -0.9459  1.3060  1.6515
 2110SOL     OW17788   2.357   4.519  17.673  0.5246 -0.2141 -0.2687
 2110SOL    HW117789   2.301   4.472   0.040 -0.2599  1.1840  0.0630
 2110SOL    HW217790   2.348   4.605   0.018 -1.1233 -0.0963 -0.8862
 2111SOL     OW17791   1.430   1.070  10.189 -0.1129  0.0807  1.0354
 2111SOL    HW117792   1.474   1.071  10.104 -1.4530 -2.6915  0.2925
 2111SOL    HW217793   1.397   1.159  10.188  0.3220  0.2451  1.4986
 2112SOL     OW17794   3.383   3.311  14.798  0.5924  0.2499 -0.0211
 2112SOL    HW117795   3.400   3.405  14.792 -1.0777  0.7274  2.7725
 2112SOL    HW217796   3.344   3.307  14.885 -3.1288  1.9883 -1.5785
 2113SOL     OW17797   3.330   2.292   5.757 -0.1544  0.1259  0.3449
 2113SOL    HW117798   3.271   2.264   5.828  0.0142 -1.3234 -0.0826
 2113SOL    HW217799   3.374   2.210   5.736  0.1096  0.8282 -1.8199
 2114SOL     OW17800   0.225   2.365   1.644 -0.5573 -0.3305  0.2585
 2114SOL    HW117801   0.258   2.293   1.591  0.3109  0.6157 -0.4939
 2114SOL    HW217802   0.142   2.373   1.597  0.7354 -0.3508 -2.0389
 2115SOL     OW17803   4.496   3.475   8.757 -0.1024  0.2757 -0.2404
 2115SOL    HW117804   4.586   3.494   8.731 -1.0755  1.8578 -2.4740
 2115SOL    HW217805   4.488   3.531   8.834 -0.1816 -2.4379  1.7329
 2116SOL     OW17806   2.294   0.131   6.397  0.3467 -0.3814  0.1854
 2116SOL    HW117807   2.259   0.072   6.464 -1.5875  0.9797  0.3823
 2116SOL    HW217808   2.288   0.220   6.434 -1.1042  0.2839 -1.6607
 2117SOL     OW17809   2.525   3.695   3.557  0.2269  0.0552 -0.0231
 2117SOL    HW117810   2.506   3.729   3.644  0.5946 -1.5205  0.6717
 2117SOL    HW217811   2.452   3.733   3.508  0.6561 -1.3157 -1.7347
 2118SOL     OW17812   3.462   0.327   6.839 -0.6295  0.1536 -0.0008
 2118SOL    HW117813   3.486   0.317   6.931  0.9204  0.4460 -0.3813
 2118SOL    HW217814   3.495   0.413   6.814  3.0355 -1.2375 -0.0028
 2119SOL     OW17815   1.052   2.540   7.375 -0.4600 -0.2830 -0.1699
 2119SOL    HW117816   1.065   2.491   7.457 -0.5785  0.5167  0.3315
 2119SOL    HW217817   1.051   2.633   7.398  1.7903  0.0685 -1.5860
 2120SOL     OW17818   2.849   3.800   1.486 -0.1540 -0.4327  0.8328
 2120SOL    HW117819   2.773   3.749   1.517 -0.9816 -1.5154 -2.9989
 2120SOL    HW217820   2.816   3.890   1.481 -1.4479 -0.8491  1.7369
 2121SOL     OW17821   0.348   3.476  17.510 -0.2399 -0.5562 -0.3390
 2121SOL    HW117822   0.269   3.503  17.556 -1.0726  0.0961 -2.1590
 2121SOL    HW217823   0.390   3.562  17.513  0.3508 -0.8485 -0.2243
 2122SOL     OW17824   2.608   0.254   2.744 -0.2014 -0.1028  0.0636
 2122SOL    HW117825   2.636   0.308   2.818 -0.3611 -0.3319  0.2966
 2122SOL    HW217826   2.598   0.332   2.689 -1.2082 -0.1433  0.1751
 2123SOL     OW17827   3.858   2.175   6.189 -0.0594  0.4234 -0.4109
 2123SOL    HW117828   3.821   2.262   6.204  1.1976  1.4072 -2.9409
 2123SOL    HW217829   3.920   2.159   6.260  0.1274  0.7956 -0.4859
 2124SOL     OW17830   4.353   0.869   4.665 -0.4630  0.6348  0.3885
 2124SOL    HW117831   4.379   0.958   4.643 -0.6396 -0.1524 -2.9124
 2124SOL    HW217832   4.340   0.885   4.759  1.2901  0.1165  0.7040
 2125SOL     OW17833   2.158   3.400   6.609  0.1527 -0.1353  0.0123
 2125SOL    HW117834   2.171   3.452   6.530 -2.0322 -0.9745 -0.9181
 2125SOL    HW217835   2.089   3.446   6.656  1.4892  1.5131  0.3547
 2126SOL     OW17836   0.832   2.868   2.331  0.5072  0.2379  0.3927
 2126SOL    HW117837   0.855   2.785   2.288 -1.7901 -0.2084  0.0186
 2126SOL    HW217838   0.821   2.919   2.250 -1.9024 -0.4317  0.2731
 2127SOL     OW17839   2.315   4.032   8.082  0.1202  0.3649 -0.1658
 2127SOL    HW117840   2.387   4.070   8.032  0.4089 -0.0314 -0.0447
 2127SOL    HW217841   2.353   4.027   8.170 -1.6696  2.8983  0.7460
 2128SOL     OW17842   3.045   0.772   6.039  0.0001  0.0843  0.0216
 2128SOL    HW117843   2.996   0.742   6.115 -0.5737  2.1763  0.4860
 2128SOL    HW217844   2.987   0.840   6.003 -0.7154 -0.5392 -0.0009
 2129SOL     OW17845   4.716   4.368   4.564 -0.1785  0.1766 -0.0803
 2129SOL    HW117846   4.646   4.311   4.532  1.4353 -1.9289  0.1471
 2129SOL    HW217847   0.059   4.300   4.578 -2.4986 -1.6560  2.1420
 2130SOL     OW17848   0.787   2.925   3.572 -0.0122 -0.3687 -0.3241
 2130SOL    HW117849   0.863   2.888   3.617  0.2298  1.3029  0.6352
 2130SOL    HW217850   0.718   2.906   3.635 -1.2246  1.7749 -1.0048
 2131SOL     OW17851   0.078   2.808   5.530 -0.0154 -0.2642  0.7150
 2131SOL    HW117852   0.012   2.877   5.520  0.9415  0.6333  0.4771
 2131SOL    HW217853   0.082   2.774   5.441  0.2374 -1.4114  1.1748
 2132SOL     OW17854   4.274   2.331   3.894 -0.4875 -0.4624 -0.1828
 2132SOL    HW117855   4.313   2.392   3.957 -1.5432  0.0156  0.0177
 2132SOL    HW217856   4.181   2.354   3.892 -0.5018 -0.2813  1.9189
 2133SOL     OW17857   3.223   0.955   8.480  0.0596 -0.4976  0.7666
 2133SOL    HW117858   3.266   0.965   8.565  0.4473 -1.6869  0.7065
 2133SOL    HW217859   3.208   0.861   8.491 -2.2553 -0.4712 -2.1283
 2134SOL     OW17860   0.436   3.414   4.794  0.3072  0.5883  0.1448
 2134SOL    HW117861   0.401   3.497   4.826 -0.2785  0.0188  0.9992
 2134SOL    HW217862   0.362   3.354   4.799 -0.9402  2.0158 -1.4022
 2135SOL     OW17863   4.279   0.915  10.431  0.1327  0.0016 -0.8468
 2135SOL    HW117864   4.212   0.942  10.493  1.4876  1.7744 -0.1625
 2135SOL    HW217865   4.338   0.861  10.484 -0.6632 -0.6899 -0.6694
 2136SOL     OW17866   1.817   1.824  13.116  0.3468 -0.5674 -0.0404
 2136SOL    HW117867   1.820   1.813  13.021 -3.5471  1.4586 -0.4113
 2136SOL    HW217868   1.753   1.895  13.122 -0.8067 -1.8309  2.6195
 2137SOL     OW17869   4.625   0.750   1.852  0.1474  0.3734 -0.2374
 2137SOL    HW117870   4.571   0.739   1.774  1.7072  0.3179 -1.2928
 2137SOL    HW217871   4.688   0.680   1.834  1.2817  1.5733 -0.8230
 2138SOL     OW17872   2.789   1.522   3.589 -0.7114  0.1384 -0.0646
 2138SOL    HW117873   2.874   1.555   3.559  0.4320 -0.7754  2.1801
 2138SOL    HW217874   2.800   1.432   3.559  0.2356 -0.5591  2.3907
 2139SOL     OW17875   3.662   4.321   5.012  0.0855 -0.3459  0.0924
 2139SOL    HW117876   3.671   4.313   4.917  2.2864  0.8177  0.2096
 2139SOL    HW217877   3.659   4.415   5.028  0.8053 -0.0715 -1.3469
 2140SOL     OW17878   1.832   0.722   6.943  0.1147 -0.0961  0.4464
 2140SOL    HW117879   1.745   0.757   6.964 -0.4704 -0.2412 -1.7353
 2140SOL    HW217880   1.879   0.804   6.923 -0.5564 -0.6434 -3.3828
 2141SOL     OW17881   1.698   3.937   7.715 -0.3600 -0.0382  0.3734
 2141SOL    HW117882   1.682   3.935   7.809  0.3955 -3.3331  0.4283
 2141SOL    HW217883   1.792   3.930   7.726 -0.3826 -0.4612  0.2917
 2142SOL     OW17884   3.898   0.081  11.526  0.5544  0.4091  0.2871
 2142SOL    HW117885   3.844   0.104  11.451  0.1342 -1.9417 -0.1352
 2142SOL    HW217886   3.923   4.714  11.507  0.2366  0.2501  0.6278
 2143SOL     OW17887   0.362   0.580   7.644  0.4960 -0.2648  0.1541
 2143SOL    HW117888   0.387   0.637   7.717 -1.4849  0.7931 -0.0068
 2143SOL    HW217889   0.274   0.604   7.616  1.0360  1.7227  0.1206
 2144SOL     OW17890   4.053   1.568   4.853  0.5331 -0.5275 -0.2810
 2144SOL    HW117891   3.981   1.514   4.886  1.5592 -1.5343  0.3146
 2144SOL    HW217892   4.085   1.512   4.783  0.1589 -3.0010  1.5381
 2145SOL     OW17893   0.560   4.141   2.138  0.2259 -0.0719  0.0092
 2145SOL    HW117894   0.519   4.055   2.126  1.2793 -1.2551  4.5530
 2145SOL    HW217895   0.655   4.130   2.133  0.0194 -1.7980 -0.1835
 2146SOL     OW17896   3.846   2.679   7.348  0.8416  0.1165 -0.5302
 2146SOL    HW117897   3.920   2.625   7.375 -0.1203 -1.0415 -0.2048
 2146SOL    HW217898   3.802   2.617   7.289 -1.1451 -0.5997  1.7138
 2147SOL     OW17899   2.174   3.270   9.232  0.0705  0.4541  0.7837
 2147SOL    HW117900   2.193   3.282   9.139  2.7823  1.8942  1.5192
 2147SOL    HW217901   2.169   3.360   9.262 -1.1129  0.3882  0.7833
 2148SOL     OW17902   4.418   3.769   1.908 -0.3998  0.2519  0.0758
 2148SOL    HW117903   4.351   3.708   1.941 -1.0533  1.4704  0.9885
 2148SOL    HW217904   4.388   3.787   1.819  2.6621 -0.7480 -1.1614
 2149SOL     OW17905   0.486   2.784  16.237 -0.0665 -0.2943  0.1394
 2149SOL    HW117906   0.427   2.851  16.203  0.5541 -0.1443 -0.6676
 2149SOL    HW217907   0.464   2.793  16.329  0.0731 -1.3567  0.2762
 2150SOL     OW17908   0.705   4.203   3.097 -0.3484  0.3419  0.1187
 2150SOL    HW117909   0.741   4.117   3.120  0.2748  0.4893 -0.2844
 2150SOL    HW217910   0.627   4.182   3.046  1.2719 -1.0917 -1.7931
 2151SOL     OW17911   1.496   0.597   6.576 -0.5117  0.4349  0.2990
 2151SOL    HW117912   1.504   0.510   6.616  0.8246  0.0577 -0.8154
 2151SOL    HW217913   1.557   0.644   6.633 -1.1314 -0.8165  1.9955
 2152SOL     OW17914   2.818   0.384  12.367  0.2243  0.1197 -0.1268
 2152SOL    HW117915   2.840   0.445  12.437  1.4280 -1.2729  0.7045
 2152SOL    HW217916   2.856   0.301  12.395 -0.3288  0.1178  0.6062
 2153SOL     OW17917   2.277   2.964   8.218 -0.6558  0.8188 -0.4023
 2153SOL    HW117918   2.332   3.041   8.234 -0.1536  0.2932  0.3602
 2153SOL    HW217919   2.338   2.891   8.218  0.6697  1.9410  0.7765
 2154SOL     OW17920   2.587   3.926   8.795 -0.5801  0.1021 -0.2717
 2154SOL    HW117921   2.560   3.986   8.864  0.1649  0.2145 -0.0794
 2154SOL    HW217922   2.681   3.934   8.810 -0.8872  0.7383  1.2900
 2155SOL     OW17923   2.981   4.086   6.221  0.4451 -0.0173  0.5771
 2155SOL    HW117924   2.973   4.165   6.274  1.4423  0.6642 -0.2801
 2155SOL    HW217925   2.890   4.080   6.192  1.0381  0.9985 -1.5198
 2156SOL     OW17926   3.874   0.639   1.608  0.0106 -0.5024 -0.3773
 2156SOL    HW117927   3.894   0.730   1.588  0.9688 -1.0071 -1.6918
 2156SOL    HW217928   3.917   0.627   1.693 -2.0685  0.0014  0.7307
 2157SOL     OW17929   4.369   4.379  11.839  0.5885 -0.3535 -0.1404
 2157SOL    HW117930   4.310   4.438  11.791 -1.1770 -2.8628 -1.0452
 2157SOL    HW217931   4.439   4.436  11.872  1.4259 -1.3189 -0.2487
 2158SOL     OW17932   1.089   1.086   7.642 -0.1307  0.7012  0.8952
 2158SOL    HW117933   1.115   1.008   7.594 -1.2293 -0.8032  2.7345
 2158SOL    HW217934   1.175   1.100   7.681  0.7916 -0.7756 -0.6137
 2159SOL     OW17935   0.023   1.652   5.969 -0.2373 -0.1762  0.1141
 2159SOL    HW117936   4.718   1.626   6.057 -0.1151  1.7055  0.7155
 2159SOL    HW217937   0.091   1.589   5.945  1.9833  3.2770 -2.6641
 2160SOL     OW17938   4.250   2.311  12.472 -0.6653  0.2061 -0.3245
 2160SOL    HW117939   4.243   2.260  12.391 -2.5832  1.1716 -0.7651
 2160SOL    HW217940   4.189   2.277  12.538 -1.0547 -1.3578 -1.5013
 2161SOL     OW17941   2.795   3.152   4.019  0.8653 -0.0946 -0.0487
 2161SOL    HW117942   2.717   3.147   3.965  1.4788 -0.2524 -0.9105
 2161SOL    HW217943   2.817   3.244   4.036 -0.4256  0.6887 -2.7119
 2162SOL     OW17944   1.676   3.598   1.861 -0.2056  0.5286 -0.3834
 2162SOL    HW117945   1.754   3.645   1.889  0.9642 -1.8425  0.2571
 2162SOL    HW217946   1.649   3.580   1.951  1.2892 -2.9772 -0.6549
 2163SOL     OW17947   2.337   0.673   4.377  0.2788 -0.4472 -0.2766
 2163SOL    HW117948   2.271   0.648   4.442  2.1531 -2.4032  0.8757
 2163SOL    HW217949   2.367   0.589   4.342  0.9647 -1.1354  1.9707
 2164SOL     OW17950   1.044   2.350   1.964  0.4404 -0.2157  0.2290
 2164SOL    HW117951   1.129   2.371   2.003  1.0748 -3.5864  0.6755
 2164SOL    HW217952   1.012   2.440   1.962 -0.4427 -0.4795  3.0737
 2165SOL     OW17953   2.333   1.028   7.987 -0.2782  0.0457 -0.6042
 2165SOL    HW117954   2.308   0.936   7.983  0.3741 -0.1408 -0.2559
 2165SOL    HW217955   2.285   1.051   8.067  1.5462  3.4193 -0.4666
 2166SOL     OW17956   1.844   2.916  15.616 -0.1820  0.5145  0.3077
 2166SOL    HW117957   1.766   2.898  15.668  0.0366  0.6847  0.6983
 2166SOL    HW217958   1.820   2.894  15.526  1.2598  0.2092 -0.0036
 2167SOL     OW17959   2.628   2.381  12.857 -0.2474  0.0356 -0.2579
 2167SOL    HW117960   2.594   2.407  12.942  0.4853  0.5288 -0.1191
 2167SOL    HW217961   2.602   2.457  12.805 -1.3688  1.6389  2.6641
 2168SOL     OW17962   4.443   3.419   9.182 -0.1463 -0.1948  0.0102
 2168SOL    HW117963   4.371   3.472   9.148  1.5157  1.8449 -0.3445
 2168SOL    HW217964   4.422   3.331   9.150 -0.0917 -0.0079 -0.5442
 2169SOL     OW17965   1.028   2.318   6.065 -0.8365 -0.0421  0.1993
 2169SOL    HW117966   1.077   2.271   5.997  0.8647 -1.4625  2.4359
 2169SOL    HW217967   0.945   2.290   6.025 -0.5478  0.2171 -0.5871
 2170SOL     OW17968   3.795   0.607   5.685  0.0941  0.2387 -0.3207
 2170SOL    HW117969   3.848   0.684   5.666  0.6783 -0.5501 -1.8288
 2170SOL    HW217970   3.737   0.614   5.761  0.7719 -1.2195  0.3367
 2171SOL     OW17971   3.443   4.575   4.555  0.5770 -0.6363 -0.0353
 2171SOL    HW117972   3.489   4.556   4.473  0.5453 -0.9953  0.0310
 2171SOL    HW217973   3.470   4.665   4.570 -0.6597 -0.3045  0.1584
 2172SOL     OW17974   0.588   2.962   7.390  0.2703  0.3901 -0.4901
 2172SOL    HW117975   0.647   3.031   7.359  1.2083 -0.4473 -0.5364
 2172SOL    HW217976   0.530   3.022   7.438  2.1869  0.4364  1.7427
 2173SOL     OW17977   0.357   1.529   0.125 -0.0638 -0.0795  0.0485
 2173SOL    HW117978   0.334   1.621   0.136 -3.1059 -1.0192  1.6302
 2173SOL    HW217979   0.361   1.511   0.031  0.1092  1.2776 -0.1992
 2174SOL     OW17980   3.031   1.920   7.685  0.3541 -0.5472  0.4171
 2174SOL    HW117981   2.989   1.990   7.735  1.0986 -1.0480  1.7305
 2174SOL    HW217982   2.960   1.856   7.677 -1.2618  1.2636  0.2043
 2175SOL     OW17983   4.327   0.475   0.706  0.0177  0.6499 -0.6096
 2175SOL    HW117984   4.292   0.497   0.619  1.3280  0.5979 -1.1575
 2175SOL    HW217985   4.329   0.556   0.757 -2.8440  0.6848 -0.5309
 2176SOL     OW17986   4.646   3.368  14.669 -0.3216  0.2302  0.4137
 2176SOL    HW117987   4.645   3.380  14.574  1.3576 -0.6249  0.2842
 2176SOL    HW217988   4.578   3.433  14.687 -0.9006 -0.0468 -0.7511
 2177SOL     OW17989   3.539   1.651   7.876 -0.7599 -0.2075  0.4572
 2177SOL    HW117990   3.501   1.610   7.799 -2.0985 -0.2575  1.1416
 2177SOL    HW217991   3.541   1.739   7.837 -1.5773  0.1070  1.1236
 2178SOL     OW17992   3.250   1.773   3.295  0.6490  0.1056  0.0657
 2178SOL    HW117993   3.258   1.819   3.379 -0.5933  1.5009 -0.5672
 2178SOL    HW217994   3.281   1.847   3.243 -1.4684 -0.0724 -1.4553
 2179SOL     OW17995   3.086   3.055  11.226 -0.3261 -0.1342  0.6775
 2179SOL    HW117996   3.062   2.964  11.244 -1.4006 -0.3182 -1.6896
 2179SOL    HW217997   3.133   3.064  11.143 -0.7258 -0.9938  0.3609
 2180SOL     OW17998   0.521   2.487   2.816 -0.1289  0.0014  0.1672
 2180SOL    HW117999   0.477   2.435   2.749 -2.5585 -0.2427  1.9710
 2180SOL    HW218000   0.611   2.492   2.783 -0.2971  1.1289 -0.1220
 2181SOL     OW18001   4.632   2.350  11.430  0.9911  0.4933  0.4011
 2181SOL    HW118002   4.681   2.330  11.350 -0.9843 -0.3283 -0.5928
 2181SOL    HW218003   4.548   2.321  11.394  1.3499  0.1078 -0.1322
 2182SOL     OW18004   3.272   1.389   2.074 -0.3243  0.6675 -0.1708
 2182SOL    HW118005   3.241   1.323   2.012  1.0013  0.7605 -0.9394
 2182SOL    HW218006   3.259   1.470   2.026  0.2680  1.3683  0.8348
 2183SOL     OW18007   3.034   3.647   2.399  0.5021  0.6186 -0.0861
 2183SOL    HW118008   2.980   3.568   2.410  0.6505  0.6857  1.0808
 2183SOL    HW218009   3.110   3.608   2.357 -0.1070 -2.6029  1.8126
 2184SOL     OW18010   0.164   1.988  17.315 -0.5911 -0.5229  0.3627
 2184SOL    HW118011   0.148   2.061  17.375 -0.5631  0.3185 -0.6553
 2184SOL    HW218012   0.177   2.029  17.230  0.1725 -0.6728  0.4066
 2185SOL     OW18013   0.555   0.013  12.304  0.0152  0.2029 -0.1092
 2185SOL    HW118014   0.615   0.012  12.379  0.4097  1.8469 -0.3830
 2185SOL    HW218015   0.552   4.646  12.275 -1.5644  1.0152 -2.4510
 2186SOL     OW18016   3.709   2.567  16.398 -0.1097 -0.2703  0.1437
 2186SOL    HW118017   3.780   2.573  16.461 -0.3388 -1.3184  0.4999
 2186SOL    HW218018   3.643   2.635  16.414  3.2749  3.0904 -0.1699
 2187SOL     OW18019   4.052   0.730   0.793 -0.1433 -0.1217  0.0804
 2187SOL    HW118020   4.106   0.654   0.814  0.8669  0.3027 -1.0153
 2187SOL    HW218021   4.010   0.757   0.875 -0.9226  1.2656 -0.7706
 2188SOL     OW18022   0.040   1.528   4.125 -0.0522 -0.2105  0.4959
 2188SOL    HW118023   0.098   1.562   4.193 -0.3107 -0.4847  0.8543
 2188SOL    HW218024   0.106   1.490   4.067 -0.8440 -2.2492  0.8948
 2189SOL     OW18025   1.576   1.352   8.568 -0.7666 -0.1288  0.4376
 2189SOL    HW118026   1.612   1.340   8.656  2.9421 -1.4435 -1.2322
 2189SOL    HW218027   1.486   1.359   8.600 -0.3469 -2.0533  1.9961
 2190SOL     OW18028   0.887   1.270   6.818  0.2454  0.3374  0.0967
 2190SOL    HW118029   0.858   1.350   6.861 -0.2874 -1.5950  3.3132
 2190SOL    HW218030   0.844   1.198   6.864 -0.6346 -0.3318 -1.7907
 2191SOL     OW18031   4.023   2.872   8.315 -0.5533  0.2330 -0.1343
 2191SOL    HW118032   4.096   2.927   8.289 -0.1992  0.6370  1.7060
 2191SOL    HW218033   4.044   2.838   8.403  1.8398  0.6202 -0.5567
 2192SOL     OW18034   3.982   1.419   6.568 -0.0175  0.0321 -0.6137
 2192SOL    HW118035   4.021   1.504   6.549 -1.2379  0.6810 -0.1953
 2192SOL    HW218036   3.903   1.435   6.619 -0.0666  2.4025 -1.4621
 2193SOL     OW18037   1.324   4.043  13.622 -0.0862  0.7806  0.3027
 2193SOL    HW118038   1.235   4.076  13.624  0.7709  3.1244 -0.8089
 2193SOL    HW218039   1.356   4.104  13.556  0.1628 -0.9332 -1.1586
 2194SOL     OW18040   4.486   0.009  14.695 -0.1927  0.5228 -0.5125
 2194SOL    HW118041   4.564   0.057  14.666 -0.9445  0.5783 -2.4566
 2194SOL    HW218042   4.502   4.658  14.637 -0.9864 -0.7963  0.9642
 2195SOL     OW18043   1.097   1.999   9.692 -0.2863 -0.0476 -0.2315
 2195SOL    HW118044   1.141   2.006   9.776 -0.0025 -1.5136 -0.2592
 2195SOL    HW218045   1.039   1.923   9.700  1.3217 -1.3170 -0.6235
 2196SOL     OW18046   3.639   3.683   7.789  0.0457 -0.0154 -0.0360
 2196SOL    HW118047   3.572   3.615   7.782 -0.1390  0.3143 -1.5611
 2196SOL    HW218048   3.711   3.646   7.738  1.6600  2.0222  0.7662
 2197SOL     OW18049   3.109   4.579   6.181 -0.7080 -0.2627  0.4155
 2197SOL    HW118050   3.064   4.509   6.134 -1.7717 -0.7494  2.1326
 2197SOL    HW218051   3.199   4.561   6.153 -0.1048  0.5749  1.8211
 2198SOL     OW18052   4.517   4.513   8.200  0.0458 -0.5340  0.4079
 2198SOL    HW118053   4.604   4.548   8.182  0.0792 -0.1885  1.2113
 2198SOL    HW218054   4.500   4.556   8.284 -0.8498  1.6380 -0.8897
 2199SOL     OW18055   0.582   1.540   2.035 -0.2301  0.2849 -0.3328
 2199SOL    HW118056   0.604   1.633   2.024  1.3371  0.1160  1.4443
 2199SOL    HW218057   0.569   1.540   2.130  0.3740 -1.3936 -0.2574
 2200SOL     OW18058   1.376   0.497   3.686  0.5361  0.3668 -0.9241
 2200SOL    HW118059   1.341   0.547   3.759 -0.6224 -1.6521 -0.0768
 2200SOL    HW218060   1.309   0.511   3.619  0.9787 -1.3803 -1.7361
 2201SOL     OW18061   2.444   4.522   7.915  0.4616 -0.2630  0.3731
 2201SOL    HW118062   2.534   4.505   7.944  0.6522 -3.4409 -1.9522
 2201SOL    HW218063   2.452   4.609   7.877 -1.0560 -0.0804  0.4902
 2202SOL     OW18064   2.659   3.815  10.945 -0.1028 -0.5361 -0.5083
 2202SOL    HW118065   2.744   3.814  10.991 -1.0819  1.2052  1.3288
 2202SOL    HW218066   2.599   3.816  11.020  0.8575  3.6504  0.1608
 2203SOL     OW18067   3.459   2.879   4.667  0.0285  0.1147  0.4503
 2203SOL    HW118068   3.489   2.834   4.747  1.9574 -2.3352 -1.6439
 2203SOL    HW218069   3.538   2.929   4.648  0.2135 -0.2759  0.1775
 2204SOL     OW18070   0.172   1.888   5.418 -0.1929 -0.2522  0.6921
 2204SOL    HW118071   0.135   1.976   5.424  0.1013 -0.0587 -0.5041
 2204SOL    HW218072   0.112   1.846   5.479 -1.3302 -0.8701 -0.8708
 2205SOL     OW18073   1.874   1.284   7.770 -0.8507  0.4604  0.5301
 2205SOL    HW118074   1.946   1.347   7.770 -0.7958  0.3532 -2.6730
 2205SOL    HW218075   1.923   1.210   7.736  1.4126  1.0740  2.4566
 2206SOL     OW18076   0.725   1.889  16.614  0.1312 -0.3867 -0.2729
 2206SOL    HW118077   0.691   1.867  16.527  1.4510 -1.8098 -0.4222
 2206SOL    HW218078   0.709   1.983  16.615  1.3473 -0.1930  0.0971
 2207SOL     OW18079   1.925   0.456   8.556 -0.3972  0.1815  0.3751
 2207SOL    HW118080   1.874   0.389   8.602  1.3416 -0.8125  0.8473
 2207SOL    HW218081   1.861   0.527   8.562 -0.8457 -0.4863  3.3390
 2208SOL     OW18082   4.162   3.218   1.800  0.0416  0.1710 -0.0116
 2208SOL    HW118083   4.107   3.221   1.878  0.2045 -1.0945  0.1433
 2208SOL    HW218084   4.184   3.126   1.807  1.6492  0.6073  0.5643
 2209SOL     OW18085   4.694   2.320  12.450 -0.1951 -0.0136 -0.2543
 2209SOL    HW118086   4.662   2.388  12.390 -1.7536 -0.8709 -0.3880
 2209SOL    HW218087   4.711   2.248  12.390 -2.5276 -1.0094  0.2878
 2210SOL     OW18088   2.621   4.656   8.319 -0.1607  0.1768  0.6502
 2210SOL    HW118089   2.569   4.692   8.390  0.0016 -0.4819  1.0940
 2210SOL    HW218090   2.616   4.565   8.346 -1.5260  0.4910  1.4474
 2211SOL     OW18091   1.581   3.452   1.533  0.3489 -0.9307 -0.7072
 2211SOL    HW118092   1.558   3.397   1.459 -2.5819 -2.3577  1.2804
 2211SOL    HW218093   1.521   3.410   1.594  1.7328 -0.3133  1.1024
 2212SOL     OW18094   0.199   4.173   0.172 -0.2783  0.2949 -0.0937
 2212SOL    HW118095   0.220   4.112   0.102  0.5329 -2.1859  2.3100
 2212SOL    HW218096   0.140   4.118   0.222  1.2646 -0.3216  1.0501
 2213SOL     OW18097   4.091   1.761   8.327  0.6236 -0.0846  0.2142
 2213SOL    HW118098   4.162   1.699   8.344  1.3058  1.3772  2.6082
 2213SOL    HW218099   4.143   1.839   8.344 -1.7611  1.7973 -1.1955
 2214SOL     OW18100   0.090   3.187   3.231  0.5591  0.4933 -0.4739
 2214SOL    HW118101   0.121   3.132   3.303 -1.6390  0.0823  0.1462
 2214SOL    HW218102   0.098   3.277   3.263  1.3372  1.4963 -3.4423
 2215SOL     OW18103   2.020   2.724   2.676  0.0533  0.5260 -0.1936
 2215SOL    HW118104   2.100   2.771   2.653  0.9362  0.8990  3.6709
 2215SOL    HW218105   2.047   2.640   2.637 -0.4728 -0.6455  1.9332
 2216SOL     OW18106   2.246   4.337   6.603  0.1502  0.4182  0.0848
 2216SOL    HW118107   2.173   4.296   6.649  0.7076  0.8374  1.3420
 2216SOL    HW218108   2.278   4.406   6.661  3.9589 -0.5620 -0.8546
 2217SOL     OW18109   3.548   3.212   3.335  0.5219  0.1846  0.8590
 2217SOL    HW118110   3.599   3.259   3.269  1.4574 -1.2618  0.5598
 2217SOL    HW218111   3.591   3.248   3.413  2.6833 -1.8196  0.5828
 2218SOL     OW18112   2.651   2.010  10.858  0.1117  0.0823 -0.5281
 2218SOL    HW118113   2.720   1.972  10.912  0.0155  0.3470 -0.2140
 2218SOL    HW218114   2.576   1.986  10.913  0.4338  0.4761  0.0788
 2219SOL     OW18115   4.447   2.699   0.325 -0.0797 -0.0691  0.0910
 2219SOL    HW118116   4.433   2.672   0.234 -0.3760  0.5820 -0.0622
 2219SOL    HW218117   4.458   2.613   0.364  2.1130 -0.4448 -1.3542
 2220SOL     OW18118   2.447   0.178   4.195 -0.0984 -0.6722 -0.6263
 2220SOL    HW118119   2.529   0.227   4.192 -0.5433  0.0112 -1.9529
 2220SOL    HW218120   2.435   0.144   4.106  1.1339  1.9500 -1.7973
 2221SOL     OW18121   3.504   2.931   5.774 -0.0859 -0.3470  0.0405
 2221SOL    HW118122   3.517   2.948   5.868 -1.7698 -1.0945  0.4126
 2221SOL    HW218123   3.431   2.870   5.773 -0.0866 -0.3147 -1.8199
 2222SOL     OW18124   1.628   1.086   3.739 -0.7948  0.2166 -0.3949
 2222SOL    HW118125   1.706   1.128   3.777 -0.3283  0.0551 -1.1678
 2222SOL    HW218126   1.575   1.069   3.816 -0.1666 -1.5593 -0.3427
 2223SOL     OW18127   4.400   0.661   6.907  0.2929  0.1584  0.1451
 2223SOL    HW118128   4.456   0.621   6.974  3.4605  1.6087 -1.6394
 2223SOL    HW218129   4.424   0.603   6.834 -2.5203 -0.2570 -0.4308
 2224SOL     OW18130   4.074   1.801   4.999  0.0596 -0.2350  0.0032
 2224SOL    HW118131   4.070   1.717   4.954  2.0320 -1.3434  1.8494
 2224SOL    HW218132   4.072   1.862   4.926 -0.9882  1.7569  1.6887
 2225SOL     OW18133   1.821   3.599   7.666  0.2659  0.5736  0.7529
 2225SOL    HW118134   1.848   3.573   7.755 -0.9507  0.9119  1.2170
 2225SOL    HW218135   1.903   3.597   7.616  0.8070  1.5284  1.5886
 2226SOL     OW18136   3.926   0.795   9.752 -0.0692  0.3096 -0.0846
 2226SOL    HW118137   3.831   0.793   9.741 -0.2971  2.5954  1.5691
 2226SOL    HW218138   3.932   0.798   9.847 -2.3002 -1.0019  0.0997
 2227SOL     OW18139   3.628   1.425   5.317  0.1027 -0.4155  0.0437
 2227SOL    HW118140   3.671   1.476   5.386  0.3176 -0.0958 -0.3237
 2227SOL    HW218141   3.678   1.344   5.326 -0.5703 -0.5294  2.6494
 2228SOL     OW18142   0.161   4.283  11.268  0.2033 -0.2840 -0.6400
 2228SOL    HW118143   0.224   4.352  11.246 -1.0720  1.2012  0.3545
 2228SOL    HW218144   0.204   4.199  11.254 -0.2041 -0.4436 -0.9170
 2229SOL     OW18145   0.793   3.211  14.276 -0.0643  0.7312 -0.2573
 2229SOL    HW118146   0.876   3.224  14.231 -0.6901 -0.3309 -1.7416
 2229SOL    HW218147   0.786   3.120  14.246  2.4456  0.7030 -0.7041
 2230SOL     OW18148   1.777   1.042   4.547  0.2791 -0.1118  0.6533
 2230SOL    HW118149   1.802   1.036   4.455  3.6172 -3.3378  1.7569
 2230SOL    HW218150   1.685   1.066   4.535  0.2404 -1.1491 -1.1800
 2231SOL     OW18151   0.001   2.816   4.737  0.0930 -0.6980  0.3328
 2231SOL    HW118152   4.664   2.803   4.663  1.5078 -2.4738 -0.4852
 2231SOL    HW218153   0.036   2.905   4.728  1.3425 -1.2834 -0.4781
 2232SOL     OW18154   4.149   1.395   1.005 -0.3964  0.4449 -0.0926
 2232SOL    HW118155   4.186   1.483   1.010  2.9236 -0.8208 -2.2595
 2232SOL    HW218156   4.067   1.414   0.958 -0.1038  0.1616 -0.7228
 2233SOL     OW18157   0.149   0.551   2.105 -0.3359 -0.4747 -0.0613
 2233SOL    HW118158   0.098   0.473   2.128 -2.4156  0.0688 -2.7828
 2233SOL    HW218159   0.177   0.578   2.192 -0.2044  1.6718 -0.7590
 2234SOL     OW18160   2.886   3.414   2.406  0.0880 -0.0955  0.2361
 2234SOL    HW118161   2.879   3.318   2.406 -0.9763 -0.0267  0.4010
 2234SOL    HW218162   2.813   3.437   2.464  1.6876 -2.0307  3.0098
 2235SOL     OW18163   2.593   3.333   9.961  0.1791 -0.4767 -0.2420
 2235SOL    HW118164   2.503   3.366   9.964  0.3455  0.0148 -0.8192
 2235SOL    HW218165   2.634   3.328  10.048 -0.0383 -1.5507 -0.1959
 2236SOL     OW18166   0.445   0.365   4.078  0.7818 -0.2347 -0.0047
 2236SOL    HW118167   0.493   0.448   4.078 -1.6273  1.1526  0.9170
 2236SOL    HW218168   0.459   0.327   3.992  0.1607  0.9666 -0.6340
 2237SOL     OW18169   2.238   0.740   8.001 -0.5576 -0.2566 -0.1141
 2237SOL    HW118170   2.263   0.652   7.973 -3.8177 -0.8985 -0.9298
 2237SOL    HW218171   2.195   0.729   8.086  0.4364 -2.4106  0.1086
 2238SOL     OW18172   2.704   1.808   4.432  0.1860 -0.0165 -0.2099
 2238SOL    HW118173   2.705   1.802   4.337 -0.5612  0.2691 -0.2385
 2238SOL    HW218174   2.672   1.898   4.438  2.2049  0.7695 -1.1286
 2239SOL     OW18175   3.963   0.144  11.213 -0.0869  0.0027 -0.1612
 2239SOL    HW118176   3.887   0.180  11.167 -0.6957  0.5630  1.2674
 2239SOL    HW218177   4.020   0.102  11.149 -0.0953  1.1175 -0.8951
 2240SOL     OW18178   2.661   3.770   6.832  0.5541  0.4184 -0.3962
 2240SOL    HW118179   2.584   3.816   6.798  0.5918  1.4582  0.9254
 2240SOL    HW218180   2.676   3.816   6.914  0.5715 -0.8787  0.3187
 2241SOL     OW18181   3.480   2.304   3.490 -0.3004  0.0902  0.2812
 2241SOL    HW118182   3.450   2.378   3.544 -1.9860  1.2524 -2.2810
 2241SOL    HW218183   3.403   2.296   3.433 -0.0743 -1.5440  0.2123
 2242SOL     OW18184   3.440   4.251   9.620 -0.4590 -0.9366  0.2352
 2242SOL    HW118185   3.484   4.266   9.704  1.7632 -0.0957 -1.0617
 2242SOL    HW218186   3.506   4.227   9.555 -0.8727  1.9752 -1.2356
 2243SOL     OW18187   3.845   1.845  13.174  0.6025 -0.3206  0.0754
 2243SOL    HW118188   3.887   1.912  13.228 -1.7966 -0.1830  1.7811
 2243SOL    HW218189   3.763   1.846  13.222  0.9269  2.1922  0.5839
 2244SOL     OW18190   0.042   4.100   8.075 -0.3526 -0.0864 -0.2859
 2244SOL    HW118191   0.101   4.151   8.131  1.2922 -3.0155  0.6707
 2244SOL    HW218192   4.679   4.126   8.107 -0.2918  0.2548 -0.4064
 2245SOL     OW18193   0.568   3.656   7.167 -0.0562 -0.3567 -0.6013
 2245SOL    HW118194   0.617   3.680   7.246  1.6401  0.3423 -1.8585
 2245SOL    HW218195   0.632   3.654   7.096  1.7856  0.8494  0.9918
 2246SOL     OW18196   0.022   0.680   5.636  0.1831 -0.1634  0.0465
 2246SOL    HW118197   0.095   0.671   5.697  0.0408  2.8797  0.6507
 2246SOL    HW218198   0.063   0.750   5.585  0.1619  0.5672  1.0228
 2247SOL     OW18199   1.612   0.918   5.404 -0.1255 -0.0264 -0.1506
 2247SOL    HW118200   1.563   0.999   5.421  1.8049  1.1704 -0.2640
 2247SOL    HW218201   1.570   0.860   5.468  1.1766  1.5870  2.1532
 2248SOL     OW18202   4.605   3.490   9.424 -0.2110 -0.0942  0.1070
 2248SOL    HW118203   4.592   3.550   9.351 -2.5877 -0.3751  0.3072
 2248SOL    HW218204   4.570   3.405   9.397 -1.9933  0.4568  0.6940
 2249SOL     OW18205   4.546   2.454  16.246  0.6348  0.1645  0.0039
 2249SOL    HW118206   4.526   2.367  16.211  3.9973 -0.8218  0.5851
 2249SOL    HW218207   4.614   2.447  16.312  0.4336  2.6494  0.4891
 2250SOL     OW18208   0.156   1.209   8.235 -0.2054 -0.3962 -0.1308
 2250SOL    HW118209   0.147   1.247   8.147 -2.0548 -1.0580 -0.2354
 2250SOL    HW218210   0.249   1.230   8.243  0.1251 -0.9997 -2.3635
 2251SOL     OW18211   3.469   4.030   3.184  0.4058 -0.3480 -0.3962
 2251SOL    HW118212   3.399   4.071   3.133  0.7191 -0.0557 -0.5927
 2251SOL    HW218213   3.509   4.108   3.224 -2.4167  0.5151  0.7729
 2252SOL     OW18214   1.837   2.551   4.438 -0.2107 -0.0343 -0.2695
 2252SOL    HW118215   1.914   2.568   4.491 -2.3991  1.3312  2.4610
 2252SOL    HW218216   1.836   2.455   4.442 -0.5209  0.0855  2.6103
 2253SOL     OW18217   1.076   1.774   4.480 -0.2843  0.0703 -0.1182
 2253SOL    HW118218   1.055   1.810   4.567 -0.5648 -1.1985  0.3353
 2253SOL    HW218219   1.045   1.684   4.485  0.8068 -0.2693  0.5202
 2254SOL     OW18220   4.230   0.560   5.975 -0.4075  0.5073  0.1994
 2254SOL    HW118221   4.188   0.541   5.891 -0.4996  1.1256  0.1074
 2254SOL    HW218222   4.182   0.642   5.985  2.2295  1.9125  1.2551
 2255SOL     OW18223   1.048   3.901   6.559 -0.3110  0.1203  0.3307
 2255SOL    HW118224   1.061   3.910   6.654  2.3028 -4.7354  0.4495
 2255SOL    HW218225   0.984   3.830   6.557  1.0032 -1.0246 -1.2292
 2256SOL     OW18226   1.871   1.550   1.527 -0.2752  0.8289  0.4577
 2256SOL    HW118227   1.928   1.474   1.511  0.3847  1.1920  1.1281
 2256SOL    HW218228   1.880   1.594   1.442 -0.2167  1.3099  0.7181
 2257SOL     OW18229   3.140   1.004   1.547  0.0226 -0.4235  0.8002
 2257SOL    HW118230   3.125   1.098   1.544 -0.5867 -0.6255 -2.4791
 2257SOL    HW218231   3.098   0.983   1.630  0.5245 -1.5151  0.7783
 2258SOL     OW18232   1.345   1.105   5.685 -0.1558  0.1152 -0.0757
 2258SOL    HW118233   1.264   1.055   5.679 -0.7167  0.8684  1.2383
 2258SOL    HW218234   1.320   1.174   5.746 -0.7272  1.3831 -1.7456
 2259SOL     OW18235   1.439   0.466   5.474  0.2692 -0.1119 -0.0891
 2259SOL    HW118236   1.464   0.458   5.382 -1.2639 -0.3738 -0.4727
 2259SOL    HW218237   1.394   0.382   5.485  0.6013  0.0901  2.7675
 2260SOL     OW18238   3.806   0.884   1.495  1.5292  1.1255 -0.2510
 2260SOL    HW118239   3.746   0.858   1.565  1.9474  3.9587  1.1437
 2260SOL    HW218240   3.742   0.919   1.432  1.8472  0.4320 -0.9662
 2261SOL     OW18241   0.962   3.268  10.655  0.4320 -0.2154 -0.4072
 2261SOL    HW118242   1.008   3.233  10.731  2.7493  0.8670 -1.2917
 2261SOL    HW218243   0.974   3.363  10.662 -1.1139 -0.1398  1.0543
 2262SOL     OW18244   4.474   1.670   3.685 -0.6387 -0.0445  0.1678
 2262SOL    HW118245   4.474   1.730   3.610 -2.1019  1.8771  1.6940
 2262SOL    HW218246   4.520   1.728   3.747  1.2879 -0.6434 -0.6911
 2263SOL     OW18247   1.719   2.600   0.236 -0.4901 -0.3655 -0.4006
 2263SOL    HW118248   1.775   2.552   0.296 -0.6716  0.5160  0.4631
 2263SOL    HW218249   1.787   2.665   0.213  0.0080 -1.2183 -1.3548
 2264SOL     OW18250   1.685   1.282   2.029  0.1115  0.6753  0.5517
 2264SOL    HW118251   1.710   1.190   2.021  1.3551  1.1711 -1.3162
 2264SOL    HW218252   1.619   1.278   2.099 -0.6223  0.4324 -0.1532
 2265SOL     OW18253   4.707   3.421   7.536  1.0644 -0.1500 -0.3183
 2265SOL    HW118254   4.711   3.380   7.450  2.2754  0.5014 -0.5677
 2265SOL    HW218255   4.633   3.480   7.517  2.6871  1.6099 -1.2551
 2266SOL     OW18256   3.508   2.260   5.255  0.6384 -0.3739 -0.0067
 2266SOL    HW118257   3.537   2.279   5.166  0.2990  1.1635  0.2062
 2266SOL    HW218258   3.463   2.175   5.250 -0.4232  0.2080 -0.3834
 2267SOL     OW18259   3.755   2.920   6.315 -0.0480  0.0720  0.1004
 2267SOL    HW118260   3.791   2.970   6.241 -1.8588  0.2936 -0.6218
 2267SOL    HW218261   3.827   2.939   6.376  0.6531 -0.9235 -0.4122
 2268SOL     OW18262   1.352   3.764   3.294  0.0942 -0.5709  0.3776
 2268SOL    HW118263   1.382   3.850   3.324 -0.7789 -0.0346 -0.2984
 2268SOL    HW218264   1.259   3.784   3.282  0.6636  0.9744 -1.4374
 2269SOL     OW18265   0.525   4.636  13.928 -0.5640  0.2489  0.1939
 2269SOL    HW118266   0.606   4.599  13.895 -0.4399  0.7637 -0.0832
 2269SOL    HW218267   0.493   4.683  13.850  0.8296  1.4288  0.3337
 2270SOL     OW18268   0.230   3.492   2.005 -0.2126 -0.2686 -0.0742
 2270SOL    HW118269   0.211   3.399   2.015  1.7145 -0.6162  0.3911
 2270SOL    HW218270   0.145   3.531   1.988  0.9286  2.1783 -0.2185
 2271SOL     OW18271   3.230   2.374   3.931  0.1704 -0.0676  0.1024
 2271SOL    HW118272   3.262   2.456   3.893 -1.4224  0.9218  0.9130
 2271SOL    HW218273   3.137   2.383   3.912  0.7512 -0.2142 -2.7607
 2272SOL     OW18274   1.440   0.710   9.091  0.2814  0.1612 -0.2690
 2272SOL    HW118275   1.399   0.745   9.170 -0.3259  0.8642 -0.8927
 2272SOL    HW218276   1.374   0.717   9.021 -0.1267 -0.9659  0.0117
 2273SOL     OW18277   1.535   4.696  13.386 -0.1239 -0.8607 -0.1519
 2273SOL    HW118278   1.460   4.660  13.337 -0.0057  3.2347 -3.3781
 2273SOL    HW218279   1.604   4.643  13.345  1.9437  2.2989 -0.7692
 2274SOL     OW18280   1.399   2.247   6.014 -0.0382  0.5982  0.6899
 2274SOL    HW118281   1.333   2.230   5.947  0.2373  0.6978  0.3966
 2274SOL    HW218282   1.362   2.179   6.071  3.5240 -1.1404  0.9285
 2275SOL     OW18283   0.762   4.264   1.514  0.3040  0.4275 -0.7778
 2275SOL    HW118284   0.751   4.213   1.594 -1.3438 -0.8919 -1.8387
 2275SOL    HW218285   0.837   4.318   1.537 -0.9369  1.5839  0.5872
 2276SOL     OW18286   4.165   2.207  16.603  0.5726  0.0400  0.0066
 2276SOL    HW118287   4.118   2.123  16.607 -0.3108  0.6650  3.3092
 2276SOL    HW218288   4.189   2.212  16.511  0.5175 -0.9139 -0.0603
 2277SOL     OW18289   2.007   3.001   7.136  0.2001 -0.1799  0.1830
 2277SOL    HW118290   2.020   2.970   7.225 -0.4622 -0.7795  0.0704
 2277SOL    HW218291   2.092   3.041   7.116 -0.8894  0.8779 -2.3861
 2278SOL     OW18292   1.540   4.488   8.866  0.2218  0.1177 -0.3582
 2278SOL    HW118293   1.589   4.566   8.840  0.0522 -0.4300 -2.3446
 2278SOL    HW218294   1.541   4.496   8.961  1.0932 -3.0864 -0.1057
 2279SOL     OW18295   0.172   2.957   7.337 -0.6767 -0.5078  0.6072
 2279SOL    HW118296   0.099   2.974   7.397 -0.2905 -1.3158  1.3039
 2279SOL    HW218297   0.158   2.862   7.341 -2.3023 -0.3156 -0.3078
 2280SOL     OW18298   4.378   0.682   6.308 -0.2526 -0.3171 -0.1945
 2280SOL    HW118299   4.340   0.765   6.335 -0.3314 -0.8438  1.3212
 2280SOL    HW218300   4.473   0.694   6.315 -0.5697  2.6240 -0.9200
 2281SOL     OW18301   4.165   1.459  14.820 -0.1167  0.3118  0.0744
 2281SOL    HW118302   4.152   1.365  14.818 -1.5766  0.4953  0.9252
 2281SOL    HW218303   4.173   1.471  14.915  0.2356 -1.3502  0.2455
 2282SOL     OW18304   3.607   1.786  10.128  0.3484  0.1931  0.1989
 2282SOL    HW118305   3.633   1.877  10.141 -0.2985  0.1994  1.5089
 2282SOL    HW218306   3.667   1.765  10.056  0.5664 -0.1110  0.4678
 2283SOL     OW18307   4.032   1.140   5.013  0.0534  0.2285 -0.4399
 2283SOL    HW118308   4.106   1.179   5.059 -1.4206  1.5574  0.8075
 2283SOL    HW218309   4.044   1.048   5.039 -0.5836  1.1409  3.0571
 2284SOL     OW18310   4.509   1.988  10.082  0.0679 -0.2977  0.3924
 2284SOL    HW118311   4.464   1.908  10.054 -1.8494  0.7070  0.6021
 2284SOL    HW218312   4.511   2.040  10.002  0.7104 -2.6649 -1.1359
 2285SOL     OW18313   0.583   3.400   7.489  0.8472  0.5821 -0.1812
 2285SOL    HW118314   0.673   3.394   7.458  0.3058 -2.0281 -1.3355
 2285SOL    HW218315   0.594   3.407   7.584  0.0012  1.5826 -0.1639
 2286SOL     OW18316   4.650   3.180   7.745 -1.2567  0.2316 -0.6757
 2286SOL    HW118317   4.607   3.121   7.807  1.0184 -1.1256 -0.3417
 2286SOL    HW218318   4.599   3.259   7.757 -2.8498 -0.8795 -0.1184
 2287SOL     OW18319   1.770   3.324   8.438 -0.3315  0.2500  0.0005
 2287SOL    HW118320   1.708   3.273   8.385 -1.2981  2.1734 -0.6966
 2287SOL    HW218321   1.843   3.311   8.378  1.7783 -1.6639  2.9846
 2288SOL     OW18322   4.612   1.899   6.094 -0.7885  0.1470  0.1985
 2288SOL    HW118323   4.663   1.824   6.123 -2.7901 -1.2384  0.1219
 2288SOL    HW218324   4.575   1.946   6.169 -1.4012 -1.9381  1.1853
 2289SOL     OW18325   0.795   0.071   4.305 -0.0593  0.1012 -0.5999
 2289SOL    HW118326   0.757   0.151   4.340 -0.5594 -0.4360  0.1032
 2289SOL    HW218327   0.769   0.016   4.379  1.1293  1.6102  0.9300
 2290SOL     OW18328   0.242   0.905   8.353  0.5504  0.2693 -0.2699
 2290SOL    HW118329   0.174   0.965   8.384  0.9915  2.0632 -2.8206
 2290SOL    HW218330   0.185   0.845   8.303  1.8373 -0.0305 -1.3727
 2291SOL     OW18331   0.988   3.036   1.197 -0.0352  0.3036  0.0625
 2291SOL    HW118332   0.986   2.974   1.125  2.4053  0.4464 -0.1270
 2291SOL    HW218333   0.982   3.119   1.150 -1.2309 -0.3899 -0.9972
 2292SOL     OW18334   4.020   4.192   8.890 -0.5728  0.2170  0.1922
 2292SOL    HW118335   4.008   4.174   8.983  0.2584  0.6709  0.3815
 2292SOL    HW218336   4.065   4.276   8.896  0.2690 -0.3382  1.4389
 2293SOL     OW18337   3.058   1.701   9.773 -0.4104  0.1064  0.6974
 2293SOL    HW118338   3.144   1.740   9.761  0.3346 -1.9692 -0.8706
 2293SOL    HW218339   3.044   1.640   9.700  0.2944  0.5711  0.1690
 2294SOL     OW18340   3.823   0.476   6.725 -0.1028  0.3835 -0.3950
 2294SOL    HW118341   3.918   0.474   6.720 -0.0921  1.4862 -0.5097
 2294SOL    HW218342   3.807   0.541   6.656  1.7157  2.1531  0.8729
 2295SOL     OW18343   0.520   3.371  14.649  0.0799  0.0589 -0.1422
 2295SOL    HW118344   0.425   3.371  14.638  0.2195 -0.0099 -1.3454
 2295SOL    HW218345   0.548   3.377  14.558 -2.4498  1.0786 -0.8631
 2296SOL     OW18346   4.669   0.098   4.859  0.4000 -0.2680 -0.6550
 2296SOL    HW118347   0.016   0.042   4.826  1.6237  0.9269 -0.0832
 2296SOL    HW218348   4.671   0.086   4.954  1.1076 -1.7765 -0.8729
 2297SOL     OW18349   3.603   2.942   3.325  0.4247 -0.0593 -0.6803
 2297SOL    HW118350   3.695   2.964   3.338  0.1448  0.8208 -0.1343
 2297SOL    HW218351   3.573   3.032   3.315  1.9971  0.3233 -2.0260
 2298SOL     OW18352   1.897   0.777  16.437  0.1508 -0.3638 -0.2984
 2298SOL    HW118353   1.888   0.869  16.413 -0.8859  0.2523  2.3632
 2298SOL    HW218354   1.807   0.752  16.460 -0.6206  0.7361 -2.1602
 2299SOL     OW18355   2.879   4.599   6.678 -0.6572 -0.0720 -0.6527
 2299SOL    HW118356   2.955   4.630   6.728 -0.2677 -5.0917  1.8644
 2299SOL    HW218357   2.930   4.595   6.598 -0.3719 -1.0510 -0.4201
 2300SOL     OW18358   0.547   2.509   9.937 -1.0274  0.5760  0.2098
 2300SOL    HW118359   0.604   2.505   9.860 -0.0443  1.8137  0.8639
 2300SOL    HW218360   0.578   2.591   9.976 -1.6737 -0.2175  2.3383
 2301SOL     OW18361   0.533   1.864  10.070  0.6715 -0.3561 -0.2067
 2301SOL    HW118362   0.570   1.903  10.149 -0.2040 -0.4866  0.2599
 2301SOL    HW218363   0.537   1.945  10.019 -0.4294  0.6695  1.3411
 2302SOL     OW18364   1.371   4.512  13.259 -0.2283  0.1233  0.4783
 2302SOL    HW118365   1.287   4.539  13.297 -0.3315 -0.0104  0.3425
 2302SOL    HW218366   1.353   4.501  13.166 -0.6060 -2.6566  0.8788
 2303SOL     OW18367   0.906   3.644   8.835  1.0360  0.0907  0.4587
 2303SOL    HW118368   0.988   3.653   8.786  0.7844 -2.6559 -0.4646
 2303SOL    HW218369   0.933   3.657   8.926  2.9400  0.9880 -0.2230
 2304SOL     OW18370   3.475   3.416   7.223 -0.2117  0.3621  0.5208
 2304SOL    HW118371   3.443   3.380   7.141  1.8159 -0.8626  0.2622
 2304SOL    HW218372   3.568   3.435   7.211  0.0616  0.2488  2.4479
 2305SOL     OW18373   4.366   1.282  14.451 -0.2307 -0.3015  0.2751
 2305SOL    HW118374   4.274   1.309  14.455 -0.0789  0.2833 -0.1752
 2305SOL    HW218375   4.403   1.302  14.537 -2.5140 -0.6079  1.3200
 2306SOL     OW18376   1.457   1.264   2.208 -0.8416 -0.5971  0.9245
 2306SOL    HW118377   1.416   1.221   2.283 -0.4884 -3.1263 -0.3568
 2306SOL    HW218378   1.385   1.309   2.165  2.6802  0.2819 -3.9708
 2307SOL     OW18379   1.825   4.598   9.927  0.7110  0.8729 -0.3292
 2307SOL    HW118380   1.796   4.678   9.970 -1.0470  0.1775 -0.1931
 2307SOL    HW218381   1.918   4.613   9.911  1.2085  0.1207  1.8954
 2308SOL     OW18382   2.195   3.282   8.971  0.4826 -0.3228 -0.1718
 2308SOL    HW118383   2.187   3.193   8.937 -0.0839 -1.1881  2.2414
 2308SOL    HW218384   2.180   3.336   8.893  1.6855  1.1883  0.6528
 2309SOL     OW18385   4.619   0.054   1.707  0.3050 -0.3853 -0.2446
 2309SOL    HW118386   4.611   4.682   1.701 -1.3016 -0.3123  0.8197
 2309SOL    HW218387   4.687   0.073   1.642 -1.1373 -0.5075 -1.7911
 2310SOL     OW18388   1.365   0.451  16.833 -0.6131 -0.0500 -0.0576
 2310SOL    HW118389   1.410   0.377  16.791  0.0729  1.5614 -2.1862
 2310SOL    HW218390   1.438   0.504  16.865 -1.0916  0.8898 -0.4915
 2311SOL     OW18391   1.131   2.665  14.667 -0.4953  0.2190  0.1127
 2311SOL    HW118392   1.160   2.709  14.587  2.1793 -0.9913  0.4251
 2311SOL    HW218393   1.113   2.577  14.634  0.5075  0.1711 -0.3172
 2312SOL     OW18394   1.257   0.075  10.069 -0.4117 -0.1361 -0.1479
 2312SOL    HW118395   1.338   0.045  10.110  1.3523  0.8219 -2.9076
 2312SOL    HW218396   1.189   0.047  10.130  0.9238  0.4327  1.5999
 2313SOL     OW18397   4.150   3.226  15.410 -0.1706 -0.6200  0.5645
 2313SOL    HW118398   4.088   3.200  15.477 -0.2882 -2.1261 -0.1349
 2313SOL    HW218399   4.227   3.223  15.466  1.1338  3.0267 -1.0350
 2314SOL     OW18400   1.449   3.551   7.715 -0.2615 -0.3647 -0.3702
 2314SOL    HW118401   1.402   3.575   7.636 -2.5648  1.8751  1.6780
 2314SOL    HW218402   1.520   3.492   7.690  0.8256  0.3038  1.0965
 2315SOL     OW18403   3.950   1.326  11.051  0.0501  0.0269 -0.4318
 2315SOL    HW118404   3.871   1.341  11.102  0.2042 -0.1819 -0.1332
 2315SOL    HW218405   3.991   1.253  11.098 -0.8958 -1.1053 -1.3482
 2316SOL     OW18406   3.607   2.368   6.958 -0.3424  0.0257  0.1623
 2316SOL    HW118407   3.635   2.316   7.034 -2.1476  2.3632  2.4308
 2316SOL    HW218408   3.515   2.348   6.945 -0.2797 -0.5339  0.5716
 2317SOL     OW18409   0.542   1.650  16.127  0.5015  0.5649  0.0469
 2317SOL    HW118410   0.565   1.631  16.217 -0.5807 -1.0020 -0.0120
 2317SOL    HW218411   0.483   1.575  16.116  1.9639  0.0078 -4.1545
 2318SOL     OW18412   1.793   1.833   3.385  0.0920  0.0112  0.2089
 2318SOL    HW118413   1.856   1.849   3.314 -0.1775 -0.2472 -0.0841
 2318SOL    HW218414   1.734   1.903   3.357 -0.5823 -0.2756  0.9233
 2319SOL     OW18415   1.537   4.329   2.475  0.3598  0.2453 -0.0431
 2319SOL    HW118416   1.510   4.267   2.543  1.6225 -1.0175 -0.6872
 2319SOL    HW218417   1.567   4.271   2.405  2.5579  0.5986  0.5879
 2320SOL     OW18418   3.000   0.897   2.770  0.1057  0.5385  0.0509
 2320SOL    HW118419   2.973   0.871   2.858  0.1880  0.4197  0.0409
 2320SOL    HW218420   3.095   0.908   2.772 -0.0615  1.5549  2.1931
 2321SOL     OW18421   4.321   4.682  15.288 -0.5736 -0.0447  0.0853
 2321SOL    HW118422   4.346   4.708  15.199 -0.0803  0.5860  0.4056
 2321SOL    HW218423   4.234   4.647  15.271  0.2256 -2.4953  1.1130
 2322SOL     OW18424   4.278   0.918   4.918 -0.0956  0.3503 -0.1218
 2322SOL    HW118425   4.269   1.010   4.942 -1.0277  0.4041 -0.6629
 2322SOL    HW218426   4.253   0.879   5.002  0.2987  2.7297  1.0998
 2323SOL     OW18427   1.895   4.589  15.313 -0.1826 -0.1268  0.0041
 2323SOL    HW118428   1.915   4.527  15.384 -0.8534  0.8960  1.0862
 2323SOL    HW218429   1.984   4.617  15.296  0.1495 -1.8331 -1.0962
 2324SOL     OW18430   4.694   3.717  10.582  0.2662 -0.1144 -0.3893
 2324SOL    HW118431   0.002   3.764  10.659  0.6991 -0.2788 -0.4644
 2324SOL    HW218432   4.630   3.661  10.625  1.0961 -1.7434 -1.2606
 2325SOL     OW18433   0.788   2.477   9.754 -0.1346 -0.6544  0.0435
 2325SOL    HW118434   0.816   2.533   9.681  0.7933 -0.9397  0.1714
 2325SOL    HW218435   0.859   2.497   9.815  0.5834 -0.2327 -0.9266
 2326SOL     OW18436   0.484   4.614   5.448  0.9861 -0.0067 -0.0566
 2326SOL    HW118437   0.571   4.577   5.464  0.8718 -0.2446  0.0054
 2326SOL    HW218438   0.488   4.701   5.488 -1.8665  0.0757  0.0260
 2327SOL     OW18439   4.401   3.809   7.862 -0.2051 -0.0345 -0.0503
 2327SOL    HW118440   4.334   3.865   7.822  0.6627  0.1324 -1.2598
 2327SOL    HW218441   4.362   3.722   7.867  2.0747 -1.0130  0.3692
 2328SOL     OW18442   1.901   4.041   3.963  0.2572 -0.0176  0.4433
 2328SOL    HW118443   1.893   4.135   3.949  1.6149 -0.1950 -1.5612
 2328SOL    HW218444   1.842   3.994   3.903 -1.9873  0.9427  1.8705
 2329SOL     OW18445   3.205   2.554  12.272  0.0261 -0.4375  0.1187
 2329SOL    HW118446   3.227   2.547  12.365  2.3179  0.0968 -0.3716
 2329SOL    HW218447   3.199   2.460  12.258 -0.5276 -0.5309  1.0108
 2330SOL     OW18448   0.476   0.011   8.341  0.0141 -0.1248 -0.3730
 2330SOL    HW118449   0.553   0.062   8.318  0.2979 -0.3130  0.1585
 2330SOL    HW218450   0.427   0.050   8.269 -0.7902 -1.6458 -0.6532
 2331SOL     OW18451   2.567   0.461   6.637  0.2940 -0.2544 -0.3800
 2331SOL    HW118452   2.653   0.441   6.675  0.1867 -0.1091 -0.0596
 2331SOL    HW218453   2.543   0.539   6.687 -0.5112 -0.5049 -0.3725
 2332SOL     OW18454   2.142   2.070   8.918  0.3431 -0.4029  0.1171
 2332SOL    HW118455   2.174   2.009   8.984  1.5649  1.0306  0.8658
 2332SOL    HW218456   2.219   2.126   8.912 -0.6686  1.1147  1.1306
 2333SOL     OW18457   2.995   4.072  12.641  0.4511  0.0794 -0.2622
 2333SOL    HW118458   2.992   4.167  12.625 -1.6819 -0.2209 -1.6692
 2333SOL    HW218459   3.048   4.076  12.720 -1.3676 -1.2365  1.0141
 2334SOL     OW18460   2.322   1.468   5.327  0.1423  0.3928 -0.0856
 2334SOL    HW118461   2.268   1.457   5.405  0.1673 -1.0512 -0.2601
 2334SOL    HW218462   2.273   1.411   5.267  0.2967 -0.3774  0.5171
 2335SOL     OW18463   3.188   2.005  12.510 -0.3451 -0.1552 -0.4890
 2335SOL    HW118464   3.112   2.062  12.500  0.4961  1.0144 -0.1259
 2335SOL    HW218465   3.225   2.023  12.596  0.3544 -1.4052 -0.5224
 2336SOL     OW18466   1.738   1.025   7.176  0.2214  0.3672  0.1125
 2336SOL    HW118467   1.724   1.101   7.232 -0.6835 -0.1875  0.6477
 2336SOL    HW218468   1.832   1.039   7.171  0.4474 -0.5704  1.7941
 2337SOL     OW18469   3.689   2.372   4.079  0.0677  0.4105  0.0393
 2337SOL    HW118470   3.624   2.435   4.109  0.5998  1.0882 -0.2464
 2337SOL    HW218471   3.662   2.302   4.139  0.4278  1.2406  1.1587
 2338SOL     OW18472   2.780   1.581   8.211  0.5216  0.5142  0.0218
 2338SOL    HW118473   2.726   1.523   8.157  0.8523  0.5897 -0.3863
 2338SOL    HW218474   2.868   1.550   8.188 -0.0942 -0.3300 -1.2152
 2339SOL     OW18475   2.172   0.016   7.227  0.0401 -1.3356 -0.0655
 2339SOL    HW118476   2.163   4.723   7.321  0.0222  0.3787  0.2331
 2339SOL    HW218477   2.263   4.717   7.208 -0.0667 -0.4634 -1.6224
 2340SOL     OW18478   0.084   2.331   3.501 -0.4673  0.1396  0.3446
 2340SOL    HW118479   0.088   2.383   3.420  3.2172 -0.8409 -0.1198
 2340SOL    HW218480   4.723   2.285   3.496 -0.0036 -0.8983  2.1064
 2341SOL     OW18481   4.250   4.418   3.636 -0.5594 -0.1175 -0.0065
 2341SOL    HW118482   4.236   4.367   3.557 -0.0906  0.4269 -0.4371
 2341SOL    HW218483   4.162   4.456   3.638 -1.0058 -1.0883 -1.0091
 2342SOL     OW18484   1.935   0.338   7.579 -0.3601 -0.6703  0.3720
 2342SOL    HW118485   1.996   0.404   7.611  0.3189 -0.6671 -0.9513
 2342SOL    HW218486   1.890   0.333   7.664 -3.6260  0.2005 -1.3020
 2343SOL     OW18487   2.858   4.194  15.806  0.0272  0.3805  0.0263
 2343SOL    HW118488   2.878   4.215  15.897 -2.5860  3.3240 -0.0498
 2343SOL    HW218489   2.775   4.240  15.796  0.6685  1.2648 -1.2374
 2344SOL     OW18490   1.443   2.361   6.615  0.4906 -0.2203  0.4211
 2344SOL    HW118491   1.405   2.284   6.573 -0.3353 -0.4496  1.6002
 2344SOL    HW218492   1.409   2.340   6.702  0.0469  0.1318  0.3241
 2345SOL     OW18493   4.367   3.736  16.737  0.5851  0.7804 -0.0403
 2345SOL    HW118494   4.379   3.675  16.809 -1.1245 -1.0905 -1.3526
 2345SOL    HW218495   4.397   3.814  16.783 -1.1024  1.4446 -0.0495
 2346SOL     OW18496   0.708   4.519   7.000 -0.5500 -0.4457 -0.0433
 2346SOL    HW118497   0.671   4.452   6.941 -1.7325  0.0071  0.1742
 2346SOL    HW218498   0.704   4.597   6.944  0.8453  0.0610  0.5918
 2347SOL     OW18499   4.678   3.282   8.242  0.0221 -0.1551  0.0922
 2347SOL    HW118500   4.680   3.327   8.158 -2.1224  0.4950  0.4014
 2347SOL    HW218501   4.616   3.341   8.285 -0.1088 -1.7639  2.1115
 2348SOL     OW18502   2.652   0.519   9.367  0.5076  0.3022  0.2297
 2348SOL    HW118503   2.665   0.571   9.446 -0.6309 -0.6903  1.0699
 2348SOL    HW218504   2.742   0.488   9.361  0.2186 -1.0286  2.5696
 2349SOL     OW18505   0.868   3.124   3.945  0.5189  0.3561 -0.2552
 2349SOL    HW118506   0.919   3.177   3.883  0.3787 -0.2311 -0.8816
 2349SOL    HW218507   0.797   3.103   3.883 -2.2412  1.0724  2.6377
 2350SOL     OW18508   1.342   3.935   8.040 -0.4791  0.4397  0.5742
 2350SOL    HW118509   1.417   3.969   7.993 -1.4606  0.4837 -0.9611
 2350SOL    HW218510   1.277   4.005   8.029 -0.8305 -0.0049 -0.1917
 2351SOL     OW18511   1.849   1.734   2.138 -0.1941  0.1559  0.3287
 2351SOL    HW118512   1.852   1.758   2.045 -0.5937 -0.0098  0.2732
 2351SOL    HW218513   1.897   1.812   2.168  0.2306 -0.5498  1.4739
 2352SOL     OW18514   4.683   3.851   8.181 -0.3062 -0.2654  0.0964
 2352SOL    HW118515   4.716   3.922   8.127 -1.1071  0.3324  0.4005
 2352SOL    HW218516   4.704   3.883   8.269 -0.2296 -2.6500  0.9613
 2353SOL     OW18517   4.689   3.749   2.809 -0.5933 -0.1483  0.4687
 2353SOL    HW118518   0.013   3.832   2.803 -2.5563  0.9380  0.0529
 2353SOL    HW218519   0.017   3.692   2.752 -0.2795  1.4902 -0.8840
 2354SOL     OW18520   0.368   2.242  14.300  0.1512  0.2647  0.3539
 2354SOL    HW118521   0.441   2.260  14.240  1.3968  1.5977  2.2912
 2354SOL    HW218522   0.312   2.314  14.271  1.6783  0.5215 -1.9895
 2355SOL     OW18523   4.607   0.874  10.078  0.3561  0.4131  0.1476
 2355SOL    HW118524   4.584   0.794  10.031  1.1584  1.4653 -2.0624
 2355SOL    HW218525   4.520   0.913  10.068 -0.0730 -0.7726 -0.6615
 2356SOL     OW18526   0.232   3.153  17.507  0.1418  0.6281  0.1705
 2356SOL    HW118527   0.217   3.061  17.529 -0.0203  0.4294 -0.7350
 2356SOL    HW218528   0.152   3.160  17.454  0.7038  0.3313 -0.7158
 2357SOL     OW18529   3.372   3.455   4.264 -0.3126  0.2718  0.7676
 2357SOL    HW118530   3.445   3.489   4.317  0.0255  1.1691 -0.2586
 2357SOL    HW218531   3.395   3.365   4.285  0.3835  0.6522  1.6629
 2358SOL     OW18532   1.154   2.247  12.563  0.6657  0.3440 -0.1692
 2358SOL    HW118533   1.236   2.267  12.608  0.8327 -3.1592  1.1329
 2358SOL    HW218534   1.123   2.336  12.548  2.0659  0.6063 -1.4981
 2359SOL     OW18535   2.072   3.124   3.478 -0.2085  0.0222  0.7921
 2359SOL    HW118536   2.080   3.110   3.572  0.3401 -0.3816  0.6897
 2359SOL    HW218537   2.156   3.169   3.473 -0.8262  1.2653  1.6656
 2360SOL     OW18538   3.237   0.562  10.635  0.1549  0.0820  0.3736
 2360SOL    HW118539   3.305   0.629  10.628  0.1184  0.3358  2.6101
 2360SOL    HW218540   3.192   0.587  10.715  0.8200  0.5647  0.5997
 2361SOL     OW18541   4.497   3.429  12.465 -0.2770 -0.5956  0.1428
 2361SOL    HW118542   4.552   3.372  12.518  0.4064  0.0923  0.1794
 2361SOL    HW218543   4.566   3.491  12.437 -0.9063  0.4157  0.8385
 2362SOL     OW18544   0.084   1.692  11.889 -0.4917  0.2042 -0.2274
 2362SOL    HW118545   0.031   1.615  11.908 -0.4840  0.6099  1.4504
 2362SOL    HW218546   0.063   1.743  11.967  1.1968  3.1647 -1.7032
 2363SOL     OW18547   0.191   2.076   2.862  0.5214  0.0104  0.1861
 2363SOL    HW118548   0.098   2.094   2.878  0.0354 -2.9100  0.6290
 2363SOL    HW218549   0.201   2.124   2.780  0.3698 -1.7113 -0.8326
 2364SOL     OW18550   0.899   3.522   8.118  0.8087  0.4689  0.0163
 2364SOL    HW118551   0.900   3.579   8.195  1.2935  1.4640 -0.7261
 2364SOL    HW218552   0.991   3.497   8.125  0.6979 -0.1159 -0.5696
 2365SOL     OW18553   4.148   1.715   7.279  0.1767 -0.5547  0.3326
 2365SOL    HW118554   4.097   1.773   7.222 -0.1481  1.2498  2.4781
 2365SOL    HW218555   4.201   1.675   7.211  2.8085 -0.8955  2.5990
 2366SOL     OW18556   0.645   3.656  16.433 -0.1005  0.1431  0.3521
 2366SOL    HW118557   0.683   3.571  16.455  0.9807  0.1822 -1.3320
 2366SOL    HW218558   0.632   3.657  16.338 -0.1179  0.2699  0.3570
 2367SOL     OW18559   3.276   0.823  13.731  0.4034  0.2608 -0.6793
 2367SOL    HW118560   3.319   0.744  13.764 -1.8090 -0.6542 -0.0146
 2367SOL    HW218561   3.295   0.896  13.789 -0.0288  0.1527 -0.4075
 2368SOL     OW18562   2.634   1.383   4.849  0.3172 -0.0511  0.1085
 2368SOL    HW118563   2.654   1.473   4.873  0.4097 -0.0866  0.1651
 2368SOL    HW218564   2.632   1.340   4.935  0.0857 -0.0432  0.1082
 2369SOL     OW18565   3.447   1.289  11.157  0.0745 -0.1442  0.0024
 2369SOL    HW118566   3.363   1.326  11.183  0.5247  1.2954 -0.5329
 2369SOL    HW218567   3.474   1.234  11.231 -2.1183 -0.9988  0.1503
 2370SOL     OW18568   0.753   4.616   5.518 -0.3418  0.6371  0.2254
 2370SOL    HW118569   0.805   4.644   5.593  2.3698  1.1242 -1.8739
 2370SOL    HW218570   0.785   4.674   5.450 -1.7801  0.1935 -0.8363
 2371SOL     OW18571   2.727   3.985   4.046 -0.1106 -0.1475  0.3026
 2371SOL    HW118572   2.663   4.023   3.987 -0.4039 -1.3697 -0.1692
 2371SOL    HW218573   2.787   3.960   3.976  0.1416 -1.0674  0.8394
 2372SOL     OW18574   3.903   2.019  10.707 -0.0131  0.1379  0.3585
 2372SOL    HW118575   3.882   2.096  10.655  2.5398  0.8805  0.4380
 2372SOL    HW218576   3.922   2.070  10.786  2.0647  0.7177 -0.4981
 2373SOL     OW18577   0.231   3.834   1.187  0.0099  0.5249 -0.2767
 2373SOL    HW118578   0.277   3.893   1.246  0.8327 -0.2417 -0.1428
 2373SOL    HW218579   0.299   3.768   1.168 -1.1635 -0.3390 -1.4984
 2374SOL     OW18580   0.416   2.986  17.306  0.0626 -0.1576  0.4046
 2374SOL    HW118581   0.508   3.001  17.283 -0.3473 -0.0143 -1.1505
 2374SOL    HW218582   0.389   3.073  17.335 -0.1918  0.3539 -1.3668
 2375SOL     OW18583   2.145   4.714  15.288  0.0642 -0.1200  0.4911
 2375SOL    HW118584   2.226   4.718  15.236  0.3025  1.8480  1.0398
 2375SOL    HW218585   2.120   0.082  15.296 -1.3626 -0.3615 -1.1708
 2376SOL     OW18586   4.475   2.476  14.552  0.1065 -0.0037 -0.0054
 2376SOL    HW118587   4.495   2.498  14.643 -1.1365 -0.9302  0.4930
 2376SOL    HW218588   4.400   2.417  14.566 -2.0522  1.9302 -3.2811
 2377SOL     OW18589   1.335   1.084   4.062 -0.2616  0.3127 -0.0467
 2377SOL    HW118590   1.362   1.158   4.008  0.3528  0.0624 -0.0934
 2377SOL    HW218591   1.359   1.006   4.011 -3.7163 -1.4490  0.9899
 2378SOL     OW18592   0.796   3.851   4.831 -0.1046 -0.4301  0.2328
 2378SOL    HW118593   0.787   3.914   4.760 -3.7472 -0.8440  0.2878
 2378SOL    HW218594   0.707   3.844   4.866  0.1004 -0.1211  0.8042
 2379SOL     OW18595   4.550   4.412   3.786  0.4574  0.0255  0.2586
 2379SOL    HW118596   4.607   4.455   3.849  0.6772  1.3934 -0.8836
 2379SOL    HW218597   4.464   4.450   3.806  1.0639  1.9250 -0.8571
 2380SOL     OW18598   4.193   4.160   1.442 -0.2423  0.0325 -0.1615
 2380SOL    HW118599   4.187   4.207   1.359  2.3790  0.7220  0.0390
 2380SOL    HW218600   4.114   4.106   1.449  0.0220 -0.4584 -0.9616
 2381SOL     OW18601   1.662   3.851  13.368 -0.0015 -0.4269  0.3014
 2381SOL    HW118602   1.608   3.930  13.372  1.0272  0.2872  0.0919
 2381SOL    HW218603   1.619   3.821  13.288 -1.9310 -0.3080  1.3106
 2382SOL     OW18604   3.259   2.667   7.553 -0.1997 -0.4016 -0.6323
 2382SOL    HW118605   3.342   2.625   7.528 -0.3704 -1.2165  0.1868
 2382SOL    HW218606   3.211   2.624   7.482 -0.8290 -0.6753 -0.0334
 2383SOL     OW18607   3.415   2.070   4.467  0.2055  0.3068  0.5426
 2383SOL    HW118608   3.356   2.140   4.494 -0.7585  0.6273 -2.4227
 2383SOL    HW218609   3.489   2.085   4.526  0.8933  1.0106 -0.4903
 2384SOL     OW18610   3.956   0.672   7.162  0.3545  0.8600  0.0753
 2384SOL    HW118611   4.014   0.689   7.088  0.4095  1.8818  0.3471
 2384SOL    HW218612   3.928   0.759   7.189 -1.5757 -0.6746  3.0737
 2385SOL     OW18613   4.081   0.292   0.749 -0.6902  0.0190  0.2519
 2385SOL    HW118614   4.131   0.247   0.681 -0.4970 -0.6935  0.8571
 2385SOL    HW218615   4.104   0.383   0.730 -1.8509 -0.0919 -1.6646
 2386SOL     OW18616   4.219   2.058   6.140  0.3613 -0.0688 -0.6303
 2386SOL    HW118617   4.288   2.035   6.077 -1.4021  0.1813 -2.6423
 2386SOL    HW218618   4.141   2.066   6.086 -0.6085 -1.1555  0.6050
 2387SOL     OW18619   3.657   4.613   6.135 -0.1173 -0.2854 -0.4112
 2387SOL    HW118620   3.729   4.675   6.136 -1.2232  0.9673  0.6331
 2387SOL    HW218621   3.703   4.532   6.157  2.7032  2.1845  2.7146
 2388SOL     OW18622   3.055   4.414   2.360  0.5655 -0.4875 -0.2967
 2388SOL    HW118623   3.063   4.375   2.447  0.7315 -1.6727 -0.8507
 2388SOL    HW218624   2.977   4.370   2.328 -0.6285  1.5049 -0.1619
 2389SOL     OW18625   0.086   3.157  10.371 -0.6186 -0.4873 -0.1584
 2389SOL    HW118626   0.107   3.065  10.385  0.7812 -0.1751 -0.2347
 2389SOL    HW218627   0.147   3.175  10.300 -0.0341  1.0901  0.7367
 2390SOL     OW18628   2.619   0.282  16.275  0.1665 -0.5850  0.0547
 2390SOL    HW118629   2.573   0.260  16.356  0.0050 -1.2722 -0.2202
 2390SOL    HW218630   2.589   0.372  16.281  0.8525 -0.3618  0.1336
 2391SOL     OW18631   1.786   1.669  11.548  0.0878 -0.1528  0.2835
 2391SOL    HW118632   1.772   1.728  11.474 -0.1210 -0.5345  0.0126
 2391SOL    HW218633   1.881   1.664  11.549  0.0565 -0.5755  1.0751
 2392SOL     OW18634   2.521   0.082   8.823  0.0416  0.0758 -0.1984
 2392SOL    HW118635   2.443   0.122   8.860 -1.2037 -1.9337 -0.6754
 2392SOL    HW218636   2.535   0.012   8.887 -2.9069 -0.9637 -0.6762
 2393SOL     OW18637   2.444   1.753   2.538  0.2856  0.4912  0.1302
 2393SOL    HW118638   2.382   1.700   2.487 -0.1497  0.2182  0.9422
 2393SOL    HW218639   2.456   1.700   2.617 -1.5462 -0.0110  0.0859
 2394SOL     OW18640   3.696   3.216   7.861  0.5026  0.3875  0.0767
 2394SOL    HW118641   3.748   3.269   7.922  0.1636 -0.0402  0.7391
 2394SOL    HW218642   3.770   3.181   7.811  0.2070 -1.5165  0.9995
 2395SOL     OW18643   1.007   1.529   8.151 -0.1958  0.2328  0.1478
 2395SOL    HW118644   1.045   1.489   8.229  3.1385 -0.9468 -2.0690
 2395SOL    HW218645   1.043   1.482   8.076  0.6438  2.0282 -0.5575
 2396SOL     OW18646   3.866   2.648   4.621 -0.1756  0.0411 -0.3603
 2396SOL    HW118647   3.913   2.618   4.699  1.7015 -1.9319 -2.2498
 2396SOL    HW218648   3.776   2.625   4.645  0.3428 -2.1982 -0.5410
 2397SOL     OW18649   4.050   0.932   6.791 -0.1354 -0.4578  0.2992
 2397SOL    HW118650   3.957   0.935   6.766  0.3645  0.9268 -1.4094
 2397SOL    HW218651   4.095   0.889   6.719  0.4621 -0.1457  0.4846
 2398SOL     OW18652   1.125   1.924  17.528 -0.3597  0.4692 -0.5365
 2398SOL    HW118653   1.206   1.885  17.497 -0.4293  0.5838 -0.8594
 2398SOL    HW218654   1.145   1.931  17.622 -0.1874 -3.0320 -0.2848
 2399SOL     OW18655   1.488   3.055   4.114 -0.1072 -0.5089 -0.1439
 2399SOL    HW118656   1.403   3.092   4.135 -1.0210 -2.5907 -0.2069
 2399SOL    HW218657   1.501   3.020   4.202  2.0760 -0.2170 -0.3289
 2400SOL     OW18658   0.073   0.369   7.145  0.2689  0.1343 -0.1503
 2400SOL    HW118659   0.107   0.280   7.155  2.4530  1.0017 -0.0116
 2400SOL    HW218660   0.001   0.371   7.209  1.1377  0.1704  0.8174
 2401SOL     OW18661   4.068   0.025   1.276 -0.2016  0.5049  0.2950
 2401SOL    HW118662   4.137   4.683   1.286  0.1310  0.8341  0.1721
 2401SOL    HW218663   4.104   0.097   1.328  1.2150  0.3108 -0.4300
 2402SOL     OW18664   0.019   4.252  16.137  0.2154  0.1711  0.2330
 2402SOL    HW118665   4.703   4.331  16.102  0.5396 -0.2270 -1.0242
 2402SOL    HW218666   4.694   4.194  16.078 -0.7179  0.5349  0.6530
 2403SOL     OW18667   3.934   1.750   5.618 -0.1937 -0.1014  0.0096
 2403SOL    HW118668   4.001   1.756   5.687 -0.9985 -1.5049  0.9277
 2403SOL    HW218669   3.968   1.806   5.549 -0.5022  1.1771  0.8994
 2404SOL     OW18670   3.061   0.152  14.455 -0.2525  0.5713 -0.0677
 2404SOL    HW118671   3.045   0.064  14.491  1.1311  0.7544  0.9574
 2404SOL    HW218672   3.004   0.205  14.511 -0.0626  0.0843  0.5770
 2405SOL     OW18673   2.838   3.980   8.830 -0.7094  0.4163  0.5900
 2405SOL    HW118674   2.834   4.031   8.911 -1.5120  0.2768  0.6356
 2405SOL    HW218675   2.904   4.028   8.779  0.8981 -0.1140  2.1961
 2406SOL     OW18676   3.406   1.452   4.699  0.0338 -0.6067  0.5861
 2406SOL    HW118677   3.417   1.483   4.608 -4.3027  0.8092  0.5347
 2406SOL    HW218678   3.490   1.405   4.704 -0.4971 -1.3354  2.3351
 2407SOL     OW18679   0.882   0.989   1.122  0.0504  0.3585  0.2905
 2407SOL    HW118680   0.881   1.084   1.104  1.8360  0.7630  2.3638
 2407SOL    HW218681   0.837   0.954   1.045 -0.3896 -1.2699  1.3112
 2408SOL     OW18682   1.279   3.462   4.903 -0.3996 -0.1495  0.0375
 2408SOL    HW118683   1.185   3.476   4.912 -0.5726 -1.2174 -0.1944
 2408SOL    HW218684   1.291   3.409   4.982  2.5185  0.0189 -0.2931
 2409SOL     OW18685   1.075   0.206  11.636 -0.0246  0.4589  0.6983
 2409SOL    HW118686   1.148   0.160  11.596 -0.7084 -0.7105  0.7872
 2409SOL    HW218687   1.036   0.124  11.667 -0.9241  0.5929 -0.0892
 2410SOL     OW18688   0.932   3.010   7.475  1.1077 -0.2339 -0.0714
 2410SOL    HW118689   0.914   3.039   7.564  1.6645 -0.1513  0.0125
 2410SOL    HW218690   0.974   3.090   7.441  0.2180 -0.1879 -1.0708
 2411SOL     OW18691   3.003   1.494   2.265 -0.5472  0.3864  0.3439
 2411SOL    HW118692   3.096   1.486   2.284  0.1584 -2.3367 -4.4275
 2411SOL    HW218693   2.996   1.570   2.207 -1.7990 -0.6126 -0.8028
 2412SOL     OW18694   0.339   0.535   1.879 -0.0034 -0.3252 -0.3205
 2412SOL    HW118695   0.283   0.585   1.938  2.2757 -1.9995  3.3097
 2412SOL    HW218696   0.286   0.461   1.850  0.7137  0.4564 -3.5756
 2413SOL     OW18697   0.428   1.472  11.678 -0.1605  0.3852  0.3164
 2413SOL    HW118698   0.452   1.383  11.703 -1.1315 -0.3643 -1.4529
 2413SOL    HW218699   0.420   1.505  11.767  0.9853  1.3609  0.0622
 2414SOL     OW18700   0.077   3.141  14.764  0.6770  0.3483  0.2011
 2414SOL    HW118701   0.047   3.210  14.704 -1.6268  0.7547  1.8300
 2414SOL    HW218702   4.717   3.111  14.800  0.5728  0.1173 -0.2316
 2415SOL     OW18703   2.912   3.589   2.890  0.0698  0.0787  0.3711
 2415SOL    HW118704   2.818   3.603   2.901  0.1907 -0.2534  1.7568
 2415SOL    HW218705   2.911   3.509   2.837  0.8181  0.5913 -0.4219
 2416SOL     OW18706   0.385   0.695   0.750  0.0718  0.3196  0.6238
 2416SOL    HW118707   0.444   0.771   0.751 -0.7255  0.9538 -0.8420
 2416SOL    HW218708   0.300   0.732   0.771 -1.4656 -2.4248 -0.7890
 2417SOL     OW18709   3.743   3.859  15.386  0.4173 -0.0443  0.4306
 2417SOL    HW118710   3.821   3.827  15.341  0.3284 -0.3441  0.4845
 2417SOL    HW218711   3.700   3.903  15.312 -0.6523 -1.4268  0.2312
 2418SOL     OW18712   4.665   4.085  11.195 -0.1826  0.1369  0.3936
 2418SOL    HW118713   4.706   4.110  11.278 -3.5217  0.7482  1.8546
 2418SOL    HW218714   4.577   4.121  11.202  0.0472  0.4521  1.6392
 2419SOL     OW18715   2.347   3.784  14.499  0.5451  0.4396 -0.1777
 2419SOL    HW118716   2.374   3.762  14.588  0.4927  1.1013  0.0080
 2419SOL    HW218717   2.254   3.805  14.506  0.6259  0.1950  1.6139
 2420SOL     OW18718   1.889   0.123   6.669  0.3388 -0.4836 -0.0341
 2420SOL    HW118719   1.855   0.177   6.597 -2.1653  0.5969  1.9482
 2420SOL    HW218720   1.858   0.176   6.743  2.0832  1.5474 -0.7346
 2421SOL     OW18721   0.606   0.463   1.976 -0.4380 -0.4667 -0.4029
 2421SOL    HW118722   0.663   0.422   1.911 -1.8224 -3.0152 -0.0348
 2421SOL    HW218723   0.531   0.490   1.923 -0.3208 -0.4086 -0.5381
 2422SOL     OW18724   1.199   0.322   9.230 -0.3810  0.5364 -0.4061
 2422SOL    HW118725   1.200   0.350   9.321  0.3068 -0.1479 -0.1988
 2422SOL    HW218726   1.240   0.238   9.250 -2.1318 -0.1725  0.2131
 2423SOL     OW18727   0.031   2.021  14.561  0.3379  0.1140  0.0744
 2423SOL    HW118728   0.056   1.991  14.648  1.8516 -0.0846 -0.4371
 2423SOL    HW218729   0.034   2.116  14.575  2.9226  0.2066 -1.2793
 2424SOL     OW18730   3.947   1.623   4.309 -0.2323  0.3447  0.0943
 2424SOL    HW118731   4.012   1.553   4.300 -2.4967 -1.6990 -0.2167
 2424SOL    HW218732   4.001   1.697   4.280  0.9493 -0.7447 -0.4858
 2425SOL     OW18733   0.123   3.505   6.872 -0.2547 -0.1186  0.2337
 2425SOL    HW118734   0.090   3.593   6.855  0.4186  0.0901  0.0112
 2425SOL    HW218735   0.141   3.511   6.966  2.1776  0.9514 -0.2899
 2426SOL     OW18736   4.312   1.378   6.500 -0.0044  0.0259  0.1934
 2426SOL    HW118737   4.258   1.392   6.579  0.0860 -0.3150  0.3150
 2426SOL    HW218738   4.268   1.438   6.439 -1.3009  2.3379  3.3715
 2427SOL     OW18739   2.010   4.492   8.474 -0.5593 -0.0768  0.0732
 2427SOL    HW118740   2.010   4.447   8.558 -2.1011 -2.6360 -1.3067
 2427SOL    HW218741   2.078   4.446   8.425 -2.5937 -4.2374  1.1468
 2428SOL     OW18742   0.477   3.860  15.602 -0.1627 -0.2709 -0.1905
 2428SOL    HW118743   0.461   3.945  15.641  1.2810 -0.4936  0.8968
 2428SOL    HW218744   0.524   3.883  15.522  2.3892 -2.8306  0.5635
 2429SOL     OW18745   1.211   0.156   1.752 -0.2595  0.1994 -0.2895
 2429SOL    HW118746   1.131   0.103   1.754 -0.6760  0.8539  0.6646
 2429SOL    HW218747   1.274   0.084   1.741 -1.1104 -0.5833 -0.0922
 2430SOL     OW18748   2.184   2.070  11.364  0.3618 -0.2727 -0.0029
 2430SOL    HW118749   2.122   2.050  11.435 -0.2863  1.2078 -0.1540
 2430SOL    HW218750   2.239   1.993  11.355 -0.9913 -0.8161 -3.3157
 2431SOL     OW18751   2.714   1.359   4.180  0.1618 -0.5706 -0.3397
 2431SOL    HW118752   2.719   1.269   4.148  0.3356 -0.7424  0.1744
 2431SOL    HW218753   2.776   1.364   4.252  0.3372  0.7739 -0.5703
 2432SOL     OW18754   1.851   3.847   0.427  0.1187  0.4483  0.2051
 2432SOL    HW118755   1.813   3.841   0.515  1.5586 -0.7805  0.7469
 2432SOL    HW218756   1.770   3.877   0.387 -0.1145  0.0878  0.4016
 2433SOL     OW18757   1.328   1.464   7.333 -0.0141 -0.4185  0.2842
 2433SOL    HW118758   1.362   1.545   7.297  0.0165 -0.2096  0.7940
 2433SOL    HW218759   1.362   1.393   7.278  0.4451 -2.0051  2.6254
 2434SOL     OW18760   2.040   3.643   0.356 -0.0006  0.0074  0.4732
 2434SOL    HW118761   1.979   3.715   0.372  0.7895  1.0618 -1.2282
 2434SOL    HW218762   1.988   3.564   0.366  0.6037 -0.8865 -3.3850
 2435SOL     OW18763   4.546   4.192   4.463 -0.6351  0.3110 -0.3501
 2435SOL    HW118764   4.547   4.124   4.530  1.7964  1.4386  0.7526
 2435SOL    HW218765   4.583   4.144   4.389 -0.5657  0.1524 -0.2142
 2436SOL     OW18766   1.100   1.205  15.653 -0.2352 -0.2973  0.2889
 2436SOL    HW118767   1.070   1.295  15.641  0.7544  0.0663  0.5293
 2436SOL    HW218768   1.052   1.169  15.579  0.4286  0.2346 -0.4033
 2437SOL     OW18769   3.317   2.772   1.435 -0.3579  0.5169 -0.1332
 2437SOL    HW118770   3.371   2.719   1.494  0.6583  0.1757 -1.3643
 2437SOL    HW218771   3.304   2.714   1.360  2.1185 -0.4411  0.1940
 2438SOL     OW18772   3.306   3.028   1.470  0.7917  0.7100 -0.6756
 2438SOL    HW118773   3.235   3.050   1.409 -1.0672  0.4215  1.3667
 2438SOL    HW218774   3.318   2.933   1.461 -2.1181  0.0259  2.3700
 2439SOL     OW18775   1.667   3.010   7.896 -0.2024 -0.4143  0.5834
 2439SOL    HW118776   1.597   2.954   7.927 -0.9619  0.0757 -0.2323
 2439SOL    HW218777   1.674   3.077   7.964 -1.1969 -1.2902  1.5359
 2440SOL     OW18778   4.422   3.572   5.537  0.7115 -0.0014  0.2332
 2440SOL    HW118779   4.350   3.567   5.474 -0.5297  1.5261  1.5422
 2440SOL    HW218780   4.382   3.622   5.608  0.8828 -0.8238  0.9015
 2441SOL     OW18781   0.073   2.571   1.232 -0.3777  0.1594 -0.1156
 2441SOL    HW118782   0.070   2.617   1.149  0.5318 -0.1687 -0.3307
 2441SOL    HW218783   4.707   2.538   1.241  0.1302 -0.6647  1.8647
 2442SOL     OW18784   4.689   3.715   3.719  0.4014 -0.4509 -0.1064
 2442SOL    HW118785   4.721   3.775   3.652  0.8291 -0.3695  0.1727
 2442SOL    HW218786   4.637   3.654   3.667 -0.9651  1.3888 -0.9109
 2443SOL     OW18787   4.131   2.104  11.763  0.2610 -0.3783 -0.2439
 2443SOL    HW118788   4.148   2.069  11.850  1.5888  0.7504 -0.0440
 2443SOL    HW218789   4.087   2.027  11.728 -1.0884  0.4405 -0.3173
 2444SOL     OW18790   1.309   2.626  15.233 -0.1385  0.3902  0.5597
 2444SOL    HW118791   1.253   2.642  15.157  0.5426 -0.2378 -0.0762
 2444SOL    HW218792   1.249   2.641  15.306  0.0619  0.7201  0.6591
 2445SOL     OW18793   1.584   0.213   9.036  0.2221  0.2530 -0.2854
 2445SOL    HW118794   1.670   0.229   8.997  1.7393 -1.5127  2.3067
 2445SOL    HW218795   1.550   0.178   8.954 -4.3231  1.1930  1.2108
 2446SOL     OW18796   0.598   0.575   7.127 -0.2459 -0.7404  0.5693
 2446SOL    HW118797   0.566   0.524   7.052 -0.0747  0.1470 -0.0989
 2446SOL    HW218798   0.557   0.524   7.197 -0.6407 -0.2166  0.7163
 2447SOL     OW18799   4.412   4.278   2.908  0.3464  0.2846 -0.2736
 2447SOL    HW118800   4.347   4.229   2.957  0.4912  0.2279 -0.1380
 2447SOL    HW218801   4.484   4.215   2.906 -1.6965 -2.0537  0.0858
 2448SOL     OW18802   1.437   1.434  12.042  0.4735  0.1886 -0.5165
 2448SOL    HW118803   1.492   1.440  11.964  0.1993 -0.7653 -0.7810
 2448SOL    HW218804   1.490   1.371  12.092  1.7892 -1.4686 -4.0283
 2449SOL     OW18805   3.062   1.263   8.115 -0.1093  0.0928 -0.8386
 2449SOL    HW118806   2.990   1.203   8.096  0.8540 -1.3555  0.0716
 2449SOL    HW218807   3.076   1.232   8.205  1.6409  0.4867 -0.9730
 2450SOL     OW18808   3.278   2.867   9.908  0.1639  0.3474 -0.0559
 2450SOL    HW118809   3.244   2.859   9.819 -2.0246  0.5696  0.7374
 2450SOL    HW218810   3.238   2.945   9.946  1.4860 -0.0374  2.1308
 2451SOL     OW18811   0.180   0.482   4.851 -0.3810 -0.0371 -0.7805
 2451SOL    HW118812   0.162   0.511   4.941  0.8310 -1.5254 -0.0567
 2451SOL    HW218813   0.094   0.491   4.810  0.1377 -0.6687 -1.9955
 2452SOL     OW18814   1.109   2.397   4.075  0.6526  0.5371 -0.3894
 2452SOL    HW118815   1.133   2.307   4.100 -0.5306  0.4971  0.6264
 2452SOL    HW218816   1.185   2.429   4.026  0.2717 -0.3699 -1.5612
 2453SOL     OW18817   1.471   0.434   3.057  0.0190 -0.1306 -0.5967
 2453SOL    HW118818   1.428   0.518   3.046  0.1037 -0.3772 -2.8266
 2453SOL    HW218819   1.496   0.410   2.967 -1.2677 -0.5323 -0.8513
 2454SOL     OW18820   3.313   2.487   2.997  0.5005 -0.0997 -0.1532
 2454SOL    HW118821   3.337   2.428   2.925 -0.4508  0.6328 -1.0680
 2454SOL    HW218822   3.390   2.544   2.996 -0.2434  0.9089  0.8922
 2455SOL     OW18823   1.802   3.373   3.769  0.7093 -0.1678  0.4338
 2455SOL    HW118824   1.814   3.413   3.855 -2.7006  2.3519 -0.2514
 2455SOL    HW218825   1.821   3.444   3.708 -1.0366  0.4790  0.6499
 2456SOL     OW18826   3.037   4.107  11.707  0.3891  0.3450  0.5927
 2456SOL    HW118827   2.961   4.135  11.758 -1.0866 -0.4968 -1.1404
 2456SOL    HW218828   3.000   4.076  11.625 -1.5281  1.7346  0.9521
 2457SOL     OW18829   0.223   2.300   1.922  0.2315 -0.1714  0.2529
 2457SOL    HW118830   0.150   2.248   1.889 -2.0278  0.7054  3.8652
 2457SOL    HW218831   0.296   2.239   1.918  0.0281 -0.3711 -0.4238
 2458SOL     OW18832   0.993   4.031   2.870  0.2178  0.2578  0.6394
 2458SOL    HW118833   1.030   4.049   2.957  1.0757  0.0795  0.3114
 2458SOL    HW218834   0.951   3.948   2.894 -0.5832  0.5049  0.0822
 2459SOL     OW18835   1.661   2.876   8.835  0.6935 -0.3138 -0.4631
 2459SOL    HW118836   1.669   2.821   8.913  1.6226  0.1983 -0.1976
 2459SOL    HW218837   1.688   2.811   8.771 -0.0834 -0.5630 -0.5391
 2460SOL     OW18838   4.181   3.867  13.664  0.4560 -0.6846 -0.0914
 2460SOL    HW118839   4.265   3.864  13.617 -0.3300 -0.1985 -1.5362
 2460SOL    HW218840   4.134   3.929  13.608 -1.3487 -0.0772  2.1309
 2461SOL     OW18841   3.405   2.824  17.149 -0.4814 -0.0229  0.6750
 2461SOL    HW118842   3.492   2.849  17.116 -1.0937  1.5360  0.2345
 2461SOL    HW218843   3.413   2.748  17.207 -0.4209 -0.0042  0.6914
 2462SOL     OW18844   0.648   0.313   6.735  0.3761 -0.6809  0.3337
 2462SOL    HW118845   0.553   0.312   6.740  0.3745  1.3306  0.6186
 2462SOL    HW218846   0.659   0.329   6.642  0.9940 -2.3914  0.1110
 2463SOL     OW18847   2.157   1.281   2.638 -0.1043  0.1376 -0.3559
 2463SOL    HW118848   2.093   1.302   2.706 -0.8622  1.3861 -1.4387
 2463SOL    HW218849   2.100   1.270   2.561  0.1953 -4.2751  0.0269
 2464SOL     OW18850   2.026   3.203  16.025 -0.8536 -0.1236  0.4006
 2464SOL    HW118851   2.105   3.149  16.020 -0.6433  0.0240  2.0722
 2464SOL    HW218852   2.047   3.273  15.963  0.3077 -0.9733 -0.1650
 2465SOL     OW18853   2.165   1.185  17.185  0.1342 -0.1633 -0.2850
 2465SOL    HW118854   2.092   1.147  17.135 -2.2804  0.2321  2.9687
 2465SOL    HW218855   2.242   1.159  17.134  0.3518  1.0865 -0.5989
 2466SOL     OW18856   1.570   2.259  11.500 -0.1938 -0.0168 -0.1533
 2466SOL    HW118857   1.603   2.326  11.561 -0.8765 -0.0221  0.2163
 2466SOL    HW218858   1.526   2.201  11.562  0.4761  2.0407  2.2783
 2467SOL     OW18859   1.282   2.988  15.900 -0.5915  0.1535  0.1839
 2467SOL    HW118860   1.326   3.037  15.831 -0.2910  1.9923  1.6918
 2467SOL    HW218861   1.299   2.898  15.872 -1.6153 -0.1664  0.5909
 2468SOL     OW18862   3.111   2.576   3.782  0.2683 -0.1023  0.4311
 2468SOL    HW118863   3.119   2.624   3.699 -1.9046  1.7650  1.3147
 2468SOL    HW218864   3.116   2.650   3.842 -1.5582  1.4205 -1.2894
 2469SOL     OW18865   3.763   0.714   0.421  0.6352  0.0532 -0.2031
 2469SOL    HW118866   3.722   0.767   0.489  1.7656  0.3423  0.2488
 2469SOL    HW218867   3.851   0.753   0.422  1.3756 -1.6259 -0.3084
 2470SOL     OW18868   3.344   0.794   6.486 -0.1442  0.7518 -0.7039
 2470SOL    HW118869   3.252   0.791   6.460 -0.1163 -2.2195 -0.4312
 2470SOL    HW218870   3.351   0.715   6.540  0.1176 -0.2661 -2.2353
 2471SOL     OW18871   2.783   2.205   3.450 -0.0598  0.5219  0.0178
 2471SOL    HW118872   2.857   2.250   3.490  1.0065 -0.0948 -1.2415
 2471SOL    HW218873   2.772   2.134   3.514 -1.0909  0.4463 -0.2371
 2472SOL     OW18874   1.287   1.833   6.715 -0.0100 -0.3666 -0.4522
 2472SOL    HW118875   1.238   1.845   6.633 -2.2461 -2.7340  0.5284
 2472SOL    HW218876   1.277   1.738   6.723  2.7213 -0.4268  1.8538
 2473SOL     OW18877   1.397   2.707   2.208 -0.4522  0.0837 -0.0356
 2473SOL    HW118878   1.308   2.701   2.241 -0.2120  0.2659  0.6366
 2473SOL    HW218879   1.378   2.767   2.136 -0.4477  0.0773 -0.0422
 2474SOL     OW18880   1.243   0.995   4.307 -0.3128  0.1563  0.0102
 2474SOL    HW118881   1.151   0.969   4.295 -0.5748  0.6145  0.9890
 2474SOL    HW218882   1.263   1.035   4.222  1.2901  2.1444  1.3470
 2475SOL     OW18883   2.862   2.494   9.389  0.1990 -0.1526 -0.9463
 2475SOL    HW118884   2.901   2.579   9.368 -1.0979  1.3129  2.6091
 2475SOL    HW218885   2.896   2.434   9.323  0.4248 -1.8067  0.6905
 2476SOL     OW18886   2.256   4.380   8.349 -0.5198 -0.1529  0.1790
 2476SOL    HW118887   2.308   4.411   8.423 -0.2242 -1.4159  0.4957
 2476SOL    HW218888   2.271   4.286   8.361  2.9854  0.5998  1.6836
 2477SOL     OW18889   1.232   3.478   5.705  0.2686  0.7010  0.0226
 2477SOL    HW118890   1.181   3.528   5.640 -0.5555 -0.8924 -0.5454
 2477SOL    HW218891   1.286   3.421   5.651  0.2228  0.3199  0.3847
 2478SOL     OW18892   0.649   4.090   1.221  0.6132  0.2868  0.1095
 2478SOL    HW118893   0.699   4.148   1.278 -0.7858  0.7801  0.8436
 2478SOL    HW218894   0.710   4.016   1.223 -0.5309 -0.6661 -0.0344
 2479SOL     OW18895   1.632   2.154   7.822 -0.0352  0.0115 -0.2724
 2479SOL    HW118896   1.582   2.160   7.741 -2.9108 -3.1621  1.2861
 2479SOL    HW218897   1.579   2.209   7.879 -1.5101 -0.1353 -1.5135
 2480SOL     OW18898   1.817   0.899  12.103 -0.2668  0.0775  0.1904
 2480SOL    HW118899   1.758   0.832  12.068  2.2339 -0.9403 -2.0735
 2480SOL    HW218900   1.796   0.979  12.054 -0.3668 -1.0274 -1.5583
 2481SOL     OW18901   0.405   2.603  15.118 -0.2992 -0.2266 -0.1511
 2481SOL    HW118902   0.498   2.582  15.120 -0.2028  0.4320  3.0313
 2481SOL    HW218903   0.400   2.647  15.034 -2.6113  0.5202  0.3755
 2482SOL     OW18904   0.266   0.454  12.238 -0.1727 -0.0685 -0.3197
 2482SOL    HW118905   0.228   0.397  12.305 -0.5074  0.2244 -0.2631
 2482SOL    HW218906   0.358   0.437  12.258 -0.1502  0.1553 -0.2306
 2483SOL     OW18907   0.524   4.305   9.175 -0.3341 -0.2383  0.7684
 2483SOL    HW118908   0.449   4.264   9.134  0.7736  0.1459 -1.6517
 2483SOL    HW218909   0.497   4.330   9.263 -1.8439  2.3404 -0.4221
 2484SOL     OW18910   3.149   4.399   5.375  0.3344 -0.4634  0.1253
 2484SOL    HW118911   3.187   4.425   5.291  0.0166  0.3101  0.2248
 2484SOL    HW218912   3.096   4.478   5.386  0.8123 -0.1002 -0.2003
 2485SOL     OW18913   4.077   4.090   2.403 -0.0951 -0.8254  0.0342
 2485SOL    HW118914   4.025   4.130   2.333  0.4629 -1.2483 -0.6210
 2485SOL    HW218915   4.042   4.140   2.477 -0.3320 -0.6779 -0.1793
 2486SOL     OW18916   0.926   1.243   0.854 -0.1287  0.4648 -0.5540
 2486SOL    HW118917   0.922   1.262   0.760  0.9433  0.2475 -0.6375
 2486SOL    HW218918   0.922   1.148   0.859 -0.6142  0.6085  1.9229
 2487SOL     OW18919   2.100   4.534   3.507 -0.4450 -0.3150 -0.3045
 2487SOL    HW118920   2.095   4.482   3.587  0.9079  0.3126  0.1925
 2487SOL    HW218921   2.005   4.549   3.506 -0.3648  0.1929 -0.6098
 2488SOL     OW18922   1.634   4.700  15.498  0.3616  0.2891  0.2044
 2488SOL    HW118923   1.614   4.654  15.580 -1.5747 -0.5000 -0.7278
 2488SOL    HW218924   1.639   0.068  15.527  0.9626  0.3354 -0.0543
 2489SOL     OW18925   3.652   1.439   2.750 -0.3991  0.0284  0.3799
 2489SOL    HW118926   3.674   1.481   2.833 -1.6913 -1.8879  1.6743
 2489SOL    HW218927   3.655   1.345   2.763 -0.8903  0.0024  0.3159
 2490SOL     OW18928   4.257   2.984  15.883 -0.0261 -0.4500  0.2658
 2490SOL    HW118929   4.333   3.001  15.939 -0.2679 -2.3227  1.1457
 2490SOL    HW218930   4.183   3.022  15.930  1.6258  1.3850  1.3757
 2491SOL     OW18931   1.849   1.837  11.874 -0.2412 -0.1896 -0.1793
 2491SOL    HW118932   1.871   1.864  11.964  0.9567 -0.9479 -0.2437
 2491SOL    HW218933   1.755   1.850  11.887 -0.0400  0.7673  0.3680
 2492SOL     OW18934   0.528   2.386   2.039 -0.4386  0.5300  0.1989
 2492SOL    HW118935   0.606   2.385   2.094 -0.0602 -0.0936 -0.3439
 2492SOL    HW218936   0.476   2.443   2.095 -0.1754 -1.1970  2.2091
 2493SOL     OW18937   2.410   2.950   5.969 -0.0520 -0.0853  0.4634
 2493SOL    HW118938   2.456   2.890   5.910 -1.5436  0.2886 -1.0895
 2493SOL    HW218939   2.463   2.925   6.045 -0.1726 -2.1524 -0.1322
 2494SOL     OW18940   0.855   1.567  14.540 -0.0372 -0.2857  0.0320
 2494SOL    HW118941   0.908   1.567  14.461 -2.2917 -2.1514 -1.4816
 2494SOL    HW218942   0.818   1.655  14.538  3.6549  1.2376 -0.7256
 2495SOL     OW18943   0.036   1.646   7.435  0.1541  0.2064  0.3536
 2495SOL    HW118944   0.034   1.738   7.410 -1.2905 -1.2135 -4.6577
 2495SOL    HW218945   4.694   1.609   7.376 -2.9637  1.6653  2.9172
 2496SOL     OW18946   2.367   0.518   7.873  0.4773 -0.3419  0.1777
 2496SOL    HW118947   2.400   0.465   7.801 -0.4306  1.0965 -1.2835
 2496SOL    HW218948   2.384   0.446   7.934 -0.1007 -0.5102  0.1466
 2497SOL     OW18949   4.640   2.985   5.129  0.0263  0.1595 -0.4353
 2497SOL    HW118950   0.004   3.022   5.121  0.7701 -1.2012  1.1559
 2497SOL    HW218951   4.595   3.009   5.048 -1.1560 -0.3751  0.0487
 2498SOL     OW18952   1.049   2.123  11.635 -0.0823  0.0965  0.4686
 2498SOL    HW118953   0.999   2.150  11.713  0.5903 -0.2296  1.0151
 2498SOL    HW218954   1.078   2.035  11.662  2.5120  0.8479  0.1626
 2499SOL     OW18955   4.300   3.323   3.018  0.0497  0.2635 -0.3007
 2499SOL    HW118956   4.205   3.310   3.010 -0.2307  1.7763  0.4274
 2499SOL    HW218957   4.302   3.419   3.011  1.9110  0.3000  0.8027
 2500SOL     OW18958   0.362   4.283  14.023 -0.6598  0.2657  0.1329
 2500SOL    HW118959   0.390   4.283  13.931 -0.6878 -0.1861  0.1276
 2500SOL    HW218960   0.313   4.365  14.020 -0.8964  0.1312  0.3172
 2501SOL     OW18961   0.298   0.377   6.113  0.5387  0.3159 -0.1321
 2501SOL    HW118962   0.243   0.445   6.075  0.7769  0.0739 -0.8926
 2501SOL    HW218963   0.378   0.383   6.061  1.0243  1.8577  0.7780
 2502SOL     OW18964   1.585   2.442  14.239  0.8996  0.5551  0.5997
 2502SOL    HW118965   1.539   2.525  14.226  1.9205  1.4476  2.8272
 2502SOL    HW218966   1.509   2.393  14.269  0.2276  1.9822  1.2360
 2503SOL     OW18967   3.066   2.001   1.782  0.8214 -0.0246 -0.1907
 2503SOL    HW118968   3.003   2.013   1.853  1.5825  3.3831 -0.0964
 2503SOL    HW218969   3.146   1.975   1.829 -0.4503  0.3751  2.2214
 2504SOL     OW18970   1.949   0.301   3.255  0.3013 -0.2127  0.3560
 2504SOL    HW118971   1.918   0.223   3.209  0.3180 -0.1462  0.2328
 2504SOL    HW218972   1.879   0.361   3.233 -2.0720 -3.2728 -0.4332
 2505SOL     OW18973   0.585   0.086   6.395  0.4847  0.1144 -0.3454
 2505SOL    HW118974   0.507   0.080   6.450  0.8450 -0.1590  0.1301
 2505SOL    HW218975   0.595   0.181   6.402  0.9371  0.0594 -0.2727
 2506SOL     OW18976   3.466   2.846   2.347  0.0640 -0.0586  0.0897
 2506SOL    HW118977   3.555   2.855   2.379 -0.0192  0.4386  0.1753
 2506SOL    HW218978   3.421   2.876   2.427 -3.0377 -0.7173 -1.3876
 2507SOL     OW18979   0.451   0.400   7.472 -0.0430  0.3719 -0.0214
 2507SOL    HW118980   0.378   0.420   7.412  1.8161  1.9147 -1.7928
 2507SOL    HW218981   0.437   0.456   7.548 -0.7903  1.8873 -1.2778
 2508SOL     OW18982   0.202   0.017  16.466  0.1122 -0.4560  0.4904
 2508SOL    HW118983   0.133   4.675  16.470 -1.7144  1.6278  2.8802
 2508SOL    HW218984   0.263   4.721  16.537 -1.9416 -0.0095  2.3654
 2509SOL     OW18985   4.356   2.946   6.750  0.1018  0.2149  0.0098
 2509SOL    HW118986   4.341   2.864   6.797 -0.2881  0.3590  0.1346
 2509SOL    HW218987   4.403   2.923   6.670  0.7364 -1.4584  0.8672
 2510SOL     OW18988   3.826   1.266   1.620  0.2166 -0.2384  0.3248
 2510SOL    HW118989   3.742   1.220   1.615 -0.2973  0.6348  0.8976
 2510SOL    HW218990   3.863   1.229   1.540 -0.3018  2.1128 -0.9870
 2511SOL     OW18991   0.324   1.683  16.986 -0.1176  0.0074 -0.0948
 2511SOL    HW118992   0.283   1.643  17.063  0.3448  0.1723  0.2310
 2511SOL    HW218993   0.390   1.623  16.952  0.7346  1.3237 -0.7594
 2512SOL     OW18994   1.630   3.350   4.761 -0.0109 -0.4240 -0.1993
 2512SOL    HW118995   1.561   3.415   4.747  0.6661  0.2502 -0.4081
 2512SOL    HW218996   1.625   3.315   4.672 -0.4017 -2.7129  0.7219
 2513SOL     OW18997   1.816   4.614  11.826  0.0148 -0.2742  0.7035
 2513SOL    HW118998   1.799   4.620  11.920 -1.4364  0.9226  0.3655
 2513SOL    HW218999   1.765   4.688  11.792 -0.6910  0.4585  3.3347
 2514SOL     OW19000   0.581   3.994   3.466  0.8267 -0.2207 -0.4195
 2514SOL    HW119001   0.597   4.084   3.493  0.3444 -0.2834  0.0617
 2514SOL    HW219002   0.668   3.958   3.444  0.4966 -1.6663  0.6478
 2515SOL     OW19003   2.868   3.129   1.964  0.0643 -0.1352 -0.2490
 2515SOL    HW119004   2.839   3.126   1.873 -0.4355 -1.0036 -0.0635
 2515SOL    HW219005   2.816   3.061   2.007 -1.1078 -0.4532 -2.1658
 2516SOL     OW19006   3.978   1.707   6.825 -0.1325  0.2303 -0.5619
 2516SOL    HW119007   4.038   1.780   6.809  0.9808 -0.1436  1.9114
 2516SOL    HW219008   4.043   1.636   6.823 -0.7987 -0.4406  2.3609
 2517SOL     OW19009   4.544   2.556   1.829 -0.2774 -0.2118 -0.0213
 2517SOL    HW119010   4.589   2.577   1.912  2.5516  2.1421 -2.1219
 2517SOL    HW219011   4.537   2.461   1.833  0.2075 -0.2537 -0.0773
 2518SOL     OW19012   1.156   0.309   4.905 -0.4187  0.6354  0.1091
 2518SOL    HW119013   1.077   0.279   4.859 -1.0031  0.3936  1.2536
 2518SOL    HW219014   1.118   0.308   4.993 -0.2041 -2.0010  0.1756
 2519SOL     OW19015   3.159   2.295  12.261  0.0273  0.1505 -0.1046
 2519SOL    HW119016   3.227   2.268  12.200 -1.1500 -0.9157 -0.9631
 2519SOL    HW219017   3.103   2.219  12.274  0.8460 -0.4048  0.1394
 2520SOL     OW19018   3.349   0.944  11.955 -0.2535 -0.1617 -0.1859
 2520SOL    HW119019   3.441   0.939  11.982 -0.8524  1.8050  2.2510
 2520SOL    HW219020   3.353   0.944  11.860 -0.6622 -0.1793 -0.2022
 2521SOL     OW19021   4.612   0.089   4.196  0.2676  0.1086 -0.2298
 2521SOL    HW119022   4.557   0.165   4.175  1.7778  1.2037 -0.2236
 2521SOL    HW219023   4.559   0.013   4.171 -1.8294  0.5023  3.0445
 2522SOL     OW19024   1.049   4.685   6.784 -0.3123  0.1324  0.4215
 2522SOL    HW119025   1.051   4.589   6.776 -0.1987  0.0968  0.9006
 2522SOL    HW219026   1.143   4.693   6.799  0.2550 -2.9987 -1.4764
 2523SOL     OW19027   0.537   0.284  10.630 -0.1766  0.4913 -0.0322
 2523SOL    HW119028   0.626   0.251  10.640 -0.4167  0.3028  1.4729
 2523SOL    HW219029   0.526   0.242  10.545  0.8403 -1.1382  0.6534
 2524SOL     OW19030   2.939   3.955   1.978  0.4928 -0.1563 -0.2061
 2524SOL    HW119031   2.877   3.899   2.023 -0.1547 -0.4886 -1.5126
 2524SOL    HW219032   2.957   3.907   1.898 -0.9518  0.4382 -0.8914
 2525SOL     OW19033   2.016   4.214  17.580 -0.0666 -0.2473  0.4019
 2525SOL    HW119034   1.954   4.270  17.627 -0.0986  0.3280 -0.3372
 2525SOL    HW219035   2.046   4.157  17.651 -2.7237 -1.5746  0.4454
 2526SOL     OW19036   1.316   1.566   6.732 -0.3584  0.2846  0.2959
 2526SOL    HW119037   1.343   1.498   6.794  1.4442  0.9868  0.2901
 2526SOL    HW219038   1.368   1.541   6.655  1.1109 -1.4974  1.8798
 2527SOL     OW19039   2.259   2.555   5.352 -0.8787  0.0664 -0.2514
 2527SOL    HW119040   2.284   2.463   5.350 -1.8745 -0.3119  3.8410
 2527SOL    HW219041   2.227   2.571   5.263 -1.1116  1.2141  0.0382
 2528SOL     OW19042   3.852   3.580  15.404  0.0750 -0.6167  0.2852
 2528SOL    HW119043   3.937   3.565  15.363  0.2465 -0.0034  0.4163
 2528SOL    HW219044   3.869   3.581  15.498  1.1229  0.7560  0.0814
 2529SOL     OW19045   4.638   3.144  10.081  0.0876  0.3252 -0.0857
 2529SOL    HW119046   4.668   3.206  10.015 -1.1262  0.8725 -0.1301
 2529SOL    HW219047   0.002   3.119  10.111  0.0907 -0.4065 -0.7149
 2530SOL     OW19048   1.921   1.744   5.240  0.6134 -0.3093  0.0050
 2530SOL    HW119049   1.906   1.654   5.270  4.6727 -1.5019 -1.4341
 2530SOL    HW219050   1.918   1.737   5.144 -0.4624 -0.9008  0.0796
 2531SOL     OW19051   0.466   1.644   7.692 -0.6746  0.0696  0.5424
 2531SOL    HW119052   0.379   1.642   7.731 -0.8447  1.5969  0.2310
 2531SOL    HW219053   0.521   1.702   7.744  1.0368 -1.3545  0.3087
 2532SOL     OW19054   2.213   2.978  17.082 -0.8968 -0.5101 -0.0158
 2532SOL    HW119055   2.193   3.059  17.036 -1.4108 -0.7776 -0.2594
 2532SOL    HW219056   2.237   2.932  17.001 -0.3036 -0.8101  0.3248
 2533SOL     OW19057   1.712   4.436   3.732  0.2204 -0.3225  0.5596
 2533SOL    HW119058   1.751   4.485   3.660 -0.9584  0.8468  0.7160
 2533SOL    HW219059   1.630   4.478   3.758 -0.1691  0.3471 -1.7301
 2534SOL     OW19060   3.081   3.572   0.447 -0.2891  0.0174  0.5828
 2534SOL    HW119061   3.023   3.509   0.490 -1.3867  0.2984 -0.4941
 2534SOL    HW219062   3.076   3.644   0.511 -1.4977  0.3263  0.1460
 2535SOL     OW19063   1.934   1.675  13.349  0.0315 -0.0604 -0.2309
 2535SOL    HW119064   1.914   1.740  13.282 -0.4038 -0.7251 -0.7552
 2535SOL    HW219065   1.988   1.614  13.298  1.7845  1.9197 -0.7079
 2536SOL     OW19066   2.152   2.073   6.844 -0.7002 -0.2728  0.5226
 2536SOL    HW119067   2.101   2.130   6.786  0.3391 -1.3063 -1.4046
 2536SOL    HW219068   2.083   2.026   6.890 -0.3920  0.5305  1.8175
 2537SOL     OW19069   2.672   4.575   8.053  0.6501  0.8720  0.2061
 2537SOL    HW119070   2.763   4.602   8.041  0.8579 -0.2668 -0.8398
 2537SOL    HW219071   2.675   4.567   8.148  0.8063  1.7178  0.2682
 2538SOL     OW19072   1.283   3.171   2.351 -0.0182 -0.4082  0.5680
 2538SOL    HW119073   1.257   3.233   2.282 -1.3633 -2.1524 -0.5063
 2538SOL    HW219074   1.335   3.112   2.297  2.9950  0.6977  2.3172
 2539SOL     OW19075   3.329   2.239  13.404  0.4024  0.0055 -0.5441
 2539SOL    HW119076   3.294   2.198  13.325 -0.9501 -0.8637  0.5112
 2539SOL    HW219077   3.400   2.288  13.362  0.6931  0.8874  0.9565
 2540SOL     OW19078   2.794   1.647  10.518  0.2180  0.3562  0.7382
 2540SOL    HW119079   2.770   1.658  10.610  0.4134 -2.0193  1.0825
 2540SOL    HW219080   2.821   1.732  10.482  0.2503 -0.1274 -0.3812
 2541SOL     OW19081   3.858   1.162  15.169  0.0045  0.2707  0.7474
 2541SOL    HW119082   3.859   1.139  15.262 -1.3640  0.7673  0.8881
 2541SOL    HW219083   3.766   1.188  15.162 -0.5482 -1.6048  1.1881
 2542SOL     OW19084   3.123   1.412   4.627 -0.5593 -0.2455 -0.4511
 2542SOL    HW119085   3.087   1.480   4.685 -0.3660  0.9768 -1.7509
 2542SOL    HW219086   3.215   1.415   4.653 -0.2950 -1.8695 -1.2201
 2543SOL     OW19087   0.793   0.907   8.409  0.0171  0.6720  0.3746
 2543SOL    HW119088   0.784   0.900   8.504  0.6619 -0.7095  0.3259
 2543SOL    HW219089   0.708   0.876   8.377  1.3331 -1.1518 -1.3450
 2544SOL     OW19090   1.254   0.122  13.047 -0.0860  0.3958 -0.3444
 2544SOL    HW119091   1.248   0.027  13.044 -0.6870  0.4056  0.6377
 2544SOL    HW219092   1.310   0.140  13.122  0.7693  1.6869 -1.2900
 2545SOL     OW19093   0.023   0.344   1.056 -0.6001  0.0612  0.3385
 2545SOL    HW119094   0.052   0.346   0.964 -1.9512  0.6113 -0.0789
 2545SOL    HW219095   0.025   0.439   1.071  0.2703  0.0552  0.2630
 2546SOL     OW19096   0.024   1.970   8.851 -0.5530 -0.0088 -0.0450
 2546SOL    HW119097   0.112   1.937   8.871 -1.0358 -0.1678  1.8544
 2546SOL    HW219098   0.037   2.063   8.871 -2.1879 -0.2184  2.0588
 2547SOL     OW19099   4.294   4.273   4.357  0.6765 -0.2214 -0.4543
 2547SOL    HW119100   4.388   4.273   4.375  0.2423 -5.6008  1.6597
 2547SOL    HW219101   4.266   4.308   4.442  0.1049  1.4102 -1.3100
 2548SOL     OW19102   4.336   4.126   2.343  0.0515  0.1583  0.0055
 2548SOL    HW119103   4.374   4.134   2.430 -0.3118 -0.1129  0.1929
 2548SOL    HW219104   4.258   4.073   2.360  0.0775 -0.0354 -0.4829
 2549SOL     OW19105   3.984   0.552  13.859 -0.1310  1.0766 -0.1786
 2549SOL    HW119106   3.949   0.481  13.913  1.8008 -0.7055 -1.2754
 2549SOL    HW219107   4.070   0.558  13.899  0.1751  0.5503 -0.7605
 2550SOL     OW19108   2.513   1.458   1.750 -0.3113 -0.2653  0.3114
 2550SOL    HW119109   2.496   1.526   1.815  2.9541  0.2002  0.6917
 2550SOL    HW219110   2.435   1.459   1.695  0.2155 -3.4562 -0.4921
 2551SOL     OW19111   1.975   3.060   5.205  0.3981 -0.0881  0.5419
 2551SOL    HW119112   2.038   3.116   5.159 -0.1355 -0.6216 -0.8201
 2551SOL    HW219113   1.894   3.110   5.192  0.5663 -0.4424 -1.9491
 2552SOL     OW19114   3.661   2.073  16.208 -0.1934 -0.4504 -0.1246
 2552SOL    HW119115   3.649   2.158  16.251 -1.3268 -1.0167  0.6862
 2552SOL    HW219116   3.753   2.082  16.183 -0.3694 -2.4153 -1.4515
 2553SOL     OW19117   2.255   0.496   1.639  0.0110 -0.3616 -0.8471
 2553SOL    HW119118   2.335   0.484   1.588  0.9932  1.4197  0.2562
 2553SOL    HW219119   2.197   0.514   1.565  0.9021 -3.0550 -2.1762
 2554SOL     OW19120   2.205   3.762   7.251  0.5563  0.1219 -0.6003
 2554SOL    HW119121   2.257   3.685   7.273 -1.2611 -0.6646  0.9543
 2554SOL    HW219122   2.134   3.742   7.313 -0.4084 -1.0943 -2.0831
 2555SOL     OW19123   2.126   3.375   6.149  0.3602  0.3366 -0.2986
 2555SOL    HW119124   2.045   3.326   6.163  1.0068 -0.4146  0.8045
 2555SOL    HW219125   2.158   3.344   6.065 -0.8905  0.5859 -0.8632
 2556SOL     OW19126   3.930   3.261   6.682  0.2774  0.1229 -0.0351
 2556SOL    HW119127   3.859   3.197   6.683  0.7227 -0.3531  1.2995
 2556SOL    HW219128   4.009   3.208   6.677  0.3861  0.1015  1.7343
 2557SOL     OW19129   3.194   0.224   6.752  0.3764 -0.3500 -0.0718
 2557SOL    HW119130   3.280   0.234   6.794  1.9325  0.5594 -3.4689
 2557SOL    HW219131   3.139   0.284   6.802  0.9224  0.7253 -0.7513
 2558SOL     OW19132   1.378   2.805   5.683 -0.1836  0.1363  0.0597
 2558SOL    HW119133   1.335   2.749   5.618  0.9863  0.7426 -1.2426
 2558SOL    HW219134   1.365   2.892   5.645 -2.3144  0.1801  0.8396
 2559SOL     OW19135   3.259   1.352   3.855 -0.2159 -0.2512 -0.1775
 2559SOL    HW119136   3.177   1.401   3.855 -0.2162 -0.2935 -3.4237
 2559SOL    HW219137   3.225   1.291   3.921 -0.9112 -0.9089 -1.1385
 2560SOL     OW19138   3.118   1.860   6.812  0.5046 -0.4497 -0.3921
 2560SOL    HW119139   3.186   1.798   6.787  2.8196  2.5723 -1.5956
 2560SOL    HW219140   3.110   1.848   6.907  0.7787 -1.0449 -0.4449
 2561SOL     OW19141   0.534   3.951   8.677  0.0087  0.3186 -0.0852
 2561SOL    HW119142   0.585   3.983   8.603  0.9347 -2.6878 -0.7455
 2561SOL    HW219143   0.473   3.890   8.636  1.1394 -0.0251 -1.2555
 2562SOL     OW19144   4.651   1.139   6.129 -0.3554  0.4433  0.5675
 2562SOL    HW119145   4.587   1.090   6.077  0.0356  1.0306 -0.4682
 2562SOL    HW219146   0.009   1.120   6.083  0.2037 -1.0713  2.2066
 2563SOL     OW19147   4.120   0.681   8.827 -0.4317  0.0069 -0.1150
 2563SOL    HW119148   4.059   0.607   8.821  1.6857 -1.6133 -1.8117
 2563SOL    HW219149   4.146   0.700   8.737  1.0412 -2.1187 -0.1387
 2564SOL     OW19150   4.391   1.605  11.480 -0.1996  0.3995 -0.3071
 2564SOL    HW119151   4.388   1.676  11.416 -1.7246  0.1385 -0.5314
 2564SOL    HW219152   4.486   1.596  11.474 -0.4162 -2.4886  0.7127
 2565SOL     OW19153   2.540   2.677   3.181  0.1546  0.2659 -0.1175
 2565SOL    HW119154   2.557   2.583   3.178 -0.8524  0.1024 -0.6396
 2565SOL    HW219155   2.628   2.706   3.206 -1.0213  1.7826  2.3230
 2566SOL     OW19156   1.902   0.655   6.331 -0.5037 -0.2576 -0.3090
 2566SOL    HW119157   1.832   0.676   6.393  0.6279  0.9051  0.5671
 2566SOL    HW219158   1.929   0.746   6.318 -3.9059  0.9030  0.5867
 2567SOL     OW19159   3.103   2.485   2.596  0.0322 -0.0356  0.1010
 2567SOL    HW119160   3.164   2.462   2.667 -1.0545 -1.7961  0.4539
 2567SOL    HW219161   3.052   2.544   2.652 -0.7833  1.2013 -1.9360
 2568SOL     OW19162   2.412   3.277  11.612  0.8947  0.6490  0.0856
 2568SOL    HW119163   2.329   3.269  11.566  0.1845  1.5000  1.2243
 2568SOL    HW219164   2.441   3.195  11.572  0.1684 -0.7327  2.4055
 2569SOL     OW19165   0.425   0.512   9.055  0.2360 -0.7711 -0.2104
 2569SOL    HW119166   0.392   0.466   9.132  0.7517  0.3634  0.6807
 2569SOL    HW219167   0.497   0.561   9.095  0.0604 -0.4498 -0.2885
 2570SOL     OW19168   1.242   0.596   8.116  0.6812 -0.3290  0.6005
 2570SOL    HW119169   1.174   0.591   8.182  0.5945 -0.7274  0.4817
 2570SOL    HW219170   1.268   0.685   8.139 -2.2529 -0.0444  2.7161
 2571SOL     OW19171   2.918   2.141   5.352 -0.2132  0.0117 -0.6270
 2571SOL    HW119172   2.904   2.147   5.258 -2.4555  1.4470 -0.2095
 2571SOL    HW219173   2.956   2.054   5.366 -0.0237 -0.0445 -1.4819
 2572SOL     OW19174   2.194   2.349   8.389  0.1388 -0.4637  0.2340
 2572SOL    HW119175   2.276   2.364   8.436 -1.2353  0.4526  2.3418
 2572SOL    HW219176   2.189   2.432   8.342 -0.0915  0.3236  1.6480
 2573SOL     OW19177   4.346   0.109   3.627 -0.0247  0.6694 -0.6171
 2573SOL    HW119178   4.342   0.199   3.594 -1.3732  1.5416  1.8481
 2573SOL    HW219179   4.300   0.130   3.709  0.0399  0.8773 -0.6334
 2574SOL     OW19180   1.261   0.982  16.739 -0.1564  0.3754 -0.2130
 2574SOL    HW119181   1.235   0.902  16.693 -2.2038  0.6254  0.5218
 2574SOL    HW219182   1.175   1.024  16.745 -0.1640 -0.0518  2.7206
 2575SOL     OW19183   2.042   0.088   3.838 -0.1894 -0.2646  0.4760
 2575SOL    HW119184   2.061   0.159   3.776  0.9803 -1.4890 -0.5648
 2575SOL    HW219185   2.082   0.133   3.913  0.4632  1.3233 -0.8144
 2576SOL     OW19186   0.627   2.569  16.189  0.0752  0.2571 -0.3545
 2576SOL    HW119187   0.539   2.604  16.175 -1.7900 -2.6532  3.9863
 2576SOL    HW219188   0.670   2.634  16.244 -2.0750  0.5560  0.9740
 2577SOL     OW19189   3.863   3.606   3.632 -0.3754 -0.1716  0.4563
 2577SOL    HW119190   3.796   3.646   3.576 -0.6344  0.1698  1.0087
 2577SOL    HW219191   3.824   3.637   3.714 -0.4422  0.3061  0.2463
 2578SOL     OW19192   2.081   0.480   6.064  0.0281  0.1027  0.8667
 2578SOL    HW119193   2.115   0.480   5.974 -0.3341  2.9515  0.7582
 2578SOL    HW219194   2.167   0.487   6.105  1.2517 -2.6403 -1.1855
 2579SOL     OW19195   4.635   4.602   3.087 -0.2606 -0.7293 -0.3507
 2579SOL    HW119196   4.694   4.561   3.150 -0.3217 -1.5942 -0.8423
 2579SOL    HW219197   4.578   4.653   3.144  1.2515  1.1888 -0.5484
 2580SOL     OW19198   2.110   1.302   8.652  0.2365  0.3817  0.0947
 2580SOL    HW119199   2.148   1.379   8.609  0.4643 -1.4874 -3.0553
 2580SOL    HW219200   2.185   1.245   8.665  0.4455  0.3857 -1.0627
 2581SOL     OW19201   2.166   2.269   5.533 -0.1143  0.1427 -0.1022
 2581SOL    HW119202   2.076   2.290   5.558 -0.3826 -0.5124 -0.5199
 2581SOL    HW219203   2.214   2.328   5.592  0.4497 -0.0668 -0.3547
 2582SOL     OW19204   0.542   2.242  17.142  0.4820  0.0405  0.3739
 2582SOL    HW119205   0.599   2.195  17.203  0.7418  0.7256  0.6565
 2582SOL    HW219206   0.554   2.335  17.160 -0.7739  0.0581  1.1211
 2583SOL     OW19207   2.980   0.475  14.634 -0.3660  0.7740 -0.2195
 2583SOL    HW119208   3.059   0.446  14.589  0.0661 -0.9677  1.6749
 2583SOL    HW219209   2.980   0.409  14.703 -1.6535  1.0484  0.0443
 2584SOL     OW19210   4.129   2.468  15.710  0.1504 -0.7219  0.1198
 2584SOL    HW119211   4.123   2.474  15.615 -0.1596  1.8367  0.2834
 2584SOL    HW219212   4.157   2.557  15.734  0.1348 -0.7010  0.0605
 2585SOL     OW19213   3.287   2.120  11.979 -0.1458 -0.0267  0.3556
 2585SOL    HW119214   3.325   2.033  11.994  1.0065  0.7953  2.2169
 2585SOL    HW219215   3.341   2.174  12.036 -0.3549  2.5957 -1.9422
 2586SOL     OW19216   4.543   0.736   3.171 -0.4193 -0.2019  0.1770
 2586SOL    HW119217   4.575   0.817   3.131  0.0760 -0.0900  0.7914
 2586SOL    HW219218   4.529   0.774   3.258  0.6125 -1.1762  0.7686
 2587SOL     OW19219   1.265   3.592   6.380 -0.1118  0.0857  0.0026
 2587SOL    HW119220   1.222   3.531   6.440  0.3285  0.7338  0.9949
 2587SOL    HW219221   1.204   3.595   6.307 -0.5167  2.4553  0.4397
 2588SOL     OW19222   1.340   1.539  16.334 -0.0025 -0.9498 -0.0554
 2588SOL    HW119223   1.292   1.458  16.316 -0.2417 -0.2163 -2.7336
 2588SOL    HW219224   1.331   1.572  16.244 -0.1235 -1.6906 -0.3195
 2589SOL     OW19225   0.253   3.993   0.518 -0.7292 -0.2260 -0.0179
 2589SOL    HW119226   0.265   3.900   0.534  0.0809  0.1043  1.3186
 2589SOL    HW219227   0.193   4.001   0.444  0.9082  2.3658 -1.0724
 2590SOL     OW19228   4.574   2.634   6.859 -0.6807 -0.2997  0.2662
 2590SOL    HW119229   4.590   2.565   6.924  1.1614 -0.8471 -0.7456
 2590SOL    HW219230   4.502   2.681   6.900  1.2796  2.0637  0.9774
 2591SOL     OW19231   3.157   3.674   5.783  0.2295 -0.2255  0.2206
 2591SOL    HW119232   3.185   3.686   5.873 -1.1435 -0.1107  0.6421
 2591SOL    HW219233   3.103   3.595   5.778 -0.7298  0.4839 -0.7457
 2592SOL     OW19234   2.397   4.528  17.247 -0.3885 -0.1581 -0.5576
 2592SOL    HW119235   2.468   4.536  17.183  0.6692  1.0727  0.7541
 2592SOL    HW219236   2.357   4.615  17.245 -0.6037 -0.2105  2.0706
 2593SOL     OW19237   3.958   4.616   4.242  0.0277  0.1833  0.2894
 2593SOL    HW119238   4.005   4.581   4.318  1.6729  1.0580 -0.3400
 2593SOL    HW219239   3.993   4.705   4.236  0.8062 -0.0276  1.6319
 2594SOL     OW19240   4.044   3.169   2.843  0.2107  0.1742 -0.1661
 2594SOL    HW119241   4.092   3.186   2.762  1.1952 -0.1812  0.3418
 2594SOL    HW219242   3.963   3.212   2.817 -0.2162  0.1491  1.0990
 2595SOL     OW19243   3.863   4.068   6.561  0.1730 -0.2223  0.2117
 2595SOL    HW119244   3.936   4.021   6.602 -1.8456 -2.0404  1.7147
 2595SOL    HW219245   3.850   4.016   6.481  0.7147  2.4274 -1.6045
 2596SOL     OW19246   4.222   3.646   3.775  0.6070 -0.6000 -0.1650
 2596SOL    HW119247   4.167   3.570   3.759 -2.1107  1.7289 -1.7345
 2596SOL    HW219248   4.218   3.631   3.870 -1.3766  1.3485  0.0533
 2597SOL     OW19249   4.574   3.995   4.652 -0.2662 -0.6346  0.1933
 2597SOL    HW119250   4.520   3.996   4.731  0.1076 -3.2636  0.4660
 2597SOL    HW219251   4.662   3.986   4.687  0.1120 -0.0856 -0.6024
 2598SOL     OW19252   1.727   0.588  16.729  0.0892 -0.0884 -0.1094
 2598SOL    HW119253   1.802   0.534  16.707  0.7236  1.2255 -1.1796
 2598SOL    HW219254   1.688   0.545  16.806  1.3560  0.1403  0.6601
 2599SOL     OW19255   3.856   0.885   2.466  0.0117 -0.2670  0.1427
 2599SOL    HW119256   3.951   0.883   2.480  0.3047  1.0553 -1.5565
 2599SOL    HW219257   3.822   0.813   2.519  0.5928 -1.5635 -1.2465
 2600SOL     OW19258   4.166   1.898   5.366  0.6753  0.0208  0.0644
 2600SOL    HW119259   4.219   1.960   5.317  2.1776  1.1951  3.1656
 2600SOL    HW219260   4.084   1.948   5.364 -0.5938 -1.9627  1.3496
 2601SOL     OW19261   1.304   4.232   2.243 -0.0326 -0.0912 -0.5668
 2601SOL    HW119262   1.288   4.324   2.220 -0.3630  0.1407  0.5871
 2601SOL    HW219263   1.399   4.230   2.229 -0.1748 -0.1875 -1.4758
 2602SOL     OW19264   2.398   3.051   7.804  0.6349 -0.6006 -0.5080
 2602SOL    HW119265   2.386   2.988   7.874  2.0439 -1.8949 -1.4383
 2602SOL    HW219266   2.327   3.047   7.740  1.3589  0.6560 -1.4023
 2603SOL     OW19267   0.961   3.322   5.181 -0.2720 -0.3042  0.2131
 2603SOL    HW119268   1.031   3.274   5.226  0.1120  1.6436  1.6627
 2603SOL    HW219269   0.899   3.355   5.246 -0.3283  0.9763 -0.4908
 2604SOL     OW19270   0.910   4.386  17.377 -0.0987  0.3761 -0.0824
 2604SOL    HW119271   0.933   4.333  17.300 -0.5715 -0.4584  0.3473
 2604SOL    HW219272   0.817   4.365  17.366 -0.3872  1.2879  0.6918
 2605SOL     OW19273   1.892   4.574   7.429  0.1841  0.0888 -0.2917
 2605SOL    HW119274   1.849   4.659   7.423 -0.0079  0.1882  2.8278
 2605SOL    HW219275   1.833   4.525   7.487 -2.4607  1.1727 -2.0339
 2606SOL     OW19276   1.600   2.331  10.508 -0.1554  0.1593 -0.5917
 2606SOL    HW119277   1.516   2.338  10.553  1.1671 -0.8367  2.0183
 2606SOL    HW219278   1.606   2.419  10.470 -2.8905  0.0421 -1.2750
 2607SOL     OW19279   2.127   2.978  14.853  0.3724 -0.3184  0.6274
 2607SOL    HW119280   2.107   2.894  14.896  1.6897 -1.1283 -0.3446
 2607SOL    HW219281   2.195   2.964  14.787 -0.7942 -3.1538  0.0086
 2608SOL     OW19282   1.249   1.274  14.846  0.2003 -0.6216  0.3459
 2608SOL    HW119283   1.269   1.344  14.785 -1.9403 -1.7740 -1.6981
 2608SOL    HW219284   1.340   1.258  14.871  0.3317 -0.6062 -0.1239
 2609SOL     OW19285   2.819   3.474  17.588 -0.3370  0.3222 -0.4211
 2609SOL    HW119286   2.730   3.441  17.600 -0.3233  1.1898  2.0880
 2609SOL    HW219287   2.822   3.474  17.492  0.0328  4.1297 -0.4298
 2610SOL     OW19288   2.874   3.017   8.626 -0.2465  0.1863  0.4909
 2610SOL    HW119289   2.957   3.045   8.587 -0.1650  0.8976  1.1751
 2610SOL    HW219290   2.895   2.967   8.705 -1.9605 -1.9000 -0.3944
 2611SOL     OW19291   3.161   1.195   2.335 -0.3527 -0.1370 -0.5805
 2611SOL    HW119292   3.110   1.143   2.273 -0.7079  1.1496 -1.3702
 2611SOL    HW219293   3.213   1.244   2.271 -0.3695  1.9762  1.0275
 2612SOL     OW19294   3.584   3.221   4.567  0.5687  0.8022 -0.3654
 2612SOL    HW119295   3.541   3.208   4.651  0.8661 -0.5061 -0.4120
 2612SOL    HW219296   3.597   3.315   4.554  2.2727  0.4188 -1.4239
 2613SOL     OW19297   2.878   2.140   5.089 -0.4462  0.4744  0.0699
 2613SOL    HW119298   2.804   2.087   5.060  0.4266 -0.4334 -0.4977
 2613SOL    HW219299   2.854   2.225   5.053 -3.6635 -0.7200 -0.5615
 2614SOL     OW19300   0.874   0.577   7.086 -0.1735 -0.7913  0.0212
 2614SOL    HW119301   0.787   0.605   7.117  0.1182  2.4107 -2.0662
 2614SOL    HW219302   0.851   0.515   7.017 -4.2662  0.2694  0.3896
 2615SOL     OW19303   0.351   0.885  15.926  0.0291 -0.6085  0.2427
 2615SOL    HW119304   0.346   0.896  16.021  1.2906 -0.5478  0.2912
 2615SOL    HW219305   0.256   0.885  15.909 -0.4716 -0.1532  2.9723
 2616SOL     OW19306   3.526   3.886   3.406 -0.2441  0.3081 -0.1156
 2616SOL    HW119307   3.503   3.938   3.329 -2.9196 -0.4991  0.1278
 2616SOL    HW219308   3.483   3.936   3.476 -1.1522  1.1646 -1.2814
 2617SOL     OW19309   0.665   2.626  14.237 -0.2459  0.6742  0.1569
 2617SOL    HW119310   0.752   2.658  14.212  0.8585 -1.7058  0.8660
 2617SOL    HW219311   0.676   2.629  14.332 -0.0173  0.2996  0.1437
 2618SOL     OW19312   4.252   0.387   6.953 -0.7598 -0.2496  0.0179
 2618SOL    HW119313   4.187   0.457   6.968 -1.2831 -0.4596 -1.2124
 2618SOL    HW219314   4.251   0.370   6.858 -0.6294 -2.8103  0.4781
 2619SOL     OW19315   4.684   1.282   4.861  0.1464  0.1966  0.1809
 2619SOL    HW119316   4.643   1.222   4.922 -2.5581  1.2484 -0.6008
 2619SOL    HW219317   0.050   1.292   4.895  0.0954 -0.6721  0.5669
 2620SOL     OW19318   1.903   1.004   6.549  0.0186  0.5178  0.0720
 2620SOL    HW119319   1.967   1.072   6.526 -0.9489  0.9095 -1.4072
 2620SOL    HW219320   1.883   1.018   6.642 -0.7566 -2.0933  0.2822
 2621SOL     OW19321   3.082   1.212   2.867  0.0083 -0.0998  0.0527
 2621SOL    HW119322   3.116   1.301   2.872  0.5876 -0.3301  0.1545
 2621SOL    HW219323   3.147   1.165   2.919  0.9409  1.6878  0.4770
 2622SOL     OW19324   2.192   1.405  10.228 -0.7393  0.2519 -0.5330
 2622SOL    HW119325   2.146   1.459  10.293  0.3314  0.6229 -0.0907
 2622SOL    HW219326   2.278   1.446  10.237 -0.5692  0.2623 -2.2689
 2623SOL     OW19327   1.855   0.183   8.307 -0.8964  0.7543 -0.5512
 2623SOL    HW119328   1.827   0.218   8.391 -1.0607  1.2667 -0.8195
 2623SOL    HW219329   1.916   0.122   8.348 -0.5929  2.0648  0.9273
 2624SOL     OW19330   4.202   4.343   2.030 -0.2898  0.5388 -0.3085
 2624SOL    HW119331   4.174   4.253   2.019  0.3566  0.4844 -1.5520
 2624SOL    HW219332   4.290   4.340   1.993 -0.2202  0.0002 -0.0985
 2625SOL     OW19333   0.900   3.335   7.683  0.2101  0.3457 -0.2318
 2625SOL    HW119334   0.980   3.340   7.734  0.7842 -2.9773 -0.7844
 2625SOL    HW219335   0.880   3.242   7.697  0.3045  0.6251  1.8170
 2626SOL     OW19336   4.639   0.173  11.168  0.1421 -0.1825 -0.7642
 2626SOL    HW119337   4.614   0.195  11.078 -0.2441  0.9644 -0.3646
 2626SOL    HW219338   0.000   0.217  11.168 -0.2711  0.6084 -0.7418
 2627SOL     OW19339   0.388   4.465   6.784  0.2969  0.0118 -0.2027
 2627SOL    HW119340   0.368   4.502   6.870  0.2412 -1.7480  0.5428
 2627SOL    HW219341   0.302   4.427   6.763  0.5375 -1.0633  0.7268
 2628SOL     OW19342   0.150   3.498   2.960 -0.2605  0.9030 -0.3152
 2628SOL    HW119343   0.233   3.468   2.999 -0.8140 -0.5369 -0.2220
 2628SOL    HW219344   0.176   3.514   2.870  1.3786  0.5615  0.0933
 2629SOL     OW19345   1.416   1.362   9.386 -0.5164 -0.3078  0.2734
 2629SOL    HW119346   1.442   1.285   9.436 -0.5390 -1.8452 -2.1029
 2629SOL    HW219347   1.380   1.313   9.313  0.5155 -0.3348 -0.2162
 2630SOL     OW19348   1.966   0.731  10.205 -0.0323  0.9811 -0.3472
 2630SOL    HW119349   1.922   0.711  10.123  1.4114 -3.0784 -0.0839
 2630SOL    HW219350   2.056   0.725  10.174 -0.2961  0.4742 -1.0101
 2631SOL     OW19351   2.924   3.303   2.810  0.6590 -1.2278 -0.0627
 2631SOL    HW119352   2.891   3.231   2.758 -0.1214 -1.2654  0.4997
 2631SOL    HW219353   3.020   3.294   2.813  0.5121 -2.5183  0.5556
 2632SOL     OW19354   4.060   1.148  11.212  0.2079  0.3640 -0.2444
 2632SOL    HW119355   4.109   1.066  11.202  0.5826  0.8316 -2.2771
 2632SOL    HW219356   3.999   1.111  11.276  1.8357 -0.1514  1.0138
 2633SOL     OW19357   1.666   3.080   9.324 -0.6709 -0.2763  0.2444
 2633SOL    HW119358   1.672   3.063   9.230  1.3997  0.0769  0.2988
 2633SOL    HW219359   1.757   3.104   9.344  0.2633 -2.3725 -1.4898
 2634SOL     OW19360   4.393   4.421   0.311 -0.0353 -1.0447 -0.2941
 2634SOL    HW119361   4.464   4.459   0.260 -1.8235  2.3715 -0.2117
 2634SOL    HW219362   4.324   4.486   0.296 -0.6929 -1.5939  0.3555
 2635SOL     OW19363   3.441   0.169   4.170 -0.3171 -0.0861  0.1880
 2635SOL    HW119364   3.458   0.102   4.104 -0.2016 -0.1809  0.3154
 2635SOL    HW219365   3.513   0.154   4.231  0.9519  0.1471 -1.2657
 2636SOL     OW19366   1.497   2.236  11.977  0.0374 -0.4404  0.5354
 2636SOL    HW119367   1.478   2.299  11.907  0.4485 -1.3407 -0.3899
 2636SOL    HW219368   1.460   2.158  11.938 -2.2177  1.7418 -1.6833
 2637SOL     OW19369   3.649   0.704   0.749  0.0377  0.5152  0.0218
 2637SOL    HW119370   3.593   0.680   0.675 -0.4410  1.3557  0.1170
 2637SOL    HW219371   3.699   0.626   0.774  0.8486  0.7034 -0.9665
 2638SOL     OW19372   1.164   3.595  15.271  0.7749  0.0066  0.7990
 2638SOL    HW119373   1.204   3.511  15.290  1.0525 -0.0911 -0.2244
 2638SOL    HW219374   1.236   3.658  15.267 -1.3291  2.4045  0.1094
 2639SOL     OW19375   1.712   2.222   6.637 -0.4228 -0.8618  0.2063
 2639SOL    HW119376   1.787   2.211   6.696 -0.2613 -0.3533  0.0904
 2639SOL    HW219377   1.663   2.292   6.679 -3.6433 -2.1237 -1.4918
 2640SOL     OW19378   2.129   3.554  14.125 -0.0679 -0.1673 -0.5916
 2640SOL    HW119379   2.161   3.545  14.215  0.8824 -0.4765 -0.9497
 2640SOL    HW219380   2.186   3.628  14.103 -2.5601  1.9856  0.2015
 2641SOL     OW19381   1.035   3.554   5.029  0.6981 -0.1357 -0.4172
 2641SOL    HW119382   1.076   3.602   5.101 -0.2895 -1.9588  1.3529
 2641SOL    HW219383   1.017   3.477   5.084 -2.0680  0.7402 -0.1335
 2642SOL     OW19384   4.522   2.530   4.343  0.2539 -0.5973  0.0061
 2642SOL    HW119385   4.583   2.600   4.321  0.3060 -1.2586 -1.9946
 2642SOL    HW219386   4.506   2.500   4.253  0.2468  1.3057 -0.6278
 2643SOL     OW19387   1.636   2.410  11.728  0.4509  0.6990  0.5856
 2643SOL    HW119388   1.730   2.428  11.720  0.6178 -0.3206  0.1498
 2643SOL    HW219389   1.603   2.479  11.786 -0.6186  0.5121  0.1986
 2644SOL     OW19390   0.392   1.589  11.924 -0.6929  0.0473 -0.4064
 2644SOL    HW119391   0.384   1.658  11.990 -1.2478  1.4617 -1.9416
 2644SOL    HW219392   0.340   1.516  11.957  0.0987 -0.6991 -0.8284
 2645SOL     OW19393   3.696   3.237   9.163  0.3563 -0.6717  0.8590
 2645SOL    HW119394   3.624   3.207   9.219 -1.2229 -0.4508 -1.0431
 2645SOL    HW219395   3.724   3.154   9.126 -2.6756 -0.0826 -2.7587
 2646SOL     OW19396   3.330   4.135  13.725 -0.6367 -1.1343 -0.3148
 2646SOL    HW119397   3.329   4.044  13.754  0.2725 -0.6383  1.2797
 2646SOL    HW219398   3.238   4.160  13.731 -0.7546 -1.7980  0.6576
 2647SOL     OW19399   2.421   3.820   7.509 -1.1531 -0.3226  0.2354
 2647SOL    HW119400   2.399   3.908   7.480  0.7115 -0.2171 -0.8963
 2647SOL    HW219401   2.495   3.836   7.568 -1.2906  0.9358  0.0607
 2648SOL     OW19402   2.465   2.758   9.305 -0.1636 -0.4683 -0.1352
 2648SOL    HW119403   2.381   2.712   9.303  0.0657 -0.8803 -0.4088
 2648SOL    HW219404   2.523   2.703   9.252  1.1242  0.2200  0.5601
 2649SOL     OW19405   4.397   2.762   3.919 -0.2963 -0.1444  0.2915
 2649SOL    HW119406   4.469   2.812   3.882 -0.6344  1.6414  2.0587
 2649SOL    HW219407   4.363   2.742   3.832 -0.6350  0.6205  0.2507
 2650SOL     OW19408   4.682   2.135  12.242  0.2712  0.3067  0.0487
 2650SOL    HW119409   4.613   2.079  12.276 -1.4778  1.9516 -0.7726
 2650SOL    HW219410   4.625   2.190  12.188  1.3603  1.3151 -0.0840
 2651SOL     OW19411   4.630   3.015   5.544 -0.5581  0.0622  0.2391
 2651SOL    HW119412   4.550   2.966   5.522  0.8625 -1.6662 -1.0883
 2651SOL    HW219413   4.623   3.097   5.495 -3.1409 -0.6662 -0.6493
 2652SOL     OW19414   2.375   0.132   3.016  0.5451 -0.1707 -0.6952
 2652SOL    HW119415   2.340   0.182   2.942  0.3687  1.6089  0.5778
 2652SOL    HW219416   2.312   0.157   3.084  2.2934  2.6552 -0.0999
 2653SOL     OW19417   0.619   0.409   6.086 -0.1080  0.1346  0.0561
 2653SOL    HW119418   0.661   0.440   6.166  0.2020 -2.0868  0.7555
 2653SOL    HW219419   0.606   0.315   6.101 -3.3211  0.1493 -2.5743
 2654SOL     OW19420   2.184   0.735   9.742 -0.3197 -0.1915  0.4800
 2654SOL    HW119421   2.211   0.811   9.691  0.3924  0.1457  1.3541
 2654SOL    HW219422   2.274   0.712   9.767  0.2349 -0.5717 -1.8960
 2655SOL     OW19423   4.182   0.447   1.593  0.6167  0.1959  0.3466
 2655SOL    HW119424   4.198   0.458   1.687  0.0122 -1.8383  0.6915
 2655SOL    HW219425   4.087   0.445   1.582  0.9196 -1.2686 -1.9808
 2656SOL     OW19426   0.929   3.514   5.719  0.3559  0.1926 -0.0390
 2656SOL    HW119427   0.850   3.459   5.727  1.2979 -1.0382  0.8575
 2656SOL    HW219428   0.998   3.468   5.767 -1.6384  1.2724  3.8901
 2657SOL     OW19429   0.120   0.497  14.237 -0.1385 -0.5940 -0.0362
 2657SOL    HW119430   0.105   0.559  14.166  2.6080  0.3397  0.1683
 2657SOL    HW219431   0.123   0.414  14.190  3.0890 -0.0861 -0.7174
 2658SOL     OW19432   3.361   3.617   2.656  0.6234 -0.7986  0.2008
 2658SOL    HW119433   3.301   3.603   2.730  1.9817 -0.1476  1.4265
 2658SOL    HW219434   3.426   3.554   2.685  1.3104  0.1404  0.7147
 2659SOL     OW19435   0.718   0.131   0.248 -0.1391  0.1341 -0.5030
 2659SOL    HW119436   0.702   0.043   0.282  2.6044 -0.2596 -0.2616
 2659SOL    HW219437   0.729   0.111   0.155 -4.1382  0.2609 -0.9933
 2660SOL     OW19438   2.434   1.750   2.960  0.6426 -0.3512  0.1080
 2660SOL    HW119439   2.486   1.702   3.025 -0.4654  1.6358  2.4790
 2660SOL    HW219440   2.461   1.839   2.983 -1.2804 -0.0482  1.2083
 2661SOL     OW19441   1.586   0.796   7.107 -0.4001 -0.0390  0.2882
 2661SOL    HW119442   1.632   0.878   7.128 -1.4284  0.2965  1.2216
 2661SOL    HW219443   1.611   0.742   7.181 -3.4081 -0.5076  0.9496
 2662SOL     OW19444   3.346   3.626  13.276 -0.5550 -0.3405 -0.4989
 2662SOL    HW119445   3.304   3.587  13.199  0.7840  2.6186 -2.7299
 2662SOL    HW219446   3.395   3.694  13.229 -0.6577  0.4933  0.6061
 2663SOL     OW19447   1.679   2.156   0.212  0.2528 -0.4885  0.0790
 2663SOL    HW119448   1.619   2.087   0.184 -0.9415  0.2705  0.7880
 2663SOL    HW219449   1.636   2.234   0.178 -1.7495 -0.7112  2.1130
 2664SOL     OW19450   2.125   4.203   8.644  0.8865 -0.2844  0.0517
 2664SOL    HW119451   2.206   4.165   8.679  0.9835  0.4298  0.6001
 2664SOL    HW219452   2.095   4.127   8.593 -3.0663  1.7792 -0.7007
 2665SOL     OW19453   0.342   1.630   7.269  0.1578  0.2187  0.0670
 2665SOL    HW119454   0.263   1.610   7.319  2.2534 -3.7801  1.8630
 2665SOL    HW219455   0.400   1.669   7.334 -1.5885  0.7001  1.3399
 2666SOL     OW19456   0.917   4.312   7.238  0.1044 -0.1070  0.1301
 2666SOL    HW119457   0.866   4.238   7.270  0.7809 -0.5464  0.1840
 2666SOL    HW219458   0.843   4.374   7.232  1.0085  1.1296  1.6863
 2667SOL     OW19459   3.863   2.991   3.266 -0.0406 -0.6908  0.1798
 2667SOL    HW119460   3.912   3.065   3.230  0.7873 -1.2307  0.2169
 2667SOL    HW219461   3.927   2.923   3.286 -1.5429 -1.3368  2.8591
 2668SOL     OW19462   2.731   3.944   2.989 -0.1593 -0.1699 -0.4571
 2668SOL    HW119463   2.786   3.894   2.928  0.3121 -0.7348  0.4176
 2668SOL    HW219464   2.701   4.009   2.926 -2.4759  0.4252  1.2298
 2669SOL     OW19465   3.650   1.391   6.457 -0.2745  0.0436  0.0679
 2669SOL    HW119466   3.626   1.479   6.429 -0.9861 -0.4153 -0.7678
 2669SOL    HW219467   3.686   1.408   6.544  1.2627  1.4559 -0.8483
 2670SOL     OW19468   2.171   3.177  11.497  0.1494  0.2237 -0.6885
 2670SOL    HW119469   2.082   3.145  11.485  0.0682 -0.6307  2.2261
 2670SOL    HW219470   2.214   3.098  11.528  0.1334  0.0980 -0.9931
 2671SOL     OW19471   0.659   0.442   5.492 -0.1917  0.0786  0.4903
 2671SOL    HW119472   0.606   0.459   5.414  1.1692  1.6734 -0.0953
 2671SOL    HW219473   0.691   0.525   5.527  0.4928  0.4583 -1.0444
 2672SOL     OW19474   0.265   3.879   6.629  0.5389 -0.2429 -0.1068
 2672SOL    HW119475   0.314   3.830   6.695 -0.7661 -0.6639  0.5628
 2672SOL    HW219476   0.267   3.824   6.550  0.6763  2.2522 -1.8445
 2673SOL     OW19477   2.944   3.634   0.060  0.0763  0.3506  0.1065
 2673SOL    HW119478   2.893   3.585  17.692 -0.5564  0.5220  0.4819
 2673SOL    HW219479   3.030   3.611   0.025  0.4738 -0.0345  1.3211
 2674SOL     OW19480   0.717   1.976  11.732 -0.3081  0.0140  0.2214
 2674SOL    HW119481   0.757   2.045  11.785 -1.5352  2.1242 -1.5969
 2674SOL    HW219482   0.650   1.957  11.798  0.0581 -3.1767 -0.3532
 2675SOL     OW19483   4.535   4.009   2.864 -0.6954  0.2889 -0.4725
 2675SOL    HW119484   4.515   3.954   2.789 -1.7006 -1.0167  0.7517
 2675SOL    HW219485   4.464   3.987   2.924 -0.4677 -0.4891 -0.4934
 2676SOL     OW19486   0.551   0.166   7.624  0.1915 -0.2241  0.2241
 2676SOL    HW119487   0.619   0.210   7.676 -0.7002 -0.5352  1.6480
 2676SOL    HW219488   0.524   0.236   7.566 -1.9386  0.3789  1.9507
 2677SOL     OW19489   4.356   2.373   5.894  0.2048 -0.0104  0.0879
 2677SOL    HW119490   4.321   2.425   5.967  0.6603 -1.2722  1.2002
 2677SOL    HW219491   4.284   2.310   5.890 -1.0975  1.4900 -0.1971
 2678SOL     OW19492   3.734   2.935   4.741  0.5413 -0.1531  0.4906
 2678SOL    HW119493   3.803   2.975   4.688  0.2073 -0.3071 -0.0565
 2678SOL    HW219494   3.782   2.857   4.771 -0.4721 -0.5260  1.1466
 2679SOL     OW19495   0.650   3.406   4.332 -0.5330  0.0456 -0.3623
 2679SOL    HW119496   0.657   3.421   4.238  2.3005  0.2303 -0.1088
 2679SOL    HW219497   0.592   3.478   4.353  1.8676  2.0200 -0.5656
 2680SOL     OW19498   0.830   3.091   7.775 -0.6908  0.3721 -0.1074
 2680SOL    HW119499   0.739   3.085   7.805 -0.7231 -0.5173 -0.3980
 2680SOL    HW219500   0.867   3.041   7.848 -1.2938  0.0719 -0.0070
 2681SOL     OW19501   4.201   0.608  11.935 -0.7678  0.3373 -0.2079
 2681SOL    HW119502   4.137   0.559  11.987 -0.4319  0.2511  0.1254
 2681SOL    HW219503   4.284   0.564  11.956 -0.0772  1.9041  0.3583
 2682SOL     OW19504   3.858   2.449  13.153  0.1884  0.2395  0.1478
 2682SOL    HW119505   3.837   2.382  13.218 -0.6978  1.3673  1.0235
 2682SOL    HW219506   3.865   2.528  13.208 -2.8772 -1.1277  2.5347
 2683SOL     OW19507   0.353   2.973  16.090  0.1619 -0.0294 -0.6989
 2683SOL    HW119508   0.306   3.050  16.058  1.0596 -0.0433 -2.0427
 2683SOL    HW219509   0.397   2.938  16.012  2.5596 -1.5803  1.3608
 2684SOL     OW19510   0.260   0.299  13.337 -0.3187  0.1291 -0.2823
 2684SOL    HW119511   0.220   0.322  13.253  2.4029 -1.2113 -1.9471
 2684SOL    HW219512   0.187   0.278  13.396 -0.0114 -0.1299  0.0105
 2685SOL     OW19513   1.617   1.696   5.477  0.2699  0.4384 -0.2511
 2685SOL    HW119514   1.573   1.746   5.546  0.7606 -1.7576  1.6632
 2685SOL    HW219515   1.598   1.748   5.399 -0.3203  2.1344  1.0259
 2686SOL     OW19516   0.114   3.545   8.983  0.1480  0.9398 -0.1481
 2686SOL    HW119517   0.055   3.588   8.922 -0.7243 -1.8121 -1.2435
 2686SOL    HW219518   0.202   3.567   8.951  0.7055 -1.9640 -0.5716
 2687SOL     OW19519   4.529   0.434  11.704 -0.0372 -0.1114  0.3116
 2687SOL    HW119520   4.456   0.485  11.669 -1.4084 -0.4337  2.6551
 2687SOL    HW219521   4.561   0.402  11.620  1.9882 -0.0207  1.0537
 2688SOL     OW19522   3.576   4.102   5.527 -0.1942  0.4316 -0.2231
 2688SOL    HW119523   3.557   4.194   5.512  0.4755  0.6899  0.5028
 2688SOL    HW219524   3.670   4.086   5.529  0.1130  2.3293  0.2036
 2689SOL     OW19525   4.432   3.389   2.416 -0.2106 -0.5574  0.6861
 2689SOL    HW119526   4.382   3.445   2.476  1.8950  2.2594 -0.1685
 2689SOL    HW219527   4.457   3.314   2.470  0.9146 -2.2696 -2.2606
 2690SOL     OW19528   4.576   0.378  12.863 -0.0995  0.3345 -0.0603
 2690SOL    HW119529   4.660   0.424  12.853  1.5087 -2.1017  2.1571
 2690SOL    HW219530   4.510   0.432  12.820 -2.2014 -2.0590  0.1597
 2691SOL     OW19531   4.408   3.719   2.762 -0.1290  0.0111 -0.2627
 2691SOL    HW119532   4.501   3.716   2.781  0.2352 -1.3995 -2.1936
 2691SOL    HW219533   4.414   3.719   2.666  3.3111  0.4810 -0.0465
 2692SOL     OW19534   1.093   4.588   5.085 -0.2579  0.7105 -0.0706
 2692SOL    HW119535   1.044   4.535   5.022  1.4248 -1.6961  0.6570
 2692SOL    HW219536   1.149   4.644   5.031 -0.0253  1.4151  0.9062
 2693SOL     OW19537   1.730   3.375  17.582  0.4006  0.2776 -0.5918
 2693SOL    HW119538   1.637   3.363  17.561  0.8271 -0.8813 -1.7770
 2693SOL    HW219539   1.718   3.425  17.663  1.5639 -0.0100 -0.2503
 2694SOL     OW19540   1.328   2.692   5.413 -0.4626 -0.0010  0.1858
 2694SOL    HW119541   1.323   2.773   5.364  1.6355 -0.1333 -0.2597
 2694SOL    HW219542   1.240   2.658   5.396 -0.3528  0.2856 -0.9337
 2695SOL     OW19543   0.349   3.301   0.334  0.0664  0.0099  0.4419
 2695SOL    HW119544   0.432   3.254   0.337  0.2723  0.2752 -1.0721
 2695SOL    HW219545   0.310   3.247   0.265  1.4891 -1.7846  1.0450
 2696SOL     OW19546   0.094   0.645  14.025  0.1294  0.7611 -0.4658
 2696SOL    HW119547   0.022   0.683  13.975  0.2248 -1.2067 -2.0756
 2696SOL    HW219548   0.101   0.561  13.981 -0.7862 -1.0466  2.7900
 2697SOL     OW19549   3.076   3.455  16.765 -0.0768 -0.1236 -0.3253
 2697SOL    HW119550   3.029   3.533  16.739  0.7505  0.7263  0.7344
 2697SOL    HW219551   3.126   3.485  16.841 -0.8376 -0.7986  0.4482
 2698SOL     OW19552   4.116   4.651   9.225  0.1233 -0.5416 -0.0933
 2698SOL    HW119553   4.154   4.694   9.148  2.6201 -0.6990  1.0403
 2698SOL    HW219554   4.187   4.678   9.284 -1.1350 -1.6668  1.9381
 2699SOL     OW19555   4.108   3.873   9.287 -0.2388 -0.1442 -0.2141
 2699SOL    HW119556   4.026   3.922   9.284  1.6207  2.9717  0.0967
 2699SOL    HW219557   4.167   3.947   9.277  1.9502 -2.0090 -1.1544
 2700SOL     OW19558   1.937   1.333  17.556  0.3266 -0.0302  0.3470
 2700SOL    HW119559   2.018   1.299  17.595 -0.5101 -2.4706 -0.0487
 2700SOL    HW219560   1.881   1.320  17.632 -1.6675 -1.8924 -1.4792
 2701SOL     OW19561   3.867   3.828   7.058  0.4780  0.0312  0.6561
 2701SOL    HW119562   3.877   3.811   6.964  1.0287  0.1180  0.6984
 2701SOL    HW219563   3.809   3.904   7.058 -0.3423 -0.5914  1.3141
 2702SOL     OW19564   3.843   3.391   7.309  0.1610  0.0837 -1.0748
 2702SOL    HW119565   3.826   3.480   7.278 -0.5262  0.6850  1.0450
 2702SOL    HW219566   3.895   3.412   7.386 -0.6061 -3.0631  0.2821
 2703SOL     OW19567   1.480   1.416  17.517 -0.0476 -0.1653 -0.6054
 2703SOL    HW119568   1.531   1.343  17.483  0.9615 -0.4876  1.5811
 2703SOL    HW219569   1.472   1.468  17.438  0.6787  0.2604 -0.3957
 2704SOL     OW19570   0.671   1.135  15.502 -0.0863 -1.0981  0.0835
 2704SOL    HW119571   0.693   1.149  15.594 -0.7734 -1.8921  0.3737
 2704SOL    HW219572   0.756   1.137  15.457  0.6994 -1.1681  1.5828
 2705SOL     OW19573   1.865   3.291   7.264  0.2318 -0.0822 -0.1049
 2705SOL    HW119574   1.957   3.282   7.287  0.4671  0.8001 -0.6770
 2705SOL    HW219575   1.827   3.204   7.274 -1.6497  0.7860  0.2759
 2706SOL     OW19576   1.860   3.526   7.925 -0.0371  0.0425  0.5940
 2706SOL    HW119577   1.794   3.551   7.990 -0.3545  2.5139 -0.6700
 2706SOL    HW219578   1.901   3.451   7.968  2.5375  0.2638 -1.4959
 2707SOL     OW19579   2.004   4.102   3.618  0.3357  0.6563  0.2865
 2707SOL    HW119580   2.100   4.104   3.621  0.4167 -0.6823 -1.5529
 2707SOL    HW219581   1.987   4.022   3.668 -0.3513  0.5870 -0.0520
 2708SOL     OW19582   1.187   0.109   5.692  0.3204 -0.0169  0.0816
 2708SOL    HW119583   1.224   0.027   5.724 -2.8187 -1.2825  0.5226
 2708SOL    HW219584   1.166   0.080   5.603 -1.1639  2.6581 -0.4707
 2709SOL     OW19585   3.341   3.203   6.207  0.2343 -0.1483  0.0930
 2709SOL    HW119586   3.338   3.231   6.116 -1.0651  1.2481  0.5660
 2709SOL    HW219587   3.435   3.216   6.220  0.5045 -1.2742 -0.7503
 2710SOL     OW19588   0.570   4.661  14.926  0.2877 -0.4642 -0.0138
 2710SOL    HW119589   0.655   4.619  14.917  0.6428  0.0754  0.7861
 2710SOL    HW219590   0.516   4.596  14.971 -1.4113  1.5407  0.8718
 2711SOL     OW19591   3.256   0.951  15.898 -0.5716  0.2718 -0.3321
 2711SOL    HW119592   3.257   0.869  15.948 -3.3511 -1.2965 -2.8071
 2711SOL    HW219593   3.178   0.999  15.927 -2.0282 -2.1583 -0.1793
 2712SOL     OW19594   3.387   1.177  15.817 -0.0740  0.3819 -0.0998
 2712SOL    HW119595   3.458   1.141  15.763 -0.5247 -0.9635  0.2055
 2712SOL    HW219596   3.347   1.096  15.848 -2.1894  0.7032 -1.9237
 2713SOL     OW19597   0.252   0.228   2.608 -0.1885  0.6003 -0.3782
 2713SOL    HW119598   0.314   0.167   2.649  1.1747  0.4858 -2.6105
 2713SOL    HW219599   0.170   0.213   2.654  0.3982 -0.8304  0.1836
 2714SOL     OW19600   1.410   1.441   5.243  0.2183  0.0252  0.6304
 2714SOL    HW119601   1.318   1.448   5.268  0.3433 -0.2819  1.1861
 2714SOL    HW219602   1.421   1.521   5.192 -0.6153  0.9315  1.8689
 2715SOL     OW19603   3.225   2.980   3.347 -0.3887  0.3530 -0.2661
 2715SOL    HW119604   3.230   3.067   3.307 -0.3224  0.1489 -0.7089
 2715SOL    HW219605   3.209   3.016   3.434  1.1672 -3.3876  1.5655
 2716SOL     OW19606   1.841   0.280   8.071  0.2438  0.4883 -0.3082
 2716SOL    HW119607   1.797   0.359   8.103 -1.7599 -0.1597 -1.4492
 2716SOL    HW219608   1.852   0.231   8.152  0.9288  0.4862 -0.4043
 2717SOL     OW19609   3.729   2.804   2.421 -0.3064  0.1464 -0.5513
 2717SOL    HW119610   3.760   2.816   2.331 -1.5938 -2.9233 -1.3847
 2717SOL    HW219611   3.699   2.713   2.426  0.9160 -0.2974 -1.1943
 2718SOL     OW19612   3.696   0.441   6.959 -0.3670  0.1834 -0.2560
 2718SOL    HW119613   3.737   0.433   6.873 -3.7684  2.5541 -2.1089
 2718SOL    HW219614   3.680   0.350   6.986  0.0815 -0.0292 -0.7068
 2719SOL     OW19615   4.618   1.689   4.466 -0.4820  0.0004  0.0055
 2719SOL    HW119616   4.709   1.718   4.475 -0.0667 -1.4509  0.5369
 2719SOL    HW219617   4.647   1.616   4.412 -0.3400  1.0273 -1.2889
 2720SOL     OW19618   0.482   0.526  11.551 -0.4283 -0.0478  0.0624
 2720SOL    HW119619   0.482   0.599  11.614  1.5629  0.3155 -0.3312
 2720SOL    HW219620   0.563   0.478  11.569 -0.3504  0.5694  1.4422
 2721SOL     OW19621   0.259   0.422  10.537  0.2149 -0.3146 -0.2002
 2721SOL    HW119622   0.186   0.484  10.543  1.8872  1.5440  1.1298
 2721SOL    HW219623   0.214   0.345  10.503 -0.8365 -0.0195  0.5137
 2722SOL     OW19624   2.068   1.803   2.776 -0.0415  0.1491 -0.5322
 2722SOL    HW119625   2.114   1.880   2.810  0.1675  0.3146 -1.1886
 2722SOL    HW219626   2.141   1.743   2.761 -0.3514 -0.5910  0.9574
 2723SOL     OW19627   3.219   1.543   5.315  0.2673  0.6882  0.1629
 2723SOL    HW119628   3.259   1.457   5.307  1.7686  1.3252  0.7491
 2723SOL    HW219629   3.303   1.586   5.296  1.5873 -1.9457  0.0666
 2724SOL     OW19630   1.331   1.449   2.662  0.2236 -0.1265 -0.4682
 2724SOL    HW119631   1.322   1.544   2.668  1.3193  0.0102 -0.8626
 2724SOL    HW219632   1.413   1.446   2.712 -0.5561  0.1743  0.8432
 2725SOL     OW19633   3.228   1.290  13.002  0.3122  0.1823 -0.3090
 2725SOL    HW119634   3.279   1.224  12.955 -1.0625 -1.7439  0.9283
 2725SOL    HW219635   3.147   1.247  13.029 -1.2149  3.5365  0.4293
 2726SOL     OW19636   2.461   0.847   3.477  0.3747 -0.0700 -0.1738
 2726SOL    HW119637   2.509   0.929   3.466  1.9253 -0.9499 -0.0225
 2726SOL    HW219638   2.490   0.828   3.566  2.6895  0.3079 -0.8534
 2727SOL     OW19639   2.350   3.258   2.575  0.2963 -0.4206  0.4602
 2727SOL    HW119640   2.269   3.277   2.528 -0.5215 -1.6469  1.3567
 2727SOL    HW219641   2.402   3.225   2.501 -1.1199 -1.0509 -0.2601
 2728SOL     OW19642   3.685   3.937   8.981 -0.3642 -0.2297  0.1899
 2728SOL    HW119643   3.729   3.876   8.921  1.7669 -1.5505  3.0935
 2728SOL    HW219644   3.673   3.889   9.063  0.1225 -0.3506  0.1956
 2729SOL     OW19645   3.249   2.835  16.919 -0.3088  0.0814  0.1402
 2729SOL    HW119646   3.273   2.747  16.891 -0.9179  0.3662 -1.2625
 2729SOL    HW219647   3.296   2.825  17.002  1.0082  0.8393 -0.5060
 2730SOL     OW19648   2.017   3.912  15.070  0.1760  0.0426  0.6228
 2730SOL    HW119649   1.991   4.002  15.090 -0.8734 -0.4333  1.3311
 2730SOL    HW219650   2.090   3.894  15.130 -0.0805 -1.7117  0.3964
 2731SOL     OW19651   2.560   3.605   4.454 -0.0925 -0.1577  0.6245
 2731SOL    HW119652   2.477   3.616   4.501 -1.1904  0.9668 -1.5870
 2731SOL    HW219653   2.622   3.646   4.515  0.5122  0.7687 -0.6007
 2732SOL     OW19654   0.976   4.187   6.537 -0.1380 -0.1854  0.3237
 2732SOL    HW119655   1.003   4.097   6.519 -0.5759 -0.8878  3.1513
 2732SOL    HW219656   0.887   4.183   6.503  0.3946 -0.1087 -1.0494
 2733SOL     OW19657   3.570   1.657  10.500 -0.0189  0.7081  0.0139
 2733SOL    HW119658   3.516   1.701  10.434 -0.7364  2.2830  1.6465
 2733SOL    HW219659   3.628   1.732  10.503 -0.0638  0.7719 -0.7864
 2734SOL     OW19660   1.235   1.495   4.533 -0.1306  0.3257  0.5263
 2734SOL    HW119661   1.287   1.416   4.549  0.9360  0.5612 -1.8730
 2734SOL    HW219662   1.213   1.510   4.625  0.5899 -0.5296  0.8451
 2735SOL     OW19663   0.680   3.308   4.059 -0.4904  0.4997  0.8619
 2735SOL    HW119664   0.689   3.373   3.989 -0.3554  0.2633  0.6599
 2735SOL    HW219665   0.740   3.241   4.026  0.9332  1.9933  0.3757
 2736SOL     OW19666   0.432   2.363   1.273  0.1496 -0.0456 -0.1349
 2736SOL    HW119667   0.444   2.293   1.337  0.6285 -1.4174 -1.7296
 2736SOL    HW219668   0.426   2.435   1.336  0.8779  1.3431 -1.6532
 2737SOL     OW19669   2.061   4.272   6.801 -0.3498  0.4817 -0.0212
 2737SOL    HW119670   2.056   4.227   6.885 -1.5282 -0.3988 -0.5683
 2737SOL    HW219671   1.969   4.296   6.790 -0.8519 -0.2670  2.5533
 2738SOL     OW19672   0.910   4.271   7.964 -0.0086  0.2941  0.2208
 2738SOL    HW119673   0.864   4.245   7.884 -0.6363 -2.7803  1.5853
 2738SOL    HW219674   0.940   4.359   7.938  0.4175  0.3213  0.7965
 2739SOL     OW19675   4.482   3.360  16.337  0.4875  0.6046 -0.1979
 2739SOL    HW119676   4.522   3.447  16.349  2.2313  0.1754 -2.8249
 2739SOL    HW219677   4.411   3.381  16.277  1.6449  1.9808 -1.1049
 2740SOL     OW19678   1.272   3.755   4.654 -0.1593 -0.2499  0.3982
 2740SOL    HW119679   1.222   3.811   4.593  1.1152 -0.8485 -1.1877
 2740SOL    HW219680   1.236   3.784   4.738 -1.4469 -0.8228  0.0515
 2741SOL     OW19681   1.053   3.792   4.875 -0.0308  0.5810 -0.0737
 2741SOL    HW119682   0.959   3.802   4.856  0.4532  1.3572 -2.0206
 2741SOL    HW219683   1.066   3.705   4.914 -2.1710 -0.0004 -0.6173
 2742SOL     OW19684   4.134   1.224   3.827  0.0115  0.2949 -0.0502
 2742SOL    HW119685   4.063   1.160   3.818  0.1010 -0.0739  1.8278
 2742SOL    HW219686   4.098   1.274   3.901  1.5616 -0.2359  1.0761
 2743SOL     OW19687   1.290   2.274  11.177  0.4924  0.0098  0.6400
 2743SOL    HW119688   1.241   2.196  11.152 -0.3389  1.6864 -2.9640
 2743SOL    HW219689   1.238   2.307  11.251  1.5122  0.4759  1.1545
 2744SOL     OW19690   0.917   4.369   0.458  0.1893  0.4668  0.2258
 2744SOL    HW119691   0.970   4.439   0.496  1.0745 -0.1691  0.1793
 2744SOL    HW219692   0.877   4.331   0.536  1.5251 -1.1203  0.1439
 2745SOL     OW19693   3.328   0.925   5.641 -0.8424  0.0071  0.0880
 2745SOL    HW119694   3.268   0.923   5.567  1.5747 -0.9183 -1.8822
 2745SOL    HW219695   3.268   0.924   5.715 -0.0167  1.1708  0.7748
 2746SOL     OW19696   3.697   1.026  17.545 -0.1185 -0.5500 -0.3010
 2746SOL    HW119697   3.763   0.986  17.489 -0.5524 -0.2622 -1.0200
 2746SOL    HW219698   3.734   1.113  17.558  0.1608 -0.7321  0.1064
 2747SOL     OW19699   3.219   1.538   7.103 -0.4783  0.1625 -0.1359
 2747SOL    HW119700   3.311   1.530   7.129 -0.2556  0.7711 -0.7501
 2747SOL    HW219701   3.185   1.481   7.172 -2.6892  1.0541 -0.4871
 2748SOL     OW19702   2.722   0.948   7.065 -0.0541 -0.5321 -0.2725
 2748SOL    HW119703   2.662   1.010   7.023 -1.6746 -1.4475  0.6893
 2748SOL    HW219704   2.695   0.868   7.021 -1.0833 -0.0732 -0.4834
 2749SOL     OW19705   0.721   2.198  13.352 -0.0804  0.0174 -0.0754
 2749SOL    HW119706   0.804   2.216  13.309 -1.2443 -0.4542 -2.5793
 2749SOL    HW219707   0.715   2.276  13.406 -0.7926  0.3293 -0.5997
 2750SOL     OW19708   1.721   2.504  10.985  0.1559 -0.9122  0.2297
 2750SOL    HW119709   1.809   2.468  10.998  1.2549  2.0118  0.8644
 2750SOL    HW219710   1.686   2.466  11.065 -0.8105  1.8975  1.0977
 2751SOL     OW19711   1.088   1.398   4.061 -0.4691  0.3720 -0.4571
 2751SOL    HW119712   1.050   1.466   4.116 -0.8229 -0.6606  0.5652
 2751SOL    HW219713   1.079   1.433   3.972 -1.0706  2.2078  0.3215
 2752SOL     OW19714   3.678   4.606   5.050 -0.5575  0.2882  0.9944
 2752SOL    HW119715   3.615   4.660   5.003 -0.6028 -2.1983 -1.7615
 2752SOL    HW219716   3.678   4.631   5.142  0.5299 -0.9604  1.3385
 2753SOL     OW19717   0.901   0.985  16.893 -0.0325 -0.0951 -0.3312
 2753SOL    HW119718   0.873   0.953  16.807 -0.6063 -3.0171  0.9567
 2753SOL    HW219719   0.924   1.072  16.859 -1.9347  1.5265  2.5792
 2754SOL     OW19720   2.183   1.987   8.515 -0.7334 -0.1413 -0.3928
 2754SOL    HW119721   2.263   2.029   8.482 -0.7033 -0.4548 -0.7197
 2754SOL    HW219722   2.133   2.068   8.526 -1.0461 -0.5398  1.0469
 2755SOL     OW19723   4.580   3.480   5.351  0.1019  0.2821  0.0141
 2755SOL    HW119724   4.574   3.385   5.354 -0.6924  0.3180 -0.1943
 2755SOL    HW219725   4.523   3.513   5.421 -2.1791  1.5189 -2.4155
 2756SOL     OW19726   4.357   0.930   1.769  0.3465  0.2119  0.1416
 2756SOL    HW119727   4.341   0.870   1.696 -0.7205  0.0590  0.4991
 2756SOL    HW219728   4.372   1.014   1.727 -1.7502  1.2839  1.5469
 2757SOL     OW19729   3.092   1.496  10.565 -0.6325  0.9255  0.6422
 2757SOL    HW119730   3.034   1.462  10.496 -0.7346  1.4911  0.4471
 2757SOL    HW219731   3.072   1.589  10.554  2.3547  1.1979 -2.3120
 2758SOL     OW19732   2.430   1.679   7.292 -0.5012  0.0937  0.5993
 2758SOL    HW119733   2.405   1.771   7.300 -0.1020  0.0803  1.9795
 2758SOL    HW219734   2.343   1.639   7.291 -0.6941  0.5489 -0.4169
 2759SOL     OW19735   4.008   3.303  15.653 -0.3504 -0.6889 -0.2381
 2759SOL    HW119736   4.029   3.272  15.741  0.3573 -0.8785 -0.4743
 2759SOL    HW219737   4.003   3.398  15.667 -0.7797 -0.6350 -0.8032
 2760SOL     OW19738   2.014   3.190   7.704  0.1321 -0.0463 -0.0609
 2760SOL    HW119739   2.069   3.212   7.779  0.2570  1.6389 -0.6444
 2760SOL    HW219740   2.030   3.273   7.659 -1.7484  0.2149 -0.2263
 2761SOL     OW19741   4.333   4.596  15.802 -0.3763  0.1699 -0.6050
 2761SOL    HW119742   4.297   4.670  15.754 -0.9639  1.2050  1.4187
 2761SOL    HW219743   4.356   4.641  15.883 -0.9635 -0.8038  0.1056
 2762SOL     OW19744   3.709   1.777  17.531 -0.0909 -0.1418 -0.0296
 2762SOL    HW119745   3.779   1.793  17.595 -0.3545 -0.8689  0.4426
 2762SOL    HW219746   3.663   1.861  17.526  0.6966  0.2143 -1.1867
 2763SOL     OW19747   2.833   0.778   9.157 -0.0554  0.0453  0.1493
 2763SOL    HW119748   2.757   0.821   9.197  0.6549  1.2225  0.2222
 2763SOL    HW219749   2.789   0.755   9.075  4.2075  2.6775 -2.8687
 2764SOL     OW19750   3.215   3.068   1.739 -0.1062 -0.2481 -0.2909
 2764SOL    HW119751   3.196   2.984   1.781  0.4871 -0.0747  0.3261
 2764SOL    HW219752   3.263   3.042   1.660  0.3378 -0.0598 -0.0825
 2765SOL     OW19753   2.484   0.691  11.291  0.1960  0.0558  0.7944
 2765SOL    HW119754   2.459   0.710  11.381  0.0711 -0.2543  0.8250
 2765SOL    HW219755   2.412   0.740  11.250  0.0803  0.2390  1.2169
 2766SOL     OW19756   4.073   1.335   4.346 -0.2204 -0.2257  0.3012
 2766SOL    HW119757   4.105   1.257   4.300 -1.6351 -1.7693  1.8930
 2766SOL    HW219758   4.145   1.353   4.406  0.0349 -2.4169  0.6810
 2767SOL     OW19759   3.060   3.467   3.165  0.5443 -0.3846 -0.3950
 2767SOL    HW119760   3.153   3.484   3.181  0.8347 -0.4447 -1.9593
 2767SOL    HW219761   3.035   3.526   3.093 -0.2025 -0.0440  0.1444
 2768SOL     OW19762   3.466   2.826   8.059  0.3171 -0.2769  0.6999
 2768SOL    HW119763   3.522   2.779   8.120  1.4066 -1.5661 -1.2911
 2768SOL    HW219764   3.512   2.805   7.978 -5.1628 -1.2066 -2.1853
 2769SOL     OW19765   1.525   0.330   2.782 -0.3192 -0.9544 -0.3040
 2769SOL    HW119766   1.573   0.322   2.699 -0.0074  1.2836 -0.3436
 2769SOL    HW219767   1.511   0.240   2.811 -0.3877 -1.2624 -1.2703
 2770SOL     OW19768   3.254   2.434   7.024  0.5089 -0.3019  0.1891
 2770SOL    HW119769   3.200   2.355   7.030 -0.1766  0.1472 -0.1305
 2770SOL    HW219770   3.272   2.424   6.931 -0.0654 -1.9441  0.2434
 2771SOL     OW19771   3.281   4.106   4.679  0.0649  0.6139 -0.1658
 2771SOL    HW119772   3.242   4.051   4.747 -0.8358 -0.1254 -1.2792
 2771SOL    HW219773   3.237   4.063   4.606 -1.3914  1.2071  0.3606
 2772SOL     OW19774   2.304   3.762   6.615  0.5831 -0.1447  0.2206
 2772SOL    HW119775   2.283   3.824   6.685  3.5344  0.5865  0.4679
 2772SOL    HW219776   2.235   3.698   6.631 -1.1048  1.4234 -0.8432
 2773SOL     OW19777   1.147   4.355  10.510  0.4520 -0.3489  0.0849
 2773SOL    HW119778   1.169   4.328  10.599 -0.8318  1.4921  0.9442
 2773SOL    HW219779   1.118   4.273  10.470  1.0245 -0.4518 -0.1136
 2774SOL     OW19780   3.907   3.121   7.443 -0.7197 -0.2614 -0.6032
 2774SOL    HW119781   3.885   3.188   7.378 -0.0815 -0.1945 -0.7458
 2774SOL    HW219782   4.002   3.122   7.438 -0.6703  1.9318  0.6054
 2775SOL     OW19783   0.419   2.458   4.656  0.4973 -0.2860 -0.2279
 2775SOL    HW119784   0.352   2.408   4.609  0.6014 -1.9038  1.3569
 2775SOL    HW219785   0.429   2.392   4.725  0.3587 -1.2267 -1.1023
 2776SOL     OW19786   2.689   0.863   3.664 -0.0286  0.5974 -0.0294
 2776SOL    HW119787   2.748   0.871   3.739  0.2532 -1.0708 -0.0840
 2776SOL    HW219788   2.742   0.902   3.594 -2.6595  0.4838 -2.0743
 2777SOL     OW19789   0.777   0.761   9.852 -0.1421  0.2581  0.3675
 2777SOL    HW119790   0.732   0.766   9.768  0.6233  1.1015  0.0117
 2777SOL    HW219791   0.870   0.771   9.831  0.6196 -1.6549  2.7858
 2778SOL     OW19792   2.470   1.720  10.379 -0.4780  0.0135  0.5766
 2778SOL    HW119793   2.480   1.625  10.379 -0.9532 -0.0276 -1.9723
 2778SOL    HW219794   2.402   1.734  10.445 -0.6549 -0.8856  0.5772
 2779SOL     OW19795   3.728   2.248   9.138  0.3035 -0.0492  1.0043
 2779SOL    HW119796   3.793   2.297   9.088 -0.7172 -0.8185 -1.0635
 2779SOL    HW219797   3.763   2.251   9.227 -0.8590 -0.5358  1.4772
 2780SOL     OW19798   4.052   2.461   7.341 -0.0955 -0.2091 -0.0688
 2780SOL    HW119799   4.051   2.447   7.246 -1.8429 -1.4217  0.1457
 2780SOL    HW219800   4.106   2.386   7.366 -1.2673 -1.0354 -0.0011
 2781SOL     OW19801   2.664   3.854  16.666  0.0798  0.1141 -0.7417
 2781SOL    HW119802   2.634   3.821  16.582 -0.7609  0.9152 -0.7528
 2781SOL    HW219803   2.605   3.928  16.678  0.1444  0.1469 -0.6230
 2782SOL     OW19804   2.044   3.509   4.973  0.1003  0.2994 -0.6002
 2782SOL    HW119805   2.101   3.583   4.954  0.3153  0.5299  0.9637
 2782SOL    HW219806   1.988   3.561   5.030  0.2550 -0.5008  0.2733
 2783SOL     OW19807   1.392   1.888   3.171  0.2202  0.1388 -0.2814
 2783SOL    HW119808   1.345   1.808   3.194  2.0545 -0.5183  1.2721
 2783SOL    HW219809   1.406   1.866   3.079 -0.2504 -2.0820  0.1783
 2784SOL     OW19810   1.126   0.216   2.796 -0.6519  0.1956 -0.2111
 2784SOL    HW119811   1.184   0.292   2.785 -1.0579  0.3138 -1.6005
 2784SOL    HW219812   1.164   0.146   2.744 -0.8320  1.1440 -1.6391
 2785SOL     OW19813   3.170   0.232   1.162 -0.2176  0.3990  0.5751
 2785SOL    HW119814   3.120   0.191   1.232 -1.3488 -0.6471 -0.8446
 2785SOL    HW219815   3.143   0.324   1.165  0.0872  0.5667 -1.9801
 2786SOL     OW19816   2.753   4.133   5.784 -0.0660  0.7015 -0.2149
 2786SOL    HW119817   2.695   4.068   5.743  0.0087  0.4614  0.0555
 2786SOL    HW219818   2.697   4.210   5.777 -0.0027  0.9232  1.7174
 2787SOL     OW19819   3.758   2.265   2.139  0.8335  0.0819  0.1119
 2787SOL    HW119820   3.792   2.257   2.050  0.6305  0.1257  0.0321
 2787SOL    HW219821   3.670   2.230   2.128  1.1103 -1.2388  2.1557
 2788SOL     OW19822   2.957   3.167   5.455 -0.1875 -0.4935  0.8085
 2788SOL    HW119823   3.041   3.137   5.421 -1.6195 -3.5179 -0.0064
 2788SOL    HW219824   2.981   3.253   5.490 -1.2923  0.2179 -0.1618
 2789SOL     OW19825   3.548   2.894   6.495  0.5669 -0.5838 -0.0768
 2789SOL    HW119826   3.639   2.892   6.466  0.7308  2.2691  0.2208
 2789SOL    HW219827   3.499   2.905   6.414 -0.6111  1.6324  0.9283
 2790SOL     OW19828   1.259   2.097   3.596 -0.4169 -0.1384  0.0964
 2790SOL    HW119829   1.279   2.004   3.582 -1.0697 -0.4516  1.2368
 2790SOL    HW219830   1.248   2.129   3.506  3.2835  1.6660  0.2972
 2791SOL     OW19831   0.068   4.586   4.972  0.2098 -0.5741  0.1893
 2791SOL    HW119832   0.084   4.611   4.881  0.6510 -2.2017 -0.1862
 2791SOL    HW219833   0.132   4.515   4.971 -0.2680 -1.0107  0.4589
 2792SOL     OW19834   1.416   4.376   4.723  0.1454  0.4478 -0.0908
 2792SOL    HW119835   1.374   4.320   4.787  0.4134 -0.8059 -1.0146
 2792SOL    HW219836   1.465   4.311   4.672 -1.2098 -0.5172 -0.1359
 2793SOL     OW19837   1.968   3.004  16.600  0.0702 -0.5743  0.2499
 2793SOL    HW119838   1.889   2.972  16.645  0.7671  0.8625  2.5158
 2793SOL    HW219839   1.982   2.939  16.531  1.5591 -0.2711  0.2560
 2794SOL     OW19840   1.655   3.683  14.580  0.2729 -0.2830  0.4669
 2794SOL    HW119841   1.618   3.687  14.492  1.4059 -1.3561 -0.0601
 2794SOL    HW219842   1.740   3.641  14.566  0.2561 -0.3200  0.4769
 2795SOL     OW19843   0.777   0.973  14.760 -0.8315 -0.0914  0.4824
 2795SOL    HW119844   0.689   1.001  14.734  0.0515  1.2829 -0.9581
 2795SOL    HW219845   0.805   0.927  14.681 -1.6307 -1.7450  1.1533
 2796SOL     OW19846   1.315   3.717   4.244 -0.1980 -0.5461 -0.0532
 2796SOL    HW119847   1.230   3.753   4.221 -0.0186 -0.7879 -1.0899
 2796SOL    HW219848   1.320   3.646   4.180  1.3531 -1.8879  1.5596
 2797SOL     OW19849   4.207   2.353  15.932 -0.1533  0.7074 -0.5385
 2797SOL    HW119850   4.121   2.339  15.970  0.9314  0.0740  1.6514
 2797SOL    HW219851   4.180   2.411  15.860  0.9705  0.7523 -0.9289
 2798SOL     OW19852   3.015   3.170   4.299 -0.4604  0.2056 -0.6712
 2798SOL    HW119853   3.016   3.261   4.269 -0.4249  0.3945 -0.1114
 2798SOL    HW219854   3.084   3.136   4.242 -0.2793  0.4312 -0.5867
 2799SOL     OW19855   2.517   1.651   3.189 -0.6046  0.2824  0.3658
 2799SOL    HW119856   2.430   1.618   3.209  0.5805 -2.9267  0.2987
 2799SOL    HW219857   2.560   1.637   3.273  1.3160 -0.7744 -0.7815
 2800SOL     OW19858   3.711   1.706   9.337 -0.2161  0.1356 -0.1697
 2800SOL    HW119859   3.660   1.772   9.383 -0.9899 -0.4593 -0.1810
 2800SOL    HW219860   3.650   1.634   9.326 -1.4888  0.9520  1.6648
 2801SOL     OW19861   3.768   2.955   8.259  0.2356 -0.1043  0.2617
 2801SOL    HW119862   3.860   2.928   8.261  0.5906  1.1293  0.9719
 2801SOL    HW219863   3.750   2.964   8.352 -3.4224  0.9748 -0.5659
 2802SOL     OW19864   0.210   0.516  11.632 -0.2419 -0.5592 -0.0886
 2802SOL    HW119865   0.147   0.514  11.559  0.6850 -0.5571 -0.8949
 2802SOL    HW219866   0.288   0.554  11.593 -0.2407 -1.3895 -0.9066
 2803SOL     OW19867   3.334   3.484   3.162 -0.0156  0.4479 -0.0406
 2803SOL    HW119868   3.379   3.519   3.239  2.0796 -0.8999 -0.6588
 2803SOL    HW219869   3.355   3.551   3.097  2.9086 -1.6200 -1.2004
 2804SOL     OW19870   1.092   3.703   1.154 -0.0627 -0.1431 -0.2440
 2804SOL    HW119871   1.138   3.786   1.146  1.0150 -0.4386  2.8952
 2804SOL    HW219872   1.000   3.730   1.145 -0.3291 -0.8303  0.3827
 2805SOL     OW19873   3.081   4.546  13.313 -0.6265  0.5865 -0.0001
 2805SOL    HW119874   3.120   4.632  13.296  2.0860 -1.0014 -1.8127
 2805SOL    HW219875   3.161   4.495  13.321 -1.7135 -1.3211 -1.0972
 2806SOL     OW19876   0.555   1.252   8.943 -0.0900 -0.2120 -0.0199
 2806SOL    HW119877   0.495   1.179   8.924  0.6885 -0.7264 -0.5136
 2806SOL    HW219878   0.554   1.240   9.038 -1.3509  0.7212  0.0818
 2807SOL     OW19879   4.281   2.743  16.215  0.2027 -0.2534 -0.6699
 2807SOL    HW119880   4.230   2.820  16.191  0.0203 -0.3144 -0.4811
 2807SOL    HW219881   4.361   2.775  16.257 -1.4083 -1.4498  3.3299
 2808SOL     OW19882   1.678   3.628  14.854  0.1054 -0.1746  0.1958
 2808SOL    HW119883   1.671   3.640  14.759  1.0766  0.3696  0.1929
 2808SOL    HW219884   1.709   3.712  14.887 -0.4961 -0.5887  1.8216
 2809SOL     OW19885   4.399   1.796   4.344  0.0169  0.2374  0.4867
 2809SOL    HW119886   4.483   1.790   4.389  0.7731  3.6315 -0.4880
 2809SOL    HW219887   4.426   1.819   4.255  0.4730  0.5227  0.6997
 2810SOL     OW19888   4.667   1.592  11.442  0.4009 -0.1924 -0.0252
 2810SOL    HW119889   0.015   1.655  11.448 -0.2526  0.3796  1.6637
 2810SOL    HW219890   4.662   1.587  11.346  1.4314 -0.9018 -0.0474
 2811SOL     OW19891   0.196   3.340  14.885 -0.0565 -0.3296  0.1153
 2811SOL    HW119892   0.154   3.269  14.837 -0.4585  0.0554 -0.1037
 2811SOL    HW219893   0.256   3.375  14.820 -1.2281 -1.3375 -1.4997
 2812SOL     OW19894   0.102   1.910  10.118 -0.3677  0.0168 -0.3110
 2812SOL    HW119895   0.095   1.864  10.035  0.0088  3.3471 -2.1928
 2812SOL    HW219896   0.193   1.891  10.141 -0.7465 -1.3205  0.0301
 2813SOL     OW19897   2.177   0.584  11.769  0.6932 -0.6052  0.2576
 2813SOL    HW119898   2.218   0.519  11.712  0.6296  1.1974 -1.8635
 2813SOL    HW219899   2.234   0.661  11.765  1.2633 -1.1767 -2.3003
 2814SOL     OW19900   2.575   1.950   7.129  0.3494 -0.4361 -0.1503
 2814SOL    HW119901   2.626   1.933   7.208 -1.2372 -1.4535  0.6431
 2814SOL    HW219902   2.502   2.006   7.157  0.3309  0.0467 -1.1856
 2815SOL     OW19903   1.032   2.558   3.167  0.0348 -0.0093 -0.5590
 2815SOL    HW119904   1.115   2.601   3.186 -0.5183  0.3994  0.9385
 2815SOL    HW219905   1.049   2.467   3.191  3.3094  0.4370 -1.2372
 2816SOL     OW19906   3.479   3.312   3.604 -0.0082 -0.1092 -0.3099
 2816SOL    HW119907   3.520   3.342   3.686  2.4053 -0.9430 -1.2207
 2816SOL    HW219908   3.427   3.234   3.624 -0.6892  1.0712  2.5894
 2817SOL     OW19909   1.525   2.592   8.506 -0.4453  0.2323 -0.2720
 2817SOL    HW119910   1.490   2.520   8.558 -0.8674 -0.1660 -1.1150
 2817SOL    HW219911   1.620   2.581   8.513 -0.7444 -1.9795  0.1605
 2818SOL     OW19912   2.311   2.419   3.476 -0.4275  0.1062 -1.1238
 2818SOL    HW119913   2.354   2.418   3.391  0.2276  1.4095 -0.8094
 2818SOL    HW219914   2.344   2.501   3.513 -0.7137 -0.6115  0.7290
 2819SOL     OW19915   0.665   3.240  12.160 -0.1783  0.2420  0.5764
 2819SOL    HW119916   0.746   3.213  12.118  0.6160  0.5247  1.9316
 2819SOL    HW219917   0.596   3.203  12.105  0.9428  0.4776 -1.0038
 2820SOL     OW19918   3.332   0.939   8.737  0.6843  0.2353 -0.0289
 2820SOL    HW119919   3.388   0.862   8.729  2.4493  1.7129 -1.8626
 2820SOL    HW219920   3.271   0.899   8.800  2.5505 -3.4938 -0.5655
 2821SOL     OW19921   0.847   4.087   8.169 -0.5804 -0.1533 -0.0704
 2821SOL    HW119922   0.869   4.154   8.234 -1.1694  0.3745 -0.4101
 2821SOL    HW219923   0.857   4.143   8.092  0.0239 -1.8872 -1.2412
 2822SOL     OW19924   2.997   0.831  10.492  0.8557  0.3357  0.0217
 2822SOL    HW119925   2.919   0.831  10.548  0.3114  1.0796 -0.7332
 2822SOL    HW219926   3.039   0.749  10.519 -1.8786 -1.1459 -0.1884
 2823SOL     OW19927   3.199   0.361   8.749  0.1431  0.0790 -0.4864
 2823SOL    HW119928   3.181   0.291   8.811 -2.4508 -0.4880 -1.8768
 2823SOL    HW219929   3.170   0.329   8.663  2.7761 -1.2630 -0.8561
 2824SOL     OW19930   3.518   3.562  13.709  0.2767 -0.4838 -0.0409
 2824SOL    HW119931   3.537   3.656  13.715  2.3523 -1.0112  1.2369
 2824SOL    HW219932   3.481   3.549  13.796 -0.5128 -0.3887 -0.3585
 2825SOL     OW19933   0.816   4.073   6.952  0.7147  0.3750  0.0646
 2825SOL    HW119934   0.879   4.032   6.892  0.9495  0.7881  0.0282
 2825SOL    HW219935   0.854   4.161   6.961 -2.3707  1.8352 -1.2853
 2826SOL     OW19936   0.785   1.734  16.825 -0.5727  0.4400 -0.1576
 2826SOL    HW119937   0.831   1.793  16.885 -1.7338 -0.7589  1.8911
 2826SOL    HW219938   0.760   1.800  16.760 -1.0545  0.4680  0.0574
 2827SOL     OW19939   2.252   1.872   6.585 -0.3917  0.3161  0.5306
 2827SOL    HW119940   2.190   1.945   6.580  1.0316  1.5432  0.7918
 2827SOL    HW219941   2.333   1.923   6.593  0.2854 -0.4319 -1.4877
 2828SOL     OW19942   3.086   4.107   9.002 -0.7095  0.6640 -0.0493
 2828SOL    HW119943   3.139   4.138   9.076 -1.8125  0.0217  0.9989
 2828SOL    HW219944   3.113   4.020   8.971  1.5781  1.3884 -0.0743
 2829SOL     OW19945   1.244   2.076   6.853 -0.2034 -0.1243 -0.0700
 2829SOL    HW119946   1.197   2.006   6.897  0.1692  0.8030  1.8042
 2829SOL    HW219947   1.287   2.025   6.784 -3.2387  0.3175 -2.2830
 2830SOL     OW19948   1.352   2.519   2.777  0.1062 -0.1280  0.0873
 2830SOL    HW119949   1.371   2.610   2.756 -0.3725 -0.4509 -1.6835
 2830SOL    HW219950   1.415   2.508   2.849  0.0536  0.4512  0.2219
 2831SOL     OW19951   4.119   0.562   6.291  0.2198  0.2213  0.0990
 2831SOL    HW119952   4.158   0.482   6.257 -0.7021  0.6912 -2.0467
 2831SOL    HW219953   4.204   0.606   6.293  0.2378  0.2317 -1.0896
 2832SOL     OW19954   1.458   0.553  12.239 -0.2524  0.5476  0.1866
 2832SOL    HW119955   1.407   0.539  12.319 -0.9891  0.5753 -0.2814
 2832SOL    HW219956   1.413   0.489  12.185  1.2510 -1.5728  1.4611
 2833SOL     OW19957   0.659   0.204   4.505 -0.1776 -0.3668 -0.9135
 2833SOL    HW119958   0.661   0.124   4.557 -0.7029 -0.2571 -0.7302
 2833SOL    HW219959   0.698   0.268   4.564 -0.2715 -0.0289 -1.2199
 2834SOL     OW19960   4.528   4.453   3.518  0.4104  0.5137 -0.1330
 2834SOL    HW119961   4.590   4.526   3.528 -0.0563  0.9242 -0.2183
 2834SOL    HW219962   4.526   4.419   3.608 -1.6303  1.8897  0.3509
 2835SOL     OW19963   0.714   4.072   2.427  0.2653  0.3330  0.2581
 2835SOL    HW119964   0.648   4.133   2.394  0.1806  0.7165  1.1620
 2835SOL    HW219965   0.676   4.011   2.491 -1.5727  0.2578 -0.8805
 2836SOL     OW19966   0.845   1.549  11.011 -0.1293  0.0034 -0.7367
 2836SOL    HW119967   0.918   1.488  11.011  0.9832  1.3299 -1.2448
 2836SOL    HW219968   0.844   1.582  10.921 -1.6651 -1.6310 -1.3217
 2837SOL     OW19969   1.879   4.566   4.839 -0.2751  0.0590 -0.0726
 2837SOL    HW119970   1.867   4.542   4.747 -0.3763 -2.2256  0.5607
 2837SOL    HW219971   1.787   4.560   4.865  0.4760 -2.6005  1.8812
 2838SOL     OW19972   0.270   0.774  12.042 -0.7268 -0.1320  0.1374
 2838SOL    HW119973   0.196   0.714  12.042  0.1137 -1.1767  1.3626
 2838SOL    HW219974   0.274   0.814  11.955  0.3146 -3.2714 -1.2610
 2839SOL     OW19975   1.233   3.863  12.228 -0.3367 -0.1937 -0.2543
 2839SOL    HW119976   1.186   3.830  12.305 -3.4341  0.3365 -1.9071
 2839SOL    HW219977   1.313   3.891  12.272 -0.5308 -1.1568  0.7076
 2840SOL     OW19978   2.893   0.246   2.605  0.6893  0.6353 -0.6703
 2840SOL    HW119979   2.973   0.291   2.632  0.1990  0.5648  0.8808
 2840SOL    HW219980   2.841   0.319   2.572 -0.5167  0.0373 -0.0742
 2841SOL     OW19981   2.889   1.805   2.559  0.1806  0.6133 -0.0780
 2841SOL    HW119982   2.886   1.728   2.617  1.0052 -0.2608 -1.1716
 2841SOL    HW219983   2.984   1.813   2.567  0.0571  0.9563  1.1124
 2842SOL     OW19984   3.538   1.153   6.362  0.6857  0.7953 -0.7816
 2842SOL    HW119985   3.577   1.233   6.397  1.0999  0.2854 -0.0834
 2842SOL    HW219986   3.447   1.163   6.390  0.7800 -0.6558  0.0546
 2843SOL     OW19987   3.519   4.297   3.827 -0.3996  0.2513  0.2842
 2843SOL    HW119988   3.571   4.243   3.887 -0.9757  0.9345  1.3851
 2843SOL    HW219989   3.580   4.341   3.768  0.8397 -2.9191 -0.8348
 2844SOL     OW19990   1.685   1.494   5.811  0.1867 -0.1564 -0.1095
 2844SOL    HW119991   1.626   1.435   5.764 -1.4907  0.1299  1.6270
 2844SOL    HW219992   1.633   1.575   5.812  2.2748  1.2110 -2.4009
 2845SOL     OW19993   0.571   2.053   3.280  0.4195 -0.3495  0.3362
 2845SOL    HW119994   0.619   2.100   3.348  0.1882 -2.2438  1.8247
 2845SOL    HW219995   0.492   2.106   3.283  0.0798 -0.8781  0.8073
 2846SOL     OW19996   2.214   0.395   4.761  0.5833 -0.0421 -0.0604
 2846SOL    HW119997   2.197   0.305   4.786  3.4959  0.0112  2.0845
 2846SOL    HW219998   2.266   0.415   4.839 -0.1448  0.6246  0.2578
 2847SOL     OW19999   1.799   0.220   6.905 -0.0033 -0.3649  0.2822
 2847SOL    HW120000   1.883   0.239   6.947  0.3125 -0.0677 -0.4952
 2847SOL    HW220001   1.743   0.224   6.983  0.0056 -2.3101  0.3882
 2848SOL     OW20002   2.760   3.608  13.490 -0.0626 -0.5304 -0.4929
 2848SOL    HW120003   2.679   3.633  13.533  0.7239  0.9269  0.1467
 2848SOL    HW220004   2.791   3.567  13.571 -0.0543 -3.2985 -1.9051
 2849SOL     OW20005   1.477   0.550  17.151 -0.2664  0.0456  0.5013
 2849SOL    HW120006   1.398   0.604  17.155 -0.2361  0.1041  0.3074
 2849SOL    HW220007   1.539   0.614  17.186  1.9541 -1.3749 -0.8046
 2850SOL     OW20008   2.942   2.441  13.574 -0.0157  0.3406  0.2982
 2850SOL    HW120009   2.884   2.429  13.499  1.1954  0.8010 -0.7267
 2850SOL    HW220010   2.936   2.535  13.588  1.5659  0.7409 -1.5950
 2851SOL     OW20011   0.370   0.282   8.385  0.1045 -0.2630 -0.0112
 2851SOL    HW120012   0.434   0.275   8.314 -1.1298 -1.7091 -0.9875
 2851SOL    HW220013   0.436   0.306   8.450  1.3781 -1.8257 -0.7195
 2852SOL     OW20014   1.494   1.859   5.711 -0.2601  0.1298 -0.7343
 2852SOL    HW120015   1.561   1.809   5.759  0.0297  1.7793  0.5899
 2852SOL    HW220016   1.541   1.941   5.696 -1.5948  0.3049 -3.8404
 2853SOL     OW20017   2.487   0.465  16.661 -0.4949  0.3188 -0.2444
 2853SOL    HW120018   2.469   0.556  16.639  0.2405  0.8997  1.5014
 2853SOL    HW220019   2.411   0.415  16.631  1.7171 -2.4183 -1.3371
 2854SOL     OW20020   0.747   2.711   4.023  0.1626 -0.1029  0.1428
 2854SOL    HW120021   0.760   2.617   4.006  0.7056 -0.0238  0.1213
 2854SOL    HW220022   0.789   2.753   3.948  0.9797 -1.1524  0.0110
 2855SOL     OW20023   4.491   3.747   6.074  0.0346 -0.3520 -0.0177
 2855SOL    HW120024   4.506   3.729   6.167  0.2703  1.0029  0.2189
 2855SOL    HW220025   4.533   3.832   6.062  1.4889 -1.2362 -1.1012
 2856SOL     OW20026   0.993   0.138   2.042  0.5301 -0.1404  0.2474
 2856SOL    HW120027   0.981   0.097   1.956  0.8646 -0.8177  0.5304
 2856SOL    HW220028   0.918   0.197   2.050  2.1007  1.7471  0.9603
 2857SOL     OW20029   3.477   0.281  14.739 -0.4273 -0.6266  0.5462
 2857SOL    HW120030   3.509   0.321  14.820  2.4590  0.9035 -1.3592
 2857SOL    HW220031   3.554   0.232  14.709  0.2645  0.7774  0.0700
 2858SOL     OW20032   1.825   1.557   8.824 -0.3642  0.1845 -0.0945
 2858SOL    HW120033   1.738   1.517   8.828 -0.7557  1.0987  0.6760
 2858SOL    HW220034   1.794   1.625   8.764 -2.1741  0.9689  1.7280
 2859SOL     OW20035   0.801   2.849   7.271 -0.5198  0.4452 -0.0930
 2859SOL    HW120036   0.710   2.879   7.283 -0.6884  0.1805 -0.7324
 2859SOL    HW220037   0.838   2.881   7.353  0.3045 -0.5543 -0.0843
 2860SOL     OW20038   0.143   1.234   9.477 -0.2833  0.0912  0.3517
 2860SOL    HW120039   0.098   1.267   9.399  1.2995  3.1937  0.7411
 2860SOL    HW220040   0.136   1.139   9.489 -1.9211  0.1319 -0.2900
 2861SOL     OW20041   0.327   1.361   6.612 -0.3613 -0.1462 -0.0285
 2861SOL    HW120042   0.270   1.293   6.576 -1.6719  0.1818  1.4078
 2861SOL    HW220043   0.415   1.338   6.583  0.0690  0.1425  1.0495
 2862SOL     OW20044   2.140   4.569   6.964  0.0144 -0.2923 -0.3047
 2862SOL    HW120045   2.203   4.560   7.035  0.4766  1.0152 -0.5547
 2862SOL    HW220046   2.063   4.539   7.012  0.0368  0.3996  0.1466
 2863SOL     OW20047   0.210   1.408  11.955 -0.8724  0.0262  0.0035
 2863SOL    HW120048   0.164   1.448  11.881  0.3633 -2.3542 -2.0456
 2863SOL    HW220049   0.218   1.319  11.919  0.1132  0.0221  0.2305
 2864SOL     OW20050   2.731   1.874   7.342  0.0896  0.4828 -0.5655
 2864SOL    HW120051   2.749   1.952   7.393  0.4423  0.3644 -0.5067
 2864SOL    HW220052   2.736   1.803   7.406 -0.4335  1.3696  0.4510
 2865SOL     OW20053   1.142   2.769  17.544 -0.8601  0.5504 -0.1747
 2865SOL    HW120054   1.071   2.804  17.491  0.8575 -0.1956 -2.9388
 2865SOL    HW220055   1.216   2.810  17.499  0.5386 -1.2328  0.5214
 2866SOL     OW20056   1.400   4.305   3.348 -0.0956 -0.2958  0.0089
 2866SOL    HW120057   1.433   4.391   3.374 -0.3148 -0.6142  1.3702
 2866SOL    HW220058   1.372   4.326   3.259  1.1936 -0.8948 -0.5431
 2867SOL     OW20059   1.512   4.448  16.215 -0.6262 -0.1169 -0.5048
 2867SOL    HW120060   1.519   4.370  16.160  2.3223  1.5628 -2.5189
 2867SOL    HW220061   1.483   4.406  16.295 -1.5467 -1.8692 -1.7753
 2868SOL     OW20062   2.509   1.692  11.574  0.1325 -0.4140 -0.4356
 2868SOL    HW120063   2.428   1.689  11.625  1.9972 -2.0724  2.4285
 2868SOL    HW220064   2.564   1.733  11.640 -0.6777  1.7656 -1.1177
 2869SOL     OW20065   2.386   2.948   9.534 -0.4821  0.1693 -0.0630
 2869SOL    HW120066   2.399   2.909   9.448 -1.8837  0.9343 -0.6160
 2869SOL    HW220067   2.391   2.871   9.590  2.3350  1.5393  1.5879
 2870SOL     OW20068   3.282   2.278   8.599  0.3801  0.0087  0.0377
 2870SOL    HW120069   3.272   2.247   8.689  1.0842  0.0944  0.1418
 2870SOL    HW220070   3.307   2.200   8.551 -1.9442  0.2554 -1.5642
 2871SOL     OW20071   4.572   2.528  12.769  0.1735 -0.0084 -0.7226
 2871SOL    HW120072   4.518   2.513  12.691 -1.8735 -0.9552  0.8776
 2871SOL    HW220073   4.649   2.471  12.758 -0.4624 -1.1795  0.8307
 2872SOL     OW20074   1.876   4.515   7.814 -0.1235  0.0306 -0.1745
 2872SOL    HW120075   1.844   4.448   7.754 -0.4735  0.7097 -0.7473
 2872SOL    HW220076   1.842   4.590   7.765  1.0800 -0.8587 -2.3783
 2873SOL     OW20077   0.318   4.048  11.241  0.1569 -0.5037 -0.0502
 2873SOL    HW120078   0.357   3.995  11.172  1.4227  1.0267 -0.4974
 2873SOL    HW220079   0.399   4.085  11.276 -0.0898  0.7255 -0.7807
 2874SOL     OW20080   0.672   1.373   4.226  0.2948 -0.2861  0.0729
 2874SOL    HW120081   0.614   1.406   4.295  1.0322  1.8286 -0.3520
 2874SOL    HW220082   0.686   1.286   4.264 -0.3564 -0.7831 -0.8072
 2875SOL     OW20083   3.732   0.082  12.234 -0.0350  0.8523 -0.1832
 2875SOL    HW120084   3.662   0.040  12.184  2.7465 -2.9118 -0.8963
 2875SOL    HW220085   3.731   0.015  12.302  0.4423  0.9265 -0.0973
 2876SOL     OW20086   2.899   4.028   4.389 -0.2515  0.0410  0.6347
 2876SOL    HW120087   2.912   4.026   4.484 -0.0163 -0.8710  0.5885
 2876SOL    HW220088   2.964   3.963   4.362 -3.5897 -2.7655 -0.6735
 2877SOL     OW20089   4.403   3.763   2.486 -0.4288  0.2916 -0.2314
 2877SOL    HW120090   4.357   3.741   2.405 -0.0418 -1.8792  0.1265
 2877SOL    HW220091   4.489   3.759   2.443 -0.0685  5.4499  0.0143
 2878SOL     OW20092   0.180   1.488   3.218 -0.1576 -0.2489  0.3776
 2878SOL    HW120093   0.115   1.468   3.151  1.8136  0.2319 -1.6740
 2878SOL    HW220094   0.237   1.555   3.182  0.4165 -1.4476 -0.9539
 2879SOL     OW20095   3.607   1.681  13.064  0.2063 -0.0994 -0.0426
 2879SOL    HW120096   3.633   1.747  13.128 -2.2562  1.2743 -0.4501
 2879SOL    HW220097   3.692   1.651  13.033 -0.3058 -1.5808 -0.0193
 2880SOL     OW20098   0.279   2.679   2.820 -0.0331  0.3342  0.5281
 2880SOL    HW120099   0.301   2.759   2.773  0.5010  1.9918  3.5924
 2880SOL    HW220100   0.349   2.622   2.788 -1.1805 -1.6893  1.5723
 2881SOL     OW20101   4.205   4.408   3.362  0.7815 -0.0445 -0.1717
 2881SOL    HW120102   4.254   4.327   3.349  0.1761 -0.6108  1.1326
 2881SOL    HW220103   4.256   4.484   3.390 -1.9419  1.2203  1.3136
 2882SOL     OW20104   2.366   0.304   7.694  0.1123  0.0571 -0.0208
 2882SOL    HW120105   2.336   0.311   7.604 -1.6400 -0.1695  0.5337
 2882SOL    HW220106   2.286   0.266   7.731  1.3432 -0.2471  2.3564
 2883SOL     OW20107   0.974   1.940   4.294 -0.5206 -0.1417 -0.2225
 2883SOL    HW120108   0.910   1.977   4.355 -2.1757  0.1058 -2.1060
 2883SOL    HW220109   1.029   1.889   4.353 -2.3330 -0.7394  0.9660
 2884SOL     OW20110   1.611   0.994   5.728 -0.0684  0.1102 -0.2523
 2884SOL    HW120111   1.526   1.014   5.690  0.2486  2.6681  0.3901
 2884SOL    HW220112   1.604   0.899   5.723  3.1820 -0.0622 -1.5462
 2885SOL     OW20113   0.865   1.040   4.826 -0.1116 -0.6612  0.2137
 2885SOL    HW120114   0.930   1.066   4.761  0.0582 -0.9995  0.2522
 2885SOL    HW220115   0.900   0.959   4.862  1.4943 -0.8864 -1.9012
 2886SOL     OW20116   3.110   1.472  11.832 -0.0140 -0.0005 -0.1950
 2886SOL    HW120117   3.072   1.538  11.775  2.0923 -0.2752 -1.9018
 2886SOL    HW220118   3.201   1.494  11.851  0.0570 -2.7087  2.6040
 2887SOL     OW20119   2.106   3.708  17.193 -0.1047  0.5623  0.4871
 2887SOL    HW120120   2.186   3.745  17.230  1.6949 -0.7177 -2.1393
 2887SOL    HW220121   2.082   3.779  17.134  1.8825  1.2031  0.4736
 2888SOL     OW20122   4.049   3.311  15.946  0.2479 -0.7761  0.0891
 2888SOL    HW120123   4.014   3.340  16.030  0.9577 -2.0633  0.8425
 2888SOL    HW220124   4.000   3.229  15.943 -0.7042 -0.2033 -0.1211
 2889SOL     OW20125   0.689   0.031   6.847 -0.1059  0.2202  0.1046
 2889SOL    HW120126   0.666   0.122   6.827 -0.0101  0.1151 -0.4748
 2889SOL    HW220127   0.709   0.000   6.759  3.0184 -0.0704  0.9269
 2890SOL     OW20128   2.462   2.497  13.515 -0.0238 -1.0525  0.2349
 2890SOL    HW120129   2.385   2.549  13.491  1.7611  0.4391 -2.2321
 2890SOL    HW220130   2.533   2.555  13.487 -3.3517  1.2815 -3.4043
 2891SOL     OW20131   0.512   2.317   8.390  0.2944  0.0672 -0.0486
 2891SOL    HW120132   0.590   2.270   8.361 -1.0530 -0.1712 -3.3266
 2891SOL    HW220133   0.534   2.347   8.478  2.0427 -0.0684 -0.4452
 2892SOL     OW20134   4.534   2.415   4.955 -0.5291 -0.7546  0.0181
 2892SOL    HW120135   4.591   2.419   4.878 -0.9816  3.4855 -0.1329
 2892SOL    HW220136   4.496   2.503   4.949  0.7292 -0.1778  0.3776
 2893SOL     OW20137   2.005   4.483  12.800  0.3382 -0.3319 -0.3441
 2893SOL    HW120138   2.053   4.418  12.852 -0.2300  0.5550  1.3042
 2893SOL    HW220139   2.082   4.538  12.785 -0.4330  0.4973 -1.2409
 2894SOL     OW20140   2.441   0.489  13.540 -0.0635  0.1358  0.8476
 2894SOL    HW120141   2.378   0.533  13.483  0.8470  0.1263 -0.1544
 2894SOL    HW220142   2.381   0.428  13.584  1.9256 -1.1498  1.7908
 2895SOL     OW20143   3.926   0.159   2.104 -0.6129  0.4725  0.3637
 2895SOL    HW120144   3.894   0.178   2.016  1.1527 -0.2335 -0.4573
 2895SOL    HW220145   3.856   0.100   2.132  0.3651 -0.8806  0.0067
 2896SOL     OW20146   3.063   3.349  15.219 -0.5828 -0.5879  0.2234
 2896SOL    HW120147   3.125   3.288  15.258  1.1538  1.6513  0.9523
 2896SOL    HW220148   2.987   3.292  15.223 -0.7231 -0.4117  0.0818
 2897SOL     OW20149   3.147   1.753   2.872 -0.5193 -0.2332  0.0339
 2897SOL    HW120150   3.113   1.679   2.922 -1.8830  0.0338 -0.5264
 2897SOL    HW220151   3.082   1.822   2.877 -1.1053 -0.5696 -3.1488
 2898SOL     OW20152   0.875   1.401   7.706 -0.0325 -0.0094  0.1103
 2898SOL    HW120153   0.908   1.317   7.674 -1.6010 -1.3892  2.1283
 2898SOL    HW220154   0.797   1.421   7.654 -0.6633 -0.9223  0.7293
 2899SOL     OW20155   0.361   2.851   7.567 -0.0030 -0.3087  0.4353
 2899SOL    HW120156   0.273   2.813   7.577 -0.5732  0.9789  0.3041
 2899SOL    HW220157   0.352   2.931   7.515  2.5132 -0.4272 -0.1556
 2900SOL     OW20158   4.296   3.490  16.171 -0.3820 -0.3929 -0.9442
 2900SOL    HW120159   4.217   3.499  16.223  1.4848 -1.0985  1.9842
 2900SOL    HW220160   4.347   3.571  16.177 -1.1003  0.2013 -2.6772
 2901SOL     OW20161   2.333   4.685   3.448 -0.3672 -0.1365  0.3263
 2901SOL    HW120162   2.327   4.675   3.353  2.5274 -0.2197  0.1740
 2901SOL    HW220163   2.250   4.650   3.481 -0.9870  0.5545 -0.5072
 2902SOL     OW20164   4.631   0.905   9.230 -0.4242 -0.3749 -0.6007
 2902SOL    HW120165   4.547   0.866   9.253 -0.2177 -1.3615 -1.4855
 2902SOL    HW220166   4.599   0.976   9.174  0.5634  2.1390  2.0122
 2903SOL     OW20167   4.540   3.734   5.218  0.4394 -0.8145  0.0711
 2903SOL    HW120168   4.484   3.713   5.143 -1.9046 -0.3643  1.6848
 2903SOL    HW220169   4.550   3.655   5.271  1.2389 -1.0994 -0.5032
 2904SOL     OW20170   2.276   1.489   7.045 -0.2426 -0.8965  0.1056
 2904SOL    HW120171   2.261   1.532   7.129 -1.1542  0.1355 -0.5879
 2904SOL    HW220172   2.238   1.554   6.986  2.0891 -0.1999 -0.6203
 2905SOL     OW20173   1.211   1.389   1.957 -0.4270 -0.1908 -0.7610
 2905SOL    HW120174   1.178   1.434   1.879 -0.0998 -0.4870 -1.0712
 2905SOL    HW220175   1.285   1.447   1.974 -1.2886  0.9058 -0.7848
 2906SOL     OW20176   3.030   4.313   8.143  0.0517 -0.4229 -0.1793
 2906SOL    HW120177   3.056   4.388   8.090 -2.3414  0.4535 -0.1153
 2906SOL    HW220178   3.047   4.335   8.234  0.6903  1.5288 -0.7706
 2907SOL     OW20179   3.966   0.809   3.610  0.5281 -0.4043  0.1776
 2907SOL    HW120180   4.019   0.759   3.548  1.9665  1.3469 -0.0116
 2907SOL    HW220181   4.029   0.816   3.681  0.6484  0.0392  0.0285
 2908SOL     OW20182   2.127   0.392   8.074 -0.3724 -0.3792  0.3550
 2908SOL    HW120183   2.116   0.454   8.146  0.2817  1.7161 -1.3430
 2908SOL    HW220184   2.033   0.379   8.060 -0.2638 -0.7259 -0.0675
 2909SOL     OW20185   3.760   1.398   7.596  0.4358  0.0281  0.2565
 2909SOL    HW120186   3.761   1.410   7.691  1.1871  1.5982  0.0455
 2909SOL    HW220187   3.852   1.376   7.582  0.7373  1.4022  0.1066
 2910SOL     OW20188   0.066   3.646   6.607 -0.2007 -0.0213 -0.3443
 2910SOL    HW120189   0.033   3.729   6.642  0.1912 -0.0681  0.1351
 2910SOL    HW220190   0.159   3.663   6.614 -0.3482  1.0908 -1.0831
 2911SOL     OW20191   2.744   0.448  16.569 -0.1397  0.2874 -0.5264
 2911SOL    HW120192   2.759   0.528  16.620  0.1906 -0.2804  0.2594
 2911SOL    HW220193   2.650   0.442  16.584 -0.3392  1.8403 -1.1700
 2912SOL     OW20194   2.414   1.000   6.300  0.1723  0.4643  0.2589
 2912SOL    HW120195   2.393   0.943   6.375  2.0584  0.3169  0.6766
 2912SOL    HW220196   2.333   1.050   6.309 -0.6644 -1.0524  1.1838
 2913SOL     OW20197   1.364   3.645  12.834 -0.0727  0.2914 -0.2605
 2913SOL    HW120198   1.284   3.613  12.792  1.0220 -1.2254 -1.2067
 2913SOL    HW220199   1.410   3.562  12.826 -0.9140 -0.2014  0.0593
 2914SOL     OW20200   0.666   4.381   7.558 -0.0843  0.0768  0.3219
 2914SOL    HW120201   0.599   4.404   7.494 -1.2008 -0.3317  1.3575
 2914SOL    HW220202   0.635   4.430   7.633 -0.3329  0.4612 -0.0310
 2915SOL     OW20203   0.655   0.776   7.572 -0.2803  0.2694 -0.1144
 2915SOL    HW120204   0.688   0.693   7.539 -0.6659 -1.0157  2.7722
 2915SOL    HW220205   0.620   0.759   7.660 -1.9477  1.0917 -0.6057
 2916SOL     OW20206   2.867   1.249   3.518 -0.1772  0.2735 -0.0788
 2916SOL    HW120207   2.862   1.201   3.436 -2.1161  2.7308 -1.3783
 2916SOL    HW220208   2.774   1.263   3.536 -0.7260 -0.7843 -2.1526
 2917SOL     OW20209   0.104   4.463   3.211  0.3699 -0.1173  0.7159
 2917SOL    HW120210   0.167   4.470   3.140 -1.9948 -0.0577 -1.3720
 2917SOL    HW220211   0.168   4.426   3.271 -1.1859 -0.5035  2.1572
 2918SOL     OW20212   4.204   4.113   4.136 -0.0474 -0.6328  0.2879
 2918SOL    HW120213   4.275   4.092   4.076  1.5953  1.6091  1.4439
 2918SOL    HW220214   4.257   4.146   4.209  0.2609  1.3334 -0.8361
 2919SOL     OW20215   0.261   0.951   6.318  0.2204  0.4483  0.1882
 2919SOL    HW120216   0.213   0.876   6.353 -4.4062  1.3489 -4.2438
 2919SOL    HW220217   0.310   0.902   6.252  0.0607  1.5607 -0.7440
 2920SOL     OW20218   2.310   2.204   7.060 -0.1073  0.0485 -0.3807
 2920SOL    HW120219   2.310   2.165   6.972  1.5456 -0.6836 -0.0556
 2920SOL    HW220220   2.397   2.241   7.075 -0.2844  0.5362 -0.5674
 2921SOL     OW20221   0.872   2.015  17.636  0.1431  0.4870 -0.3172
 2921SOL    HW120222   0.832   1.933  17.607 -1.8046  0.7389  1.6790
 2921SOL    HW220223   0.958   2.011  17.595  0.2982  1.2811 -0.0783
 2922SOL     OW20224   3.491   0.125   4.638 -0.1117  0.0292 -0.3861
 2922SOL    HW120225   3.459   0.199   4.689 -0.8747  0.6215 -1.7031
 2922SOL    HW220226   3.573   0.159   4.602  1.5032 -1.3324  2.0265
 2923SOL     OW20227   1.547   3.227   4.535  0.4040  0.2643 -0.2071
 2923SOL    HW120228   1.455   3.251   4.549  0.4236 -0.0011  0.3595
 2923SOL    HW220229   1.530   3.166   4.463  1.8005  0.2067 -0.4735
 2924SOL     OW20230   0.888   4.675   8.179  0.3253  0.0715  0.3500
 2924SOL    HW120231   0.960   4.705   8.234 -0.2200 -0.5856  1.4234
 2924SOL    HW220232   0.850   0.034   8.149  0.0395 -0.0429  0.4025
 2925SOL     OW20233   3.870   0.428   1.172 -0.7040  0.1695 -0.1861
 2925SOL    HW120234   3.839   0.515   1.199  1.3513  0.5314  0.9624
 2925SOL    HW220235   3.876   0.385   1.257  1.2682  1.7235  0.4697
 2926SOL     OW20236   4.632   4.225  16.573 -0.4009 -0.7793  0.1522
 2926SOL    HW120237   4.684   4.235  16.493 -0.0960 -0.0012  0.4519
 2926SOL    HW220238   4.558   4.281  16.551 -0.3896 -0.4242  1.0411
 2927SOL     OW20239   1.185   1.053  10.299 -0.0499  0.7925  0.0354
 2927SOL    HW120240   1.257   1.018  10.247  0.2020  0.2324  0.7540
 2927SOL    HW220241   1.178   0.998  10.377  1.6907  1.0616  0.3872
 2928SOL     OW20242   2.832   0.033   7.217 -0.3186  0.1743 -0.0558
 2928SOL    HW120243   2.912   0.025   7.165  0.3870 -0.1810  1.0806
 2928SOL    HW220244   2.855   0.006   7.306 -0.3761 -0.0080 -0.0974
 2929SOL     OW20245   1.357   1.736   0.680 -0.3326  0.3193 -0.5715
 2929SOL    HW120246   1.321   1.726   0.592 -0.0724  1.7204 -0.8271
 2929SOL    HW220247   1.385   1.827   0.684  3.5558 -0.8019 -1.8413
 2930SOL     OW20248   4.510   2.930  12.002  0.2000  0.4233  0.1099
 2930SOL    HW120249   4.573   2.907  11.933  1.6497  0.4146  1.4411
 2930SOL    HW220250   4.444   2.974  11.949  1.4547  3.7958  1.4094
 2931SOL     OW20251   1.402   3.329   7.128 -0.6380 -0.0549  0.5625
 2931SOL    HW120252   1.420   3.376   7.209 -0.6133 -0.8006  0.9946
 2931SOL    HW220253   1.451   3.247   7.143 -0.0206  0.1907 -0.1107
 2932SOL     OW20254   2.770   1.956   5.920  0.1524 -0.5331  0.3970
 2932SOL    HW120255   2.758   1.908   6.002 -2.8631 -0.5333 -0.0479
 2932SOL    HW220256   2.739   2.044   5.942 -0.0533 -0.5517  0.1732
 2933SOL     OW20257   1.952   2.265  10.150 -0.0977  0.3439 -0.2093
 2933SOL    HW120258   1.988   2.348  10.180  0.8121 -0.8319  1.9308
 2933SOL    HW220259   1.941   2.210  10.228  1.4556  1.5320  0.8300
 2934SOL     OW20260   0.939   0.968   3.107 -0.4847 -0.0289  0.4892
 2934SOL    HW120261   0.937   0.893   3.047  0.2427 -0.7883  1.4137
 2934SOL    HW220262   0.997   0.939   3.177  0.2381 -1.0407 -0.5198
 2935SOL     OW20263   0.522   3.207  12.702  0.3957  0.0976  0.0481
 2935SOL    HW120264   0.455   3.226  12.768 -0.9878  1.4470 -1.7354
 2935SOL    HW220265   0.521   3.111  12.701  1.1458  0.1030 -1.2927
 2936SOL     OW20266   1.202   0.186   7.315  0.5528 -0.1307  0.0257
 2936SOL    HW120267   1.288   0.183   7.359 -0.1258  1.3157  1.4653
 2936SOL    HW220268   1.146   0.203   7.391 -0.8232 -0.0280 -1.0276
 2937SOL     OW20269   1.723   0.912   1.347 -0.7010  0.2919  0.3175
 2937SOL    HW120270   1.713   1.001   1.379 -0.5830  0.1039  0.8793
 2937SOL    HW220271   1.680   0.859   1.414 -0.9753 -1.6748 -1.4162
 2938SOL     OW20272   3.910   4.590   5.677 -0.2364  0.0502 -0.0094
 2938SOL    HW120273   3.853   4.664   5.659 -1.1174 -0.3692  1.0882
 2938SOL    HW220274   3.996   4.629   5.693  0.4304 -1.0993 -0.8345
 2939SOL     OW20275   0.636   4.627   8.807  0.1377 -0.2610 -0.0471
 2939SOL    HW120276   0.677   4.711   8.830 -1.0272 -0.0141  1.0945
 2939SOL    HW220277   0.577   4.623   8.882 -1.7761  0.9694 -1.4918
 2940SOL     OW20278   0.366   0.234   5.752 -1.0025 -0.0656  0.2263
 2940SOL    HW120279   0.424   0.170   5.710 -0.4827  0.4131  0.2213
 2940SOL    HW220280   0.429   0.304   5.767  0.9053 -1.8451  0.6124
 2941SOL     OW20281   3.411   3.425   0.344  0.1622  0.1466  0.1202
 2941SOL    HW120282   3.462   3.344   0.347  0.1189  0.1763  1.6214
 2941SOL    HW220283   3.446   3.468   0.422  0.7281 -0.1731  0.0370
 2942SOL     OW20284   4.008   3.261   5.452  0.2448 -0.8094  0.3886
 2942SOL    HW120285   3.933   3.202   5.464 -1.0073  1.2130  2.5501
 2942SOL    HW220286   4.011   3.297   5.541 -4.0392 -0.6759  0.4637
 2943SOL     OW20287   0.573   2.834   7.975 -0.6282 -0.4446  0.1874
 2943SOL    HW120288   0.545   2.826   8.066 -2.0492 -0.6644 -0.2562
 2943SOL    HW220289   0.665   2.850   7.993 -0.7430  0.3055  0.1110
 2944SOL     OW20290   4.448   2.187   3.121  0.1601  0.1360  0.1760
 2944SOL    HW120291   4.375   2.201   3.061  0.9823  1.5125 -0.5037
 2944SOL    HW220292   4.476   2.278   3.131 -1.1707  0.5551  0.0781
 2945SOL     OW20293   4.382   1.796   5.500 -0.0052 -0.0204  0.0692
 2945SOL    HW120294   4.293   1.825   5.478 -0.2607 -1.8371 -1.3249
 2945SOL    HW220295   4.367   1.702   5.493  0.5915  0.0044 -1.5562
 2946SOL     OW20296   3.148   3.464   8.818  0.0198  0.4238  0.5962
 2946SOL    HW120297   3.140   3.372   8.842  2.6360 -0.1628 -0.7717
 2946SOL    HW220298   3.086   3.507   8.878 -2.3737 -1.2049 -0.6987
 2947SOL     OW20299   4.239   3.201   8.389  0.3901  0.3790 -0.3818
 2947SOL    HW120300   4.198   3.176   8.306 -0.3363 -1.4743  0.5454
 2947SOL    HW220301   4.168   3.204   8.453  0.0493 -0.1821 -0.7319
 2948SOL     OW20302   0.781   0.559   6.268 -0.5824 -0.3400 -0.2292
 2948SOL    HW120303   0.807   0.644   6.232 -2.3549 -0.5718 -2.0616
 2948SOL    HW220304   0.851   0.547   6.331  0.5942 -2.7010 -2.0049
 2949SOL     OW20305   2.484   2.345   2.363 -0.4136  0.5813 -0.4256
 2949SOL    HW120306   2.556   2.288   2.334  0.3397  1.5981 -0.5373
 2949SOL    HW220307   2.472   2.394   2.282 -0.7320  2.4436  0.7596
 2950SOL     OW20308   2.763   4.541  12.174  0.1594  1.0162 -0.1730
 2950SOL    HW120309   2.840   4.489  12.193  0.2850  1.2064 -0.1626
 2950SOL    HW220310   2.756   4.563  12.081  0.7205 -0.9955 -0.6816
 2951SOL     OW20311   2.736   0.183   3.958 -0.1202  0.2640  0.4585
 2951SOL    HW120312   2.710   0.091   3.959  0.8340 -0.0079 -0.3756
 2951SOL    HW220313   2.826   0.165   3.985  0.6330  0.9611 -1.5612
 2952SOL     OW20314   3.562   0.697   3.370 -0.0420 -0.5864 -0.0732
 2952SOL    HW120315   3.609   0.748   3.436 -1.1617 -0.1377  0.3649
 2952SOL    HW220316   3.563   0.752   3.292 -2.3910 -1.7111 -0.8832
 2953SOL     OW20317   3.223   3.477  11.171 -0.0820 -0.1786  0.4060
 2953SOL    HW120318   3.220   3.400  11.228  0.7225 -0.2087  0.4052
 2953SOL    HW220319   3.228   3.430  11.088 -3.1275 -1.4968  0.9638
 2954SOL     OW20320   4.619   4.488  10.187  0.2296 -0.1086 -0.0113
 2954SOL    HW120321   4.601   4.394  10.191  1.0863 -0.2293  1.2192
 2954SOL    HW220322   4.660   4.490  10.101 -1.1307  0.3171 -0.6408
 2955SOL     OW20323   0.795   3.823   5.419  0.2611 -0.4383 -0.1555
 2955SOL    HW120324   0.841   3.850   5.339  0.3455  1.1515  0.4247
 2955SOL    HW220325   0.868   3.828   5.481 -0.8503  0.6592  1.0530
 2956SOL     OW20326   3.475   4.537   8.871 -0.1607 -0.2446 -0.2314
 2956SOL    HW120327   3.421   4.458   8.875 -2.6847  1.4540 -0.8312
 2956SOL    HW220328   3.549   4.512   8.815 -0.9031  1.4475 -1.9355
 2957SOL     OW20329   1.541   3.549   6.318  0.2424  0.2492 -0.1425
 2957SOL    HW120330   1.463   3.605   6.331 -0.1664 -0.7846  1.8448
 2957SOL    HW220331   1.504   3.468   6.352  1.6149 -0.0207  0.6826
 2958SOL     OW20332   2.117   2.906   7.380  0.1278 -0.0036  0.1294
 2958SOL    HW120333   2.106   2.899   7.475 -0.6048  1.4745  0.1541
 2958SOL    HW220334   2.135   2.819   7.344 -2.8671 -1.3127  1.7497
 2959SOL     OW20335   3.574   2.159  17.112  0.0111 -0.1388 -0.3799
 2959SOL    HW120336   3.633   2.159  17.037 -1.3616  2.3723 -1.4762
 2959SOL    HW220337   3.625   2.098  17.165 -0.8216  1.3047  2.0788
 2960SOL     OW20338   1.047   3.292   1.515  0.6020 -0.6243 -0.1293
 2960SOL    HW120339   1.120   3.269   1.459  1.5524  1.6405  0.1555
 2960SOL    HW220340   1.072   3.384   1.527 -2.1134 -0.1779  2.1554
 2961SOL     OW20341   0.430   4.123  12.530 -0.0215  0.4280 -0.2199
 2961SOL    HW120342   0.475   4.082  12.605 -0.2703 -0.1853 -0.4029
 2961SOL    HW220343   0.357   4.160  12.579 -1.1917 -2.4837  0.2574
 2962SOL     OW20344   2.527   4.601  17.478 -0.3619  0.3148  0.3559
 2962SOL    HW120345   2.456   4.581  17.540 -0.3322  2.6653  1.1328
 2962SOL    HW220346   2.495   4.559  17.398  1.7642  0.1767 -0.4052
 2963SOL     OW20347   1.498   0.266   1.797 -0.4836  0.0611  0.0776
 2963SOL    HW120348   1.550   0.343   1.774  2.6458 -2.1682 -0.1910
 2963SOL    HW220349   1.414   0.309   1.815  0.2618  1.4415  0.2433
 2964SOL     OW20350   2.983   3.553  10.986 -0.7403 -0.1252 -0.0612
 2964SOL    HW120351   3.060   3.553  10.930  0.3490 -0.1667  1.4213
 2964SOL    HW220352   2.938   3.637  10.981  0.6033  0.6749  1.2849
 2965SOL     OW20353   2.377   2.731  13.202 -0.1910  0.1262 -0.1018
 2965SOL    HW120354   2.338   2.813  13.172  0.1601  0.6783  0.9364
 2965SOL    HW220355   2.304   2.671  13.189  0.6830 -0.7997 -0.6698
 2966SOL     OW20356   0.354   2.010  15.479  0.4500  0.1177  0.2216
 2966SOL    HW120357   0.308   2.027  15.396 -0.6400 -2.1590  0.3382
 2966SOL    HW220358   0.314   2.074  15.538  1.4455 -0.8766  1.9777
 2967SOL     OW20359   2.176   3.495   8.410  0.9497  0.0329 -0.0592
 2967SOL    HW120360   2.104   3.433   8.425 -0.9249  2.3930  0.7584
 2967SOL    HW220361   2.250   3.435   8.408 -0.1192 -1.2640 -0.5666
 2968SOL     OW20362   0.161   2.463   2.281  0.8255 -0.1125  0.3081
 2968SOL    HW120363   0.245   2.418   2.283  0.5621 -0.5003  2.6855
 2968SOL    HW220364   0.105   2.395   2.243 -0.5343  0.6508  0.9354
 2969SOL     OW20365   3.841   4.025   4.610 -0.0453  0.3214  0.6705
 2969SOL    HW120366   3.866   4.029   4.517 -0.5910 -0.3151  0.4954
 2969SOL    HW220367   3.912   4.073   4.653  0.2867  0.0842  0.3888
 2970SOL     OW20368   3.303   0.475   3.255 -0.2450  0.4355  0.5465
 2970SOL    HW120369   3.394   0.479   3.223 -0.9026  0.9846 -1.2726
 2970SOL    HW220370   3.272   0.392   3.220  2.0422  0.5778 -1.8103
 2971SOL     OW20371   0.667   1.358  14.524 -0.3317  0.4419 -0.4718
 2971SOL    HW120372   0.732   1.426  14.540  2.2397 -2.1979  0.1218
 2971SOL    HW220373   0.586   1.400  14.493 -0.1292 -0.0257 -1.6420
 2972SOL     OW20374   4.215   0.080   8.102  0.0964  0.1242 -0.4007
 2972SOL    HW120375   4.184   0.158   8.056 -0.8780 -1.4123 -2.3963
 2972SOL    HW220376   4.309   0.088   8.089  0.0538  0.0839 -0.7512
 2973SOL     OW20377   2.430   1.237   1.176  0.2388 -0.5645 -0.5217
 2973SOL    HW120378   2.375   1.207   1.103 -1.3758  0.3853  0.2831
 2973SOL    HW220379   2.395   1.325   1.191  0.8989 -0.6324  1.3798
 2974SOL     OW20380   0.838   3.421   7.325 -0.5400  0.1003  0.1385
 2974SOL    HW120381   0.923   3.451   7.358 -1.9206  2.0169  1.9047
 2974SOL    HW220382   0.848   3.435   7.231  0.5077 -0.5029  0.1539
 2975SOL     OW20383   4.641   3.381   3.645  0.1664  0.5725  0.3845
 2975SOL    HW120384   4.548   3.405   3.639 -0.3003 -1.2933  0.3514
 2975SOL    HW220385   4.677   3.433   3.573 -0.8526  0.1791 -0.4206
 2976SOL     OW20386   4.166   2.321  15.442 -0.2008  0.1896 -0.4178
 2976SOL    HW120387   4.125   2.235  15.432 -1.7488  0.4469  3.7716
 2976SOL    HW220388   4.249   2.300  15.486 -0.6840  0.5987  0.6794
 2977SOL     OW20389   0.852   2.957   4.151  0.5923  0.2365  0.0740
 2977SOL    HW120390   0.809   2.884   4.107  0.2965 -1.8123  3.7360
 2977SOL    HW220391   0.850   3.026   4.085 -1.2180  1.1525  1.0865
 2978SOL     OW20392   4.160   1.516   8.030 -0.3265 -0.3513 -0.5721
 2978SOL    HW120393   4.246   1.546   8.003  0.2167 -2.1351 -0.8532
 2978SOL    HW220394   4.157   1.425   8.001  1.0803 -0.4340 -0.4355
 2979SOL     OW20395   3.029   3.620   6.503  0.4804  0.3210 -0.2014
 2979SOL    HW120396   3.017   3.715   6.509 -2.3078  0.0529 -1.5678
 2979SOL    HW220397   3.043   3.609   6.409 -0.8147  3.7050 -0.8180
 2980SOL     OW20398   0.273   1.288   3.393 -0.2696  0.2610  0.5290
 2980SOL    HW120399   0.258   1.380   3.371  0.4467  0.4292  0.7588
 2980SOL    HW220400   0.235   1.245   3.316  3.2706 -0.5649 -0.7279
 2981SOL     OW20401   4.151   3.509  10.967 -0.0066 -0.2778  0.0410
 2981SOL    HW120402   4.101   3.489  10.888  1.3116 -2.2988 -0.2786
 2981SOL    HW220403   4.196   3.425  10.979 -1.0491 -0.9190 -0.5322
 2982SOL     OW20404   1.854   2.465  13.403 -0.2433 -0.3161  0.2069
 2982SOL    HW120405   1.766   2.437  13.426 -0.2294  0.0571  0.6990
 2982SOL    HW220406   1.888   2.388  13.357  0.6030 -0.5555  1.2313
 2983SOL     OW20407   3.556   1.169  15.373 -0.5792 -0.1810  0.2152
 2983SOL    HW120408   3.644   1.132  15.374 -0.2613  0.6370  2.0869
 2983SOL    HW220409   3.574   1.239  15.435 -1.7305  1.1495 -0.9423
 2984SOL     OW20410   3.422   4.045  15.433 -0.6864 -0.2080  0.0482
 2984SOL    HW120411   3.460   4.014  15.515 -1.0165 -0.3703  0.1385
 2984SOL    HW220412   3.396   4.133  15.460  0.8921  0.1964  0.2256
 2985SOL     OW20413   0.991   0.869   5.382 -0.4038  0.2185 -0.4693
 2985SOL    HW120414   1.078   0.872   5.422 -1.7749 -1.9823  2.6784
 2985SOL    HW220415   0.943   0.949   5.403  0.3441  0.2503  1.1337
 2986SOL     OW20416   1.434   4.238   8.817 -0.8196 -0.2207  0.4314
 2986SOL    HW120417   1.498   4.184   8.861 -0.7568  0.5166  1.2524
 2986SOL    HW220418   1.477   4.324   8.818  1.7007 -1.5045  0.4541
 2987SOL     OW20419   2.778   1.471  11.383  0.2904 -0.1951  0.2737
 2987SOL    HW120420   2.751   1.519  11.305  1.1867  0.5143  0.4028
 2987SOL    HW220421   2.700   1.420  11.405  0.7307 -1.5959 -1.4852
 2988SOL     OW20422   3.697   4.102  10.084 -0.6441  0.3403  0.2301
 2988SOL    HW120423   3.781   4.060  10.105  0.1360  2.2023  0.8433
 2988SOL    HW220424   3.643   4.024  10.079  3.0653 -2.1445 -1.3951
 2989SOL     OW20425   3.560   3.326   5.696  0.6017  0.1568  0.7895
 2989SOL    HW120426   3.488   3.264   5.713 -1.6576  2.6942  0.3751
 2989SOL    HW220427   3.532   3.355   5.609  1.5736 -2.1188 -0.2704
 2990SOL     OW20428   1.288   3.497  16.603  0.4337 -0.1453 -0.0033
 2990SOL    HW120429   1.364   3.488  16.545  0.2971 -0.4752 -0.1317
 2990SOL    HW220430   1.324   3.553  16.671  1.0351  0.1158 -0.5375
 2991SOL     OW20431   4.088   2.632  10.447  0.1934  0.0516  0.6259
 2991SOL    HW120432   4.086   2.728  10.449  1.3584  0.0845  0.1485
 2991SOL    HW220433   4.066   2.617  10.539 -1.2727  1.5494  0.5218
 2992SOL     OW20434   3.183   1.791  12.242  0.1931  0.1753  0.0738
 2992SOL    HW120435   3.260   1.841  12.215 -0.1877  1.0078  0.5521
 2992SOL    HW220436   3.124   1.802  12.168 -1.1554 -2.3192  0.7731
 2993SOL     OW20437   3.658   0.609   0.172 -0.1614 -0.2060  0.2258
 2993SOL    HW120438   3.668   0.638   0.263 -1.3513 -0.4302  0.4317
 2993SOL    HW220439   3.695   0.522   0.184 -0.0826 -0.3444 -0.9977
 2994SOL     OW20440   0.766   3.503  14.957  0.1383  0.7258  0.0447
 2994SOL    HW120441   0.824   3.569  14.996  1.5867  0.9795 -2.5036
 2994SOL    HW220442   0.769   3.440  15.028 -1.6486  0.5333 -0.0693
 2995SOL     OW20443   0.018   2.635   2.672 -0.3473  0.1901 -0.3730
 2995SOL    HW120444   0.033   2.709   2.614  0.5924  0.0781 -0.2642
 2995SOL    HW220445   0.098   2.634   2.724  1.1479 -1.5476 -2.7384
 2996SOL     OW20446   3.857   1.085   7.761 -0.0263 -0.1925  0.2574
 2996SOL    HW120447   3.919   1.155   7.739  1.0096 -1.3043 -0.2976
 2996SOL    HW220448   3.845   1.107   7.854 -2.1630  0.6837 -0.2289
 2997SOL     OW20449   4.647   4.111   7.083  0.2485  0.1163 -0.1568
 2997SOL    HW120450   4.622   4.203   7.077 -0.7483 -0.0536  1.3302
 2997SOL    HW220451   4.566   4.066   7.058 -0.7468  2.2000 -0.6528
 2998SOL     OW20452   0.551   2.668  11.258  0.9676 -0.0009 -0.7830
 2998SOL    HW120453   0.634   2.648  11.300  0.2762 -0.0770  0.5381
 2998SOL    HW220454   0.507   2.585  11.272  0.9156  0.4600  1.7984
 2999SOL     OW20455   4.525   4.655   4.707 -0.1948 -0.4241  0.3329
 2999SOL    HW120456   4.610   4.623   4.678 -0.0464 -0.2785  0.6078
 2999SOL    HW220457   4.555   0.005   4.761  2.1320 -1.5710  0.6169
 3000SOL     OW20458   1.883   1.554   6.947  0.0159 -0.2977  0.5054
 3000SOL    HW120459   1.967   1.536   6.905 -0.0385  2.5473 -0.8036
 3000SOL    HW220460   1.832   1.557   6.866  0.5397 -1.8997  0.1178
 3001SOL     OW20461   1.672   1.998  16.762  0.2637 -0.1183 -0.0214
 3001SOL    HW120462   1.592   1.982  16.812 -0.1380 -1.1302 -1.0029
 3001SOL    HW220463   1.745   1.961  16.811  2.2136  2.2337 -1.1619
 3002SOL     OW20464   0.941   3.263   2.327 -0.1973  0.7153  0.2602
 3002SOL    HW120465   0.934   3.273   2.232  0.5739 -0.4763  0.0776
 3002SOL    HW220466   1.011   3.325   2.349 -1.1461  0.9393  2.5969
 3003SOL     OW20467   2.384   3.657   7.795  0.2484  0.1995  0.3726
 3003SOL    HW120468   2.303   3.659   7.846  0.1053  0.1246  0.1444
 3003SOL    HW220469   2.449   3.670   7.864 -1.1134  0.5589  1.5979
 3004SOL     OW20470   4.697   4.148   3.788 -0.1755 -0.1422  0.0091
 3004SOL    HW120471   4.652   4.070   3.757 -1.1081  0.5933 -0.4856
 3004SOL    HW220472   4.629   4.215   3.790  0.1954  0.2489 -0.3749
 3005SOL     OW20473   0.813   2.048  16.896 -0.0737 -0.6656  0.2164
 3005SOL    HW120474   0.878   2.109  16.929 -0.1158 -0.5574  0.1009
 3005SOL    HW220475   0.776   2.018  16.978 -0.7070 -1.1159 -0.2375
 3006SOL     OW20476   3.523   2.045   8.528  0.2350 -0.3345 -0.1135
 3006SOL    HW120477   3.573   2.081   8.601 -0.1754  0.0225 -0.0069
 3006SOL    HW220478   3.460   1.997   8.582 -1.8899  2.1697 -0.3289
 3007SOL     OW20479   4.048   2.165   3.061  0.5150 -0.1933 -0.1800
 3007SOL    HW120480   3.973   2.160   3.120  1.4210  2.5525  1.2297
 3007SOL    HW220481   4.095   2.092   3.101  0.0341 -0.6426 -0.4450
 3008SOL     OW20482   1.581   2.685   9.440 -0.4963 -0.4251  0.1786
 3008SOL    HW120483   1.519   2.711   9.371 -1.7312 -0.4391  1.2906
 3008SOL    HW220484   1.603   2.598   9.406  0.1803  0.2951 -1.2399
 3009SOL     OW20485   4.362   1.736   0.248 -0.8640  0.3971 -0.6200
 3009SOL    HW120486   4.353   1.729   0.343  2.6546 -0.3459 -0.3351
 3009SOL    HW220487   4.429   1.804   0.242  0.8239 -1.1810  0.2631
 3010SOL     OW20488   3.132   1.892   5.397 -0.3799  0.7418  0.6789
 3010SOL    HW120489   3.053   1.885   5.450  2.2947 -1.2694  4.3351
 3010SOL    HW220490   3.194   1.848   5.454  0.6044 -0.2960 -1.1861
 3011SOL     OW20491   2.546   4.470   7.193 -0.1823  0.0722 -0.5452
 3011SOL    HW120492   2.584   4.497   7.109  1.2144  2.1168  0.7473
 3011SOL    HW220493   2.495   4.547   7.217  1.3862  0.3820  1.7443
 3012SOL     OW20494   3.077   1.877   8.434 -0.0381  0.2705  0.2250
 3012SOL    HW120495   3.124   1.823   8.498 -1.0061 -0.2794  0.4779
 3012SOL    HW220496   3.114   1.833   8.358  0.3951  1.5060 -0.2744
 3013SOL     OW20497   2.828   2.190  15.382 -0.2372 -0.6764 -0.1084
 3013SOL    HW120498   2.823   2.100  15.415  0.7049 -0.9646 -0.7645
 3013SOL    HW220499   2.733   2.198  15.371 -0.3022  0.2464  1.2525
 3014SOL     OW20500   0.480   1.239  13.702  0.1763 -0.3628 -0.0716
 3014SOL    HW120501   0.549   1.279  13.754 -1.5406  2.0857  0.3531
 3014SOL    HW220502   0.524   1.160  13.674 -1.0081 -0.8354 -0.6260
 3015SOL     OW20503   1.194   3.821  13.295  0.2916 -0.3072  0.5147
 3015SOL    HW120504   1.225   3.799  13.383  3.6477  0.7318 -0.4041
 3015SOL    HW220505   1.248   3.899  13.277 -0.6460  0.2172 -0.0435
 3016SOL     OW20506   2.759   1.038   0.099 -0.6428 -0.4376  0.0517
 3016SOL    HW120507   2.832   0.997   0.146  1.0000  0.4111 -1.7251
 3016SOL    HW220508   2.805   1.100   0.042 -1.9093  1.4331  1.0376
 3017SOL     OW20509   0.434   1.320  15.107  0.3335  0.4559 -0.5591
 3017SOL    HW120510   0.405   1.322  15.016 -1.8212  0.3428  0.1194
 3017SOL    HW220511   0.514   1.373  15.110  0.3710  0.3643  0.3026
 3018SOL     OW20512   1.616   3.134   6.579 -0.1308  0.1114  0.3652
 3018SOL    HW120513   1.660   3.112   6.661 -1.8493 -1.3091  0.8956
 3018SOL    HW220514   1.581   3.222   6.594  1.7314  0.9169  0.0117
 3019SOL     OW20515   4.647   0.951   0.954  0.3064 -0.3605  0.7188
 3019SOL    HW120516   4.614   1.016   0.892 -0.3214 -1.7113 -0.3667
 3019SOL    HW220517   4.613   0.992   1.033 -0.9009  1.6957 -0.8767
 3020SOL     OW20518   3.084   0.235  12.998 -0.7106  0.8326 -0.7590
 3020SOL    HW120519   3.072   0.228  12.903  3.4707 -0.2649 -1.2058
 3020SOL    HW220520   3.155   0.299  13.003  0.5522 -0.5072 -1.4953
 3021SOL     OW20521   4.718   0.166   2.773 -0.5177  0.6060  0.0886
 3021SOL    HW120522   4.658   0.097   2.801  0.0082 -0.4982 -1.5841
 3021SOL    HW220523   0.002   0.227   2.847  0.6770  0.5663  0.0042
 3022SOL     OW20524   0.713   3.433  16.889 -0.2335  0.0526  0.1686
 3022SOL    HW120525   0.753   3.378  16.822 -0.0613  0.3385  0.0342
 3022SOL    HW220526   0.622   3.405  16.880 -0.0349 -0.0561 -1.4450
 3023SOL     OW20527   0.227   3.239   4.833 -0.0354 -0.3797  0.3814
 3023SOL    HW120528   0.200   3.177   4.765 -0.7583 -0.6107  0.8746
 3023SOL    HW220529   0.269   3.187   4.902  0.0544 -2.4592 -1.2432
 3024SOL     OW20530   0.208   4.617   5.532 -0.4282 -0.2084 -0.4032
 3024SOL    HW120531   0.120   4.596   5.502 -1.2798  1.9136  0.5645
 3024SOL    HW220532   0.267   4.645   5.462 -0.0376 -0.8777 -0.3379
 3025SOL     OW20533   2.234   3.503   6.347  0.7406 -0.5479  0.0041
 3025SOL    HW120534   2.322   3.516   6.312  0.6768 -1.2763 -0.4186
 3025SOL    HW220535   2.191   3.461   6.273 -1.5323  1.3873  0.2278
 3026SOL     OW20536   4.496   2.617  16.000 -0.0702  0.3549 -0.7611
 3026SOL    HW120537   4.420   2.674  16.006 -1.4175 -1.3441 -1.6931
 3026SOL    HW220538   4.487   2.578  16.087  1.7042 -4.0812 -2.5129
 3027SOL     OW20539   4.562   1.017   8.553  0.0229 -0.3912  0.4512
 3027SOL    HW120540   4.508   1.077   8.606  0.5474  0.3925  0.0972
 3027SOL    HW220541   4.607   0.975   8.627  0.1299  1.2747  1.3339
 3028SOL     OW20542   0.562   3.903  12.035 -0.3242  0.2833 -0.1927
 3028SOL    HW120543   0.498   3.973  12.031  0.7147  1.2686  0.7269
 3028SOL    HW220544   0.501   3.846  12.081  1.2738 -0.7669  0.6333
 3029SOL     OW20545   1.160   2.264   5.816  0.4389 -0.4564  0.1095
 3029SOL    HW120546   1.163   2.318   5.737 -0.4455  0.1895  0.5179
 3029SOL    HW220547   1.117   2.185   5.782  1.2766 -1.7125  1.9493
 3030SOL     OW20548   0.063   1.893   7.640 -0.5409 -0.1345  0.3041
 3030SOL    HW120549   0.138   1.941   7.604  0.2142 -1.9606 -0.5582
 3030SOL    HW220550   0.103   1.807   7.650 -1.1086 -0.2933  1.1746
 3031SOL     OW20551   0.791   4.455   2.819 -0.1852 -0.3498  0.0803
 3031SOL    HW120552   0.848   4.407   2.879  0.4356  0.9293  0.5115
 3031SOL    HW220553   0.730   4.383   2.798 -1.4303  0.4900  0.8215
 3032SOL     OW20554   2.385   0.294   8.040  0.5846 -0.7521  0.3157
 3032SOL    HW120555   2.300   0.335   8.053  0.3037 -1.6939  1.4338
 3032SOL    HW220556   2.385   0.241   8.120 -0.2585  0.6356  1.2324
 3033SOL     OW20557   3.443   3.858   7.853 -0.0406 -0.0253  0.3240
 3033SOL    HW120558   3.425   3.904   7.771  0.4697 -0.0992  0.1749
 3033SOL    HW220559   3.522   3.804   7.847  0.5516  0.7882  0.8222
 3034SOL     OW20560   1.330   2.691   4.429 -0.0318 -0.0241  0.0131
 3034SOL    HW120561   1.350   2.784   4.442  0.5637 -0.4310  2.0024
 3034SOL    HW220562   1.368   2.649   4.506  1.2859 -0.1995 -0.7384
 3035SOL     OW20563   3.396   3.881  15.218  0.5229  0.1163  0.4147
 3035SOL    HW120564   3.388   3.956  15.277  0.1723  1.8589 -1.8486
 3035SOL    HW220565   3.489   3.858  15.213  1.3071  3.4204  0.1694
 3036SOL     OW20566   2.795   0.734   4.516 -0.4109  0.3348  0.2591
 3036SOL    HW120567   2.875   0.717   4.466 -0.5852  2.4028 -0.6980
 3036SOL    HW220568   2.793   0.641   4.542  0.8636  0.3250  0.3268
 3037SOL     OW20569   2.572   1.245  12.351  0.2105  0.0789 -0.0508
 3037SOL    HW120570   2.481   1.271  12.358 -0.8183 -4.0741  2.3108
 3037SOL    HW220571   2.589   1.277  12.440  2.3900 -0.9336 -0.0877
 3038SOL     OW20572   1.495   2.473  16.626  0.1823  0.2770 -0.3143
 3038SOL    HW120573   1.402   2.464  16.609  0.8255 -0.0957 -3.6896
 3038SOL    HW220574   1.517   2.383  16.650 -2.8672 -0.9548 -2.1643
 3039SOL     OW20575   4.152   3.597  10.597 -0.4096  0.1727  0.0641
 3039SOL    HW120576   4.110   3.680  10.574  1.2602  1.0613  0.2358
 3039SOL    HW220577   4.226   3.617  10.653 -1.2312  3.9498 -0.1918
 3040SOL     OW20578   2.883   0.640   8.694 -0.0420 -0.1514  0.0103
 3040SOL    HW120579   2.799   0.663   8.733  0.4866  1.9099 -0.0892
 3040SOL    HW220580   2.921   0.594   8.769  1.2351 -0.4402 -0.8034
 3041SOL     OW20581   3.930   2.364   8.284 -0.1800  0.3236 -0.1381
 3041SOL    HW120582   4.022   2.350   8.306  0.2177  1.2014 -1.2599
 3041SOL    HW220583   3.878   2.381   8.363 -0.3020  0.1278 -0.1778
 3042SOL     OW20584   1.629   4.287  13.172 -0.0600  0.6901  0.0591
 3042SOL    HW120585   1.548   4.336  13.189  0.1196  0.5195  1.4302
 3042SOL    HW220586   1.613   4.246  13.087 -1.3589  0.6454  0.3236
 3043SOL     OW20587   3.497   2.430   7.933 -0.1975 -0.0966  0.3622
 3043SOL    HW120588   3.528   2.340   7.945  3.9814  1.1675 -1.1516
 3043SOL    HW220589   3.426   2.412   7.871  0.9816 -1.1293 -0.6829
 3044SOL     OW20590   2.643   2.994   4.543  0.6142  0.2798 -0.1227
 3044SOL    HW120591   2.565   2.996   4.489  1.3150  1.2002 -1.1052
 3044SOL    HW220592   2.703   3.012   4.470  0.5586 -0.1188 -0.2670
 3045SOL     OW20593   2.951   1.242   6.569  0.0142  0.3336 -0.5482
 3045SOL    HW120594   2.882   1.306   6.550 -1.1944 -0.8745 -0.2475
 3045SOL    HW220595   2.905   1.162   6.594 -2.5248  2.0202  0.1253
 3046SOL     OW20596   4.573   3.626  16.121 -0.3037  0.4795  0.8414
 3046SOL    HW120597   4.649   3.679  16.098  1.5103 -1.5398  2.2078
 3046SOL    HW220598   4.594   3.538  16.091  0.9332  0.8708  0.5310
 3047SOL     OW20599   0.980   1.904   3.383 -0.0523 -0.5545 -0.2579
 3047SOL    HW120600   0.927   1.978   3.413  0.6525  0.1251 -0.6978
 3047SOL    HW220601   1.016   1.956   3.311 -2.2108  1.1032 -0.1083
 3048SOL     OW20602   4.083   1.030   0.785  0.5176 -0.2098 -0.5958
 3048SOL    HW120603   3.992   1.036   0.755 -1.0171 -1.5326  3.8241
 3048SOL    HW220604   4.122   0.975   0.717  1.5158 -0.8176  0.4694
 3049SOL     OW20605   4.600   3.988  12.140  0.2535  0.2706 -0.4485
 3049SOL    HW120606   4.593   4.044  12.064 -0.0998 -0.0317 -0.6402
 3049SOL    HW220607   4.653   4.043  12.196 -2.2960  2.9002 -0.6204
 3050SOL     OW20608   1.552   0.453   5.232  0.1020 -0.3134  0.5606
 3050SOL    HW120609   1.598   0.370   5.214  2.1020  1.4570 -2.5556
 3050SOL    HW220610   1.620   0.519   5.218 -0.1619  0.0025  0.7633
 3051SOL     OW20611   2.258   3.829   0.384 -1.0169  0.1984  0.4190
 3051SOL    HW120612   2.201   3.753   0.383  0.5258 -0.9774  0.9185
 3051SOL    HW220613   2.305   3.811   0.302 -1.3694 -0.3191  0.3291
 3052SOL     OW20614   1.325   0.437   8.707  0.2623  0.1036  0.0409
 3052SOL    HW120615   1.326   0.400   8.795 -0.6760 -0.9101 -0.3698
 3052SOL    HW220616   1.299   0.528   8.718 -0.5964 -0.2858  1.2166
 3053SOL     OW20617   4.441   2.829   7.221  0.3378 -0.0801 -0.2936
 3053SOL    HW120618   4.495   2.756   7.252  2.3586  1.1712 -0.8874
 3053SOL    HW220619   4.498   2.904   7.236 -2.9008  2.1189  1.0733
 3054SOL     OW20620   4.318   3.347  15.943  0.0998  0.1279  0.0102
 3054SOL    HW120621   4.330   3.399  16.023  3.6358 -1.5381  0.5863
 3054SOL    HW220622   4.223   3.344  15.932  0.0705 -0.3233  0.3948
 3055SOL     OW20623   0.315   1.171   4.349  0.0573  0.4372  0.0357
 3055SOL    HW120624   0.241   1.201   4.401 -0.1344  2.0654 -1.1643
 3055SOL    HW220625   0.335   1.238   4.283 -2.7279  1.0080 -0.2421
 3056SOL     OW20626   0.258   0.914  10.358  0.2971  0.0025  0.0667
 3056SOL    HW120627   0.166   0.926  10.335  0.8790 -1.6642 -3.0499
 3056SOL    HW220628   0.264   0.941  10.450  2.2066 -0.4502  0.0814
 3057SOL     OW20629   0.946   3.224   3.286 -0.3702 -0.0495  0.5043
 3057SOL    HW120630   0.880   3.209   3.354  2.4250  0.9733  3.4277
 3057SOL    HW220631   1.017   3.163   3.305  0.8564  1.3997  0.5514
 3058SOL     OW20632   2.820   0.917   3.412  0.5885  0.3842 -0.0922
 3058SOL    HW120633   2.819   0.824   3.386  1.2937  0.0929  0.9197
 3058SOL    HW220634   2.915   0.927   3.413  0.4807  1.1993  1.0733
 3059SOL     OW20635   3.878   0.306   0.488 -0.6731 -0.0776  0.4629
 3059SOL    HW120636   3.784   0.297   0.469 -0.3963  0.5042 -1.2509
 3059SOL    HW220637   3.892   0.235   0.550  0.1953 -0.0166  0.3356
 3060SOL     OW20638   4.483   0.153   5.353  0.2085  0.2037  0.5652
 3060SOL    HW120639   4.423   0.113   5.417 -0.0819 -0.1792  0.0545
 3060SOL    HW220640   4.511   0.231   5.401  2.7110  0.1449 -0.8428
 3061SOL     OW20641   1.947   4.381   4.440  0.3272 -0.3941 -0.5793
 3061SOL    HW120642   2.015   4.421   4.385 -0.1857  1.7912  0.3864
 3061SOL    HW220643   1.868   4.429   4.416 -1.0766 -1.9110  1.0046
 3062SOL     OW20644   3.380   2.668  11.497 -0.5861  0.0542  0.2638
 3062SOL    HW120645   3.419   2.602  11.555  1.1705  0.8919  0.0387
 3062SOL    HW220646   3.289   2.668  11.527 -0.9487 -0.9583 -0.8410
 3063SOL     OW20647   1.840   0.240   5.023 -0.4618 -0.6797  0.0820
 3063SOL    HW120648   1.821   0.309   4.959 -1.3411 -1.0836 -0.0965
 3063SOL    HW220649   1.854   0.292   5.102 -0.5856 -1.1725  0.4225
 3064SOL     OW20650   4.483   3.365  13.269 -0.2414  0.4753  0.2545
 3064SOL    HW120651   4.518   3.333  13.186 -0.6502  1.3613 -0.2635
 3064SOL    HW220652   4.409   3.305  13.274 -1.0841  1.4198 -0.8392
 3065SOL     OW20653   3.892   4.150  13.716 -0.1081 -0.3524  0.1295
 3065SOL    HW120654   3.954   4.091  13.674 -0.3363 -2.6391  2.9967
 3065SOL    HW220655   3.869   4.211  13.646 -1.2654 -1.0437 -0.1028
 3066SOL     OW20656   3.936   4.111   5.306 -0.0569 -0.1431 -0.0605
 3066SOL    HW120657   3.923   4.098   5.400 -0.9284 -0.2050 -0.1902
 3066SOL    HW220658   4.027   4.141   5.309 -1.1245  2.9600  0.2303
 3067SOL     OW20659   3.049   4.069  13.919  0.4146 -0.2879 -0.4127
 3067SOL    HW120660   3.075   4.125  13.846  0.6806 -0.9769 -0.8402
 3067SOL    HW220661   3.019   4.136  13.980  2.0449 -0.0935  0.1921
 3068SOL     OW20662   3.465   3.850   6.569  0.3470 -0.0526  0.0837
 3068SOL    HW120663   3.429   3.778   6.621 -1.9806 -0.1587 -1.6858
 3068SOL    HW220664   3.525   3.896   6.628  0.9536 -1.6157  0.6909
 3069SOL     OW20665   2.366   2.595   1.110  0.0239  0.2769  0.5793
 3069SOL    HW120666   2.272   2.579   1.105  0.0650  0.6913 -1.3235
 3069SOL    HW220667   2.364   2.688   1.084 -0.2022 -0.2067 -1.1205
 3070SOL     OW20668   2.983   2.639   8.635  0.7891  0.4254 -0.1098
 3070SOL    HW120669   2.942   2.555   8.613 -1.4967  0.4891  3.8781
 3070SOL    HW220670   3.027   2.675   8.558  2.1185 -0.5132  0.2085
 3071SOL     OW20671   2.090   1.614   8.884 -0.3398 -0.2126 -0.2563
 3071SOL    HW120672   2.128   1.652   8.805 -0.8902 -0.7575 -0.7862
 3071SOL    HW220673   1.997   1.609   8.861 -0.4173  0.2277 -0.0243
 3072SOL     OW20674   0.140   4.370   6.710 -0.4790  0.3454 -0.5209
 3072SOL    HW120675   0.070   4.350   6.648 -0.2539 -1.8434 -0.0476
 3072SOL    HW220676   0.147   4.291   6.762 -1.3291  0.5255 -0.1412
 3073SOL     OW20677   4.069   3.844  11.961 -0.0049 -0.3132 -0.9350
 3073SOL    HW120678   4.158   3.860  11.991 -0.7349  1.1945  0.5033
 3073SOL    HW220679   4.023   3.838  12.045 -0.5830  0.6141 -1.1765
 3074SOL     OW20680   0.774   0.007  12.439 -0.1641 -0.3342  0.1891
 3074SOL    HW120681   0.786   4.688  12.524 -1.3311 -1.9947 -0.4824
 3074SOL    HW220682   0.858   4.701  12.403 -0.5907  1.4266 -2.2540
 3075SOL     OW20683   1.771   1.398   2.616  0.5041  0.7033 -0.1008
 3075SOL    HW120684   1.692   1.405   2.669 -0.5055  0.4135 -1.5558
 3075SOL    HW220685   1.740   1.348   2.541 -1.0638 -0.2455  1.1907
 3076SOL     OW20686   2.162   3.429  11.440  0.3662  0.0761  0.0764
 3076SOL    HW120687   2.160   3.334  11.451 -2.5244  0.3087  1.8262
 3076SOL    HW220688   2.135   3.438  11.349 -0.8351  0.3653  0.4519
 3077SOL     OW20689   0.626   0.068   2.556 -0.3244  0.0040  0.6310
 3077SOL    HW120690   0.562   0.000   2.536 -0.5270 -0.0894  1.5573
 3077SOL    HW220691   0.706   0.017   2.546  0.6314  1.8536 -1.1744
 3078SOL     OW20692   2.332   0.087  16.366 -1.0548  0.0559 -0.2626
 3078SOL    HW120693   2.394   0.069  16.436 -0.3113  0.4456 -0.8185
 3078SOL    HW220694   2.326   0.182  16.360 -0.6671  0.0852 -0.1758
 3079SOL     OW20695   3.308   1.923   9.456 -0.0576  0.1520  0.8357
 3079SOL    HW120696   3.288   1.838   9.416  3.3029  0.1576 -0.8263
 3079SOL    HW220697   3.217   1.944   9.477 -0.2048 -0.2179  0.5649
 3080SOL     OW20698   4.244   3.925   7.374  0.8043 -0.2067 -0.2918
 3080SOL    HW120699   4.255   3.997   7.312 -2.7478  1.7272  1.3385
 3080SOL    HW220700   4.227   3.968   7.457 -1.9314 -3.1685  0.6845
 3081SOL     OW20701   2.484   1.108   2.535 -0.0236 -0.1838 -0.6574
 3081SOL    HW120702   2.475   1.043   2.464 -1.4806  1.5202 -2.0305
 3081SOL    HW220703   2.504   1.191   2.491  1.5224  0.3323  1.0215
 3082SOL     OW20704   4.650   3.105   6.052 -0.2281 -0.4294  0.1002
 3082SOL    HW120705   4.617   3.065   5.971 -0.6542 -0.3702  0.2455
 3082SOL    HW220706   4.617   3.194   6.053  0.2749 -0.2241 -0.9990
 3083SOL     OW20707   3.764   1.015   3.078  0.0975 -0.4761  0.2219
 3083SOL    HW120708   3.702   1.015   3.152 -1.5980  0.0276 -1.2030
 3083SOL    HW220709   3.699   1.034   3.010 -0.9420 -0.6969  1.1458
 3084SOL     OW20710   2.378   3.543   4.856  0.4432 -0.0116  0.7071
 3084SOL    HW120711   2.473   3.536   4.847  0.3098  0.1165 -0.8801
 3084SOL    HW220712   2.361   3.499   4.939  0.7857 -1.9269 -0.2270
 3085SOL     OW20713   2.481   3.523  10.968  0.0287 -0.2871 -0.7729
 3085SOL    HW120714   2.484   3.600  11.024 -0.9094 -1.6847  1.2183
 3085SOL    HW220715   2.569   3.536  10.932  1.3641  0.7965  2.8426
 3086SOL     OW20716   2.115   3.065   2.523 -0.2172 -0.1654 -0.4632
 3086SOL    HW120717   2.125   3.160   2.524  1.1398 -0.3175  1.5220
 3086SOL    HW220718   2.035   3.061   2.575  1.1021  2.7581  1.8151
 3087SOL     OW20719   0.426   1.084   8.145  0.3708 -0.5720  0.3898
 3087SOL    HW120720   0.517   1.055   8.134 -1.1243 -4.6731 -1.3372
 3087SOL    HW220721   0.377   1.008   8.113 -0.9468  0.0293  1.0003
 3088SOL     OW20722   0.762   3.898  10.495  0.5049 -0.0669 -0.2520
 3088SOL    HW120723   0.762   3.825  10.556 -0.1080  2.7118  3.0452
 3088SOL    HW220724   0.667   3.903  10.486  0.9454  0.9978 -4.3402
 3089SOL     OW20725   1.775   3.514  16.530  0.0442  0.1063  0.3626
 3089SOL    HW120726   1.843   3.473  16.477  0.7509  1.5293  0.1784
 3089SOL    HW220727   1.766   3.460  16.609 -0.5757 -2.0596 -1.1778
 3090SOL     OW20728   0.122   2.968   4.276  0.2359  0.5636 -0.3043
 3090SOL    HW120729   0.210   2.932   4.270  0.8807  1.7946  1.7483
 3090SOL    HW220730   0.147   3.039   4.336 -1.7061 -0.7341  2.0750
 3091SOL     OW20731   2.116   2.245  15.642 -0.0369 -0.2221  0.1776
 3091SOL    HW120732   2.020   2.252  15.640  0.2869  3.3604 -2.7371
 3091SOL    HW220733   2.131   2.188  15.567  0.8722 -1.7119  1.4833
 3092SOL     OW20734   0.842   3.994   3.167  0.6919 -0.7107  0.0044
 3092SOL    HW120735   0.827   3.917   3.223 -2.3694 -0.6205 -0.7191
 3092SOL    HW220736   0.937   4.005   3.166  1.0698 -3.7331  3.5727
 3093SOL     OW20737   0.231   2.494   7.966  0.1152 -0.6034 -0.4862
 3093SOL    HW120738   0.295   2.518   8.034 -1.4336  0.2891  0.6444
 3093SOL    HW220739   0.149   2.527   8.002  0.3850 -1.9413  1.3393
 3094SOL     OW20740   4.412   3.745   7.276 -0.0973  0.5035  0.3897
 3094SOL    HW120741   4.493   3.794   7.264 -0.3716  1.0054  0.5632
 3094SOL    HW220742   4.358   3.808   7.324  0.3387  2.0307 -1.1034
 3095SOL     OW20743   2.884   3.948  15.335  0.0215  0.1912  0.5222
 3095SOL    HW120744   2.864   3.885  15.266  0.8933  0.9159 -0.4021
 3095SOL    HW220745   2.807   4.002  15.319  0.3370  0.1107 -1.3687
 3096SOL     OW20746   4.704   1.716   6.282 -0.2904 -0.1381  0.4205
 3096SOL    HW120747   0.008   1.771   6.355  1.7937 -0.7088  0.0893
 3096SOL    HW220748   0.045   1.645   6.283  3.0664  2.8402 -2.1094
 3097SOL     OW20749   0.827   4.534  17.633  0.7963 -0.7394  0.0366
 3097SOL    HW120750   0.754   4.478  17.606 -0.0507  0.2530  0.2804
 3097SOL    HW220751   0.881   4.512  17.557  2.9039 -0.1824  1.3640
 3098SOL     OW20752   2.859   0.528   5.255 -0.2791  0.4580 -0.3523
 3098SOL    HW120753   2.853   0.507   5.348 -0.6739  0.7732 -0.3097
 3098SOL    HW220754   2.874   0.622   5.253 -0.0257  0.3794 -2.3140
 3099SOL     OW20755   0.766   4.103   5.054 -0.3122  0.2423  0.3194
 3099SOL    HW120756   0.857   4.131   5.068 -0.3715 -0.1987  1.5878
 3099SOL    HW220757   0.775   4.033   4.989 -0.4886 -1.6696  2.3289
 3100SOL     OW20758   1.532   4.420   0.440 -0.2008 -0.7736  0.1325
 3100SOL    HW120759   1.577   4.503   0.454 -1.5862 -0.1642  1.0105
 3100SOL    HW220760   1.598   4.355   0.464  1.5370  1.3118  1.0365
 3101SOL     OW20761   1.799   4.349   6.691 -0.0369 -0.1206  0.3610
 3101SOL    HW120762   1.764   4.429   6.729  1.6043  1.0245 -0.5252
 3101SOL    HW220763   1.724   4.291   6.685 -0.2492  0.4119 -2.2878
 3102SOL     OW20764   3.641   2.090   1.198 -0.0725  0.3277 -0.0009
 3102SOL    HW120765   3.557   2.085   1.152  0.2408 -1.3711 -0.4012
 3102SOL    HW220766   3.649   2.185   1.210  0.4423  0.4298 -1.0672
 3103SOL     OW20767   2.620   2.016   7.800 -0.5042  0.1940  0.2830
 3103SOL    HW120768   2.578   1.933   7.822 -0.6823  0.1416 -0.2562
 3103SOL    HW220769   2.552   2.078   7.828 -0.7740  0.9252 -1.9732
 3104SOL     OW20770   1.409   4.174   5.576 -0.3913 -0.6497  0.0455
 3104SOL    HW120771   1.350   4.191   5.502 -0.6724 -2.1246 -0.0672
 3104SOL    HW220772   1.405   4.079   5.585  1.0839 -0.6161  1.0978
 3105SOL     OW20773   0.037   3.527  15.718 -0.1517 -0.5238 -0.7918
 3105SOL    HW120774   0.012   3.439  15.692 -0.3884 -0.6653 -0.0813
 3105SOL    HW220775   0.071   3.517  15.807  1.2070 -0.1136 -1.2598
 3106SOL     OW20776   2.645   0.227   7.955  0.1263  0.4382 -0.0781
 3106SOL    HW120777   2.551   0.243   7.963 -0.4078 -2.5852 -0.2644
 3106SOL    HW220778   2.670   0.245   8.046  0.4511  3.4285 -0.7845
 3107SOL     OW20779   1.229   4.616   3.818  0.6683 -0.4420  0.0435
 3107SOL    HW120780   1.272   4.536   3.847 -1.4836 -1.6839 -0.1625
 3107SOL    HW220781   1.302   4.675   3.801  0.4818  0.0469  0.9548
 3108SOL     OW20782   2.426   4.084  11.215  0.4250 -0.4078 -0.0403
 3108SOL    HW120783   2.339   4.049  11.233 -0.0247  0.7528  0.0304
 3108SOL    HW220784   2.422   4.079  11.120  0.3328 -0.5512 -0.0292
 3109SOL     OW20785   1.232   1.035   7.982 -0.2438  0.4805  0.7333
 3109SOL    HW120786   1.298   1.039   8.051 -0.5745  1.2620  0.9963
 3109SOL    HW220787   1.286   1.033   7.903 -0.1565 -1.0473  0.8260
 3110SOL     OW20788   4.141   4.504   0.570 -0.3359 -0.2912 -0.4266
 3110SOL    HW120789   4.078   4.550   0.514 -1.2212  0.4778  1.1989
 3110SOL    HW220790   4.205   4.573   0.589 -0.6327 -1.1921  3.9033
 3111SOL     OW20791   2.138   2.742   1.851 -0.1956  0.1236 -0.4831
 3111SOL    HW120792   2.227   2.779   1.851  0.3796 -1.2714 -0.6659
 3111SOL    HW220793   2.104   2.754   1.762  3.3430  2.4661 -1.5141
 3112SOL     OW20794   3.787   4.487   2.527 -0.2782 -0.3293  0.2756
 3112SOL    HW120795   3.740   4.537   2.594  0.6260 -0.6636  1.1707
 3112SOL    HW220796   3.838   4.544   2.470 -0.6458 -0.6226 -0.3518
 3113SOL     OW20797   2.349   1.132  12.166 -0.0692  0.2370 -0.4102
 3113SOL    HW120798   2.350   1.044  12.128  0.0231 -0.3727  1.0031
 3113SOL    HW220799   2.309   1.117  12.252 -0.5736 -0.1915 -0.7170
 3114SOL     OW20800   4.688   3.925   6.411  0.7129 -0.2420  0.4306
 3114SOL    HW120801   4.678   3.888   6.499 -2.0356 -3.7635 -1.3619
 3114SOL    HW220802   0.048   3.890   6.380  1.4768  0.5576  1.5691
 3115SOL     OW20803   4.305   3.061   7.942  0.1490  0.1384 -0.3341
 3115SOL    HW120804   4.261   3.096   7.864 -1.1950 -0.7371  0.0243
 3115SOL    HW220805   4.389   3.099   7.917 -0.3299  2.5134  1.5933
 3116SOL     OW20806   0.397   1.980   5.796  0.5010 -0.4013 -0.2695
 3116SOL    HW120807   0.436   1.951   5.713  0.1006  1.6467 -1.1561
 3116SOL    HW220808   0.470   1.984   5.858 -0.7033 -0.5451  1.1618
 3117SOL     OW20809   0.310   3.722   3.546  0.2780 -0.1966 -0.0683
 3117SOL    HW120810   0.359   3.801   3.568 -0.4931  0.5232 -0.9223
 3117SOL    HW220811   0.233   3.759   3.501 -0.4697 -1.0276  0.5348
 3118SOL     OW20812   0.717   0.372  14.735  0.1971 -0.0536 -0.5529
 3118SOL    HW120813   0.784   0.316  14.696 -0.2540 -2.0435  1.5423
 3118SOL    HW220814   0.720   0.443  14.670  0.1057 -0.2271 -0.7492
 3119SOL     OW20815   1.620   0.534  14.162 -0.1262 -0.0535 -0.0504
 3119SOL    HW120816   1.706   0.575  14.170  0.9391 -1.7938 -2.5969
 3119SOL    HW220817   1.594   0.552  14.072 -0.2517  3.2270  0.6723
 3120SOL     OW20818   1.059   2.645   5.539 -0.1579  0.2637 -0.1989
 3120SOL    HW120819   1.037   2.646   5.446 -1.1288 -0.3366  0.0214
 3120SOL    HW220820   1.020   2.727   5.568  0.7636  0.1501  1.3504
 3121SOL     OW20821   0.782   2.317  16.487  0.1349 -0.5744  0.0802
 3121SOL    HW120822   0.769   2.386  16.553  2.5733 -0.0565  0.0194
 3121SOL    HW220823   0.742   2.243  16.533  2.8390 -1.9426  0.1766
 3122SOL     OW20824   0.939   3.272   5.886 -0.1936 -0.1238 -0.3871
 3122SOL    HW120825   0.922   3.235   5.972  0.4109  2.4576  0.8311
 3122SOL    HW220826   1.029   3.241   5.880 -0.1619  0.2905 -2.2306
 3123SOL     OW20827   3.722   0.893  16.798 -0.1047  0.0752 -0.2190
 3123SOL    HW120828   3.685   0.878  16.711 -1.4174  1.7342  0.0522
 3123SOL    HW220829   3.643   0.883  16.851 -0.1253 -0.1814 -0.3001
 3124SOL     OW20830   4.629   0.761   1.290 -0.4560 -0.0904  0.3895
 3124SOL    HW120831   4.564   0.825   1.319  0.8176  1.0392  0.7357
 3124SOL    HW220832   4.570   0.685   1.290 -0.8553  0.2217 -0.6688
 3125SOL     OW20833   1.166   1.017   4.840  0.5209  0.0671 -0.3634
 3125SOL    HW120834   1.202   0.994   4.925 -0.8004  0.6971  0.3696
 3125SOL    HW220835   1.180   1.112   4.838  0.2260  0.1831  2.3782
 3126SOL     OW20836   3.663   2.407   5.604  0.1869 -0.3256  0.6095
 3126SOL    HW120837   3.613   2.412   5.686 -1.6167  0.9118 -0.5846
 3126SOL    HW220838   3.754   2.416   5.633  1.2124 -1.4431 -2.2819
 3127SOL     OW20839   0.369   3.657  15.757 -0.6525 -0.5442 -0.1249
 3127SOL    HW120840   0.397   3.722  15.693 -0.2528  0.2735  0.8837
 3127SOL    HW220841   0.310   3.614  15.696 -1.1852 -0.5177  0.3654
 3128SOL     OW20842   1.019   3.654   8.399  0.1294 -0.2199 -0.0820
 3128SOL    HW120843   1.012   3.741   8.358 -1.4321  0.3348  1.3313
 3128SOL    HW220844   1.111   3.657   8.424 -0.1883  1.9998  0.8750
 3129SOL     OW20845   4.140   1.915   6.750  0.1065  0.4494  0.4674
 3129SOL    HW120846   4.075   1.948   6.688 -0.0366  1.3115  1.0795
 3129SOL    HW220847   4.217   1.955   6.710 -0.7819  2.8042  1.1053
 3130SOL     OW20848   3.861   0.982  13.564  0.3405 -0.0872 -0.2401
 3130SOL    HW120849   3.767   0.967  13.563  0.5595 -1.6637  1.6248
 3130SOL    HW220850   3.888   0.903  13.516  0.0786 -0.5274  0.3425
 3131SOL     OW20851   1.532   3.680   0.537 -0.0309 -0.5256  0.5990
 3131SOL    HW120852   1.446   3.686   0.578  1.4880  2.9464  3.2963
 3131SOL    HW220853   1.555   3.588   0.546 -0.1073 -0.6633 -0.5933
 3132SOL     OW20854   1.113   0.581   3.612  0.2460 -0.5670  0.0366
 3132SOL    HW120855   1.029   0.544   3.587  0.1788 -1.2167  1.2075
 3132SOL    HW220856   1.135   0.641   3.541 -0.7984  1.0787  1.1238
 3133SOL     OW20857   3.962   3.361   5.743  1.0919  0.5500  0.6723
 3133SOL    HW120858   3.894   3.294   5.742  0.3259  1.3023  1.9295
 3133SOL    HW220859   3.904   3.436   5.727 -0.5448 -0.4463  1.9327
 3134SOL     OW20860   3.256   2.171   4.110 -0.5639 -0.3628 -0.3619
 3134SOL    HW120861   3.245   2.252   4.060  1.3005  0.3816  0.4544
 3134SOL    HW220862   3.181   2.169   4.169  0.0654 -0.6662  0.4257
 3135SOL     OW20863   3.296   3.489   2.415  0.5732  0.2022  0.3528
 3135SOL    HW120864   3.391   3.483   2.407  0.2212  0.3116 -3.8099
 3135SOL    HW220865   3.293   3.534   2.500 -0.2300  0.6176  0.1066
 3136SOL     OW20866   0.971   0.027   1.793  0.3342  0.3546  0.3263
 3136SOL    HW120867   0.916   4.688   1.746 -0.2502  1.1882 -0.0947
 3136SOL    HW220868   0.914   0.101   1.775 -2.6902 -2.0547  0.1439
 3137SOL     OW20869   0.946   2.230   2.590  0.4852 -0.1118 -0.1755
 3137SOL    HW120870   1.036   2.228   2.557 -0.1128 -2.4505 -1.6676
 3137SOL    HW220871   0.964   2.164   2.657  0.0332 -0.9513 -0.8651
 3138SOL     OW20872   1.367   3.072   2.081 -0.5828  0.0754 -0.0461
 3138SOL    HW120873   1.447   3.120   2.059  0.7074 -1.8994  0.3489
 3138SOL    HW220874   1.377   2.997   2.023  0.9228  0.3299 -0.1002
 3139SOL     OW20875   0.766   1.919  16.248  0.0033  0.0183 -0.0006
 3139SOL    HW120876   0.711   1.954  16.178 -0.3617 -0.9048 -0.1830
 3139SOL    HW220877   0.694   1.905  16.310  0.4437 -1.1960  0.2536
 3140SOL     OW20878   4.377   1.210   1.640  0.1137  0.2519 -0.1408
 3140SOL    HW120879   4.300   1.211   1.583  0.2869 -0.9385 -0.4022
 3140SOL    HW220880   4.433   1.260   1.581  0.3813  1.3882  1.0806
 3141SOL     OW20881   2.232   0.010  15.568 -0.2337 -0.3008 -0.3887
 3141SOL    HW120882   2.199   4.700  15.484 -2.8161 -0.0779  0.5506
 3141SOL    HW220883   2.326   0.012  15.549  0.2250  1.6314  2.0770
 3142SOL     OW20884   3.525   3.286   0.835 -0.1076  0.4308  0.4765
 3142SOL    HW120885   3.571   3.358   0.878 -0.2939  1.3006 -0.7547
 3142SOL    HW220886   3.598   3.243   0.789 -1.8608 -2.0975  0.0490
 3143SOL     OW20887   1.664   0.074   7.593  0.0809 -0.2532 -0.7228
 3143SOL    HW120888   1.619   4.716   7.618  0.5608 -0.9719 -2.1818
 3143SOL    HW220889   1.719   0.102   7.667 -1.5729  1.0222  0.0112
 3144SOL     OW20890   2.523   4.563   4.972  0.6062  0.3087 -0.0988
 3144SOL    HW120891   2.480   4.617   4.906 -1.0308 -0.6757  0.1736
 3144SOL    HW220892   2.613   4.593   4.958  0.9537  0.3442  2.2666
 3145SOL     OW20893   0.003   2.416  11.924 -0.0447 -0.4305 -0.5514
 3145SOL    HW120894   4.633   2.434  11.937 -0.7447 -3.7267 -1.0251
 3145SOL    HW220895   4.716   2.333  11.877  2.4690 -0.2687 -1.4032
 3146SOL     OW20896   2.834   3.755   4.171  0.6488  0.1876 -0.1912
 3146SOL    HW120897   2.785   3.823   4.126  0.3412  0.5670  0.7233
 3146SOL    HW220898   2.921   3.784   4.145  1.2907  2.1918  4.3899
 3147SOL     OW20899   1.840   2.238   7.295  0.3139  0.0665  0.0675
 3147SOL    HW120900   1.869   2.313   7.243  2.6524 -1.4009 -0.7843
 3147SOL    HW220901   1.757   2.219   7.251  0.8547  0.1690 -1.0156
 3148SOL     OW20902   2.350   0.476   8.294 -0.0660 -0.3796 -0.1447
 3148SOL    HW120903   2.349   0.381   8.295  1.6814 -0.3724  1.1629
 3148SOL    HW220904   2.356   0.485   8.389 -1.1705 -2.1742  0.0831
 3149SOL     OW20905   2.851   1.818   3.178 -0.8009  0.1108 -0.0014
 3149SOL    HW120906   2.786   1.884   3.202  1.2467  1.5703  1.4522
 3149SOL    HW220907   2.890   1.804   3.264 -0.7774 -0.0405 -0.0360
 3150SOL     OW20908   2.644   4.408   2.065 -0.4266  0.8844  0.1592
 3150SOL    HW120909   2.731   4.377   2.040 -1.0707 -1.0374  0.3131
 3150SOL    HW220910   2.679   4.431   2.151 -0.8371  1.4719  0.1721
 3151SOL     OW20911   1.419   4.528  16.777  0.4602 -0.4062  0.1473
 3151SOL    HW120912   1.477   4.466  16.734  1.1930  0.0471  0.4850
 3151SOL    HW220913   1.334   4.489  16.800  0.2071  0.5559  0.8330
 3152SOL     OW20914   1.617   3.960   5.034  0.0853  0.6692 -0.2718
 3152SOL    HW120915   1.594   3.912   4.955 -0.7997  0.1877  0.2750
 3152SOL    HW220916   1.712   3.972   5.028 -0.2498  3.3909 -0.3064
 3153SOL     OW20917   3.589   1.982   1.717 -0.5769 -0.5292 -0.4799
 3153SOL    HW120918   3.575   2.009   1.808  0.6405 -0.2923 -0.3594
 3153SOL    HW220919   3.511   2.025   1.682 -0.5114  0.7514  0.9296
 3154SOL     OW20920   0.313   2.107   9.184 -0.3433 -0.5283  0.5118
 3154SOL    HW120921   0.349   2.038   9.239 -2.4612 -2.8803 -1.0509
 3154SOL    HW220922   0.252   2.150   9.244  0.7245  1.8010 -0.0517
 3155SOL     OW20923   1.919   2.697   2.347 -0.5703  0.2240  0.3729
 3155SOL    HW120924   1.965   2.633   2.400  0.1998  0.6045  0.1578
 3155SOL    HW220925   1.969   2.694   2.266 -0.8582 -2.9383  0.3145
 3156SOL     OW20926   1.466   0.131  10.933 -0.2752 -0.1474  0.3283
 3156SOL    HW120927   1.484   0.074  11.008 -3.7600  1.2864  2.2597
 3156SOL    HW220928   1.485   0.075  10.858 -0.2653  3.1910 -2.1389
 3157SOL     OW20929   1.452   3.971   1.093  0.0165 -0.5765  0.8587
 3157SOL    HW120930   1.363   3.946   1.117 -0.2545  1.1287  1.6656
 3157SOL    HW220931   1.477   4.021   1.171 -0.5925  0.7466  0.1988
 3158SOL     OW20932   4.668   2.542  15.527  0.6604  0.3191  0.3539
 3158SOL    HW120933   4.676   2.626  15.482  2.4053  0.8420  1.6573
 3158SOL    HW220934   4.718   2.486  15.466  1.2523 -0.2538  1.3667
 3159SOL     OW20935   3.661   3.460  17.015 -0.0918  0.2736 -0.3908
 3159SOL    HW120936   3.571   3.465  16.982 -0.4566  0.3252  0.6105
 3159SOL    HW220937   3.651   3.502  17.101 -0.0248 -1.0815  0.2717
 3160SOL     OW20938   3.801   3.580   0.110 -0.2210  0.0672 -0.2102
 3160SOL    HW120939   3.822   3.562   0.019 -1.5902 -0.8499 -0.3514
 3160SOL    HW220940   3.741   3.654   0.105  0.4817  0.6799  0.4116
 3161SOL     OW20941   2.278   3.652   3.127 -0.4336 -0.1068 -0.0282
 3161SOL    HW120942   2.303   3.741   3.102 -2.1194  0.9291  1.9064
 3161SOL    HW220943   2.362   3.606   3.129 -0.0447  0.5776 -0.7245
 3162SOL     OW20944   2.170   0.441   0.124  0.4977  0.3140  0.3129
 3162SOL    HW120945   2.258   0.435   0.161 -0.7855 -0.1444  3.3199
 3162SOL    HW220946   2.129   0.370   0.174  2.2932  0.0073  1.3273
 3163SOL     OW20947   3.512   1.126   8.841 -0.2751 -0.6157  0.2413
 3163SOL    HW120948   3.477   1.037   8.843  4.0561 -2.3257  1.7652
 3163SOL    HW220949   3.444   1.155   8.781  0.8770 -1.2950 -1.3873
 3164SOL     OW20950   2.612   0.388   4.773  0.4816 -0.4399 -0.5197
 3164SOL    HW120951   2.669   0.417   4.702  1.4294  1.1235  0.8672
 3164SOL    HW220952   2.682   0.373   4.836  0.5454 -1.8110 -0.9259
 3165SOL     OW20953   2.050   4.128   7.004 -0.0247 -0.4507  0.1586
 3165SOL    HW120954   2.000   4.071   7.063  0.3921  0.7021  1.6295
 3165SOL    HW220955   2.138   4.127   7.041  1.0679 -1.4449 -2.4717
 3166SOL     OW20956   2.872   3.494   0.896 -0.1587 -0.3150  0.4558
 3166SOL    HW120957   2.845   3.584   0.876  1.6707 -0.2857 -1.8399
 3166SOL    HW220958   2.814   3.460   0.965 -1.6429 -0.2656 -0.7505
 3167SOL     OW20959   1.064   4.322   5.508 -0.1586  0.3621  0.1452
 3167SOL    HW120960   1.132   4.298   5.445 -1.6775 -1.6094 -0.7396
 3167SOL    HW220961   1.066   4.415   5.485 -0.4610 -0.0128 -1.3870
 3168SOL     OW20962   1.411   2.602   5.898 -0.2422 -0.2786 -0.0688
 3168SOL    HW120963   1.452   2.560   5.822  0.4277 -0.0486  0.1621
 3168SOL    HW220964   1.385   2.680   5.849  1.2401 -0.1591 -0.6651
 3169SOL     OW20965   1.330   0.412  15.686 -0.4169  0.3550 -0.4650
 3169SOL    HW120966   1.280   0.488  15.714  1.2585  0.7741  1.3474
 3169SOL    HW220967   1.284   0.386  15.606 -0.8186  0.6298 -0.3207
 3170SOL     OW20968   2.793   1.478   3.869 -0.2512 -0.2612 -0.2702
 3170SOL    HW120969   2.700   1.493   3.890  0.1845 -0.0805  1.4829
 3170SOL    HW220970   2.798   1.493   3.775  1.1768  1.1176  0.0342
 3171SOL     OW20971   3.505   2.095   3.973 -0.7340  0.4318  0.1883
 3171SOL    HW120972   3.433   2.131   4.024 -0.4100  1.4262 -0.0593
 3171SOL    HW220973   3.572   2.108   4.041  2.0472 -0.4135 -2.3948
 3172SOL     OW20974   0.966   1.838  11.895 -0.3284 -0.3916 -0.1356
 3172SOL    HW120975   0.887   1.796  11.929 -0.6269  1.1650  1.0912
 3172SOL    HW220976   0.939   1.844  11.804  1.8786 -3.3606 -0.9940
 3173SOL     OW20977   0.713   1.876   5.519 -0.0100 -0.6279 -0.3836
 3173SOL    HW120978   0.763   1.954   5.495  1.7286 -1.4747  0.4581
 3173SOL    HW220979   0.627   1.917   5.519  0.0844 -0.4181  0.6717
 3174SOL     OW20980   1.409   1.329   7.959 -0.4299 -0.0475 -0.0425
 3174SOL    HW120981   1.426   1.236   7.973 -1.4223 -0.2740 -0.3125
 3174SOL    HW220982   1.470   1.358   8.027 -0.7235 -1.6605  0.9269
 3175SOL     OW20983   2.506   2.926   3.071 -0.7247  0.2221 -0.0112
 3175SOL    HW120984   2.505   2.842   3.117 -2.7619 -0.4594 -1.3405
 3175SOL    HW220985   2.442   2.908   3.003  0.9051  0.8708 -1.7160
 3176SOL     OW20986   3.138   1.872   8.848  0.4260 -0.3584  0.3996
 3176SOL    HW120987   3.051   1.885   8.809  0.7692  0.8351  0.0370
 3176SOL    HW220988   3.133   1.777   8.835  0.1422 -0.2448 -0.3658
 3177SOL     OW20989   3.466   1.670   3.822 -0.2127 -0.1841 -0.0097
 3177SOL    HW120990   3.372   1.679   3.838 -0.4694  0.6532 -1.9395
 3177SOL    HW220991   3.492   1.621   3.900  1.9300  1.1326  0.0885
 3178SOL     OW20992   3.013   1.361   2.522  0.2919 -0.1647  0.3246
 3178SOL    HW120993   3.094   1.318   2.492  1.2721  2.7930 -1.3316
 3178SOL    HW220994   3.009   1.427   2.452 -0.9330  1.9200  2.3791
 3179SOL     OW20995   0.825   2.260   8.513  0.0825  0.4098 -0.1052
 3179SOL    HW120996   0.858   2.205   8.584 -0.7796  0.6342  0.4725
 3179SOL    HW220997   0.850   2.222   8.429 -2.9817 -1.3367 -0.2450
 3180SOL     OW20998   1.739   3.024   5.984 -0.1821  0.1798 -0.3475
 3180SOL    HW120999   1.731   2.930   5.970  2.4372 -0.2116  0.7859
 3180SOL    HW221000   1.655   3.043   6.024  0.8253  0.4863  1.6111
 3181SOL     OW21001   3.036   2.278   9.815  0.4284 -0.1345 -0.2112
 3181SOL    HW121002   3.110   2.275   9.875  0.3109 -0.7501 -0.0912
 3181SOL    HW221003   3.015   2.184   9.820  0.6296 -0.2170 -0.8495
 3182SOL     OW21004   4.079   2.726   1.796 -0.1155  0.2680  0.4822
 3182SOL    HW121005   4.018   2.709   1.724  0.3658 -1.1519  0.4039
 3182SOL    HW221006   4.145   2.658   1.783  0.9671  1.4172  0.0148
 3183SOL     OW21007   1.543   3.919   6.348 -0.3089  0.5549  0.0906
 3183SOL    HW121008   1.580   4.004   6.369 -1.1709  0.2334  2.9035
 3183SOL    HW221009   1.449   3.937   6.346 -1.2520 -4.1619  2.0457
 3184SOL     OW21010   2.152   1.888   7.998  0.1007  0.1895  0.1364
 3184SOL    HW121011   2.083   1.875   8.063  0.2010  0.2008  0.2428
 3184SOL    HW221012   2.227   1.906   8.053 -3.6031  3.5298  4.0741
 3185SOL     OW21013   3.746   4.363   6.188  0.2484  0.2471 -0.0094
 3185SOL    HW121014   3.810   4.293   6.199  1.2415  1.3665  1.3509
 3185SOL    HW221015   3.707   4.326   6.109 -1.2289 -0.1481  0.9075
 3186SOL     OW21016   2.112   0.833  14.869 -0.2471 -0.2666 -0.5259
 3186SOL    HW121017   2.038   0.775  14.891 -0.2787  0.8765  2.4650
 3186SOL    HW221018   2.096   0.856  14.778 -1.4046 -3.0060 -1.0280
 3187SOL     OW21019   2.529   3.576   3.116 -0.2349  0.0121 -0.2497
 3187SOL    HW121020   2.555   3.658   3.159 -1.7293 -1.0274  2.6694
 3187SOL    HW221021   2.563   3.516   3.182  1.0313 -0.3154 -1.2181
 3188SOL     OW21022   1.898   3.705  13.732  0.2645  0.4520 -0.2040
 3188SOL    HW121023   1.921   3.658  13.652 -3.9664 -1.0561 -0.5474
 3188SOL    HW221024   1.973   3.763  13.724  1.4721 -0.8999  1.3333
 3189SOL     OW21025   2.088   2.946   4.232 -0.1973 -0.1372 -0.2565
 3189SOL    HW121026   2.057   2.860   4.259  0.3036  0.1497  1.2333
 3189SOL    HW221027   2.165   2.915   4.182  1.3142  2.2474  0.6005
 3190SOL     OW21028   0.710   4.136   1.757  0.0186  0.4542  0.7889
 3190SOL    HW121029   0.672   4.048   1.766  2.3575 -0.5582  0.5625
 3190SOL    HW221030   0.799   4.119   1.786  0.5478  0.2365 -0.9707
 3191SOL     OW21031   0.175   2.267   6.259 -0.3488 -0.2527 -0.1121
 3191SOL    HW121032   0.134   2.225   6.184  0.4104  0.0463 -0.6941
 3191SOL    HW221033   0.143   2.209   6.328 -2.8568 -0.0866 -1.1517
 3192SOL     OW21034   3.028   1.566   5.569 -0.1961 -0.5565  0.4909
 3192SOL    HW121035   2.959   1.574   5.636  0.7123  0.2053  1.3334
 3192SOL    HW221036   2.965   1.581   5.498 -0.5280  1.0627  1.1132
 3193SOL     OW21037   1.005   2.491  15.032  0.7868  0.2644  0.4579
 3193SOL    HW121038   0.996   2.582  15.003  0.6002  0.2211  0.3794
 3193SOL    HW221039   1.099   2.488  15.013  0.6713  0.7581 -0.1892
 3194SOL     OW21040   2.972   4.541   2.906 -0.6856  0.4589  0.5522
 3194SOL    HW121041   2.973   4.633   2.878  0.6696  1.0112  2.3635
 3194SOL    HW221042   3.065   4.521   2.894 -1.4719 -2.2342 -0.9788
 3195SOL     OW21043   3.295   0.775   5.944 -0.0555 -0.3162  0.1209
 3195SOL    HW121044   3.208   0.750   5.974  0.1807 -0.0341  1.0337
 3195SOL    HW221045   3.283   0.867   5.923  0.3513 -0.1606  0.5637
 3196SOL     OW21046   0.757   1.449   8.274 -0.1130  0.4146  0.3066
 3196SOL    HW121047   0.688   1.479   8.215 -0.1413 -1.0542 -0.4057
 3196SOL    HW221048   0.831   1.463   8.215 -0.6037  0.3149 -0.3377
 3197SOL     OW21049   1.420   0.988  13.949  0.6811 -0.2918 -0.0085
 3197SOL    HW121050   1.506   0.971  13.911  0.3640  0.3108 -0.9965
 3197SOL    HW221051   1.359   0.996  13.876  0.5288  0.9299  0.2524
 3198SOL     OW21052   1.058   1.104   3.448  0.3261 -0.9458 -0.0370
 3198SOL    HW121053   1.064   1.010   3.429  0.8467 -0.8134 -0.5245
 3198SOL    HW221054   0.964   1.123   3.450  0.0893 -1.9071 -2.4287
 3199SOL     OW21055   4.701   1.029   1.614  0.0025 -0.4634 -0.1457
 3199SOL    HW121056   0.028   1.066   1.542 -1.8969  1.9622 -0.2257
 3199SOL    HW221057   4.608   1.044   1.598 -0.6765 -1.6776  2.6266
 3200SOL     OW21058   3.439   4.294   8.012  0.0047 -0.1762 -0.0345
 3200SOL    HW121059   3.384   4.312   7.935 -0.2673 -0.2486  0.1449
 3200SOL    HW221060   3.497   4.229   7.973  1.9830  1.0898  0.7868
 3201SOL     OW21061   2.424   1.500   5.725  0.4642 -0.6278  1.1691
 3201SOL    HW121062   2.411   1.594   5.741 -1.3619 -0.9933  1.8745
 3201SOL    HW221063   2.485   1.488   5.799  1.2807  0.2164  0.6373
 3202SOL     OW21064   4.538   3.624   4.004 -0.3130  0.2585 -0.4581
 3202SOL    HW121065   4.446   3.606   4.024 -0.6208  1.4765 -0.7489
 3202SOL    HW221066   4.518   3.710   3.966  2.6876  0.8424 -0.6965
 3203SOL     OW21067   2.306   2.009   1.909  0.3496 -0.1421 -0.0232
 3203SOL    HW121068   2.286   1.952   1.983  1.1053 -1.6781 -0.9823
 3203SOL    HW221069   2.231   2.068   1.911  2.3827  2.4254  0.4638
 3204SOL     OW21070   1.883   4.132  13.452  0.2053 -0.4874  0.1322
 3204SOL    HW121071   1.922   4.130  13.539  0.3458  0.5213  0.0945
 3204SOL    HW221072   1.793   4.147  13.480 -0.0735  0.4661 -1.2674
 3205SOL     OW21073   3.312   3.325   5.965 -0.3714 -0.5837 -0.9129
 3205SOL    HW121074   3.264   3.334   5.882 -1.8870  0.3057  0.0629
 3205SOL    HW221075   3.383   3.389   5.954  0.1662 -1.0709 -0.2808
 3206SOL     OW21076   1.677   1.805   2.684  0.1866  0.2798 -0.3886
 3206SOL    HW121077   1.662   1.871   2.616 -1.0826  0.9507  0.5436
 3206SOL    HW221078   1.662   1.723   2.638 -0.1710  0.1864 -0.1004
 3207SOL     OW21079   0.348   3.079  14.557 -0.1105 -0.2235 -0.4900
 3207SOL    HW121080   0.398   3.067  14.476 -0.1099  0.7481 -0.6313
 3207SOL    HW221081   0.353   3.174  14.555 -0.5391 -0.1727  0.7717
 3208SOL     OW21082   3.976   3.671   6.256 -0.2297  0.3927 -0.5263
 3208SOL    HW121083   3.941   3.603   6.314 -2.6391  2.1329  0.0388
 3208SOL    HW221084   4.066   3.686   6.286  0.5940 -3.8191 -0.7997
 3209SOL     OW21085   3.731   1.769   3.808  0.5256 -0.0620 -0.6026
 3209SOL    HW121086   3.643   1.733   3.817 -0.0072  1.3183 -0.2427
 3209SOL    HW221087   3.790   1.707   3.851 -0.6734 -1.3774 -0.8344
 3210SOL     OW21088   2.187   4.259  12.245  0.2367  0.8124  0.2238
 3210SOL    HW121089   2.219   4.169  12.232 -0.8371  0.5910 -0.7938
 3210SOL    HW221090   2.272   4.292  12.275  0.6050 -0.0295  0.1253
 3211SOL     OW21091   1.203   0.565   2.997  0.2544  0.1539 -0.4189
 3211SOL    HW121092   1.215   0.647   2.947 -0.1829  0.1161 -0.5848
 3211SOL    HW221093   1.223   0.512   2.919 -0.1476 -0.3090 -0.1996
 3212SOL     OW21094   2.832   1.361   3.091  0.2461 -0.4826  0.0703
 3212SOL    HW121095   2.899   1.330   3.152  0.7890  1.6358  0.5772
 3212SOL    HW221096   2.790   1.275   3.083 -0.6155 -0.0977  0.4723
 3213SOL     OW21097   0.091   3.061   1.414 -0.1628  0.0000 -0.8068
 3213SOL    HW121098   0.003   3.090   1.440  0.6168  0.1455  1.6453
 3213SOL    HW221099   0.087   2.980   1.466  0.7397  0.7445  0.4104
 3214SOL     OW21100   0.680   3.599   3.926  0.0246 -0.3919 -0.6492
 3214SOL    HW121101   0.765   3.581   3.886  0.1629  3.5822 -2.1308
 3214SOL    HW221102   0.695   3.663   3.995 -0.8628 -1.7722  0.8046
 3215SOL     OW21103   4.636   1.743  14.245  0.3547  0.5879 -0.3479
 3215SOL    HW121104   4.644   1.764  14.338  1.5462  1.1292 -0.5677
 3215SOL    HW221105   4.541   1.751  14.233  0.1956  1.8379  1.6913
 3216SOL     OW21106   2.384   2.714   8.206 -0.3475 -0.3709 -0.4653
 3216SOL    HW121107   2.388   2.686   8.297 -0.1158 -0.2488 -0.4396
 3216SOL    HW221108   2.321   2.653   8.167 -0.4433  0.9929 -2.4657
 3217SOL     OW21109   3.145   0.311   4.894  0.3518 -0.6474 -0.1976
 3217SOL    HW121110   3.179   0.368   4.825  1.0739  0.2245  0.8867
 3217SOL    HW221111   3.081   0.367   4.939  0.2436  0.3889 -1.6482
 3218SOL     OW21112   1.135   3.428   7.446  0.2438  0.0735  0.1846
 3218SOL    HW121113   1.070   3.440   7.515  0.1505 -1.0048  0.2917
 3218SOL    HW221114   1.194   3.499   7.470 -0.9327  1.2673 -0.5018
 3219SOL     OW21115   2.721   3.552   5.099 -0.0346  0.5772  0.0140
 3219SOL    HW121116   2.763   3.468   5.117 -1.3668 -0.2201 -0.5402
 3219SOL    HW221117   2.702   3.541   5.006  1.2252 -1.4010 -0.0045
 3220SOL     OW21118   2.464   4.518  11.570  0.7400 -0.4855  0.2598
 3220SOL    HW121119   2.511   4.491  11.492 -1.0824 -2.8875 -0.0191
 3220SOL    HW221120   2.512   4.595  11.601 -0.9245 -0.1321  2.0231
 3221SOL     OW21121   3.815   2.936  10.985  0.4650  0.5683 -0.0170
 3221SOL    HW121122   3.797   2.847  11.016  1.4673 -0.5268 -2.6081
 3221SOL    HW221123   3.807   2.988  11.065 -0.0201  0.2958  0.1119
 3222SOL     OW21124   2.284   4.614   6.756 -0.0219 -0.8002  0.6806
 3222SOL    HW121125   2.236   4.595   6.837 -1.0529  0.9763  0.4714
 3222SOL    HW221126   2.212   4.655   6.708 -0.1335 -1.1422  0.5483
 3223SOL     OW21127   0.308   2.344   5.687 -0.3473  0.0670  0.6127
 3223SOL    HW121128   0.337   2.372   5.774 -1.8050 -2.0481  1.7690
 3223SOL    HW221129   0.280   2.427   5.647  1.9168  0.2671 -0.5425
 3224SOL     OW21130   4.251   3.929   8.169 -0.5606  0.1360  0.5912
 3224SOL    HW121131   4.315   3.857   8.174 -1.6149 -0.7783  0.9490
 3224SOL    HW221132   4.245   3.958   8.078  0.4935 -1.2231  0.0727
 3225SOL     OW21133   4.227   4.301   1.221  0.0812  0.2656  0.4178
 3225SOL    HW121134   4.314   4.340   1.209  0.3580 -0.3214  0.5121
 3225SOL    HW221135   4.175   4.371   1.180  0.5218 -0.6929 -1.7962
 3226SOL     OW21136   4.653   3.639   0.737 -0.2088  0.0273 -0.1082
 3226SOL    HW121137   4.660   3.717   0.683 -0.4881  0.8696  1.0701
 3226SOL    HW221138   4.560   3.639   0.760  0.2336 -0.4733  1.6760
 3227SOL     OW21139   3.680   2.606  12.943 -0.1966 -0.2431 -0.7673
 3227SOL    HW121140   3.737   2.641  12.874  0.7145 -3.9081 -1.8783
 3227SOL    HW221141   3.744   2.557  12.995 -1.7450 -1.7549 -0.3009
 3228SOL     OW21142   3.779   2.796   5.971  0.5151  0.0932 -0.2203
 3228SOL    HW121143   3.823   2.714   5.993 -0.0594  0.2024  1.3666
 3228SOL    HW221144   3.757   2.771   5.882 -0.2034  1.7787 -0.5350
 3229SOL     OW21145   1.013   2.974   7.130 -0.1262 -0.0409 -0.7735
 3229SOL    HW121146   1.032   3.040   7.197  1.3959 -0.4372 -0.8002
 3229SOL    HW221147   0.947   2.919   7.172  1.7433  0.0896  2.3361
 3230SOL     OW21148   3.177   0.903   5.412 -0.1074 -0.4317  0.2533
 3230SOL    HW121149   3.152   0.840   5.345 -1.6885  0.0398  0.3982
 3230SOL    HW221150   3.240   0.947   5.356  0.4748 -0.0560  1.2068
 3231SOL     OW21151   0.476   2.548   5.284 -0.2691  0.4685 -0.0390
 3231SOL    HW121152   0.502   2.544   5.376  2.5913 -1.7582 -0.9510
 3231SOL    HW221153   0.459   2.460   5.251 -0.7511  0.8151 -0.7152
 3232SOL     OW21154   3.634   2.006  12.836 -0.8609  0.0196 -0.1831
 3232SOL    HW121155   3.721   2.047  12.842 -1.0799  0.0127  2.9133
 3232SOL    HW221156   3.588   2.079  12.876 -1.6803  0.2836 -1.6163
 3233SOL     OW21157   3.239   3.633  15.205 -0.2278  0.3602 -0.0194
 3233SOL    HW121158   3.321   3.682  15.209  0.1279 -0.2842  0.5502
 3233SOL    HW221159   3.192   3.676  15.277  1.2786 -1.3516  1.9585
 3234SOL     OW21160   0.470   3.645   8.275 -0.2450 -0.0879  0.2314
 3234SOL    HW121161   0.376   3.652   8.258  0.1337 -0.2641 -2.0084
 3234SOL    HW221162   0.508   3.721   8.232  0.6233 -1.2101 -1.0064
 3235SOL     OW21163   2.553   4.193  12.118  0.1570 -0.6225  0.0103
 3235SOL    HW121164   2.629   4.147  12.154  1.9593 -0.1346 -3.1327
 3235SOL    HW221165   2.584   4.224  12.032  1.1338  1.8712  1.2716
 3236SOL     OW21166   2.791   1.807  15.937 -0.7123  0.1149 -0.1691
 3236SOL    HW121167   2.851   1.814  15.863 -2.1781 -0.3951 -1.4088
 3236SOL    HW221168   2.759   1.894  15.960 -1.9152 -0.3345 -0.1487
 3237SOL     OW21169   1.460   0.039   3.767  0.5222  0.1809 -0.2644
 3237SOL    HW121170   1.454   0.116   3.712 -1.4026 -0.5237 -1.0559
 3237SOL    HW221171   1.525   0.051   3.837 -0.1239 -3.4768  0.9756
 3238SOL     OW21172   0.882   2.963   6.675  0.0215 -0.6150  0.4131
 3238SOL    HW121173   0.791   2.993   6.677 -0.2777 -1.4473 -0.5657
 3238SOL    HW221174   0.917   3.003   6.595 -2.6056 -1.2743 -1.0700
 3239SOL     OW21175   4.233   0.504   7.827 -0.0819 -0.1090 -0.4231
 3239SOL    HW121176   4.268   0.450   7.756 -0.2855 -1.7218  0.6893
 3239SOL    HW221177   4.302   0.571   7.831  0.1416 -0.4536  1.6913
 3240SOL     OW21178   4.148   3.065   8.148  0.0654  0.0003 -0.1728
 3240SOL    HW121179   4.200   3.087   8.070 -1.6266 -0.7445 -1.4853
 3240SOL    HW221180   4.080   3.021   8.097  0.5200 -0.4489 -0.3948
 3241SOL     OW21181   1.755   2.606   7.270  1.0820 -0.1392 -0.0360
 3241SOL    HW121182   1.753   2.696   7.238  0.7874 -0.9912 -2.4003
 3241SOL    HW221183   1.816   2.610   7.344 -0.2554 -1.0633  1.1039
 3242SOL     OW21184   4.419   3.152   4.654  0.2617 -0.2870 -0.2466
 3242SOL    HW121185   4.382   3.085   4.598  0.4135  0.2216 -0.9464
 3242SOL    HW221186   4.465   3.206   4.590 -1.2628  0.1884 -0.9248
 3243SOL     OW21187   4.177   0.917   9.839  0.6990  0.3909  0.2766
 3243SOL    HW121188   4.214   0.920   9.751  0.3221 -0.6169  0.0861
 3243SOL    HW221189   4.098   0.865   9.827  0.8640  0.6934 -2.0671
 3244SOL     OW21190   3.375   3.957  16.435 -0.1036  0.1204 -0.1626
 3244SOL    HW121191   3.371   4.052  16.438 -0.2841  0.1191 -0.3210
 3244SOL    HW221192   3.333   3.938  16.351 -0.4299  0.6191 -0.1131
 3245SOL     OW21193   3.096   2.555   8.931  0.6233  0.2597  0.5069
 3245SOL    HW121194   3.127   2.628   8.878 -2.4742  0.3898 -1.1410
 3245SOL    HW221195   3.169   2.544   8.992 -0.2237  1.9364  1.8407
 3246SOL     OW21196   2.178   2.757  14.610 -0.0374 -0.3780 -0.4594
 3246SOL    HW121197   2.247   2.731  14.671  0.7184  0.7109 -0.8608
 3246SOL    HW221198   2.101   2.708  14.640  0.6685 -1.4175 -0.3378
 3247SOL     OW21199   0.021   2.264   2.205  0.2872 -0.1129 -0.9111
 3247SOL    HW121200   0.024   2.231   2.115  1.4374 -0.7564 -0.6378
 3247SOL    HW221201   0.047   2.180   2.243  2.3782  1.0914  0.3457
 3248SOL     OW21202   0.471   3.621   4.188 -0.5179 -0.0829  0.2898
 3248SOL    HW121203   0.473   3.711   4.156  1.6446 -0.0503  0.5273
 3248SOL    HW221204   0.403   3.629   4.256 -1.5517 -2.1072 -0.4865
 3249SOL     OW21205   0.475   3.205  13.670 -0.5968 -0.2598  0.1453
 3249SOL    HW121206   0.486   3.260  13.592 -1.1052 -0.3734 -0.0106
 3249SOL    HW221207   0.451   3.272  13.734 -0.8153 -0.1693 -0.0321
 3250SOL     OW21208   3.397   0.651  12.734 -0.2238  0.1905 -0.0483
 3250SOL    HW121209   3.446   0.621  12.811 -0.5105 -0.5025 -0.1354
 3250SOL    HW221210   3.465   0.683  12.675 -1.5467 -0.2358 -1.7986
 3251SOL     OW21211   1.516   2.318   6.877 -0.4318  0.0373 -0.0561
 3251SOL    HW121212   1.557   2.399   6.908 -0.4434 -0.1234  0.3784
 3251SOL    HW221213   1.586   2.258   6.901 -0.6206  0.0667  0.5508
 3252SOL     OW21214   4.066   4.536  16.727  0.4854  0.1075 -0.5433
 3252SOL    HW121215   4.105   4.532  16.640 -0.2747  0.2187 -0.8857
 3252SOL    HW221216   4.058   4.631  16.731 -1.6237 -0.0466 -1.4885
 3253SOL     OW21217   3.490   2.375  16.551 -0.4052 -0.3497 -0.0728
 3253SOL    HW121218   3.468   2.353  16.642 -3.7731 -0.5618 -0.9251
 3253SOL    HW221219   3.558   2.310  16.532 -0.4641 -0.0560 -1.2938
 3254SOL     OW21220   1.913   1.453   4.441  0.4071  0.2215  0.1337
 3254SOL    HW121221   1.970   1.377   4.442  0.7182  0.4725  1.1575
 3254SOL    HW221222   1.963   1.523   4.483  0.3043  0.6310 -0.4171
 3255SOL     OW21223   4.441   0.213   7.995  0.1257  0.3698 -0.1049
 3255SOL    HW121224   4.525   0.222   7.951 -0.1287 -0.5856 -0.7871
 3255SOL    HW221225   4.381   0.245   7.927 -2.6904  1.0322  2.6689
 3256SOL     OW21226   3.975   4.258   8.398 -0.0478  0.6304  0.3157
 3256SOL    HW121227   3.995   4.350   8.413  1.2817  0.3988 -0.0604
 3256SOL    HW221228   4.024   4.218   8.470 -0.5515 -0.5811 -0.0082
 3257SOL     OW21229   3.450   3.398   6.497  0.6913 -0.3103 -0.3722
 3257SOL    HW121230   3.424   3.429   6.411 -1.0190 -1.8109 -0.4017
 3257SOL    HW221231   3.364   3.375   6.533 -0.0525  2.5923 -0.3358
 3258SOL     OW21232   4.528   2.294   6.134 -0.1327  0.3292 -0.0897
 3258SOL    HW121233   4.585   2.220   6.115 -1.2678 -0.8306  1.0579
 3258SOL    HW221234   4.462   2.279   6.066  0.0313  0.2473 -0.2317
 3259SOL     OW21235   3.820   0.164   1.848 -0.3134  0.1575  0.0496
 3259SOL    HW121236   3.729   0.184   1.869  0.6181  1.7906  2.5517
 3259SOL    HW221237   3.819   0.180   1.754 -1.7266  2.6583  0.5009
 3260SOL     OW21238   1.124   1.599  11.631 -0.3250 -0.3562  0.3708
 3260SOL    HW121239   1.102   1.570  11.720  0.2225 -0.4742  0.4646
 3260SOL    HW221240   1.204   1.648  11.648 -0.7321  0.6278 -0.5599
 3261SOL     OW21241   1.806   1.129   8.492 -0.3356 -0.5802 -0.2848
 3261SOL    HW121242   1.822   1.218   8.525  2.1510 -1.1529  0.1084
 3261SOL    HW221243   1.762   1.141   8.408  0.3705  0.3659 -0.5213
 3262SOL     OW21244   3.691   1.276  16.059  0.1178  0.0464  0.3080
 3262SOL    HW121245   3.729   1.250  15.975  1.4010  1.9943  0.2963
 3262SOL    HW221246   3.610   1.314  16.025 -0.3384 -0.7110  0.5496
 3263SOL     OW21247   0.319   0.563   8.327  0.3363  0.0921 -0.3642
 3263SOL    HW121248   0.315   0.634   8.392  0.3187  2.9534 -3.4783
 3263SOL    HW221249   0.270   0.494   8.372  0.6279 -0.2736 -0.6068
 3264SOL     OW21250   4.702   4.013   3.091  0.0380 -0.6516 -0.2174
 3264SOL    HW121251   4.687   4.105   3.111 -0.6669 -0.5204 -1.3279
 3264SOL    HW221252   4.676   4.008   2.999 -1.2070 -0.7953  0.1409
 3265SOL     OW21253   3.629   4.082  13.748  0.3735 -0.0773 -0.1968
 3265SOL    HW121254   3.719   4.106  13.727  0.1165  1.6095  0.6689
 3265SOL    HW221255   3.578   4.163  13.746 -0.4816 -0.6543 -2.3633
 3266SOL     OW21256   3.796   4.051   2.808 -0.2243 -0.0308 -0.1415
 3266SOL    HW121257   3.887   4.079   2.803 -0.2547  0.0893 -0.0458
 3266SOL    HW221258   3.793   3.987   2.879 -2.7088 -0.0096 -0.2020
 3267SOL     OW21259   0.939   4.287   8.598  0.3248 -0.1447 -0.3170
 3267SOL    HW121260   0.909   4.339   8.672 -1.0487  0.9530 -1.6246
 3267SOL    HW221261   1.030   4.271   8.620 -0.2383 -0.8395  1.5309
 3268SOL     OW21262   0.031   0.810   4.169 -0.8441  0.3699  0.1639
 3268SOL    HW121263   4.707   0.794   4.087  0.6532  1.7826 -0.9663
 3268SOL    HW221264   0.098   0.873   4.144  0.7164 -1.3983 -0.1824
 3269SOL     OW21265   4.150   3.819  16.573  0.2519  0.2188  0.3110
 3269SOL    HW121266   4.068   3.828  16.622 -0.7934 -2.3913 -0.9413
 3269SOL    HW221267   4.207   3.775  16.636 -1.4043 -1.1394  0.8786
 3270SOL     OW21268   1.098   2.143   0.257  0.1892 -0.2090 -0.0228
 3270SOL    HW121269   1.151   2.183   0.189  1.3908 -2.6139 -0.4917
 3270SOL    HW221270   1.018   2.196   0.247 -0.4952 -1.2370  0.0188
 3271SOL     OW21271   1.120   0.003   8.286 -0.6088  0.6134 -0.2579
 3271SOL    HW121272   1.105   0.097   8.295 -1.1015  0.3772  1.4607
 3271SOL    HW221273   1.214   4.721   8.306 -0.6229  1.5656  0.0877
 3272SOL     OW21274   0.102   0.554   6.057  0.3361  0.3468 -0.3222
 3272SOL    HW121275   0.046   0.507   5.995  0.3733 -1.1202  0.7550
 3272SOL    HW221276   0.052   0.634   6.071 -0.0299  0.3949 -1.9011
 3273SOL     OW21277   3.883   4.464   7.093  0.3465  0.1067  0.2556
 3273SOL    HW121278   3.823   4.427   7.158  1.2544  1.2122  1.7254
 3273SOL    HW221279   3.837   4.510   7.023  0.2577 -0.6971 -0.2151
 3274SOL     OW21280   3.891   3.484  12.946 -0.5212 -0.2344 -0.2095
 3274SOL    HW121281   3.820   3.548  12.944 -1.2502 -1.0120  0.9513
 3274SOL    HW221282   3.946   3.531  12.883  0.6330  0.7064  1.5036
 3275SOL     OW21283   3.310   3.112   7.149  0.2891  0.3213 -0.4950
 3275SOL    HW121284   3.270   3.041   7.199  0.3152  1.6768  1.4089
 3275SOL    HW221285   3.393   3.106   7.196  0.2306  0.7037 -0.3424
 3276SOL     OW21286   4.053   0.660   7.718 -0.0154  0.3200 -0.6943
 3276SOL    HW121287   4.120   0.600   7.748 -1.5010 -1.2427 -0.4920
 3276SOL    HW221288   3.983   0.642   7.781  0.1699 -0.7572 -0.8006
 3277SOL     OW21289   3.569   0.045   6.687  0.2886 -0.3497 -0.4493
 3277SOL    HW121290   3.502   4.717   6.731 -1.7945  0.9767 -2.0701
 3277SOL    HW221291   3.554   0.135   6.716 -2.2204 -1.6991  2.3807
 3278SOL     OW21292   3.413   0.637   1.925  0.1569 -0.1966 -0.0214
 3278SOL    HW121293   3.421   0.679   2.011 -0.4806 -2.6290  1.2140
 3278SOL    HW221294   3.415   0.723   1.883  2.3161 -0.5174 -0.5758
 3279SOL     OW21295   1.521   0.077   4.575 -0.2091  0.4625  0.0905
 3279SOL    HW121296   1.468   0.000   4.555  2.9020 -1.4394 -0.9143
 3279SOL    HW221297   1.453   0.131   4.614 -0.8887 -0.7694  0.6135
 3280SOL     OW21298   2.628   1.746   1.133  0.5702  0.2060 -0.2751
 3280SOL    HW121299   2.681   1.746   1.053 -1.6662  2.5346 -1.7595
 3280SOL    HW221300   2.655   1.827   1.176 -1.4878  1.1738 -0.8142
 3281SOL     OW21301   3.446   3.168   7.939 -0.2889 -0.3196  0.4276
 3281SOL    HW121302   3.535   3.197   7.920  0.0065 -0.6438  1.3012
 3281SOL    HW221303   3.453   3.131   8.027 -0.4263 -0.1742  0.5000
 3282SOL     OW21304   3.077   1.496  12.878  0.3030  0.3810 -0.8345
 3282SOL    HW121305   3.137   1.440  12.927  0.9852  3.1176  1.4076
 3282SOL    HW221306   3.127   1.488  12.796  2.5171 -2.1193  0.7788
 3283SOL     OW21307   0.193   4.312  12.408 -0.2217  0.4711 -0.1206
 3283SOL    HW121308   0.207   4.252  12.482 -1.5698  0.8398  0.4322
 3283SOL    HW221309   0.155   4.252  12.344  2.3548 -0.5876 -0.6715
 3284SOL     OW21310   1.442   3.743   2.297  0.2667  0.3470  0.5457
 3284SOL    HW121311   1.348   3.724   2.301  0.2015  0.3365 -0.9798
 3284SOL    HW221312   1.446   3.838   2.300  1.4733  0.3540 -1.6408
 3285SOL     OW21313   0.519   4.393   2.568  0.6312  0.4274 -0.7174
 3285SOL    HW121314   0.596   4.406   2.514  2.2005  0.0414  1.4210
 3285SOL    HW221315   0.476   4.328   2.513 -0.9102  0.3651  0.5544
 3286SOL     OW21316   0.640   2.230   4.763 -0.2603 -0.6269  0.0863
 3286SOL    HW121317   0.581   2.278   4.821  0.4815 -0.9109  1.0823
 3286SOL    HW221318   0.715   2.288   4.748  0.1163 -1.6019 -1.8320
 3287SOL     OW21319   4.531   1.194   4.649 -0.1551  0.3917 -0.0576
 3287SOL    HW121320   4.585   1.168   4.575  0.5078  0.8803  0.2602
 3287SOL    HW221321   4.595   1.192   4.720 -1.5561  0.1587  1.2052
 3288SOL     OW21322   2.310   2.707   6.621  0.1794 -0.1303 -0.3598
 3288SOL    HW121323   2.300   2.700   6.526  1.6379  0.4427 -0.5599
 3288SOL    HW221324   2.278   2.797   6.627  0.0501 -0.1196 -1.3377
 3289SOL     OW21325   4.288   4.318   6.215  0.8750  0.6140  0.0151
 3289SOL    HW121326   4.211   4.372   6.196 -0.9346 -2.9191 -2.6304
 3289SOL    HW221327   4.290   4.335   6.309 -0.2219  2.2804 -0.2654
 3290SOL     OW21328   1.864   1.371  17.134  0.4099 -0.0475  0.1524
 3290SOL    HW121329   1.877   1.279  17.155  1.0269  0.2843  1.2232
 3290SOL    HW221330   1.794   1.370  17.069 -0.3104 -1.5117  0.9600
 3291SOL     OW21331   4.184   1.934   2.223  0.5251  0.0092  0.6327
 3291SOL    HW121332   4.132   2.014   2.212  0.7591  0.0048 -0.5354
 3291SOL    HW221333   4.135   1.866   2.177 -0.2685  1.8080 -1.1901
 3292SOL     OW21334   1.617   2.556   1.557  0.2149  0.3325 -0.2381
 3292SOL    HW121335   1.583   2.473   1.523  1.6422 -0.3739  0.0603
 3292SOL    HW221336   1.585   2.613   1.487  0.0459  1.1667  0.5125
 3293SOL     OW21337   1.413   4.688   7.091  0.6306  0.0215 -0.5588
 3293SOL    HW121338   1.358   4.609   7.088 -0.6621  0.9040 -0.2721
 3293SOL    HW221339   1.475   4.654   7.155  1.8537  1.2901 -1.0706
 3294SOL     OW21340   1.422   0.004   5.452 -0.4765 -0.1444 -0.4151
 3294SOL    HW121341   1.455   4.714   5.541 -0.4222 -0.8819 -0.5488
 3294SOL    HW221342   1.500   0.049   5.420 -0.4968 -1.7503 -2.6721
 3295SOL     OW21343   3.756   1.950   3.043  0.0546  0.2151 -0.1938
 3295SOL    HW121344   3.784   2.040   3.061  2.1185 -0.2109 -1.1796
 3295SOL    HW221345   3.752   1.924   3.135  0.0171  0.2252 -0.1926
 3296SOL     OW21346   0.309   4.535   7.450 -0.1130 -0.0008  0.7781
 3296SOL    HW121347   0.356   4.518   7.531  0.4798 -2.1962 -0.0212
 3296SOL    HW221348   0.387   4.569   7.406 -0.2083  1.4211  1.6927
 3297SOL     OW21349   4.237   1.610   6.103  0.2903 -0.2815  0.3958
 3297SOL    HW121350   4.163   1.570   6.058  1.3514 -1.7051 -0.1217
 3297SOL    HW221351   4.188   1.651   6.174  0.1652  0.0629  0.1085
 3298SOL     OW21352   4.432   4.099   3.991 -0.1706  0.4513  0.8060
 3298SOL    HW121353   4.494   4.033   3.959 -1.1050  0.2059 -0.4691
 3298SOL    HW221354   4.382   4.111   3.910  1.7063 -1.2478 -0.6048
 3299SOL     OW21355   1.524   3.662  10.682  0.0155 -0.1401  0.1935
 3299SOL    HW121356   1.561   3.740  10.641 -2.4714  1.1434  0.3638
 3299SOL    HW221357   1.431   3.686  10.681  0.2505  0.8890  2.4841
 3300SOL     OW21358   3.385   2.106   6.435 -0.6519  0.1929  0.2919
 3300SOL    HW121359   3.404   2.013   6.446 -0.2878  0.0942 -1.1592
 3300SOL    HW221360   3.466   2.145   6.468 -2.7889  3.0223  2.2300
 3301SOL     OW21361   4.006   0.998   5.360 -0.2054  0.0509  0.2623
 3301SOL    HW121362   4.025   1.018   5.451  1.0548 -1.6067  0.3535
 3301SOL    HW221363   3.935   0.934   5.358 -0.4321  0.2695  1.2762
 3302SOL     OW21364   2.367   3.821   5.347 -0.5816  0.4381 -0.0575
 3302SOL    HW121365   2.396   3.801   5.258 -0.9522 -1.8773  0.3233
 3302SOL    HW221366   2.361   3.914   5.327 -0.0467 -0.1883 -3.0646
 3303SOL     OW21367   0.564   0.341   8.557  0.2002  0.2034  0.0890
 3303SOL    HW121368   0.590   0.432   8.547  1.6859 -0.3148 -0.6688
 3303SOL    HW221369   0.564   0.323   8.651 -2.2099 -3.5783 -0.6132
 3304SOL     OW21370   3.747   2.750   8.887  0.0749 -0.5721 -0.0801
 3304SOL    HW121371   3.656   2.728   8.908 -0.9187  0.4039 -3.3767
 3304SOL    HW221372   3.792   2.678   8.932  0.2005  0.5890  1.6649
 3305SOL     OW21373   2.361   1.924   4.238 -0.6231 -0.1338  0.0648
 3305SOL    HW121374   2.336   2.016   4.244 -1.1615 -0.1414 -2.0703
 3305SOL    HW221375   2.352   1.898   4.329 -0.3163 -2.2976 -0.5103
 3306SOL     OW21376   2.307   0.651   5.887 -0.1346  0.2124 -1.0786
 3306SOL    HW121377   2.386   0.647   5.942  0.7943 -0.9348 -2.4806
 3306SOL    HW221378   2.328   0.714   5.819 -1.5522  2.6478  0.7540
 3307SOL     OW21379   4.606   3.042   3.757 -0.3646  0.2478 -0.1840
 3307SOL    HW121380   4.530   3.062   3.701  0.8260  0.4828 -1.7264
 3307SOL    HW221381   4.626   3.132   3.779  0.5957 -0.0917  0.3290
 3308SOL     OW21382   0.430   2.272   6.101  0.0230  0.7910  0.2714
 3308SOL    HW121383   0.403   2.335   6.034 -0.4778  1.3546  1.0014
 3308SOL    HW221384   0.355   2.246   6.156 -0.4884 -0.3121 -0.9569
 3309SOL     OW21385   0.011   3.366   1.709 -0.3200 -0.0858 -0.4548
 3309SOL    HW121386   4.701   3.289   1.756 -2.8793  1.9422  1.0411
 3309SOL    HW221387   0.099   3.338   1.685 -1.1934  0.4120 -4.2236
 3310SOL     OW21388   0.812   1.999   4.792  0.4010  0.1978  0.0935
 3310SOL    HW121389   0.740   2.060   4.770 -0.4742 -0.5868  0.7845
 3310SOL    HW221390   0.795   1.993   4.886  1.0901 -0.4438  0.1676
 3311SOL     OW21391   3.172   3.423   0.934  0.1404  0.4449  0.3733
 3311SOL    HW121392   3.207   3.422   0.844 -0.5491  0.8010  0.1012
 3311SOL    HW221393   3.082   3.451   0.918 -0.5092 -1.0705  1.4223
 3312SOL     OW21394   2.001   2.822  15.146 -0.3170  0.1358 -0.0195
 3312SOL    HW121395   2.075   2.839  15.205  0.1516  2.3447 -1.2502
 3312SOL    HW221396   2.034   2.792  15.061 -1.1932 -0.2669 -0.2116
 3313SOL     OW21397   1.814   3.140   1.964 -0.0907  0.0874  0.1530
 3313SOL    HW121398   1.830   3.060   2.014  1.4691 -1.3102 -2.5921
 3313SOL    HW221399   1.804   3.111   1.873 -2.2755 -1.0787  0.7492
 3314SOL     OW21400   2.164   3.059  13.483  0.5906 -0.4084 -0.2680
 3314SOL    HW121401   2.101   2.999  13.523 -1.2109  1.4439 -0.3239
 3314SOL    HW221402   2.169   3.126  13.552 -0.3959 -0.7644  0.1488
 3315SOL     OW21403   2.412   3.339   0.950  0.2720  1.0268  0.1410
 3315SOL    HW121404   2.497   3.341   0.995  1.2593 -1.9990 -1.5403
 3315SOL    HW221405   2.355   3.326   1.025  1.7650  1.0682  1.2909
 3316SOL     OW21406   3.768   0.214   8.068  0.3597 -0.2112  0.1212
 3316SOL    HW121407   3.683   0.209   8.111  0.1861 -1.5989 -0.3654
 3316SOL    HW221408   3.756   0.298   8.025  1.3411  0.5937  1.4213
 3317SOL     OW21409   4.251   4.454   5.845 -0.8644 -0.4013 -0.0007
 3317SOL    HW121410   4.186   4.487   5.907  1.2664  1.8618  1.0070
 3317SOL    HW221411   4.271   4.368   5.883  3.4073  0.1222 -1.0361
 3318SOL     OW21412   1.611   0.908  10.650  0.0966  0.3548 -0.4488
 3318SOL    HW121413   1.532   0.943  10.691  0.2898  0.6125 -0.2915
 3318SOL    HW221414   1.588   0.894  10.559  0.6516 -1.6024 -0.2849
 3319SOL     OW21415   2.266   3.291   4.303 -0.8219  0.2690 -0.6830
 3319SOL    HW121416   2.207   3.357   4.337  0.4999  1.0952  0.0021
 3319SOL    HW221417   2.233   3.215   4.350 -2.0047  1.7292  0.8362
 3320SOL     OW21418   0.720   3.863   2.211  0.4885  0.3230 -0.0883
 3320SOL    HW121419   0.748   3.927   2.275  1.3104 -0.4487  0.3260
 3320SOL    HW221420   0.650   3.824   2.263  0.2515 -0.9200 -1.3140
 3321SOL     OW21421   1.151   2.545   6.970 -0.5234 -0.1292 -0.2737
 3321SOL    HW121422   1.229   2.569   7.021  0.0624 -0.3816 -1.0491
 3321SOL    HW221423   1.135   2.454   6.993  3.7408 -0.5454  1.0334
 3322SOL     OW21424   0.731   1.511  15.993 -0.2167  0.0324  0.0438
 3322SOL    HW121425   0.691   1.587  16.036  1.8194  0.6022  0.9027
 3322SOL    HW221426   0.659   1.447  15.990  0.2754 -0.4025 -2.2041
 3323SOL     OW21427   4.178   0.133  13.229  0.4499 -0.1480 -0.2242
 3323SOL    HW121428   4.273   0.125  13.232  0.5204  0.0641 -2.1374
 3323SOL    HW221429   4.180   0.200  13.298 -1.2333 -0.1089 -0.2064
 3324SOL     OW21430   1.102   4.199   0.007  0.2521  0.0924  0.4223
 3324SOL    HW121431   1.055   4.180  17.621  1.3072 -1.1841  0.1126
 3324SOL    HW221432   1.106   4.113   0.049  1.9846  0.9853  2.0818
 3325SOL     OW21433   2.610   4.587  14.703 -0.8505 -0.6642  0.4945
 3325SOL    HW121434   2.598   4.629  14.789  1.4407 -0.6329  0.8009
 3325SOL    HW221435   2.696   4.622  14.679 -1.5270  0.8216  0.2389
 3326SOL     OW21436   0.287   3.362   2.342  0.5470  0.2127  0.4139
 3326SOL    HW121437   0.378   3.390   2.342  0.0533  1.8169  1.4076
 3326SOL    HW221438   0.269   3.339   2.251 -0.1631  1.4749  0.2338
 3327SOL     OW21439   0.928   3.939   6.011  0.2145 -0.0227  0.1242
 3327SOL    HW121440   0.876   3.956   6.089 -0.8403  0.3796 -0.6568
 3327SOL    HW221441   1.017   3.943   6.047  0.2995  1.2698 -0.2015
 3328SOL     OW21442   4.338   1.699  13.533 -0.0065 -0.8133 -0.1576
 3328SOL    HW121443   4.355   1.605  13.526  1.2668 -0.6375  0.5894
 3328SOL    HW221444   4.386   1.714  13.614  2.0995 -0.0643 -1.5359
 3329SOL     OW21445   3.580   1.853   9.780  0.2419 -0.7028 -0.0283
 3329SOL    HW121446   3.592   1.945   9.804 -1.1755 -0.3116 -0.8311
 3329SOL    HW221447   3.659   1.853   9.726  1.3770 -0.1965  1.6212
 3330SOL     OW21448   1.209   3.517  10.767  0.0996 -0.1702  0.3045
 3330SOL    HW121449   1.192   3.611  10.775 -0.5863 -0.2195 -0.5310
 3330SOL    HW221450   1.233   3.507  10.674  1.9324  1.6794  0.5603
 3331SOL     OW21451   1.516   2.124   9.013  0.4893  0.0318 -0.0061
 3331SOL    HW121452   1.524   2.183   8.938 -0.7087 -0.6516 -0.6719
 3331SOL    HW221453   1.446   2.169   9.061  0.4923 -1.3015  1.2544
 3332SOL     OW21454   2.842   3.171  12.941 -0.5880  0.2437 -0.3359
 3332SOL    HW121455   2.905   3.100  12.952  0.3882  0.9210 -1.4183
 3332SOL    HW221456   2.896   3.248  12.958 -1.1816  0.1917  1.7461
 3333SOL     OW21457   2.009   4.168  12.503 -0.3795 -0.4002  0.5880
 3333SOL    HW121458   2.082   4.230  12.499 -0.8573  0.0633 -0.8621
 3333SOL    HW221459   2.049   4.095  12.550  0.6438 -0.8176 -0.9443
 3334SOL     OW21460   1.679   2.926   5.101 -0.0079 -0.9187 -0.3495
 3334SOL    HW121461   1.646   2.978   5.027 -2.2956  0.6110  1.7621
 3334SOL    HW221462   1.770   2.925   5.071  0.3416 -0.8189  0.7390
 3335SOL     OW21463   0.295   0.079   4.999 -0.6079 -0.2693  0.6069
 3335SOL    HW121464   0.355   0.119   5.063  1.7508 -1.3629 -0.9220
 3335SOL    HW221465   0.279   4.718   5.040 -0.6516 -0.6537 -0.2059
 3336SOL     OW21466   4.288   4.332  14.121 -0.1238 -0.0059 -0.0837
 3336SOL    HW121467   4.312   4.422  14.142  0.3522  0.0460 -0.8138
 3336SOL    HW221468   4.313   4.285  14.201 -0.2933  1.0224  0.5592
 3337SOL     OW21469   3.801   2.812  10.183  0.2432  0.3302  0.0138
 3337SOL    HW121470   3.774   2.819  10.274 -0.9190  0.4072 -0.3356
 3337SOL    HW221471   3.734   2.750  10.153  0.0407  0.4245  0.2773
 3338SOL     OW21472   1.140   3.626   3.784 -0.1177  0.2815 -0.0899
 3338SOL    HW121473   1.151   3.591   3.695  1.4919 -1.5925  0.8491
 3338SOL    HW221474   1.233   3.642   3.802  0.2614  0.3774 -2.1428
 3339SOL     OW21475   3.389   1.452  10.289 -0.3357  0.7567 -0.3723
 3339SOL    HW121476   3.479   1.430  10.267 -0.5972  0.5746 -1.2732
 3339SOL    HW221477   3.352   1.431  10.203 -0.4332 -1.1847  0.1372
 3340SOL     OW21478   2.520   4.039   5.002 -0.2816  0.0935 -0.6453
 3340SOL    HW121479   2.548   3.969   5.060 -0.0522  0.6791 -0.0496
 3340SOL    HW221480   2.441   4.065   5.049  0.7481  0.9546  0.6328
 3341SOL     OW21481   4.556   4.335  10.844 -0.1592  0.1515  0.1091
 3341SOL    HW121482   4.506   4.371  10.917 -2.7271 -1.2067 -0.9681
 3341SOL    HW221483   4.622   4.404  10.837 -0.5756  0.4961 -0.4413
 3342SOL     OW21484   2.857   4.512   7.720 -0.0609 -0.0367 -0.3870
 3342SOL    HW121485   2.882   4.600   7.746  0.4053 -0.1186 -0.5529
 3342SOL    HW221486   2.766   4.529   7.697  0.9244  1.3493 -3.2927
 3343SOL     OW21487   4.590   2.666   7.784 -0.6739  0.0440  0.1266
 3343SOL    HW121488   4.634   2.649   7.867 -2.5539 -0.7983  0.9542
 3343SOL    HW221489   4.553   2.751   7.805 -1.6546 -0.3805  0.1206
 3344SOL     OW21490   0.547   0.455   7.903 -0.0146 -0.0257  0.2922
 3344SOL    HW121491   0.596   0.458   7.821  1.4550 -1.3222  1.1336
 3344SOL    HW221492   0.602   0.399   7.956 -1.6728 -0.8019  1.1962
 3345SOL     OW21493   4.535   2.240   7.203 -0.0951 -0.4737  0.9792
 3345SOL    HW121494   4.512   2.182   7.130 -0.1903 -0.3213  0.8894
 3345SOL    HW221495   4.551   2.319   7.151  1.2649 -1.6935 -0.4607
 3346SOL     OW21496   3.090   1.677  11.637 -0.0894 -0.0860  0.0550
 3346SOL    HW121497   3.013   1.728  11.611 -0.6476  0.1351  2.1459
 3346SOL    HW221498   3.144   1.738  11.686  0.3241  3.1381 -4.3745
 3347SOL     OW21499   4.532   2.318   4.507 -0.4487 -0.5841 -0.5652
 3347SOL    HW121500   4.548   2.410   4.485 -1.6936  0.0744  1.3161
 3347SOL    HW221501   4.522   2.280   4.419 -0.3914 -2.7696  0.3841
 3348SOL     OW21502   4.523   1.325   8.571  0.5077 -0.6019 -0.3574
 3348SOL    HW121503   4.523   1.344   8.665  0.7853  0.7013 -0.6162
 3348SOL    HW221504   4.433   1.294   8.562 -0.3769  1.5759  0.9287
 3349SOL     OW21505   0.686   0.912   2.733 -0.6156  0.2828  0.4465
 3349SOL    HW121506   0.719   0.984   2.679 -0.4180 -0.5101 -0.4942
 3349SOL    HW221507   0.593   0.902   2.714 -0.5488  1.7072 -0.6853
 3350SOL     OW21508   2.347   4.075   8.388 -0.4661  0.4809 -0.1751
 3350SOL    HW121509   2.415   4.022   8.346 -2.1259 -1.3810 -0.5266
 3350SOL    HW221510   2.395   4.117   8.460  0.5080 -0.1640 -0.4513
 3351SOL     OW21511   2.227   3.265   5.374  0.0638  0.2999  0.2854
 3351SOL    HW121512   2.243   3.358   5.359 -1.1695  0.5783  0.7434
 3351SOL    HW221513   2.214   3.250   5.280  0.4573  0.6516  0.1735
 3352SOL     OW21514   0.145   4.155   6.120 -0.2660  0.1855 -0.2110
 3352SOL    HW121515   0.133   4.188   6.208 -0.2927  0.1547 -0.2031
 3352SOL    HW221516   0.240   4.148   6.106 -0.2025  0.3736  0.1278
 3353SOL     OW21517   2.881   2.118   7.801  0.5427  0.0905 -0.0477
 3353SOL    HW121518   2.800   2.075   7.772 -0.4960  2.1097 -0.1387
 3353SOL    HW221519   2.887   2.099   7.894  3.9845  0.4352 -0.2007
 3354SOL     OW21520   1.777   2.926  15.349  0.0194 -0.2632  0.2839
 3354SOL    HW121521   1.800   2.849  15.297 -2.8921 -0.8753 -0.1028
 3354SOL    HW221522   1.787   2.997  15.286  1.4945  0.0561  0.8835
 3355SOL     OW21523   3.402   2.105  14.359  0.1979 -0.1624 -0.6997
 3355SOL    HW121524   3.308   2.123  14.369  0.0962  0.0101 -1.9780
 3355SOL    HW221525   3.393   2.076  14.268  0.1921 -1.4598 -0.2878
 3356SOL     OW21526   0.778   4.328   5.486  0.0175  0.2904  0.0261
 3356SOL    HW121527   0.874   4.319   5.488  0.0038  0.1991  0.1995
 3356SOL    HW221528   0.774   4.418   5.453  0.2839  0.2982  0.0102
 3357SOL     OW21529   4.580   0.258   8.224 -0.2511  0.3246  0.1651
 3357SOL    HW121530   4.524   0.210   8.163 -1.2001  1.6984 -0.0399
 3357SOL    HW221531   4.514   0.290   8.286 -1.2025 -1.4940  0.1187
 3358SOL     OW21532   2.608   1.849   8.055  0.5723 -0.3827 -0.8908
 3358SOL    HW121533   2.689   1.822   8.099 -0.9976 -0.7778  1.7684
 3358SOL    HW221534   2.624   1.940   8.082  1.5048 -0.3418 -1.5861
 3359SOL     OW21535   1.601   3.584   3.125  0.0941  0.3408 -0.3733
 3359SOL    HW121536   1.611   3.667   3.079  0.7533 -0.2166 -1.2367
 3359SOL    HW221537   1.666   3.537   3.073 -1.0097  0.7553 -2.1123
 3360SOL     OW21538   0.164   2.196   8.656 -0.1678  0.4908 -0.1908
 3360SOL    HW121539   0.200   2.210   8.744 -1.0204 -1.0082  0.3946
 3360SOL    HW221540   0.089   2.256   8.665  0.4331  1.5801 -2.4799
 3361SOL     OW21541   1.189   0.906  16.997 -0.3354 -0.4075 -0.0088
 3361SOL    HW121542   1.102   0.944  17.006  0.7177  1.8517  0.5085
 3361SOL    HW221543   1.216   0.937  16.910  2.3255  1.1968  1.3843
 3362SOL     OW21544   2.946   3.632   8.010 -0.2780 -0.1214  0.1776
 3362SOL    HW121545   2.865   3.661   7.967  0.9323 -1.2802 -2.8877
 3362SOL    HW221546   3.008   3.699   7.981  0.7229 -2.2018 -2.5516
 3363SOL     OW21547   0.150   0.901   5.522 -0.4280 -0.3292  0.5181
 3363SOL    HW121548   0.203   0.925   5.598  0.3743 -0.6765  0.0742
 3363SOL    HW221549   0.115   0.985   5.494 -1.6992 -0.9426  0.2433
 3364SOL     OW21550   0.302   1.219  15.962 -0.4027  0.7036  0.1652
 3364SOL    HW121551   0.374   1.266  15.920 -0.2736  1.2870  1.0414
 3364SOL    HW221552   0.353   1.149  16.004  1.9257  1.5068 -1.3535
 3365SOL     OW21553   3.078   3.086   3.640  0.0414 -0.1017 -0.6427
 3365SOL    HW121554   3.018   3.152   3.606  2.4758  2.9891  0.9874
 3365SOL    HW221555   3.030   3.053   3.716 -3.2690  3.5937 -1.1133
 3366SOL     OW21556   2.330   0.273   1.206 -0.2380  0.5918  0.4507
 3366SOL    HW121557   2.410   0.297   1.252  0.2166 -1.8542  0.9319
 3366SOL    HW221558   2.329   0.177   1.215 -1.0519  0.4832 -0.7338
 3367SOL     OW21559   1.861   2.030   2.527  0.1777 -0.7005  0.2735
 3367SOL    HW121560   1.874   1.957   2.467  0.8036 -0.4618  0.1226
 3367SOL    HW221561   1.777   2.058   2.491 -0.2458 -2.1716  0.1152
 3368SOL     OW21562   3.827   1.783   2.816  0.5519 -0.0171  0.2799
 3368SOL    HW121563   3.813   1.850   2.883  0.0614 -1.3396  1.4934
 3368SOL    HW221564   3.768   1.715   2.849 -0.8398  1.3427  0.5690
 3369SOL     OW21565   0.486   0.352   6.996  0.2711 -0.5418 -0.6737
 3369SOL    HW121566   0.470   0.297   6.920  1.6521 -1.4529 -0.3009
 3369SOL    HW221567   0.492   0.289   7.067 -0.5901  1.3789  1.0923
 3370SOL     OW21568   3.689   4.228   5.943 -0.0676 -0.1146 -0.3261
 3370SOL    HW121569   3.723   4.268   5.863 -1.7149  0.2902 -0.8278
 3370SOL    HW221570   3.612   4.176   5.917 -0.7862 -1.1459  3.9433
 3371SOL     OW21571   2.627   2.523   7.186 -0.1359 -0.3158 -0.1188
 3371SOL    HW121572   2.684   2.552   7.258  3.1050 -0.3421 -2.7126
 3371SOL    HW221573   2.644   2.595   7.126  1.1934 -0.0332  0.5823
 3372SOL     OW21574   4.133   3.556   4.296 -0.1438  0.4249 -0.1917
 3372SOL    HW121575   4.173   3.471   4.310 -1.7618 -0.1456  0.9752
 3372SOL    HW221576   4.103   3.586   4.382  1.9608  0.2051  0.6180
 3373SOL     OW21577   4.011   3.298  16.243 -0.4288 -0.6133 -0.2895
 3373SOL    HW121578   4.012   3.393  16.255 -1.6062 -1.0102  3.1749
 3373SOL    HW221579   3.936   3.273  16.296  0.1521 -0.0858  0.7919
 3374SOL     OW21580   0.111   4.067   1.134 -0.0440 -0.2350  0.0530
 3374SOL    HW121581   0.203   4.092   1.130  0.1790 -1.3159 -1.5114
 3374SOL    HW221582   0.122   3.973   1.144 -0.3592 -0.3605 -0.7705
 3375SOL     OW21583   1.579   0.424  11.248  0.0889  0.1620 -0.4367
 3375SOL    HW121584   1.552   0.454  11.161 -0.4151 -0.9268 -0.6635
 3375SOL    HW221585   1.641   0.354  11.227  0.2341  1.4337 -4.1002
 3376SOL     OW21586   3.710   3.083  10.503  0.0504  0.3389 -0.2539
 3376SOL    HW121587   3.755   3.041  10.576  2.5047 -0.4736 -2.2112
 3376SOL    HW221588   3.729   3.176  10.517 -1.1353  0.9054 -2.3138
 3377SOL     OW21589   0.197   2.085  14.021 -0.4299  0.5024  0.1311
 3377SOL    HW121590   0.196   2.178  14.044 -0.3170  0.4878  0.1934
 3377SOL    HW221591   0.171   2.035  14.099 -0.6233  1.1302  0.4704
 3378SOL     OW21592   0.060   4.642   5.815  0.1290 -0.0352  0.1943
 3378SOL    HW121593   4.712   4.585   5.788 -0.1836  0.6747 -0.4741
 3378SOL    HW221594   0.119   4.630   5.741 -1.8445 -1.4546 -1.1251
 3379SOL     OW21595   0.292   1.713   3.090  0.2700 -0.4207  0.5519
 3379SOL    HW121596   0.235   1.790   3.096  0.0422 -0.4882 -0.7155
 3379SOL    HW221597   0.305   1.707   2.995 -0.7956  3.2470  0.1727
 3380SOL     OW21598   0.893   0.187   6.470  0.2998  0.6896  0.0895
 3380SOL    HW121599   0.911   0.195   6.564 -0.3561 -0.6702  0.3386
 3380SOL    HW221600   0.825   0.120   6.480 -0.1380  1.2826  1.1329
 3381SOL     OW21601   1.255   2.127   1.086  0.2311  0.7461  0.3328
 3381SOL    HW121602   1.241   2.133   0.991  2.4535  1.3813  0.0341
 3381SOL    HW221603   1.190   2.190   1.116 -0.3362 -0.2896  1.2859
 3382SOL     OW21604   4.524   0.030  16.542  0.0291 -0.5873 -0.2661
 3382SOL    HW121605   4.577   4.701  16.482  1.1374  1.5226 -1.1380
 3382SOL    HW221606   4.436   0.003  16.515  0.0071  2.1989 -3.0142
 3383SOL     OW21607   1.229   2.515   7.709 -0.3337  0.0510  0.5211
 3383SOL    HW121608   1.152   2.573   7.711 -0.1470  0.3755 -1.4036
 3383SOL    HW221609   1.280   2.535   7.788  1.7300 -2.4606 -0.1727
 3384SOL     OW21610   1.650   3.689   4.496 -0.2700 -0.0768  0.3601
 3384SOL    HW121611   1.635   3.603   4.457  0.4321 -0.4650  0.9512
 3384SOL    HW221612   1.611   3.749   4.432 -2.0082 -2.6797 -0.9882
 3385SOL     OW21613   4.232   4.633   0.244 -0.2743 -0.5350  0.2693
 3385SOL    HW121614   4.292   4.708   0.234  1.2232 -1.9038 -0.9457
 3385SOL    HW221615   4.152   4.686   0.245  2.1750  3.1942  1.4025
 3386SOL     OW21616   0.921   3.859  10.277 -0.1090  0.3755 -0.3890
 3386SOL    HW121617   0.896   3.901  10.359 -0.2773  0.3040 -0.4029
 3386SOL    HW221618   0.897   3.770  10.304 -2.1209  0.9548 -0.2418
 3387SOL     OW21619   3.608   3.074  14.756  0.2155  0.3161  1.1007
 3387SOL    HW121620   3.530   3.118  14.789  0.2707 -0.2057  1.9194
 3387SOL    HW221621   3.647   3.151  14.714  0.1486 -0.5314 -0.5060
 3388SOL     OW21622   1.473   3.119  15.728 -0.1428  0.0542 -0.2525
 3388SOL    HW121623   1.481   3.213  15.712 -1.2461  0.4507  1.6279
 3388SOL    HW221624   1.528   3.095  15.653  0.8100 -1.1007  0.8283
 3389SOL     OW21625   1.163   1.224   2.634  0.3056  0.0018 -0.2626
 3389SOL    HW121626   1.212   1.188   2.560 -0.0222  1.4695 -1.2048
 3389SOL    HW221627   1.211   1.306   2.650  0.3417  0.3127 -1.9531
 3390SOL     OW21628   2.012   1.583   7.948 -0.0962 -0.4810 -0.3375
 3390SOL    HW121629   2.048   1.638   8.018 -0.1885 -0.3766 -0.3733
 3390SOL    HW221630   2.005   1.500   7.995 -0.7263 -0.3922 -0.2795
 3391SOL     OW21631   2.603   1.784   4.175  0.0675  0.3876  0.3026
 3391SOL    HW121632   2.522   1.818   4.214 -0.0859 -0.1266  0.4402
 3391SOL    HW221633   2.603   1.825   4.088  3.0722 -1.0166 -0.3439
 3392SOL     OW21634   3.410   3.005  16.807  0.1996  0.3073 -0.0392
 3392SOL    HW121635   3.348   2.940  16.840 -2.2661  1.5657 -2.1755
 3392SOL    HW221636   3.440   2.967  16.725 -0.5634 -0.9474  0.2644
 3393SOL     OW21637   0.240   3.268   6.754  0.6006 -0.0235 -0.4060
 3393SOL    HW121638   0.175   3.200   6.763  0.6860 -0.5724 -3.7978
 3393SOL    HW221639   0.190   3.346   6.778  1.0300  0.7268 -1.9153
 3394SOL     OW21640   4.085   0.743   0.514  0.1913  0.2237 -0.0665
 3394SOL    HW121641   4.108   0.836   0.507 -0.8793  0.5344  0.5589
 3394SOL    HW221642   4.054   0.748   0.604 -0.1538  2.2970 -0.2990
 3395SOL     OW21643   0.215   1.104   1.792  0.4051 -0.3290  0.0921
 3395SOL    HW121644   0.264   1.041   1.846  0.1695 -1.7326 -1.3136
 3395SOL    HW221645   0.130   1.101   1.837  0.2863  1.0739 -0.0574
 3396SOL     OW21646   2.930   0.323   1.927  0.7379  0.5170 -0.1412
 3396SOL    HW121647   2.990   0.285   1.992 -0.7746 -1.0590  0.3348
 3396SOL    HW221648   2.885   0.394   1.971  1.2347  0.1355  0.9928
 3397SOL     OW21649   1.311   2.215   2.294 -0.9938 -0.7746  0.1357
 3397SOL    HW121650   1.271   2.245   2.213  1.5492  2.4721  0.0621
 3397SOL    HW221651   1.236   2.188   2.347 -2.3975 -0.5118 -1.7213
 3398SOL     OW21652   0.775   2.635   4.919 -0.4249  0.1051  0.1717
 3398SOL    HW121653   0.829   2.590   4.984  0.9841 -0.6938 -1.5738
 3398SOL    HW221654   0.708   2.667   4.980 -0.4038  0.0618  0.2183
 3399SOL     OW21655   2.839   4.222  16.631 -0.3940  0.6082 -0.8121
 3399SOL    HW121656   2.929   4.190  16.641 -1.3595 -2.2342 -1.2411
 3399SOL    HW221657   2.814   4.165  16.559  0.4122  0.5835 -1.0749
 3400SOL     OW21658   0.556   4.483  13.618  0.3418  0.2924 -0.3847
 3400SOL    HW121659   0.631   4.492  13.676  1.8219 -1.8274 -1.9972
 3400SOL    HW221660   0.513   4.565  13.641  0.5451  0.7679 -1.6835
 3401SOL     OW21661   1.351   3.724  17.636  0.0080 -0.0514 -0.2307
 3401SOL    HW121662   1.293   3.690  17.568 -0.8623 -0.2558  0.6157
 3401SOL    HW221663   1.432   3.748  17.590  0.0417  1.9516  0.8751
 3402SOL     OW21664   3.786   3.818  11.440 -0.4959 -0.2016 -0.2085
 3402SOL    HW121665   3.736   3.899  11.437  2.7731  1.8192 -0.2627
 3402SOL    HW221666   3.712   3.766  11.472 -0.8872  0.6672  0.2987
 3403SOL     OW21667   2.495   4.078   3.896 -0.7392 -0.0650 -0.1690
 3403SOL    HW121668   2.437   4.152   3.876 -0.6296 -0.2575 -1.2194
 3403SOL    HW221669   2.435   4.009   3.926 -0.9028 -0.1239 -0.6297
 3404SOL     OW21670   4.711   4.269   7.815 -0.1569 -0.3702 -0.4573
 3404SOL    HW121671   0.012   4.264   7.907 -0.5057 -1.2965 -0.4189
 3404SOL    HW221672   0.066   4.271   7.759  1.3115  0.7185  1.6336
 3405SOL     OW21673   4.423   1.210  16.594  0.0568 -0.4179  0.0453
 3405SOL    HW121674   4.330   1.229  16.611 -0.0859 -0.5835 -0.5616
 3405SOL    HW221675   4.419   1.198  16.499 -2.2079 -0.8689  0.1962
 3406SOL     OW21676   2.029   3.052   6.174  0.8841  0.5257 -0.0963
 3406SOL    HW121677   2.063   3.100   6.099 -0.1231 -0.0263 -0.8961
 3406SOL    HW221678   2.072   3.099   6.245  0.5551 -1.1104  1.1949
 3407SOL     OW21679   1.723   1.945   4.851  0.2747  0.5485 -0.1564
 3407SOL    HW121680   1.630   1.924   4.854  0.5657 -0.7772  0.0122
 3407SOL    HW221681   1.758   1.933   4.940 -0.9716 -0.8605  0.1450
 3408SOL     OW21682   1.127   1.027  14.845 -0.3065 -0.5938  0.4736
 3408SOL    HW121683   1.034   1.031  14.823 -0.8506  0.8357  3.1211
 3408SOL    HW221684   1.141   1.121  14.830  0.4634 -1.0132 -1.4316
 3409SOL     OW21685   4.114   4.154  10.570  0.0905  0.0491 -0.1327
 3409SOL    HW121686   4.076   4.242  10.577  0.4455 -0.0122  2.5569
 3409SOL    HW221687   4.204   4.171  10.600  1.2807  0.0309 -3.7423
 3410SOL     OW21688   3.586   0.487  14.415  0.0267  0.0890  0.1905
 3410SOL    HW121689   3.535   0.409  14.392  1.5358 -0.1058 -2.4963
 3410SOL    HW221690   3.634   0.459  14.494  1.4022  1.1599 -0.2660
 3411SOL     OW21691   3.423   2.044   3.288  0.3573 -0.4338 -0.3412
 3411SOL    HW121692   3.351   2.107   3.281  2.3376  1.8660  0.2868
 3411SOL    HW221693   3.460   2.074   3.371 -2.1949 -1.0857  1.0407
 3412SOL     OW21694   0.015   0.506   3.193  0.1789 -0.2910 -0.2018
 3412SOL    HW121695   0.091   0.564   3.194 -1.5169  1.9295 -0.8845
 3412SOL    HW221696   4.671   0.570   3.170  0.2785  0.3140  1.2389
 3413SOL     OW21697   0.057   0.250  10.481 -0.2147 -0.5125  0.6815
 3413SOL    HW121698   0.102   0.172  10.447 -1.7508 -1.4233  0.7490
 3413SOL    HW221699   4.700   0.215  10.520 -0.3396 -0.7889  0.1716
 3414SOL     OW21700   2.258   4.028   3.673  0.2568 -0.1471 -0.3927
 3414SOL    HW121701   2.239   3.994   3.760 -0.2073  1.1139  0.0026
 3414SOL    HW221702   2.338   3.982   3.650  0.0398 -0.9007  0.4008
 3415SOL     OW21703   1.537   2.756  15.243 -0.5367  0.1682  0.1297
 3415SOL    HW121704   1.464   2.694  15.232 -0.1339  0.1671 -2.5228
 3415SOL    HW221705   1.586   2.720  15.169 -1.1688  0.7822 -0.5786
 3416SOL     OW21706   1.465   1.161   5.410 -0.3421  0.9059 -0.1474
 3416SOL    HW121707   1.424   1.205   5.335 -0.6978  3.2619  1.4248
 3416SOL    HW221708   1.395   1.144   5.472  0.3951  1.2373  0.7703
 3417SOL     OW21709   4.606   4.650   0.437 -0.5491  0.2364  0.2710
 3417SOL    HW121710   4.515   4.634   0.412 -1.1667 -0.6186  3.1658
 3417SOL    HW221711   4.585   4.721   0.497 -2.4986 -1.2931  1.3885
 3418SOL     OW21712   3.357   2.246   1.382 -0.0806 -0.1877  0.1817
 3418SOL    HW121713   3.410   2.233   1.304 -1.3924  0.3063 -0.7867
 3418SOL    HW221714   3.303   2.315   1.344 -0.6795 -0.2726  0.8721
 3419SOL     OW21715   0.384   2.047   6.753 -0.7459  0.2683  0.5105
 3419SOL    HW121716   0.306   2.101   6.753 -0.4435  0.7037 -1.3023
 3419SOL    HW221717   0.451   2.104   6.715 -0.2705 -0.2416  0.5735
 3420SOL     OW21718   4.043   0.391   4.099 -0.2597 -0.5725  0.0514
 3420SOL    HW121719   4.009   0.460   4.157 -0.9810 -1.5999  0.8537
 3420SOL    HW221720   4.090   0.444   4.034  1.3295 -2.0976 -0.0360
 3421SOL     OW21721   4.123   4.687  11.031  0.3505 -0.5071 -0.2559
 3421SOL    HW121722   4.180   4.693  10.955  0.2053  0.6365 -0.2700
 3421SOL    HW221723   4.036   4.702  10.996  0.0558 -0.6178  0.4172
 3422SOL     OW21724   1.138   0.398   1.649 -0.2992  0.2089  0.0930
 3422SOL    HW121725   1.054   0.392   1.604  0.3925 -3.7861 -0.6941
 3422SOL    HW221726   1.140   0.304   1.669  1.9951  0.3772  0.7346
 3423SOL     OW21727   3.986   3.631   1.085  0.0841  0.0770 -0.2405
 3423SOL    HW121728   4.079   3.616   1.101 -0.3146 -1.3901  0.6945
 3423SOL    HW221729   3.984   3.585   1.001 -2.4108  1.1087 -0.7462
 3424SOL     OW21730   2.764   3.563  10.143  0.4700 -0.0662  1.0189
 3424SOL    HW121731   2.710   3.492  10.177  0.4109 -0.9077 -0.8080
 3424SOL    HW221732   2.707   3.624  10.097  1.0661  2.3558  3.5093
 3425SOL     OW21733   2.419   4.566   5.930 -0.1508 -0.3922  1.4315
 3425SOL    HW121734   2.334   4.602   5.953 -0.3316  0.1966 -0.1701
 3425SOL    HW221735   2.404   4.475   5.955  1.7342 -1.1771 -0.2570
 3426SOL     OW21736   0.035   1.622  14.055  0.5565  0.2590  0.0557
 3426SOL    HW121737   4.710   1.539  14.060  0.8761 -0.1520 -3.1693
 3426SOL    HW221738   0.005   1.671  14.131 -0.2475 -1.8760  1.1264
 3427SOL     OW21739   0.476   0.990   4.076  0.2384 -0.2856  0.2102
 3427SOL    HW121740   0.432   0.966   4.158  0.5098  0.0664  0.4530
 3427SOL    HW221741   0.412   0.975   4.007  1.4505 -0.1772 -0.9285
 3428SOL     OW21742   4.163   4.690   4.813  0.4574  0.1702 -0.3583
 3428SOL    HW121743   4.184   4.658   4.726 -2.1928  0.5812 -1.1468
 3428SOL    HW221744   4.082   4.641   4.825  0.4446  0.1706 -0.4473
 3429SOL     OW21745   0.422   0.870   2.676 -0.1576  0.0828  0.1702
 3429SOL    HW121746   0.421   0.792   2.620  0.9308 -0.9310  1.5786
 3429SOL    HW221747   0.389   0.938   2.617  0.5953 -0.1130 -0.4900
 3430SOL     OW21748   4.536   3.094   6.310  0.8009 -0.4662  0.5458
 3430SOL    HW121749   4.579   3.082   6.226 -1.6107 -3.8952 -0.2132
 3430SOL    HW221750   4.519   3.188   6.306  2.3131 -0.1743  0.7380
 3431SOL     OW21751   2.598   2.947   8.546  0.1954 -0.0224  0.1162
 3431SOL    HW121752   2.591   2.861   8.586 -1.9661  0.7997  1.4866
 3431SOL    HW221753   2.693   2.954   8.533  0.3129  0.0925  1.0023
 3432SOL     OW21754   3.022   3.437   5.528 -0.7448  0.1215 -0.5340
 3432SOL    HW121755   2.979   3.520   5.505 -1.3234  0.4127  1.6658
 3432SOL    HW221756   3.079   3.437   5.451 -0.2417 -0.0559 -0.1608
 3433SOL     OW21757   2.058   0.519   8.996  0.3845 -0.7027  0.4589
 3433SOL    HW121758   2.137   0.534   9.048  0.9892 -2.4976  0.0477
 3433SOL    HW221759   1.997   0.578   9.040  0.2319  0.8453 -1.7720
 3434SOL     OW21760   3.629   0.163   9.134 -0.9305 -0.2834  0.5423
 3434SOL    HW121761   3.566   0.172   9.063  0.8252  2.9156 -0.6088
 3434SOL    HW221762   3.578   0.098   9.184  1.1306 -0.0665  2.9038
 3435SOL     OW21763   1.268   1.874   7.832 -0.1633  0.1952  0.1139
 3435SOL    HW121764   1.333   1.919   7.778  0.0663 -0.1752  0.0865
 3435SOL    HW221765   1.187   1.924   7.823  0.4420  0.9274 -1.2996
 3436SOL     OW21766   0.957   0.313   2.330 -0.0291 -0.2243  0.0773
 3436SOL    HW121767   0.937   0.261   2.408 -1.4756 -1.5290 -1.1480
 3436SOL    HW221768   0.882   0.292   2.273 -0.2039  0.5837  0.0114
 3437SOL     OW21769   2.326   2.948   2.846  0.0394 -0.0408  0.4309
 3437SOL    HW121770   2.285   2.925   2.762 -0.2544 -4.1324  1.7031
 3437SOL    HW221771   2.243   2.981   2.882 -0.7091 -1.9394  0.4839
 3438SOL     OW21772   0.360   3.753   7.915 -0.1620  0.2285 -0.1059
 3438SOL    HW121773   0.366   3.838   7.959  2.7073  1.1361 -2.2307
 3438SOL    HW221774   0.268   3.735   7.933  0.1379 -0.2431  0.9406
 3439SOL     OW21775   3.794   4.712   8.962 -0.0896  0.2649  0.2284
 3439SOL    HW121776   3.804   4.679   9.051  0.5753 -0.9620 -0.2989
 3439SOL    HW221777   3.831   4.637   8.916  3.3151  3.0335 -1.6444
 3440SOL     OW21778   2.882   4.190   6.785 -0.1052 -0.0311  0.0247
 3440SOL    HW121779   2.842   4.239   6.713  0.8993 -2.2120 -2.0146
 3440SOL    HW221780   2.971   4.222   6.800  0.2656  0.8720 -3.9602
 3441SOL     OW21781   3.262   0.083  14.750 -0.4408 -0.5864 -0.4977
 3441SOL    HW121782   3.301   0.042  14.672  1.4247 -1.7004  1.0363
 3441SOL    HW221783   3.316   0.161  14.761  0.6307 -1.5755  1.1126
 3442SOL     OW21784   4.347   3.139   9.142 -0.1168 -0.0748 -0.2116
 3442SOL    HW121785   4.322   3.155   9.233  0.0742  0.3915 -0.2431
 3442SOL    HW221786   4.296   3.059   9.131  0.5314 -0.5824  0.5172
 3443SOL     OW21787   0.867   3.339  16.325 -0.4005  0.3576  0.1490
 3443SOL    HW121788   0.938   3.392  16.362 -0.3248 -0.4894  1.2076
 3443SOL    HW221789   0.797   3.374  16.381 -2.1633 -0.4137 -1.5715
 3444SOL     OW21790   1.368   1.802  17.447  0.0755 -0.1188 -0.2864
 3444SOL    HW121791   1.405   1.719  17.417  1.1045  0.5133 -0.7519
 3444SOL    HW221792   1.446   1.857  17.457 -0.0446  0.2359 -1.3362
 3445SOL     OW21793   1.128   0.059   8.590 -0.0823 -0.3039 -0.2188
 3445SOL    HW121794   1.156   0.014   8.670  3.1266  1.1733 -0.5110
 3445SOL    HW221795   1.096   4.709   8.537 -0.4655 -0.5390  0.3362
 3446SOL     OW21796   2.599   2.838   7.431 -0.1006  0.1356 -0.6583
 3446SOL    HW121797   2.644   2.849   7.515  0.7017 -1.0419 -0.9331
 3446SOL    HW221798   2.523   2.789   7.464 -0.2034  0.6686 -0.0999
 3447SOL     OW21799   3.980   2.259  12.326  0.5776 -1.1186 -0.7258
 3447SOL    HW121800   3.958   2.241  12.417 -0.5040  0.2972 -0.7136
 3447SOL    HW221801   4.058   2.205  12.315  3.4378  2.8086  0.2900
 3448SOL     OW21802   0.128   2.237   7.510 -0.4518 -0.7746  0.3180
 3448SOL    HW121803   0.139   2.310   7.571  1.1504  2.1011 -3.4013
 3448SOL    HW221804   0.182   2.167   7.547  1.0811  0.7575  0.9687
 3449SOL     OW21805   2.220   4.011   2.514 -0.0539 -0.9799 -0.4358
 3449SOL    HW121806   2.254   3.925   2.538  1.8222  0.1798  1.0180
 3449SOL    HW221807   2.132   4.002   2.478  0.6403  0.6744 -2.5256
 3450SOL     OW21808   3.276   1.369   9.774  0.4142 -0.7269  0.4391
 3450SOL    HW121809   3.342   1.392   9.840 -0.3404 -2.0945  1.6702
 3450SOL    HW221810   3.227   1.299   9.816 -1.5269  0.8113  0.7646
 3451SOL     OW21811   1.476   0.812   8.199 -0.3038 -0.2297 -0.2172
 3451SOL    HW121812   1.479   0.780   8.290 -1.0059 -0.5194 -0.2941
 3451SOL    HW221813   1.502   0.902   8.218  0.1828 -0.5212  0.5000
 3452SOL     OW21814   2.317   1.043   3.731  0.4382 -0.0168 -0.1577
 3452SOL    HW121815   2.257   0.982   3.688 -1.3925 -0.2353  2.7162
 3452SOL    HW221816   2.307   1.017   3.823 -0.8276  0.3398 -0.1880
 3453SOL     OW21817   3.477   2.977   5.011  0.1986  0.5475  0.5362
 3453SOL    HW121818   3.533   2.908   4.976 -1.2811  0.4043 -1.5946
 3453SOL    HW221819   3.391   2.946   4.981 -0.6987  1.9539  1.6602
 3454SOL     OW21820   3.954   3.591   7.786  0.0436  0.0879 -0.2205
 3454SOL    HW121821   4.012   3.529   7.829  2.3049  1.5949 -1.1035
 3454SOL    HW221822   3.980   3.664   7.842  0.3479  0.8013 -1.3078
 3455SOL     OW21823   3.132   0.953   6.648 -0.4533  0.4384 -0.0634
 3455SOL    HW121824   3.065   0.976   6.713  0.7717  0.5536  1.1722
 3455SOL    HW221825   3.089   0.887   6.593  0.1205 -1.1151  1.3313
 3456SOL     OW21826   2.567   3.689   0.766  0.0070  0.1099 -0.2043
 3456SOL    HW121827   2.632   3.675   0.697 -1.6630 -2.0402 -1.3411
 3456SOL    HW221828   2.513   3.751   0.717  0.5119 -1.4847 -2.7680
 3457SOL     OW21829   2.806   4.358   1.238  0.2736  0.1301  0.9549
 3457SOL    HW121830   2.874   4.334   1.302  0.9657  0.3291  0.2947
 3457SOL    HW221831   2.862   4.381   1.164 -1.4722 -1.3196 -0.8195
 3458SOL     OW21832   1.772   0.580   2.793 -0.0692 -0.0993 -0.3284
 3458SOL    HW121833   1.777   0.669   2.760  2.6842 -0.9552 -2.1800
 3458SOL    HW221834   1.860   0.559   2.825 -0.3820 -0.9171  0.0121
 3459SOL     OW21835   4.131   0.568   0.167  0.1491  0.0724  0.0438
 3459SOL    HW121836   4.092   0.558   0.081  0.6214 -0.6233 -0.0905
 3459SOL    HW221837   4.090   0.650   0.194 -0.0325 -0.2355  0.7064
 3460SOL     OW21838   1.336   0.048   6.847 -0.0190 -0.4069 -0.1847
 3460SOL    HW121839   1.344   0.021   6.939  1.2619 -1.8391 -0.7139
 3460SOL    HW221840   1.352   0.142   6.853 -0.5344 -0.3846  0.8237
 3461SOL     OW21841   1.206   2.337   4.884  0.1397 -0.3726 -0.4041
 3461SOL    HW121842   1.296   2.318   4.860  0.3403  1.2469 -0.8974
 3461SOL    HW221843   1.207   2.424   4.923  3.4293 -0.2013 -0.9010
 3462SOL     OW21844   3.135   3.296   1.913  0.3498  0.0911  0.4037
 3462SOL    HW121845   3.214   3.349   1.925  0.6530 -0.4724  0.9054
 3462SOL    HW221846   3.169   3.235   1.847  0.4071  0.8829 -0.3064
 3463SOL     OW21847   0.537   1.959  13.128 -0.1864  0.2240 -0.0087
 3463SOL    HW121848   0.508   1.867  13.125 -0.8413  0.5145 -2.8249
 3463SOL    HW221849   0.552   1.968  13.222 -0.7723 -0.8851  0.1979
 3464SOL     OW21850   2.551   0.738   7.854 -0.0427  0.1411  0.5049
 3464SOL    HW121851   2.610   0.690   7.795 -1.7038  2.2398 -2.9167
 3464SOL    HW221852   2.470   0.698   7.821 -0.2402  1.1872 -0.2731
 3465SOL     OW21853   3.929   2.332   4.639 -0.4333  0.1639 -0.5585
 3465SOL    HW121854   4.018   2.327   4.605  0.0131  2.9151  0.1832
 3465SOL    HW221855   3.940   2.382   4.720  1.0687 -0.4687 -0.3780
 3466SOL     OW21856   4.691   4.355  14.808 -0.1146  0.0915  0.1228
 3466SOL    HW121857   4.712   4.407  14.731  0.7729  1.3872  1.2368
 3466SOL    HW221858   4.603   4.385  14.833  0.0052  0.3154  0.2761
 3467SOL     OW21859   3.899   1.731   5.945  0.3403 -0.3055  0.5313
 3467SOL    HW121860   3.805   1.711   5.946  0.3003 -0.2115 -1.1020
 3467SOL    HW221861   3.896   1.823   5.972 -0.4993  0.1288 -1.0390
 3468SOL     OW21862   0.672   0.285  15.226  0.5015 -0.3197 -0.3135
 3468SOL    HW121863   0.621   0.365  15.236  0.1381 -0.3976 -1.5880
 3468SOL    HW221864   0.668   0.272  15.131  0.5870  1.1881 -0.5133
 3469SOL     OW21865   1.252   0.529   5.258  0.2205  0.2649  0.0171
 3469SOL    HW121866   1.158   0.529   5.275  0.1991 -0.4017 -0.1066
 3469SOL    HW221867   1.273   0.445   5.298  2.5914  0.5731 -0.5581
 3470SOL     OW21868   1.258   0.588   4.942 -0.5924 -0.1886 -0.5161
 3470SOL    HW121869   1.287   0.505   4.904 -1.4577  0.0720 -1.7541
 3470SOL    HW221870   1.246   0.556   5.031  3.9852 -0.3982  0.0488
 3471SOL     OW21871   1.940   2.603   7.508  0.1749  0.1195 -0.0675
 3471SOL    HW121872   1.984   2.537   7.561 -1.5826 -0.5171  0.6130
 3471SOL    HW221873   2.001   2.618   7.436  1.2961  1.5580  1.1615
 3472SOL     OW21874   3.752   4.140   1.326  0.5835 -0.6039  0.4146
 3472SOL    HW121875   3.716   4.053   1.340 -0.9655 -0.0700 -0.3212
 3472SOL    HW221876   3.683   4.202   1.350 -0.2631 -1.1517 -0.5876
 3473SOL     OW21877   0.435   1.158   5.152  0.0248 -0.4136  0.2593
 3473SOL    HW121878   0.529   1.152   5.134 -0.1809  0.4751 -1.0896
 3473SOL    HW221879   0.431   1.141   5.246 -0.2480  0.2815  0.3767
 3474SOL     OW21880   0.279   2.095   8.437  0.4424 -0.4239 -0.2327
 3474SOL    HW121881   0.247   2.114   8.525  3.1338  0.1467  0.6490
 3474SOL    HW221882   0.287   2.185   8.405  0.1653 -0.0864  0.6463
 3475SOL     OW21883   3.129   1.798   4.211  0.3338  0.0229 -0.4354
 3475SOL    HW121884   3.082   1.844   4.281  1.6320  2.1672 -0.9655
 3475SOL    HW221885   3.207   1.851   4.228 -0.6776  1.1701  0.5983
 3476SOL     OW21886   1.363   3.415   2.122 -0.1030 -0.5228 -0.2080
 3476SOL    HW121887   1.400   3.500   2.099 -1.0359  0.3530  1.5430
 3476SOL    HW221888   1.428   3.357   2.082 -0.5139 -1.6721  0.7811
 3477SOL     OW21889   2.545   1.579   3.471  0.6642 -0.9816  0.8310
 3477SOL    HW121890   2.630   1.574   3.514  1.0142  1.9802  0.4909
 3477SOL    HW221891   2.516   1.488   3.476 -1.1947 -0.4883 -0.6746
 3478SOL     OW21892   2.019   3.596   6.706  0.3355  0.2545 -0.3763
 3478SOL    HW121893   1.975   3.621   6.787  1.8963  2.9259 -0.3445
 3478SOL    HW221894   1.961   3.650   6.652 -1.3796  0.1844  1.3754
 3479SOL     OW21895   1.377   4.258   2.705  0.1613  0.6544  0.2033
 3479SOL    HW121896   1.324   4.329   2.740  0.2538  1.7842 -1.9637
 3479SOL    HW221897   1.322   4.223   2.635  1.3571 -0.9570  0.0632
 3480SOL     OW21898   2.543   1.521   2.723 -0.4321  0.3344  0.6150
 3480SOL    HW121899   2.588   1.540   2.805 -0.0742 -0.6665  0.6434
 3480SOL    HW221900   2.620   1.517   2.667  0.2913  1.1749  1.5565
 3481SOL     OW21901   3.968   3.338  11.507  0.7053 -0.0649  0.3268
 3481SOL    HW121902   4.062   3.348  11.488  1.1513  1.3780  3.2443
 3481SOL    HW221903   3.947   3.430  11.520  0.6992 -0.0569  0.2606
 3482SOL     OW21904   2.025   4.011   2.313  0.1463  0.1686 -0.2460
 3482SOL    HW121905   2.012   3.934   2.257 -0.0559 -0.3457  0.5116
 3482SOL    HW221906   2.017   4.085   2.253 -2.3539 -0.2075 -0.3786
 3483SOL     OW21907   2.728   2.711   1.488 -0.3135 -0.1014 -0.3115
 3483SOL    HW121908   2.820   2.718   1.515 -0.6053  0.2145  0.5716
 3483SOL    HW221909   2.684   2.790   1.520  0.3044 -0.1645  0.6727
 3484SOL     OW21910   2.978   0.991   6.932 -0.5129 -0.0057 -0.3841
 3484SOL    HW121911   2.948   1.072   6.972  2.0064 -0.3049  2.1171
 3484SOL    HW221912   3.072   0.977   6.940 -0.8163 -0.7852  2.0150
 3485SOL     OW21913   3.021   1.920   3.977  0.6294  0.3488 -0.7635
 3485SOL    HW121914   2.981   1.957   4.056 -0.0851 -0.5222 -0.7298
 3485SOL    HW221915   3.088   1.865   4.018 -1.6410 -1.7211  0.1193
 3486SOL     OW21916   1.656   1.336   4.794 -0.7624 -0.5187 -0.7699
 3486SOL    HW121917   1.720   1.321   4.864 -1.1613  0.0451 -0.2735
 3486SOL    HW221918   1.596   1.263   4.811 -1.2813  0.3842  1.3377
 3487SOL     OW21919   4.207   0.329   3.143  0.2238  0.7413 -0.3793
 3487SOL    HW121920   4.127   0.378   3.122  1.6929  3.6271  0.9460
 3487SOL    HW221921   4.263   0.399   3.174 -0.2979  0.3211  1.4688
 3488SOL     OW21922   2.232   1.678   9.132 -0.3306 -0.3364 -0.1814
 3488SOL    HW121923   2.182   1.631   9.065 -0.6534  1.7659 -1.4103
 3488SOL    HW221924   2.303   1.715   9.079 -0.6031 -0.8936 -0.9291
 3489SOL     OW21925   3.967   0.216   5.354  0.1719  0.7197  0.0477
 3489SOL    HW121926   3.977   0.123   5.331 -2.8224  0.6943 -1.0709
 3489SOL    HW221927   4.047   0.224   5.407 -0.0967 -1.9719  0.9018
 3490SOL     OW21928   1.456   0.860  12.900  0.1659 -0.5436 -0.1561
 3490SOL    HW121929   1.500   0.942  12.877  0.5219 -0.6833  0.0403
 3490SOL    HW221930   1.522   0.791  12.894  2.4803  1.8191 -1.7839
 3491SOL     OW21931   4.590   0.180  17.218 -0.3394  0.6494  0.4891
 3491SOL    HW121932   4.534   0.229  17.278 -1.6199 -0.3170  0.1088
 3491SOL    HW221933   4.585   0.227  17.135  0.5419 -4.4171 -2.4243
 3492SOL     OW21934   4.373   0.707  17.395 -0.2731 -0.2996  0.5347
 3492SOL    HW121935   4.314   0.731  17.466  0.9624 -2.4703  2.2937
 3492SOL    HW221936   4.410   0.787  17.356 -0.2582 -0.7086 -0.2877
 3493SOL     OW21937   1.990   1.125   7.164  0.5600  0.7645  0.1236
 3493SOL    HW121938   2.067   1.139   7.218  0.6046 -0.6827  0.4361
 3493SOL    HW221939   1.967   1.214   7.139 -0.1083  0.5774  0.0554
 3494SOL     OW21940   2.547   3.702   8.026 -0.4935 -0.2974  0.3316
 3494SOL    HW121941   2.534   3.792   7.995 -0.1018 -0.0922  0.7509
 3494SOL    HW221942   2.592   3.727   8.107  1.8755  1.5740 -1.5555
 3495SOL     OW21943   0.943   3.382   8.394 -0.9365  0.2345  0.4374
 3495SOL    HW121944   0.951   3.346   8.482 -1.3239  0.3138  0.5068
 3495SOL    HW221945   0.959   3.474   8.415  1.1207 -0.3844  1.6136
 3496SOL     OW21946   4.574   0.157   1.122  0.3265 -0.0801 -0.2607
 3496SOL    HW121947   4.641   0.089   1.134  2.7622  2.2825 -0.5587
 3496SOL    HW221948   4.632   0.230   1.104  1.5312 -0.7302  0.9308
 3497SOL     OW21949   2.460   2.306   0.354 -0.1811  0.0283  0.5650
 3497SOL    HW121950   2.520   2.379   0.340 -0.6754  0.0725 -1.4454
 3497SOL    HW221951   2.513   2.238   0.313 -1.3615 -0.1072 -0.7707
 3498SOL     OW21952   3.648   2.341   6.476 -0.0323  0.0462  0.0391
 3498SOL    HW121953   3.605   2.419   6.511  1.9764  1.0859  0.1838
 3498SOL    HW221954   3.666   2.357   6.384  1.6801 -2.2148 -0.0166
 3499SOL     OW21955   3.318   2.899  12.876  0.7249  0.3057  0.1012
 3499SOL    HW121956   3.354   2.988  12.877  2.7870 -0.5646  2.5320
 3499SOL    HW221957   3.263   2.900  12.797  1.5128  0.7241 -0.4454
 3500SOL     OW21958   2.570   0.029  11.601 -0.7825  0.2054  0.3195
 3500SOL    HW121959   2.578   0.086  11.524  1.4355  1.3380  1.4150
 3500SOL    HW221960   2.537   0.085  11.672  1.9028 -0.2951  1.9300
 3501SOL     OW21961   0.490   2.993  15.493  0.5869 -0.1796  0.1609
 3501SOL    HW121962   0.491   2.962  15.584  2.3272 -0.1500  0.1445
 3501SOL    HW221963   0.500   2.906  15.454 -2.3406 -0.6602  0.4557
 3502SOL     OW21964   3.882   2.429   5.222  0.1417  0.0872 -0.0798
 3502SOL    HW121965   3.891   2.337   5.197 -0.6858 -0.2948  1.0191
 3502SOL    HW221966   3.970   2.468   5.226 -0.1824  0.9096 -0.9397
 3503SOL     OW21967   2.532   0.910  14.999 -0.2254  0.4819  0.1871
 3503SOL    HW121968   2.605   0.951  15.045 -0.6713  2.0267 -0.4960
 3503SOL    HW221969   2.570   0.863  14.925  1.1437 -0.8282  1.7113
 3504SOL     OW21970   4.221   2.233  16.347 -0.4394 -0.0299  0.1058
 3504SOL    HW121971   4.292   2.237  16.283 -1.0824 -0.7538 -0.6586
 3504SOL    HW221972   4.200   2.326  16.343 -1.3068 -0.2488 -0.5671
 3505SOL     OW21973   2.900   0.767   0.411 -0.0524  0.2433  0.3148
 3505SOL    HW121974   2.910   0.701   0.479 -3.5248 -0.7612 -0.1514
 3505SOL    HW221975   2.845   0.828   0.460  0.9802  0.9459  0.6212
 3506SOL     OW21976   1.929   0.336   6.400 -0.5891 -0.3054  0.2047
 3506SOL    HW121977   1.879   0.380   6.331 -1.2866 -0.6152  0.5037
 3506SOL    HW221978   2.008   0.388   6.388 -0.7064 -0.0405  0.6016
 3507SOL     OW21979   4.553   2.356   0.284  0.1355 -0.4242  0.0296
 3507SOL    HW121980   4.581   2.302   0.209  0.1575 -0.4728  0.0730
 3507SOL    HW221981   4.637   2.388   0.317  1.6432 -2.4740 -1.7358
 3508SOL     OW21982   3.048   4.032   3.099  0.0396  0.0270  0.5171
 3508SOL    HW121983   3.041   4.047   3.194 -2.9704 -4.3835  1.0158
 3508SOL    HW221984   2.968   4.078   3.071  0.5890  0.3232 -0.5642
 3509SOL     OW21985   2.282   0.832  15.093 -0.5101  0.9946 -0.1375
 3509SOL    HW121986   2.372   0.855  15.072  0.3904 -2.3498  0.1085
 3509SOL    HW221987   2.244   0.834  15.005 -1.3711  1.3497  0.2444
 3510SOL     OW21988   2.790   3.978   3.449 -0.6913  0.2334  0.0770
 3510SOL    HW121989   2.778   3.884   3.439 -1.7838  0.5230 -1.3043
 3510SOL    HW221990   2.746   3.998   3.532 -1.0966 -1.0079  0.1486
 3511SOL     OW21991   2.416   2.374   3.207  0.3893 -0.0784  0.7644
 3511SOL    HW121992   2.407   2.404   3.116  1.8558 -2.2049 -0.0737
 3511SOL    HW221993   2.402   2.280   3.201 -1.6907  0.1446  1.8866
 3512SOL     OW21994   4.529   4.663  11.265  0.0405  0.3909  0.9032
 3512SOL    HW121995   4.597   4.612  11.310  0.6390  0.5461  0.1702
 3512SOL    HW221996   4.587   0.010  11.233  0.6393 -0.5032  0.0331
 3513SOL     OW21997   3.121   0.169   8.944 -0.4185  0.4022  0.5179
 3513SOL    HW121998   3.101   0.080   8.916  0.7261  0.1386  0.5220
 3513SOL    HW221999   3.208   0.151   8.980 -0.3070  2.4149  1.2790
 3514SOL     OW22000   1.303   4.629   0.683 -0.2722  0.5253 -0.2788
 3514SOL    HW122001   1.321   4.671   0.767 -0.3927  2.1513 -1.0513
 3514SOL    HW222002   1.380   4.572   0.682 -0.4943  0.2298 -1.4817
 3515SOL     OW22003   3.770   0.349   3.547  0.3665 -0.0606  0.0849
 3515SOL    HW122004   3.752   0.440   3.570 -1.7227 -0.1287 -1.3182
 3515SOL    HW222005   3.858   0.335   3.583  0.5660  0.4242 -0.2054
 3516SOL     OW22006   3.651   3.621  12.958 -0.6116  0.4695  0.4210
 3516SOL    HW122007   3.643   3.669  13.041 -0.4295 -0.8626  1.2085
 3516SOL    HW222008   3.562   3.635  12.926  0.1082  2.8895 -0.5242
 3517SOL     OW22009   3.652   1.029   2.339 -0.2807  0.6892  0.9131
 3517SOL    HW122010   3.721   0.965   2.358 -0.0519  1.1534  1.6347
 3517SOL    HW222011   3.632   1.077   2.419 -0.9874 -1.8560  2.2653
 3518SOL     OW22012   1.441   0.975   2.636  0.0114 -0.0096 -0.0962
 3518SOL    HW122013   1.403   0.888   2.650  1.7015 -0.6728  0.3290
 3518SOL    HW222014   1.487   0.978   2.720  1.4499  2.8618 -1.0131
 3519SOL     OW22015   3.972   0.802   3.029  0.0771  0.2530  0.0103
 3519SOL    HW122016   3.945   0.762   3.111  0.0689 -0.9780 -0.5931
 3519SOL    HW222017   3.908   0.872   3.019  1.2766  1.3148 -0.1877
 3520SOL     OW22018   0.308   1.979   7.535  0.2376  0.5809 -0.8725
 3520SOL    HW122019   0.375   1.928   7.490  1.1670  0.1606  1.0233
 3520SOL    HW222020   0.366   2.056   7.539  2.4013 -1.0422 -1.2306
 3521SOL     OW22021   0.065   1.885   8.533 -0.0203 -0.3611  0.7457
 3521SOL    HW122022   0.054   1.939   8.611 -1.0827 -1.7787  1.5756
 3521SOL    HW222023   0.140   1.828   8.548  1.1736 -0.0892 -4.2398
 3522SOL     OW22024   2.079   3.831   2.049  0.7505 -0.1563  0.4052
 3522SOL    HW122025   2.075   3.886   1.971 -0.2136 -1.1676 -0.2618
 3522SOL    HW222026   2.173   3.818   2.062  0.4282 -0.5802  2.3391
 3523SOL     OW22027   3.122   2.130   4.709 -0.9191  0.7014 -0.0600
 3523SOL    HW122028   3.150   2.169   4.793  1.1868 -0.0969 -0.3774
 3523SOL    HW222029   3.166   2.189   4.648  1.4508 -0.7469  0.2521
 3524SOL     OW22030   1.438   1.074   2.000 -0.2202 -0.8940 -0.0440
 3524SOL    HW122031   1.463   1.076   2.092 -0.8689  2.2752  0.0793
 3524SOL    HW222032   1.348   1.041   2.002 -0.8156  0.6902 -0.1283
 3525SOL     OW22033   2.183   4.672  11.234  0.6345 -0.1665 -0.5359
 3525SOL    HW122034   2.200   4.581  11.259 -1.7999 -0.1960  0.9408
 3525SOL    HW222035   2.262   4.681  11.180  1.7301  1.8375  1.3869
 3526SOL     OW22036   1.772   0.308   2.673  0.3876 -0.4906 -0.1759
 3526SOL    HW122037   1.866   0.319   2.659  0.1420  0.6488 -0.9271
 3526SOL    HW222038   1.747   0.377   2.735 -1.0589 -2.0589  0.9994
 3527SOL     OW22039   0.127   4.269   2.993 -0.3453  0.4237 -0.1235
 3527SOL    HW122040   0.176   4.216   3.056  0.4803 -0.5981 -1.6379
 3527SOL    HW222041   0.185   4.255   2.919 -0.8125 -0.9936 -0.2190
 3528SOL     OW22042   1.283   1.216   0.106  0.1336  0.3647 -0.2249
 3528SOL    HW122043   1.188   1.222   0.097  0.0152 -0.8926  0.2403
 3528SOL    HW222044   1.309   1.150   0.170 -1.2775  0.9007  0.9062
 3529SOL     OW22045   4.624   1.728   3.188  0.2914 -0.3947 -0.5104
 3529SOL    HW122046   4.562   1.681   3.133 -0.6006  1.0444 -0.7380
 3529SOL    HW222047   4.708   1.706   3.146  0.3593 -0.6739 -0.2273
 3530SOL     OW22048   3.085   1.088  12.532 -0.1725  0.0721  0.3405
 3530SOL    HW122049   3.056   1.179  12.530 -0.2805  0.0465  0.6824
 3530SOL    HW222050   3.039   1.055  12.455  0.1161 -0.8341  0.5480
 3531SOL     OW22051   1.285   4.339   0.522 -0.6671  0.3767 -0.0064
 3531SOL    HW122052   1.367   4.378   0.491  1.2972 -2.5906  1.5000
 3531SOL    HW222053   1.218   4.399   0.488 -1.1038 -0.1916 -0.1402
 3532SOL     OW22054   0.546   0.360   8.826  0.3505 -0.2311 -0.5180
 3532SOL    HW122055   0.511   0.345   8.914  1.1673 -0.6596 -0.2601
 3532SOL    HW222056   0.509   0.445   8.803  0.0229 -0.7123 -1.7906
 3533SOL     OW22057   2.125   3.566   9.230  0.5519 -0.1489  0.1941
 3533SOL    HW122058   2.162   3.646   9.192  1.1998 -0.8735 -0.7277
 3533SOL    HW222059   2.087   3.520   9.155 -0.9245  1.7047 -0.1946
 3534SOL     OW22060   4.680   4.272   2.699  0.0097  0.5546 -0.2633
 3534SOL    HW122061   4.705   4.327   2.773  0.8097  0.3280 -0.3681
 3534SOL    HW222062   4.645   4.339   2.642  1.4945  2.5161  1.1434
 3535SOL     OW22063   0.854   4.594   2.607  0.1925  1.0931 -0.0256
 3535SOL    HW122064   0.925   4.553   2.558  0.3276  1.1510  0.1205
 3535SOL    HW222065   0.839   4.537   2.683 -3.0292 -0.6215 -1.9358
 3536SOL     OW22066   1.573   4.587   0.790  0.0282 -0.3933 -0.1748
 3536SOL    HW122067   1.595   4.611   0.879  1.2698 -1.1648 -0.2715
 3536SOL    HW222068   1.600   4.495   0.783  1.3072  0.0087 -0.4636
 3537SOL     OW22069   3.358   0.409   2.952 -0.2800 -0.4624 -0.5986
 3537SOL    HW122070   3.393   0.343   2.892 -0.4011 -0.4739 -0.6557
 3537SOL    HW222071   3.334   0.476   2.889 -1.8924  0.6630  1.2186
 3538SOL     OW22072   0.333   2.953   2.648  0.2230  0.4519  0.9129
 3538SOL    HW122073   0.406   2.900   2.620 -0.9515 -0.7175  0.0722
 3538SOL    HW222074   0.372   3.012   2.713 -0.7152  0.9513  1.0337
 3539SOL     OW22075   1.945   0.602  11.926 -0.4226  0.1388  0.2932
 3539SOL    HW122076   2.023   0.572  11.879 -0.5223 -0.5673  0.5794
 3539SOL    HW222077   1.897   0.653  11.861  1.1783  0.6943 -0.4385
 3540SOL     OW22078   3.407   3.830   5.453 -0.6986 -0.3602  0.0718
 3540SOL    HW122079   3.463   3.907   5.441  0.8554 -1.2518  1.5131
 3540SOL    HW222080   3.370   3.852   5.538 -2.2258  0.6735 -0.8611
 3541SOL     OW22081   4.205   3.136  16.133  0.4326  0.5163  0.4063
 3541SOL    HW122082   4.168   3.213  16.177  0.8403  1.6041 -1.1811
 3541SOL    HW222083   4.125   3.083  16.142 -0.0397  1.6807  3.2349
 3542SOL     OW22084   4.535   0.033   3.282  0.2059  0.3946 -0.4817
 3542SOL    HW122085   4.461   4.716   3.326 -0.5161 -0.9969 -2.9875
 3542SOL    HW222086   4.560   0.089   3.356  1.5374 -0.7599 -0.0468
 3543SOL     OW22087   3.782   0.613   5.388 -0.0608 -0.2908  0.6061
 3543SOL    HW122088   3.797   0.602   5.482 -1.3200 -0.3812  0.7918
 3543SOL    HW222089   3.688   0.598   5.384  0.0447 -1.0460  0.9474
 3544SOL     OW22090   4.704   2.583   8.045 -0.2298  0.0670  0.1096
 3544SOL    HW122091   4.685   2.609   8.135  2.1117  3.3015 -0.3371
 3544SOL    HW222092   4.620   2.541   8.024 -1.0125  2.9260 -2.7069
 3545SOL     OW22093   2.655   3.491   3.744 -0.0827  0.1996 -0.3643
 3545SOL    HW122094   2.588   3.438   3.788  1.0551  1.0884  2.4474
 3545SOL    HW222095   2.614   3.489   3.658  1.2494 -0.3492 -0.9867
 3546SOL     OW22096   2.631   1.717  15.473  0.1242  1.1898  0.1939
 3546SOL    HW122097   2.566   1.679  15.531  0.4389  1.1687  0.5332
 3546SOL    HW222098   2.620   1.667  15.391  0.3189  0.3165  0.6988
 3547SOL     OW22099   1.695   1.341   1.695 -0.5116 -0.4865 -0.2251
 3547SOL    HW122100   1.724   1.365   1.783 -0.7698  4.4372 -1.4375
 3547SOL    HW222101   1.606   1.314   1.717 -1.0544  2.1410  0.8373
 3548SOL     OW22102   1.819   2.568   4.003  0.2631  0.3500 -0.1227
 3548SOL    HW122103   1.728   2.595   4.010  0.6050  1.1765  1.2004
 3548SOL    HW222104   1.819   2.556   3.908 -0.9084 -0.7576  0.0147
 3549SOL     OW22105   4.092   0.525   4.538 -0.2579  0.9061  0.0456
 3549SOL    HW122106   4.186   0.538   4.536 -0.2233  0.9549  1.5850
 3549SOL    HW222107   4.056   0.608   4.507 -0.2946  0.7807 -0.2471
 3550SOL     OW22108   1.565   0.146   1.563  0.2902  0.7619 -0.1071
 3550SOL    HW122109   1.491   0.086   1.552  0.6056  0.0142  2.0189
 3550SOL    HW222110   1.537   0.190   1.643  0.3021  0.4951  0.0437
 3551SOL     OW22111   0.531   2.078  10.503  0.1731 -0.3678  0.0293
 3551SOL    HW122112   0.547   2.049  10.592 -1.4135 -1.1686  0.0486
 3551SOL    HW222113   0.436   2.081  10.508  0.1639 -1.9270  0.5543
 3552SOL     OW22114   1.705   3.421   5.009  0.0543  0.5041 -0.3463
 3552SOL    HW122115   1.736   3.511   5.010  0.5489  0.3258  0.8236
 3552SOL    HW222116   1.702   3.398   4.916  0.7807  0.2532 -0.3149
 3553SOL     OW22117   3.842   0.688   3.259 -0.5024 -0.1565 -0.0027
 3553SOL    HW122118   3.850   0.776   3.296 -2.7291  0.2384 -0.4856
 3553SOL    HW222119   3.815   0.641   3.337  0.2585 -0.2542  0.2020
 3554SOL     OW22120   4.203   2.179   1.309  1.3345 -0.7213  0.0277
 3554SOL    HW122121   4.195   2.085   1.296  2.9323 -0.9622  0.8452
 3554SOL    HW222122   4.271   2.192   1.375  3.4040 -0.2950 -2.2241
 3555SOL     OW22123   4.294   1.217   0.832 -0.2613 -0.6589  0.5473
 3555SOL    HW122124   4.213   1.171   0.807 -0.1837 -0.4968 -0.0097
 3555SOL    HW222125   4.259   1.279   0.896 -0.0446 -0.5644  0.5727
 3556SOL     OW22126   0.432   3.992  13.942  0.1897 -0.1900 -0.1024
 3556SOL    HW122127   0.442   4.087  13.953 -0.5081 -0.4474  2.6018
 3556SOL    HW222128   0.525   3.975  13.927  0.1521  1.4979 -2.2484
 3557SOL     OW22129   2.871   3.474   8.366 -0.3249  0.1266  0.7326
 3557SOL    HW122130   2.914   3.493   8.283 -2.2127 -0.6703 -0.4317
 3557SOL    HW222131   2.800   3.415   8.339  0.6899 -0.5936 -0.3482
 3558SOL     OW22132   4.618   0.397   7.334  0.2704  0.2006  0.3154
 3558SOL    HW122133   4.595   0.405   7.427  2.5295 -0.6034  0.9529
 3558SOL    HW222134   4.531   0.391   7.296 -0.1072  0.7266  1.0867
 3559SOL     OW22135   1.371   3.350   8.318  0.1948  0.0809  0.1079
 3559SOL    HW122136   1.429   3.274   8.321  1.6924  1.1992 -0.0943
 3559SOL    HW222137   1.285   3.308   8.316  0.2994 -0.2001  1.3948
 3560SOL     OW22138   0.834   4.279   8.365 -0.1637  0.3317 -0.1461
 3560SOL    HW122139   0.795   4.366   8.374  0.5070  0.8965 -2.6902
 3560SOL    HW222140   0.877   4.278   8.451  0.0671 -0.4362 -0.2684
 3561SOL     OW22141   3.170   1.750   5.734 -0.1262  0.6371 -0.3469
 3561SOL    HW122142   3.246   1.793   5.694  0.7439 -0.3298  0.2938
 3561SOL    HW222143   3.137   1.694   5.664 -0.5490  1.0934 -0.5149
 3562SOL     OW22144   0.458   1.588  12.310  0.0252  0.2865  0.2388
 3562SOL    HW122145   0.441   1.594  12.404  0.2474  1.2061  0.2172
 3562SOL    HW222146   0.521   1.516  12.310 -0.5500 -0.2181 -1.2497
 3563SOL     OW22147   3.047   3.952   5.939 -0.2247  0.1913 -0.3963
 3563SOL    HW122148   3.033   3.979   6.030  1.0957  1.5536 -0.6010
 3563SOL    HW222149   3.063   3.858   5.953 -1.5934  0.4865  3.3602
 3564SOL     OW22150   1.679   0.493   1.767  0.3543  0.0453  0.0315
 3564SOL    HW122151   1.636   0.572   1.801 -0.6525  0.2077 -1.5589
 3564SOL    HW222152   1.765   0.490   1.809  0.2348  2.4010  0.4472
 3565SOL     OW22153   3.540   1.616  12.107  0.2161  0.3298 -0.2164
 3565SOL    HW122154   3.545   1.668  12.186  0.9834 -1.2535  0.7813
 3565SOL    HW222155   3.558   1.531  12.147 -1.4677  0.2787  0.4257
 3566SOL     OW22156   1.814   0.422   5.796 -0.9001 -0.1255  0.1266
 3566SOL    HW122157   1.734   0.471   5.779  1.0875  2.9353 -0.3202
 3566SOL    HW222158   1.785   0.354   5.735 -3.3707 -0.1996  1.3618
 3567SOL     OW22159   3.115   0.258  16.026 -0.1180 -0.0247 -0.1496
 3567SOL    HW122160   3.036   0.242  16.079  0.6140  0.2668  1.0310
 3567SOL    HW222161   3.080   0.238  15.939 -2.1588  2.9688  0.0030
 3568SOL     OW22162   3.146   1.930  17.009 -0.2264  0.3861 -0.0411
 3568SOL    HW122163   3.190   1.849  17.034  3.2930  1.3955 -3.0332
 3568SOL    HW222164   3.213   1.995  17.030 -0.7172 -0.4596  4.0232
 3569SOL     OW22165   3.173   1.999  15.558  0.4316  0.0349  0.2840
 3569SOL    HW122166   3.228   2.059  15.507  0.3454 -0.8362 -0.8352
 3569SOL    HW222167   3.234   1.982  15.630  0.2702  2.5656  1.0388
 3570SOL     OW22168   0.176   2.769  17.122 -0.5390 -0.0666 -0.1302
 3570SOL    HW122169   0.155   2.821  17.045 -0.9021 -0.3431 -0.2181
 3570SOL    HW222170   0.092   2.763  17.168 -0.3766 -1.5335 -0.0220
 3571SOL     OW22171   2.577   3.022   7.013 -0.6418 -0.3103 -0.0656
 3571SOL    HW122172   2.636   2.964   7.062  1.0456  0.6686 -0.9834
 3571SOL    HW222173   2.566   2.968   6.935 -0.3405 -0.0192 -0.3044
 3572SOL     OW22174   2.382   4.339   4.876 -0.2530  0.1720  0.1798
 3572SOL    HW122175   2.399   4.427   4.910 -0.8866  0.6495 -0.7377
 3572SOL    HW222176   2.444   4.295   4.934  0.3303 -0.2180 -0.7385
 3573SOL     OW22177   1.417   2.815   8.614  0.5832  0.8481 -0.7062
 3573SOL    HW122178   1.487   2.757   8.584 -0.5403  0.2114 -2.0995
 3573SOL    HW222179   1.339   2.760   8.613  1.4500 -0.4326  2.1717
 3574SOL     OW22180   3.472   1.554   4.448 -0.9538  0.4610 -0.2738
 3574SOL    HW122181   3.567   1.561   4.444 -0.9642  0.6637 -0.1554
 3574SOL    HW222182   3.447   1.642   4.422  1.1888  0.8275 -1.0594
 3575SOL     OW22183   1.529   3.471  10.893 -0.2801 -0.0725 -0.2352
 3575SOL    HW122184   1.566   3.510  10.972 -1.9416 -1.0907  1.0665
 3575SOL    HW222185   1.531   3.544  10.831 -1.5972 -0.2882 -0.5389
 3576SOL     OW22186   0.163   1.950   3.112  0.1342 -0.0510  0.3656
 3576SOL    HW122187   0.191   2.003   3.038 -0.2852  0.8601  0.8638
 3576SOL    HW222188   0.112   2.018   3.156  0.0468  1.1734 -1.6208
 3577SOL     OW22189   0.024   4.114  12.340 -0.1320  0.5217  0.1215
 3577SOL    HW122190   4.680   4.159  12.392  0.1635 -0.3299  1.2259
 3577SOL    HW222191   0.073   4.057  12.399  1.9382 -0.2646 -2.3370
 3578SOL     OW22192   3.094   2.743   3.383  0.5995  0.5058  0.4387
 3578SOL    HW122193   3.144   2.821   3.360 -0.3092  0.9524  0.0329
 3578SOL    HW222194   3.009   2.764   3.346 -0.0010 -0.3208  1.3288
 3579SOL     OW22195   2.592   1.564   6.767  0.6080  0.3263 -0.1590
 3579SOL    HW122196   2.593   1.479   6.811  1.2049  0.2334 -0.3451
 3579SOL    HW222197   2.555   1.620   6.835  2.2798  0.0436  0.9878
 3580SOL     OW22198   3.325   4.190   8.698 -0.0246 -0.5088  0.1355
 3580SOL    HW122199   3.387   4.124   8.731  0.6118  0.2254  0.3890
 3580SOL    HW222200   3.306   4.231   8.782 -1.2115  0.4320 -0.5969
 3581SOL     OW22201   0.488   2.963   1.856 -0.1737  0.1715  0.4491
 3581SOL    HW122202   0.446   3.003   1.932 -0.8653  1.8331 -0.8081
 3581SOL    HW222203   0.488   2.874   1.890 -2.3235 -1.2079 -3.1350
 3582SOL     OW22204   3.176   2.481  12.547 -0.1445 -0.3798 -0.0531
 3582SOL    HW122205   3.221   2.396  12.546  0.6660  0.0499 -0.3567
 3582SOL    HW222206   3.109   2.463  12.613  1.1841 -1.4197  1.0256
 3583SOL     OW22207   1.059   0.705   0.908  0.7526 -0.0223  0.0464
 3583SOL    HW122208   0.983   0.710   0.965  1.3244 -0.2093  0.8375
 3583SOL    HW222209   1.108   0.630   0.943 -0.7312 -1.8865 -1.8692
 3584SOL     OW22210   4.567   0.186   9.191 -0.6319  0.4798 -0.0002
 3584SOL    HW122211   4.607   0.131   9.124 -0.2513  0.5428  0.1747
 3584SOL    HW222212   4.634   0.190   9.260 -0.0315  1.2754 -0.6328
 3585SOL     OW22213   3.614   1.946   8.273  0.6679  0.0006  0.5926
 3585SOL    HW122214   3.578   1.974   8.357 -0.5053  1.0038 -0.2612
 3585SOL    HW222215   3.673   1.877   8.304  1.3653 -0.0528 -0.8674
 3586SOL     OW22216   4.594   2.398   5.756  0.2448  0.2839  0.3684
 3586SOL    HW122217   4.621   2.306   5.750 -1.0574 -0.0281 -0.7260
 3586SOL    HW222218   4.504   2.389   5.788  0.4231  3.1365  1.6420
 3587SOL     OW22219   4.451   2.418  11.002 -0.4401 -0.0703 -0.7192
 3587SOL    HW122220   4.375   2.362  11.016 -0.1707 -0.3676 -0.4494
 3587SOL    HW222221   4.453   2.456  11.090 -0.0105 -1.6370 -0.0607
 3588SOL     OW22222   3.394   4.658  12.300 -0.0313 -0.5090  0.3342
 3588SOL    HW122223   3.415   4.575  12.343  0.4440 -0.5519  0.0165
 3588SOL    HW222224   3.440   4.706  12.369 -2.2651 -0.3250  1.6956
 3589SOL     OW22225   3.128   2.994   7.775  0.0229  0.1150  0.4080
 3589SOL    HW122226   3.211   2.983   7.729 -1.1519 -0.2679 -1.6449
 3589SOL    HW222227   3.073   2.955   7.707 -1.8343  0.7888  1.5113
 3590SOL     OW22228   0.596   2.240  14.143 -0.1106 -0.3240  0.0904
 3590SOL    HW122229   0.605   2.148  14.168  2.5080 -0.6039 -1.8805
 3590SOL    HW222230   0.628   2.234  14.053  3.5900  3.3919  1.1551
 3591SOL     OW22231   0.343   0.171  12.269 -0.2818 -0.0340 -0.3142
 3591SOL    HW122232   0.431   0.137  12.251  1.5192  2.8421  3.1302
 3591SOL    HW222233   0.317   0.098  12.325 -0.1926  0.3217  0.1889
 3592SOL     OW22234   1.263   1.140   2.878 -0.1147  0.2649  0.0643
 3592SOL    HW122235   1.245   1.173   2.790 -2.5421 -1.4390 -0.0787
 3592SOL    HW222236   1.239   1.047   2.874 -3.7994  1.2345 -0.4287
 3593SOL     OW22237   2.632   0.646   6.434 -0.1052 -0.2308 -0.3863
 3593SOL    HW122238   2.619   0.551   6.438  0.6705 -0.3362 -0.1613
 3593SOL    HW222239   2.541   0.675   6.429  0.0203  0.5543  2.0713
 3594SOL     OW22240   0.509   2.851   3.798  0.8209  0.2564 -0.6200
 3594SOL    HW122241   0.451   2.846   3.875 -0.3330  0.3428 -1.4843
 3594SOL    HW222242   0.491   2.773   3.747  1.9536  0.6164 -1.5652
 3595SOL     OW22243   0.425   0.070  14.134 -0.0549 -0.0389 -0.0620
 3595SOL    HW122244   0.490   0.068  14.205 -0.3745  2.4827  0.2789
 3595SOL    HW222245   0.454   0.011  14.064 -1.1160  1.3373 -1.6345
 3596SOL     OW22246   4.084   0.523   6.582  0.4038  0.6260 -0.4503
 3596SOL    HW122247   4.118   0.612   6.583 -0.3344  0.8838  1.5434
 3596SOL    HW222248   4.067   0.515   6.488 -0.3123  1.8838 -0.4229
 3597SOL     OW22249   0.136   3.187   3.716 -0.2894 -0.0391 -0.1281
 3597SOL    HW122250   0.141   3.132   3.637  2.3573  1.2540 -0.8804
 3597SOL    HW222251   0.084   3.255   3.674 -0.9364 -0.1012  0.5945
 3598SOL     OW22252   2.780   4.233   7.281 -0.0389 -0.1780 -0.7026
 3598SOL    HW122253   2.740   4.309   7.238  0.5615  1.3369  1.4260
 3598SOL    HW222254   2.710   4.168   7.273 -0.2273 -0.0237 -0.2909
 3599SOL     OW22255   0.070   1.423   8.518 -0.0656  0.5292 -0.3651
 3599SOL    HW122256   4.708   1.384   8.537  0.3249  0.8634  2.0579
 3599SOL    HW222257   0.130   1.348   8.529 -0.4084  0.2348 -0.4959
 3600SOL     OW22258   2.049   0.730  12.443 -0.2496 -0.0215  0.2706
 3600SOL    HW122259   2.079   0.816  12.475 -0.4817  0.1248  0.0917
 3600SOL    HW222260   2.041   0.682  12.525 -0.5790 -0.0909  0.1967
 3601SOL     OW22261   3.929   1.126   0.266  0.7142 -0.1894  0.2010
 3601SOL    HW122262   3.870   1.198   0.290  1.4145  0.4662 -0.0377
 3601SOL    HW222263   4.018   1.157   0.282  0.9570  0.1243 -1.8018
 3602SOL     OW22264   4.186   4.652   5.083  0.3789 -0.3881  0.2147
 3602SOL    HW122265   4.185   4.655   4.987  1.2356  1.2030  0.2496
 3602SOL    HW222266   4.252   4.717   5.108  1.1589 -0.7107 -1.0297
 3603SOL     OW22267   2.080   0.880   3.529 -0.0240 -0.5628 -0.1680
 3603SOL    HW122268   2.029   0.800   3.515 -1.3811  0.2409  0.2406
 3603SOL    HW222269   2.038   0.911   3.609  0.1819  2.3009 -1.1463
 3604SOL     OW22270   1.765   0.537   8.171 -0.3382  0.1944  0.2794
 3604SOL    HW122271   1.677   0.529   8.206  0.4285 -2.5311  1.5183
 3604SOL    HW222272   1.797   0.615   8.216 -0.3029 -0.1384  0.8346
 3605SOL     OW22273   0.504   1.751   7.435  0.5138 -0.5481  0.8354
 3605SOL    HW122274   0.494   1.724   7.526 -1.8858  2.9559  1.6025
 3605SOL    HW222275   0.591   1.790   7.443 -0.2376  1.1637  0.6273
 3606SOL     OW22276   2.435   1.706  13.385  0.3513  0.0337 -0.5780
 3606SOL    HW122277   2.416   1.629  13.332 -0.3367  0.6757 -1.2634
 3606SOL    HW222278   2.531   1.705  13.384  0.3683  0.8842  0.0702
 3607SOL     OW22279   3.115   4.124  12.326  0.1941  0.5010 -0.9727
 3607SOL    HW122280   3.124   4.188  12.397 -1.2138 -0.8019  0.3862
 3607SOL    HW222281   3.154   4.175  12.255  0.4606 -0.1355 -1.2825
 3608SOL     OW22282   2.306   3.119  11.182  0.1813 -0.2038 -0.0387
 3608SOL    HW122283   2.261   3.125  11.266 -2.5630 -0.3506 -1.4857
 3608SOL    HW222284   2.374   3.186  11.188 -0.7794  0.3481  4.2351
 3609SOL     OW22285   4.126   3.486  11.791  0.2254  0.5686  0.3753
 3609SOL    HW122286   4.031   3.480  11.803 -0.0035  1.4368 -0.8531
 3609SOL    HW222287   4.124   3.579  11.766  1.6261  0.7912  1.0681
 3610SOL     OW22288   2.545   0.693   8.324  0.2509  0.0188 -0.2352
 3610SOL    HW122289   2.518   0.626   8.261 -1.3170 -0.2522  0.7199
 3610SOL    HW222290   2.599   0.642   8.385  2.6102  0.4255 -1.9716
 3611SOL     OW22291   0.091   0.631   1.046 -0.2488  0.6765 -0.5487
 3611SOL    HW122292   0.026   0.694   1.078 -0.1176  1.5629 -2.0199
 3611SOL    HW222293   0.140   0.673   0.976  0.7154 -0.6133 -0.6492
 3612SOL     OW22294   2.447   1.426   8.692  0.4592 -0.9085 -0.3231
 3612SOL    HW122295   2.411   1.413   8.780  2.5521 -3.5641  0.1612
 3612SOL    HW222296   2.512   1.356   8.687  1.0933 -0.5662  2.9427
 3613SOL     OW22297   2.842   0.368   7.775  0.0543 -0.1880  0.5315
 3613SOL    HW122298   2.878   0.429   7.839  0.0170  0.3321  0.0497
 3613SOL    HW222299   2.770   0.329   7.824 -1.2403 -0.8830 -1.8860
 3614SOL     OW22300   0.169   1.118   6.512  0.1023  0.6120 -0.3382
 3614SOL    HW122301   0.212   1.058   6.573 -2.2781 -1.0847 -0.3454
 3614SOL    HW222302   0.214   1.086   6.434 -0.3061  1.5858 -0.9817
 3615SOL     OW22303   0.963   1.409   6.519 -0.1140  0.1540  0.3399
 3615SOL    HW122304   0.932   1.482   6.572 -3.6562 -0.4849 -0.8365
 3615SOL    HW222305   0.936   1.333   6.570 -1.5073 -0.2322 -0.9849
 3616SOL     OW22306   4.705   3.285   2.945 -0.3390 -0.5403  0.0301
 3616SOL    HW122307   0.054   3.223   2.947 -0.3054 -0.4729  0.8175
 3616SOL    HW222308   0.032   3.362   2.972 -1.3464  0.3775 -0.6864
 3617SOL     OW22309   4.129   1.835   7.941  0.3162  0.5823  0.3723
 3617SOL    HW122310   4.197   1.778   7.905  2.2144  1.8330  1.9518
 3617SOL    HW222311   4.050   1.806   7.895  0.4081 -0.7768  1.0695
 3618SOL     OW22312   1.339   2.004  14.583 -1.0261  0.3475  0.5041
 3618SOL    HW122313   1.345   1.921  14.536 -0.4301  0.5336  0.2468
 3618SOL    HW222314   1.302   1.975  14.666 -1.9891 -0.5577 -0.2527
 3619SOL     OW22315   3.414   4.281   0.606  0.3785  0.6455  0.2953
 3619SOL    HW122316   3.446   4.219   0.671 -1.0502 -1.1826 -0.7310
 3619SOL    HW222317   3.352   4.336   0.653 -0.4052  0.1151 -0.1153
 3620SOL     OW22318   1.466   1.983  12.863  0.2849  0.6636 -0.0492
 3620SOL    HW122319   1.543   1.995  12.808 -1.0356  0.1413 -1.9899
 3620SOL    HW222320   1.445   2.073  12.889  1.8534  1.3351 -1.1208
 3621SOL     OW22321   0.086   3.697   7.944  0.1750  0.0424  0.0967
 3621SOL    HW122322   0.036   3.778   7.953 -3.4330 -2.0691 -0.9289
 3621SOL    HW222323   0.036   3.661   7.871 -0.4396 -0.8414  0.9648
 3622SOL     OW22324   1.425   3.272   3.386 -0.0427  0.7460  0.3269
 3622SOL    HW122325   1.475   3.293   3.465 -0.8847  3.2054  0.2155
 3622SOL    HW222326   1.404   3.361   3.357 -0.4647  0.5690  0.0980
 3623SOL     OW22327   4.099   1.122  14.661 -0.2220  0.3952 -0.7439
 3623SOL    HW122328   4.102   1.206  14.616 -1.8000 -0.2837 -2.1413
 3623SOL    HW222329   4.074   1.145  14.750 -0.9745  1.0153 -1.1266
 3624SOL     OW22330   1.807   1.203   4.999 -0.1568  0.2381 -0.1236
 3624SOL    HW122331   1.759   1.172   5.076  0.3653 -1.7619 -0.6198
 3624SOL    HW222332   1.864   1.127   4.999  1.1688  1.2182  1.0209
 3625SOL     OW22333   1.306   4.437   4.134  0.4660  0.0108 -0.0902
 3625SOL    HW122334   1.237   4.397   4.083  0.7735  1.4522 -1.6152
 3625SOL    HW222335   1.279   4.425   4.225 -0.0322 -0.1799 -0.2647
 3626SOL     OW22336   3.827   4.400  15.266 -0.5275 -0.6523  0.2242
 3626SOL    HW122337   3.758   4.334  15.273 -1.0052 -0.2680 -0.8766
 3626SOL    HW222338   3.768   4.474  15.278 -0.2971 -0.3856 -0.2869
 3627SOL     OW22339   2.590   4.583   7.616 -0.0984 -0.8000 -0.0360
 3627SOL    HW122340   2.535   4.639   7.669 -1.1507 -1.3969 -0.4963
 3627SOL    HW222341   2.583   4.491   7.642 -4.1275 -0.0952  1.3546
 3628SOL     OW22342   1.995   0.086   6.299  0.2684 -0.5957  0.0773
 3628SOL    HW122343   2.090   0.077   6.301  0.5236  2.1241  1.9788
 3628SOL    HW222344   1.973   0.164   6.351 -0.7607 -0.5041 -0.4900
 3629SOL     OW22345   0.036   1.747   0.005 -0.6458  0.3175  0.4768
 3629SOL    HW122346   0.021   1.692  17.623 -1.4215 -0.2200  1.0175
 3629SOL    HW222347   0.054   1.833  17.661 -0.0104  1.8280  4.0585
 3630SOL     OW22348   1.953   2.214   4.160 -0.0035 -0.2991  0.2564
 3630SOL    HW122349   2.006   2.275   4.108  1.4479 -1.3601  0.4785
 3630SOL    HW222350   1.868   2.222   4.117 -0.3321  1.7697  1.2741
 3631SOL     OW22351   2.670   1.909  14.880 -0.1118 -0.1973  0.3314
 3631SOL    HW122352   2.752   1.872  14.914  0.3913  0.1604 -0.4930
 3631SOL    HW222353   2.611   1.841  14.912  0.8228 -0.8493  0.6755
 3632SOL     OW22354   3.478   4.718   7.160  0.0509  0.7205 -0.2747
 3632SOL    HW122355   3.531   0.002   7.240 -0.8207 -0.0914  0.3784
 3632SOL    HW222356   3.409   4.657   7.185 -0.7388  0.4197 -3.2022
 3633SOL     OW22357   3.070   3.611  17.394 -0.0307  0.5156  0.0985
 3633SOL    HW122358   3.101   3.529  17.432  0.4998 -1.0108 -3.6361
 3633SOL    HW222359   2.978   3.583  17.388  0.9630 -2.9658  1.0600
 3634SOL     OW22360   4.632   4.202   9.380 -0.3676 -0.3070  0.0189
 3634SOL    HW122361   4.667   4.126   9.332 -1.5282 -0.1273 -1.1200
 3634SOL    HW222362   4.573   4.222   9.307  0.2189 -1.0657 -0.6704
 3635SOL     OW22363   4.282   1.153   4.541  0.6121  0.0725  0.0357
 3635SOL    HW122364   4.361   1.192   4.578  2.5435 -2.4554 -1.4775
 3635SOL    HW222365   4.313   1.129   4.454  0.0692 -1.9093  0.3724
 3636SOL     OW22366   4.322   2.221   6.987  0.4040  0.6486 -1.0216
 3636SOL    HW122367   4.294   2.284   6.920 -1.5035  1.4604  0.5733
 3636SOL    HW222368   4.412   2.199   6.960  1.4669  0.6889  2.4754
 3637SOL     OW22369   3.241   2.075   7.803  1.0017 -0.1245  0.6240
 3637SOL    HW122370   3.189   2.000   7.775 -0.6414  0.3836  2.2741
 3637SOL    HW222371   3.228   2.062   7.897  0.0315  0.0689  0.5147
 3638SOL     OW22372   2.278   1.110   7.705 -0.3636 -0.5717 -0.4412
 3638SOL    HW122373   2.300   1.098   7.797  1.1343  2.4531 -0.3807
 3638SOL    HW222374   2.355   1.067   7.668 -0.0220 -0.2673 -0.0860
 3639SOL     OW22375   4.469   2.618  15.698 -0.2877  0.5652  0.0564
 3639SOL    HW122376   4.542   2.576  15.652 -2.4042 -0.7409 -2.0718
 3639SOL    HW222377   4.496   2.592  15.786  0.1470  0.4386 -0.1125
 3640SOL     OW22378   3.650   3.605   7.481 -0.4002  0.6040 -0.5655
 3640SOL    HW122379   3.663   3.560   7.398 -0.7186 -0.1365 -0.2177
 3640SOL    HW222380   3.640   3.536   7.547 -1.0125  2.4872  1.3182
 3641SOL     OW22381   2.861   0.050  11.307  0.4575 -0.4213 -0.1103
 3641SOL    HW122382   2.897   0.133  11.276 -1.7298 -0.1211 -1.8080
 3641SOL    HW222383   2.804   0.027  11.235 -1.0319  2.1979  0.2260
 3642SOL     OW22384   1.491   3.982  14.311  0.3149 -0.2303  0.1851
 3642SOL    HW122385   1.488   4.002  14.217  0.4628  1.3229  0.5043
 3642SOL    HW222386   1.431   3.911  14.332 -1.2444 -0.3058 -4.6128
 3643SOL     OW22387   4.644   1.146   0.329 -0.0087 -0.6345  0.2250
 3643SOL    HW122388   4.639   1.223   0.274  0.8818 -0.6007  0.1958
 3643SOL    HW222389   4.560   1.164   0.371 -0.0772 -1.4113  0.4167
 3644SOL     OW22390   2.757   3.855   5.251 -1.0047  0.1571 -0.7870
 3644SOL    HW122391   2.804   3.824   5.173 -1.6603 -1.3105 -0.5827
 3644SOL    HW222392   2.833   3.858   5.309 -0.6921 -2.1215 -1.0931
 3645SOL     OW22393   3.351   1.602   3.562 -0.0312 -0.3620  0.6440
 3645SOL    HW122394   3.340   1.682   3.511  0.4974 -1.2390 -0.8519
 3645SOL    HW222395   3.388   1.630   3.645 -1.5132  0.7716  0.9284
 3646SOL     OW22396   1.552   3.405  15.626  0.1893  0.2353 -0.1740
 3646SOL    HW122397   1.575   3.475  15.565  0.9805 -0.9977 -1.2981
 3646SOL    HW222398   1.611   3.425  15.699  0.9960 -3.3969  0.1626
 3647SOL     OW22399   3.222   0.161  14.250 -0.1948  0.0314  0.5019
 3647SOL    HW122400   3.162   0.115  14.190  2.0973 -0.5229 -1.3558
 3647SOL    HW222401   3.181   0.160  14.337  1.0937 -1.5725  1.1017
 3648SOL     OW22402   0.187   2.164  11.564 -1.1904  0.0695  0.8199
 3648SOL    HW122403   0.245   2.102  11.520  0.7032  0.5064  2.6547
 3648SOL    HW222404   0.118   2.159  11.498  1.0453  0.6524 -1.5773
 3649SOL     OW22405   2.689   3.325   5.461  0.1302 -0.7119  0.0906
 3649SOL    HW122406   2.757   3.297   5.522  0.9899  0.8422 -0.1536
 3649SOL    HW222407   2.721   3.410   5.433 -0.8475 -0.3357  0.1124
 3650SOL     OW22408   1.540   0.049   0.067  0.4060 -0.0242  0.3971
 3650SOL    HW122409   1.574   0.117   0.125  0.8518  0.0449  0.0485
 3650SOL    HW222410   1.514   0.093  17.681 -2.7545  0.9700  1.9005
 3651SOL     OW22411   2.829   1.368   9.887 -0.2900 -0.0817 -0.8151
 3651SOL    HW122412   2.914   1.402   9.915 -0.2751 -0.0663 -0.8806
 3651SOL    HW222413   2.829   1.274   9.906 -1.8495 -0.3589 -2.1667
 3652SOL     OW22414   3.829   0.045   7.225 -0.8354  0.2651  0.0554
 3652SOL    HW122415   3.787   0.015   7.306  1.0500  0.3061  1.0408
 3652SOL    HW222416   3.895   4.701   7.214 -1.1029  0.2030 -1.1022
 3653SOL     OW22417   3.521   0.038   9.433  0.6935  0.4454 -0.3695
 3653SOL    HW122418   3.514   4.712   9.515 -1.1168  0.0986 -0.7279
 3653SOL    HW222419   3.535   4.688   9.372 -0.8108  0.8656 -1.2039
 3654SOL     OW22420   3.432   2.429   2.448 -0.2714 -0.2351  0.7514
 3654SOL    HW122421   3.509   2.462   2.402 -1.4126  0.0748 -0.9300
 3654SOL    HW222422   3.472   2.349   2.482 -0.8611 -1.1455 -0.6978
 3655SOL     OW22423   2.997   1.257   4.445 -0.5711 -0.3056 -0.2102
 3655SOL    HW122424   3.041   1.320   4.502  2.2338 -2.4899  0.0623
 3655SOL    HW222425   2.912   1.250   4.486  0.3460  0.3519  1.8029
 3656SOL     OW22426   3.648   3.128  16.846 -0.1215 -0.2502 -0.8344
 3656SOL    HW122427   3.671   3.107  16.936  0.7429 -1.1491 -1.2685
 3656SOL    HW222428   3.568   3.076  16.836 -0.0376 -0.6264  0.4034
 3657SOL     OW22429   4.293   4.035   3.061  0.5082  0.2411 -0.6106
 3657SOL    HW122430   4.224   4.053   3.125 -0.0523  2.8325 -1.9562
 3657SOL    HW222431   4.325   3.957   3.107 -1.0610 -1.0770 -1.7429
 3658SOL     OW22432   0.958   2.834   3.799 -0.1775 -0.2977 -0.4644
 3658SOL    HW122433   1.017   2.763   3.823 -0.0921 -0.0987 -0.0926
 3658SOL    HW222434   1.013   2.902   3.836 -1.7425  0.1366  1.0659
 3659SOL     OW22435   1.607   0.533   7.269  0.1882 -0.0789  0.2468
 3659SOL    HW122436   1.629   0.462   7.208 -0.3504  2.1590 -2.5164
 3659SOL    HW222437   1.648   0.504   7.351  0.6298  0.4930  0.2264
 3660SOL     OW22438   4.041   3.122   4.206 -0.2699  0.1051  0.0869
 3660SOL    HW122439   3.952   3.157   4.215 -0.2532 -0.3429  1.9923
 3660SOL    HW222440   4.074   3.145   4.293  0.6352  1.2774 -0.5649
 3661SOL     OW22441   1.498   3.465   5.218 -0.2700  0.3597 -0.2871
 3661SOL    HW122442   1.548   3.468   5.136 -2.6401  2.4174 -1.6556
 3661SOL    HW222443   1.506   3.557   5.242  2.6366  0.6262 -2.2698
 3662SOL     OW22444   1.622   3.491   8.142 -0.6222 -0.3651 -0.2301
 3662SOL    HW122445   1.544   3.523   8.097 -1.5618 -2.3821 -0.0251
 3662SOL    HW222446   1.592   3.405   8.170 -2.6537  0.1027 -1.0073
 3663SOL     OW22447   4.083   1.847   6.251 -0.1508 -0.3872  0.0176
 3663SOL    HW122448   4.007   1.867   6.195 -0.1780 -0.8065 -0.0950
 3663SOL    HW222449   4.133   1.928   6.239 -0.5075  0.0614  1.6151
 3664SOL     OW22450   2.276   3.034  15.757  0.3763  0.1366 -0.0478
 3664SOL    HW122451   2.181   3.026  15.756  0.3415  0.4479  1.6197
 3664SOL    HW222452   2.282   3.100  15.826 -0.8244  0.3413 -0.1408
 3665SOL     OW22453   1.837   3.701   4.681  0.4728  0.1436 -0.2035
 3665SOL    HW122454   1.764   3.720   4.623  0.7793  2.8188  0.3221
 3665SOL    HW222455   1.911   3.755   4.655  1.1624 -0.6869  0.0255
 3666SOL     OW22456   0.458   3.044   5.496  0.5685  0.5553 -0.5092
 3666SOL    HW122457   0.493   2.982   5.560  1.0783 -0.4527 -1.7599
 3666SOL    HW222458   0.403   3.085   5.563  0.5487  0.6869 -0.6050
 3667SOL     OW22459   4.117   3.686   7.483  0.3587 -0.3555  0.0169
 3667SOL    HW122460   4.169   3.754   7.441 -2.1085  1.2815 -0.4315
 3667SOL    HW222461   4.032   3.722   7.458  0.9281  0.5501 -0.6206
 3668SOL     OW22462   3.007   2.120  11.950 -0.5300  0.4256  0.2375
 3668SOL    HW122463   3.092   2.161  11.962 -0.5447  0.9600 -1.5320
 3668SOL    HW222464   3.027   2.027  11.953  0.1653  0.6575  3.0571
 3669SOL     OW22465   4.389   3.963   9.245 -0.3878 -0.0353 -0.1038
 3669SOL    HW122466   4.390   4.001   9.157  3.3932 -1.1147 -0.5456
 3669SOL    HW222467   4.473   3.999   9.276 -0.3048 -1.2980  1.1567
 3670SOL     OW22468   0.987   3.054  16.609 -0.0496 -0.6444  0.0624
 3670SOL    HW122469   0.993   2.961  16.634  1.9779 -0.1487  1.3736
 3670SOL    HW222470   1.036   3.059  16.527 -0.0106  0.6158  0.1633
 3671SOL     OW22471   1.069   1.497   6.013 -0.0955  0.2156 -0.2180
 3671SOL    HW122472   1.137   1.437   6.045 -0.1164 -0.3437 -1.2171
 3671SOL    HW222473   1.000   1.474   6.076 -1.5707 -0.3311 -2.0210
 3672SOL     OW22474   1.122   4.467  17.535  0.4150 -0.9369  0.2242
 3672SOL    HW122475   1.097   4.410  17.607  1.1371 -0.7427  0.6256
 3672SOL    HW222476   1.065   4.442  17.462  1.8737  0.8805 -1.5526
 3673SOL     OW22477   2.488   1.437  11.485  0.1499  0.6335 -0.5809
 3673SOL    HW122478   2.513   1.384  11.560 -0.7844  2.3857  0.9741
 3673SOL    HW222479   2.478   1.517  11.537  1.2239  0.8470 -0.7130
 3674SOL     OW22480   4.641   3.379   4.872  0.0556 -0.3733 -0.2733
 3674SOL    HW122481   0.011   3.368   4.851  0.3592  2.7907 -0.6001
 3674SOL    HW222482   4.635   3.408   4.963  0.8880 -1.5936  0.1713
 3675SOL     OW22483   1.920   4.262   6.132 -0.0629 -0.4350 -0.4318
 3675SOL    HW122484   1.992   4.266   6.195 -0.9592  2.3194  0.4181
 3675SOL    HW222485   1.893   4.353   6.123  4.0219  0.6463 -1.8895
 3676SOL     OW22486   0.682   2.324   2.295  1.0003 -0.2567 -1.3192
 3676SOL    HW122487   0.744   2.374   2.347  2.4747 -3.6216  0.1568
 3676SOL    HW222488   0.727   2.240   2.298  0.9264 -0.1740  1.4179
 3677SOL     OW22489   0.577   1.612  15.146  0.6105 -0.3553  0.0472
 3677SOL    HW122490   0.668   1.640  15.139 -0.5953  2.9112 -2.8663
 3677SOL    HW222491   0.535   1.691  15.181  0.6415 -0.3345  0.0378
 3678SOL     OW22492   3.193   2.362  11.802 -0.7656  0.3155  0.4425
 3678SOL    HW122493   3.213   2.269  11.803  1.7426  0.8429 -1.0583
 3678SOL    HW222494   3.156   2.372  11.714 -1.2043 -0.4242  0.5488
 3679SOL     OW22495   4.309   2.912   7.543 -0.0593 -0.4467 -0.0137
 3679SOL    HW122496   4.239   2.921   7.606  2.2129 -1.6575  2.6695
 3679SOL    HW222497   4.314   2.818   7.527  2.6466 -0.5993  1.6707
 3680SOL     OW22498   2.190   1.717  17.288  0.1964  0.4259  0.3150
 3680SOL    HW122499   2.161   1.626  17.297  2.3988 -0.1670  1.5556
 3680SOL    HW222500   2.141   1.737  17.208  0.8416 -1.4831 -0.5590
 3681SOL     OW22501   3.009   3.448   5.804  0.0436 -0.0985 -0.5331
 3681SOL    HW122502   2.917   3.471   5.793  0.1437  1.5273  2.1097
 3681SOL    HW222503   3.022   3.389   5.730 -1.6338 -0.0836 -0.8527
 3682SOL     OW22504   1.141   0.782   6.382  0.2094  0.1384  0.3378
 3682SOL    HW122505   1.224   0.780   6.335 -1.5889 -2.1019 -2.7384
 3682SOL    HW222506   1.084   0.727   6.328  2.0465  0.1190 -1.5615
 3683SOL     OW22507   1.017   3.193   4.758  0.1839  1.3685  0.0491
 3683SOL    HW122508   1.084   3.259   4.737  0.0075  1.4694 -0.1962
 3683SOL    HW222509   0.939   3.242   4.734 -0.5168 -0.9203 -2.3486
 3684SOL     OW22510   4.009   3.631  13.665  0.3378 -0.3925  0.4522
 3684SOL    HW122511   3.933   3.689  13.658 -0.3561 -1.1310  1.8979
 3684SOL    HW222512   4.086   3.687  13.655 -1.1183  1.5130 -0.1964
 3685SOL     OW22513   2.546   1.741   7.548  0.3415  0.4403 -0.0106
 3685SOL    HW122514   2.507   1.828   7.561 -1.0710 -0.1826 -0.1298
 3685SOL    HW222515   2.481   1.708   7.487 -0.5505  2.9746 -0.4361
 3686SOL     OW22516   3.440   4.322  15.524  0.0317  0.0382  0.1121
 3686SOL    HW122517   3.348   4.305  15.542  0.1261  0.6641  1.1851
 3686SOL    HW222518   3.474   4.363  15.603  1.2814  0.2931 -0.5487
 3687SOL     OW22519   2.494   2.309   0.611  0.2746 -0.2641  0.1612
 3687SOL    HW122520   2.553   2.384   0.599 -1.3350  0.7896 -1.2306
 3687SOL    HW222521   2.474   2.294   0.519 -0.2026  0.2657  0.1749
 3688SOL     OW22522   2.946   2.725   9.878 -0.5507 -0.2892  0.1681
 3688SOL    HW122523   2.905   2.754   9.959 -0.9480 -1.8449  0.5321
 3688SOL    HW222524   2.999   2.796   9.841 -0.9996  1.0101  2.0430
 3689SOL     OW22525   2.853   2.664   9.006  0.1552  0.3497 -0.4333
 3689SOL    HW122526   2.930   2.635   8.956  0.7893  1.5770 -0.1688
 3689SOL    HW222527   2.882   2.647   9.096  0.4535  1.6483 -0.2956
 3690SOL     OW22528   0.318   4.419   4.612 -0.1165  0.3577 -0.3711
 3690SOL    HW122529   0.329   4.448   4.522 -1.7962  0.1100 -0.6624
 3690SOL    HW222530   0.382   4.481   4.646  0.7171  0.2034 -1.6590
 3691SOL     OW22531   3.865   2.767   9.894  0.5579  0.5133  0.0867
 3691SOL    HW122532   3.931   2.799   9.955 -1.9335  2.6213  1.6827
 3691SOL    HW222533   3.789   2.803   9.940  0.5561  1.1027 -0.3735
 3692SOL     OW22534   4.302   1.589  11.095  0.2842  0.3167  0.2343
 3692SOL    HW122535   4.241   1.557  11.028 -0.5968 -0.0559  1.2180
 3692SOL    HW222536   4.305   1.508  11.145 -1.9299  0.9102  1.3292
 3693SOL     OW22537   0.561   0.364   1.242  0.2347 -0.4290  0.3950
 3693SOL    HW122538   0.505   0.411   1.180  1.3094  0.1120 -0.1687
 3693SOL    HW222539   0.555   0.413   1.324  0.6556 -0.1386  0.2491
 3694SOL     OW22540   2.621   4.188   6.896 -0.0543  0.5279 -0.2868
 3694SOL    HW122541   2.620   4.283   6.883  2.8042  0.8154  1.6872
 3694SOL    HW222542   2.714   4.168   6.885 -0.3034 -0.9895  0.4086
 3695SOL     OW22543   2.815   2.831   6.271 -0.3550 -0.6088  0.5500
 3695SOL    HW122544   2.803   2.812   6.364 -0.7539 -0.5248  0.5155
 3695SOL    HW222545   2.843   2.746   6.238  4.0127  0.7856  0.5105
 3696SOL     OW22546   3.949   3.570   2.780 -0.7666  0.4680  0.0248
 3696SOL    HW122547   3.976   3.502   2.718  1.9197  1.4419  0.1210
 3696SOL    HW222548   3.952   3.648   2.724 -1.6477 -0.9117 -1.9313
 3697SOL     OW22549   0.180   3.898  12.860 -0.3867  0.2123 -0.2933
 3697SOL    HW122550   0.253   3.959  12.874  0.5274 -0.5784 -1.5936
 3697SOL    HW222551   0.143   3.948  12.787 -1.2522 -1.5297 -1.0416
 3698SOL     OW22552   4.283   4.225   4.883 -0.0710  0.3841  0.1396
 3698SOL    HW122553   4.313   4.313   4.860  0.5901 -0.3069 -1.6799
 3698SOL    HW222554   4.242   4.248   4.966  0.4774  0.7784  0.2964
 3699SOL     OW22555   4.640   1.159   4.406 -0.2230 -0.6031  0.1667
 3699SOL    HW122556   4.621   1.125   4.319 -4.5217  0.2524  0.7845
 3699SOL    HW222557   4.695   1.088   4.439  1.9573  0.8220 -0.3620
 3700SOL     OW22558   2.163   3.200   8.665  0.1412  0.4524  0.0086
 3700SOL    HW122559   2.245   3.223   8.622  0.7231 -1.7628 -0.0580
 3700SOL    HW222560   2.188   3.121   8.713  0.1856  0.3291 -0.2160
 3701SOL     OW22561   4.592   2.160   3.505 -0.1034 -0.0741  0.2282
 3701SOL    HW122562   4.622   2.165   3.596 -1.3982  0.8007  0.5959
 3701SOL    HW222563   4.526   2.091   3.512  0.5627 -0.7843 -0.3888
 3702SOL     OW22564   1.764   1.104   5.928  0.1412  0.0269 -0.3028
 3702SOL    HW122565   1.821   1.139   5.859  0.6224  0.0865  0.1188
 3702SOL    HW222566   1.699   1.054   5.879 -0.7190  1.0929 -0.2433
 3703SOL     OW22567   3.826   3.531   2.044  0.1046  0.0912  0.0430
 3703SOL    HW122568   3.773   3.610   2.033  0.6114  0.7524  2.2948
 3703SOL    HW222569   3.859   3.500   1.960 -0.6567  2.0145 -0.9708
 3704SOL     OW22570   4.562   0.013   6.200  0.2517  0.2780 -0.1400
 3704SOL    HW122571   4.537   4.653   6.161 -1.4818 -0.3272  2.2670
 3704SOL    HW222572   4.521   0.000   6.286  3.3022 -1.8977  1.0102
 3705SOL     OW22573   1.793   1.019   2.062 -0.6102  0.0235  0.0729
 3705SOL    HW122574   1.821   0.958   1.994  2.4665  0.3452  1.0635
 3705SOL    HW222575   1.740   0.961   2.116 -0.5258 -0.1748 -0.0547
 3706SOL     OW22576   3.150   4.175   4.246 -0.1860 -0.3668 -0.8051
 3706SOL    HW122577   3.116   4.262   4.268 -1.4250 -0.8152 -0.9560
 3706SOL    HW222578   3.229   4.170   4.299  0.3229 -1.4610 -1.6727
 3707SOL     OW22579   1.023   1.845   7.507  0.1654 -0.3590 -0.2499
 3707SOL    HW122580   1.003   1.845   7.600  0.0097 -0.3253 -0.2827
 3707SOL    HW222581   1.108   1.801   7.507  0.5528  0.3959  1.0890
 3708SOL     OW22582   1.934   2.253   0.259  0.2633 -0.2921  0.1971
 3708SOL    HW122583   1.918   2.341   0.294 -0.4514 -0.5317  0.4767
 3708SOL    HW222584   1.848   2.217   0.239 -0.6046  1.8696  0.0665
 3709SOL     OW22585   0.228   0.320   0.049 -0.3163 -0.0081  0.2145
 3709SOL    HW122586   0.155   0.378   0.027 -3.1004 -3.7122 -0.2125
 3709SOL    HW222587   0.238   0.279  17.659 -1.3440  0.5480 -0.1855
 3710SOL     OW22588   2.880   0.890   3.867  0.8920 -0.1648 -0.5333
 3710SOL    HW122589   2.861   0.970   3.916  1.4425  0.3272 -1.1065
 3710SOL    HW222590   2.974   0.893   3.851  1.5074 -0.9369  2.9279
 3711SOL     OW22591   4.097   0.305   0.243  0.0300 -0.1809 -0.4722
 3711SOL    HW122592   4.191   0.288   0.240  0.4793  2.9566 -3.7430
 3711SOL    HW222593   4.094   0.389   0.199  0.8027 -0.1580 -0.4893
 3712SOL     OW22594   0.940   1.671   7.247  0.0548 -0.0294 -0.4743
 3712SOL    HW122595   1.014   1.726   7.275  0.0395  0.7007 -1.8370
 3712SOL    HW222596   0.963   1.589   7.289 -1.3606 -1.1643 -1.9420
 3713SOL     OW22597   2.287   0.516   5.530  0.1910  0.2479  0.0846
 3713SOL    HW122598   2.216   0.561   5.575  1.3991  0.9343  1.3450
 3713SOL    HW222599   2.298   0.439   5.586  0.1603  0.3793  0.2715
 3714SOL     OW22600   1.766   1.539   2.982 -0.0219  0.3436 -0.2663
 3714SOL    HW122601   1.706   1.595   3.032  0.6398  2.3434 -1.6977
 3714SOL    HW222602   1.803   1.483   3.050  0.4211  2.7831  1.5145
 3715SOL     OW22603   3.835   2.526   4.366 -0.0005 -0.5948  0.2934
 3715SOL    HW122604   3.869   2.566   4.286  2.7134 -0.9635  1.2484
 3715SOL    HW222605   3.865   2.586   4.433 -0.8952 -1.9276  1.8907
 3716SOL     OW22606   1.312   3.083   8.098 -0.1731 -0.4818 -0.3424
 3716SOL    HW122607   1.240   3.119   8.149 -0.2641 -0.0561 -0.7679
 3716SOL    HW222608   1.331   3.146   8.028 -2.6862  0.4647 -0.1430
 3717SOL     OW22609   0.572   2.542   3.091 -0.3223  0.2047  0.5608
 3717SOL    HW122610   0.558   2.530   2.997 -0.7609 -0.9811  0.7881
 3717SOL    HW222611   0.552   2.635   3.105 -2.2326 -0.2971  1.1592
 3718SOL     OW22612   0.110   0.588   0.455 -0.0052  0.1654 -0.2683
 3718SOL    HW122613   0.074   0.542   0.379 -0.1051  1.2529 -0.8765
 3718SOL    HW222614   0.194   0.621   0.422 -0.0059  0.0895 -0.3447
 3719SOL     OW22615   1.899   3.022   4.015  0.3229 -0.4009  0.1043
 3719SOL    HW122616   1.924   2.954   4.078 -0.8578  0.7907  1.8700
 3719SOL    HW222617   1.927   3.101   4.061 -0.1092 -0.8471  1.1373
 3720SOL     OW22618   4.343   3.782   3.199  0.7365  0.1138 -0.4373
 3720SOL    HW122619   4.296   3.738   3.270 -0.6161  1.5853 -0.4204
 3720SOL    HW222620   4.431   3.794   3.236  0.6872 -0.2458 -0.2010
 3721SOL     OW22621   0.052   0.796   2.383 -0.4134 -0.0494 -0.0783
 3721SOL    HW122622   4.717   0.760   2.450  1.0898 -1.1640  0.6192
 3721SOL    HW222623   4.714   0.865   2.358 -1.0270 -0.9719 -1.1496
 3722SOL     OW22624   4.059   3.775   3.561 -0.4903 -0.3675 -0.2568
 3722SOL    HW122625   3.989   3.803   3.501 -0.1270  3.1786  0.9769
 3722SOL    HW222626   4.013   3.700   3.599 -1.4657  0.2298 -0.2547
 3723SOL     OW22627   2.263   2.356   9.302  0.4523  0.3754  0.5617
 3723SOL    HW122628   2.175   2.333   9.333  0.4545  1.2134  1.1827
 3723SOL    HW222629   2.269   2.447   9.331  1.0579  0.6211 -0.3412
 3724SOL     OW22630   2.014   1.024   3.749  0.4372 -0.4508  0.3003
 3724SOL    HW122631   2.064   1.059   3.823  2.0601 -2.5362  0.1999
 3724SOL    HW222632   1.948   1.089   3.728  0.8766 -0.8801 -2.4506
 3725SOL     OW22633   1.801   2.981   8.342 -0.5183 -0.1835 -0.9726
 3725SOL    HW122634   1.763   2.901   8.377 -0.7288 -0.9683 -3.0174
 3725SOL    HW222635   1.895   2.963   8.334 -0.8023 -1.8656 -0.4146
 3726SOL     OW22636   3.239   0.645   4.225  0.0644  0.3765 -0.1505
 3726SOL    HW122637   3.187   0.680   4.153  1.4602  0.9786 -0.8681
 3726SOL    HW222638   3.284   0.568   4.191  1.8918  1.8571 -1.0827
 3727SOL     OW22639   1.187   4.095  11.654 -0.1962  0.7067 -0.5557
 3727SOL    HW122640   1.110   4.074  11.706  0.4049  0.3846  0.1906
 3727SOL    HW222641   1.263   4.067  11.705 -1.0049  1.1625  0.9032
 3728SOL     OW22642   4.084   3.070  10.728 -0.2075  0.1685 -0.0920
 3728SOL    HW122643   4.112   3.155  10.696  2.5194  0.2028  2.4198
 3728SOL    HW222644   4.083   3.089  10.822  0.4230  0.3686 -0.1265
 3729SOL     OW22645   2.669   4.723  17.673  0.2414  0.0085  0.3107
 3729SOL    HW122646   2.735   0.046  17.621 -0.1574  1.2808  0.9338
 3729SOL    HW222647   2.627   4.681  17.598  0.0683 -0.9643  0.9559
 3730SOL     OW22648   4.622   3.451  17.677 -0.4307 -0.4047 -0.2580
 3730SOL    HW122649   4.555   3.395  17.638 -1.3205 -0.6526  1.5976
 3730SOL    HW222650   4.696   3.389  17.679 -0.5422 -0.5599 -1.1388
 3731SOL     OW22651   3.876   0.037   6.098 -0.3086 -0.3991  0.3194
 3731SOL    HW122652   3.949   0.052   6.158  1.1663 -0.0108 -1.5806
 3731SOL    HW222653   3.930   0.028   6.019 -1.1642 -1.5640 -0.1379
 3732SOL     OW22654   0.380   1.689   1.815  0.3325  0.5807 -0.2687
 3732SOL    HW122655   0.459   1.725   1.856  0.2060  0.4996  0.0479
 3732SOL    HW222656   0.332   1.685   1.898 -1.6342 -0.7953 -1.4813
 3733SOL     OW22657   1.121   4.423   8.893 -0.1885 -0.3151  0.0604
 3733SOL    HW122658   1.126   4.339   8.939  0.9959  0.0875  0.6695
 3733SOL    HW222659   1.027   4.432   8.879 -0.3314  0.1860  1.3147
 3734SOL     OW22660   3.805   1.362  16.300 -0.4439 -0.1278 -0.2203
 3734SOL    HW122661   3.760   1.446  16.289  3.5650  2.2734  1.5618
 3734SOL    HW222662   3.789   1.325  16.214 -2.6073  0.7426 -0.1916
 3735SOL     OW22663   2.842   1.199   3.953  0.2975  0.7448 -0.4319
 3735SOL    HW122664   2.821   1.272   4.011  0.4405 -1.0806  1.9009
 3735SOL    HW222665   2.763   1.187   3.901 -0.4704  3.0964  0.1899
 3736SOL     OW22666   3.590   1.766  10.788 -0.5713  0.8119  0.2711
 3736SOL    HW122667   3.665   1.792  10.734 -0.4678  0.4335  0.2284
 3736SOL    HW222668   3.526   1.816  10.736 -0.8378 -1.0599 -1.2230
 3737SOL     OW22669   1.530   3.658   3.610  0.0707  0.0465 -0.2627
 3737SOL    HW122670   1.548   3.716   3.536 -0.5645  1.5240  0.7434
 3737SOL    HW222671   1.515   3.575   3.564  0.8568 -0.3307  0.1710
 3738SOL     OW22672   2.991   3.056   2.582 -0.0264  0.2853  0.2128
 3738SOL    HW122673   2.900   3.084   2.591 -0.2845 -0.1949 -0.8769
 3738SOL    HW222674   3.017   2.999   2.654 -0.0355  1.2360  0.9779
 3739SOL     OW22675   2.995   0.929   2.505  0.5561  0.4957 -0.2928
 3739SOL    HW122676   2.949   0.847   2.488  1.3614 -0.1655  0.6771
 3739SOL    HW222677   3.004   0.932   2.600  0.0502  3.3553 -0.3212
 3740SOL     OW22678   3.372   3.520   6.256  0.2237 -0.0479  0.1810
 3740SOL    HW122679   3.281   3.550   6.255  0.2710  0.0954  0.2161
 3740SOL    HW222680   3.367   3.461   6.181 -0.0233 -3.0524  2.5715
 3741SOL     OW22681   3.238   3.725   3.654  0.0307  0.2246 -0.1761
 3741SOL    HW122682   3.241   3.630   3.645  2.2106  0.3717 -1.1505
 3741SOL    HW222683   3.153   3.754   3.622 -0.0510  1.0508  0.7937
 3742SOL     OW22684   2.620   4.367  17.652  0.7140 -0.2262  0.9368
 3742SOL    HW122685   2.561   4.437  17.681 -0.1796 -0.4876 -0.2266
 3742SOL    HW222686   2.681   4.411  17.594  0.2822  0.7863  1.2596
 3743SOL     OW22687   0.616   4.018  15.066 -0.3093 -0.2931 -0.5812
 3743SOL    HW122688   0.655   3.937  15.098  1.7086 -0.2864 -2.9778
 3743SOL    HW222689   0.683   4.077  15.101 -0.0642 -0.1568 -1.2660
 3744SOL     OW22690   2.491   4.441  12.775  0.4042  0.4994 -0.0090
 3744SOL    HW122691   2.577   4.411  12.746 -1.1002 -2.9820 -0.8271
 3744SOL    HW222692   2.478   4.377  12.845 -0.7859  0.8246  0.0781
 3745SOL     OW22693   4.126   2.711   5.607 -0.3697  0.2450 -0.0911
 3745SOL    HW122694   4.136   2.806   5.595 -0.1022 -0.0729 -2.4499
 3745SOL    HW222695   4.064   2.704   5.533 -0.7694  1.8672  0.0867
 3746SOL     OW22696   0.572   3.846   4.642  0.0157 -0.5190  0.0083
 3746SOL    HW122697   0.505   3.837   4.575 -1.0528 -1.4136  1.2126
 3746SOL    HW222698   0.518   3.881   4.713  0.1820 -0.4077  0.0805
 3747SOL     OW22699   3.410   0.949  10.254 -0.3790 -0.0212 -0.3019
 3747SOL    HW122700   3.346   0.979  10.317 -0.6348 -4.5073  1.5626
 3747SOL    HW222701   3.475   0.921  10.319 -1.2291  0.1791  0.6296
 3748SOL     OW22702   2.215   3.802   9.134  0.9911 -0.2411 -0.3158
 3748SOL    HW122703   2.163   3.835   9.060 -0.1306 -0.3932  0.4028
 3748SOL    HW222704   2.235   3.885   9.176  2.3345 -0.5006 -0.4470
 3749SOL     OW22705   1.589   3.267   2.363 -0.2800 -0.2853 -0.0094
 3749SOL    HW122706   1.562   3.229   2.446 -0.7750  1.4150  0.6239
 3749SOL    HW222707   1.616   3.188   2.318  0.9128  0.0731  0.0744
 3750SOL     OW22708   4.552   2.718   4.963  0.0991 -0.7558  0.0239
 3750SOL    HW122709   4.571   2.789   5.025 -0.4773  0.6362 -1.4091
 3750SOL    HW222710   4.615   2.725   4.892 -1.0975 -1.5461 -1.0998
 3751SOL     OW22711   2.353   1.096   3.001  0.1660 -0.2469  0.0295
 3751SOL    HW122712   2.389   1.184   2.989  0.3692 -0.5509 -1.5464
 3751SOL    HW222713   2.380   1.046   2.924 -0.6352  0.4918 -0.7247
 3752SOL     OW22714   4.063   0.918   1.448 -0.3159  0.3850 -0.6939
 3752SOL    HW122715   3.974   0.914   1.482 -0.0300  4.1915  0.4653
 3752SOL    HW222716   4.090   0.828   1.429 -0.9426 -0.2872  1.6292
 3753SOL     OW22717   2.476   2.628   6.110 -0.0236 -0.1961 -0.6051
 3753SOL    HW122718   2.539   2.672   6.053 -0.6850 -1.1306 -2.0526
 3753SOL    HW222719   2.399   2.642   6.053 -0.6859  1.0170  0.5847
 3754SOL     OW22720   3.764   1.057  14.648 -0.3879  0.3842 -0.4207
 3754SOL    HW122721   3.789   1.131  14.705 -2.0683  1.7340 -1.4396
 3754SOL    HW222722   3.827   1.068  14.576 -0.3104  0.8780 -0.2835
 3755SOL     OW22723   4.508   0.966   7.506 -0.1003  0.6056 -0.6944
 3755SOL    HW122724   4.520   1.044   7.560  0.9632  1.2113 -1.8152
 3755SOL    HW222725   4.538   1.009   7.426  0.5234  1.9274  0.2510
 3756SOL     OW22726   2.121   3.442  17.154  0.2999 -0.3231  0.2472
 3756SOL    HW122727   2.108   3.409  17.243 -0.2019  1.0939  0.6988
 3756SOL    HW222728   2.129   3.536  17.171  0.7007 -1.0124  4.0220
 3757SOL     OW22729   1.542   4.342  17.610  0.1174  0.4074 -0.1415
 3757SOL    HW122730   1.607   4.272  17.603 -0.8118 -0.6346  1.6135
 3757SOL    HW222731   1.462   4.310  17.570 -0.0793 -0.9154  1.2987
 3758SOL     OW22732   2.078   3.395  17.475 -0.3548  0.0178  0.0484
 3758SOL    HW122733   2.079   3.458  17.548 -0.3694  0.5572 -0.4196
 3758SOL    HW222734   2.046   3.327  17.534  0.9617  0.2465  1.0361
 3759SOL     OW22735   4.369   3.445   1.829 -0.0253 -0.2236  0.8575
 3759SOL    HW122736   4.304   3.383   1.796  0.6223 -0.5148  0.1494
 3759SOL    HW222737   4.397   3.398   1.908  2.6291  0.9162  0.5736
 3760SOL     OW22738   2.694   1.618   4.661  0.1603  0.2957 -0.0536
 3760SOL    HW122739   2.628   1.661   4.715  1.0219 -1.3314  2.2819
 3760SOL    HW222740   2.657   1.634   4.574  0.7763  1.5155 -0.0939
 3761SOL     OW22741   3.717   3.757   2.580  0.0205 -0.4338  0.1971
 3761SOL    HW122742   3.681   3.700   2.512 -2.8189 -1.8562  2.8426
 3761SOL    HW222743   3.810   3.763   2.560 -0.0774  0.4606  0.0138
 3762SOL     OW22744   4.100   0.346   2.751 -0.1425 -0.1543 -0.2609
 3762SOL    HW122745   4.081   0.407   2.823  1.8153 -0.6959  0.7093
 3762SOL    HW222746   4.190   0.371   2.732 -0.2368  1.3562  1.1850
 3763SOL     OW22747   1.024   1.086   6.656  0.1283  0.2815  0.6470
 3763SOL    HW122748   0.980   1.130   6.729  0.1461 -0.4746  1.1125
 3763SOL    HW222749   0.984   1.000   6.669  0.4848  0.1454  0.8458
 3764SOL     OW22750   4.460   3.230   8.657  0.4865 -0.4477  0.1151
 3764SOL    HW122751   4.550   3.240   8.626  0.7530  1.2024  1.3905
 3764SOL    HW222752   4.453   3.315   8.701  0.1590 -0.5623  0.2838
 3765SOL     OW22753   3.818   2.300   1.556 -0.1175  0.2355  0.2900
 3765SOL    HW122754   3.902   2.345   1.567  0.3829 -0.9248  1.1385
 3765SOL    HW222755   3.840   2.211   1.582  0.1322 -0.0333 -0.8417
 3766SOL     OW22756   4.564   1.888   6.664  0.1237 -0.4815  0.5658
 3766SOL    HW122757   4.569   1.827   6.737  0.7372 -1.0987  0.0060
 3766SOL    HW222758   4.483   1.864   6.619 -1.5984  2.8470  1.8861
 3767SOL     OW22759   1.992   4.551  11.485 -0.0636  0.5160  0.7436
 3767SOL    HW122760   1.974   4.513  11.572  1.6295  0.8960  1.2564
 3767SOL    HW222761   1.939   4.493  11.430 -0.9160  1.7992  0.2195
 3768SOL     OW22762   0.327   2.672  11.019  0.3438 -0.3248 -0.5952
 3768SOL    HW122763   0.248   2.651  11.068  1.0628  1.2796  1.2704
 3768SOL    HW222764   0.389   2.658  11.091 -0.1427 -1.3852 -0.3947
 3769SOL     OW22765   0.720   3.740   7.387  0.0444  0.2793  0.0042
 3769SOL    HW122766   0.746   3.827   7.416  0.3717 -0.3862  1.7384
 3769SOL    HW222767   0.806   3.703   7.366 -0.9663 -1.2791 -1.3577
 3770SOL     OW22768   0.073   4.353   5.228  0.3408  0.1861  0.0783
 3770SOL    HW122769   0.072   4.330   5.135  0.4731  0.2489  0.0614
 3770SOL    HW222770   0.165   4.381   5.232  0.5419 -0.1668 -2.0246
 3771SOL     OW22771   1.875   1.292   3.648  0.0528  0.3301  0.0218
 3771SOL    HW122772   1.822   1.326   3.720  1.2921 -2.0980  2.0743
 3771SOL    HW222773   1.946   1.355   3.644 -0.0386  0.4461  0.2259
 3772SOL     OW22774   3.304   2.085   6.875  0.5448  0.2674 -0.6808
 3772SOL    HW122775   3.243   2.147   6.835 -1.5245 -2.3673 -1.5707
 3772SOL    HW222776   3.262   1.999   6.884  0.5046  0.2488 -1.0496
 3773SOL     OW22777   2.226   4.591   7.487  0.1014  0.0182  0.0134
 3773SOL    HW122778   2.192   4.654   7.551 -2.7664 -1.2216 -0.2814
 3773SOL    HW222779   2.144   4.558   7.451  0.5328  0.1322 -1.0790
 3774SOL     OW22780   1.873   3.996   4.230 -0.2721  0.0919 -0.5699
 3774SOL    HW122781   1.887   4.033   4.142 -0.6584  0.7695 -0.3408
 3774SOL    HW222782   1.796   4.040   4.266 -0.5276  0.3461 -1.4207
 3775SOL     OW22783   4.571   0.426  10.581 -0.8874  0.0672 -0.6841
 3775SOL    HW122784   4.530   0.370  10.516  0.1710 -0.8046 -0.6060
 3775SOL    HW222785   4.664   0.403  10.570 -0.6653 -0.4426  2.1814
 3776SOL     OW22786   0.526   1.895  11.902 -0.0153  0.1031  0.0812
 3776SOL    HW122787   0.460   1.962  11.881  0.1327  0.5301  0.9542
 3776SOL    HW222788   0.489   1.868  11.986  1.3269  0.6007  0.8207
 3777SOL     OW22789   0.392   3.819   4.465  0.1210 -0.1593 -0.1840
 3777SOL    HW122790   0.382   3.889   4.400  1.1394  0.5153  0.3864
 3777SOL    HW222791   0.339   3.750   4.425  2.0166 -0.8739 -1.4637
 3778SOL     OW22792   2.930   4.534   4.560  0.1374  0.3412 -0.1933
 3778SOL    HW122793   2.851   4.585   4.542  1.0749  1.1322 -1.9939
 3778SOL    HW222794   2.981   4.610   4.587  1.0159 -1.0323  2.0133
 3779SOL     OW22795   1.129   2.086   4.638 -0.0723 -0.1349  0.5886
 3779SOL    HW122796   1.204   2.120   4.589 -0.4833  0.9673  0.7017
 3779SOL    HW222797   1.060   2.149   4.614  0.2411 -0.7528 -1.9244
 3780SOL     OW22798   1.060   2.338   7.591  0.7065 -0.2151  0.1173
 3780SOL    HW122799   0.984   2.376   7.634  0.5470 -1.7466  1.1964
 3780SOL    HW222800   1.128   2.384   7.641 -0.5222 -0.6431  2.1745
 3781SOL     OW22801   0.187   0.929   4.876  0.1791  0.1902 -0.1280
 3781SOL    HW122802   0.258   0.880   4.834 -0.3266 -1.4068  0.8614
 3781SOL    HW222803   0.139   0.980   4.811  0.3949  1.6652  0.8986
 3782SOL     OW22804   0.594   3.367  14.400 -0.0045  0.2376  0.0034
 3782SOL    HW122805   0.519   3.310  14.385 -0.2606  0.2330  1.3165
 3782SOL    HW222806   0.664   3.307  14.373 -0.1259  0.0335  0.1329
 3783SOL     OW22807   0.766   3.105   2.474  0.1044  0.3410 -0.0850
 3783SOL    HW122808   0.835   3.158   2.435  0.7144  0.4362  1.1241
 3783SOL    HW222809   0.787   3.015   2.450 -1.2726  0.3232 -1.2296
 3784SOL     OW22810   0.122   3.022   3.917 -0.3017 -0.4544  0.4980
 3784SOL    HW122811   0.185   2.952   3.898 -1.2590 -1.1351 -0.2001
 3784SOL    HW222812   0.140   3.087   3.849 -0.3805  0.2287  1.1293
 3785SOL     OW22813   0.777   0.680  17.636 -0.3224  0.2012 -0.0838
 3785SOL    HW122814   0.785   0.733  17.557  2.8584  1.5818  1.1583
 3785SOL    HW222815   0.691   0.641  17.620  0.3315 -1.3435  0.2133
 3786SOL     OW22816   3.248   3.772   6.042  0.4249  0.2129  0.4056
 3786SOL    HW122817   3.340   3.793   6.030  0.2490 -1.2341 -3.6161
 3786SOL    HW222818   3.265   3.729   6.125 -0.8729 -0.3494  0.3852
 3787SOL     OW22819   2.805   0.448  15.960 -0.2408 -0.4235  0.3392
 3787SOL    HW122820   2.829   0.468  15.870  0.4107 -1.2151  0.3397
 3787SOL    HW222821   2.777   0.358  15.942  0.7865 -0.5211 -0.7361
 3788SOL     OW22822   1.875   4.561   5.523 -0.2837 -0.1425  0.1007
 3788SOL    HW122823   1.912   4.636   5.477 -0.3854  0.0967  0.4052
 3788SOL    HW222824   1.817   4.527   5.455  0.6435  1.7339 -1.6387
 3789SOL     OW22825   3.391   4.495   6.221  0.0389  0.1748  0.1235
 3789SOL    HW122826   3.375   4.439   6.145 -1.0714  0.7067 -0.0399
 3789SOL    HW222827   3.480   4.474   6.250 -0.6755 -0.5292  1.7867
 3790SOL     OW22828   1.027   1.721   5.718 -0.0194  0.3205 -0.3125
 3790SOL    HW122829   1.075   1.803   5.707 -1.2637  1.1268  0.2938
 3790SOL    HW222830   1.104   1.663   5.719 -1.3232 -1.3561  1.0830
 3791SOL     OW22831   0.320   4.508   3.856 -0.2627  0.0093 -0.2567
 3791SOL    HW122832   0.342   4.588   3.903  0.3657  0.3202 -1.0973
 3791SOL    HW222833   0.333   4.538   3.766 -2.4398 -1.7369 -1.1746
 3792SOL     OW22834   1.824   2.415   6.833  0.4880 -0.5956  0.7317
 3792SOL    HW122835   1.819   2.508   6.857 -1.3646 -0.4539 -0.2404
 3792SOL    HW222836   1.771   2.384   6.907 -0.4054  1.7115  1.0578
 3793SOL     OW22837   3.156   4.437   8.636 -0.1683 -0.4116 -0.0276
 3793SOL    HW122838   3.182   4.528   8.652  0.1072 -0.6856  1.0417
 3793SOL    HW222839   3.233   4.388   8.665 -0.4761 -1.7098 -1.4008
 3794SOL     OW22840   1.510   1.204  14.938 -0.0062 -0.0175 -0.3135
 3794SOL    HW122841   1.476   1.114  14.944  0.7645 -0.1118  2.6291
 3794SOL    HW222842   1.570   1.204  14.863  1.6847 -2.4585  1.0307
 3795SOL     OW22843   3.431   3.176   4.353 -0.0179 -0.0905 -0.3516
 3795SOL    HW122844   3.393   3.094   4.385 -0.2081 -0.4997 -1.6193
 3795SOL    HW222845   3.469   3.218   4.430 -0.0008 -0.7794  0.0166
 3796SOL     OW22846   3.201   0.908   4.871  0.0354  0.7630  0.1481
 3796SOL    HW122847   3.242   0.967   4.934  2.1921 -1.6815  1.0238
 3796SOL    HW222848   3.186   0.965   4.796  1.1087 -0.2982 -0.8714
 3797SOL     OW22849   3.811   1.726   5.201 -0.3186  0.4084 -0.1740
 3797SOL    HW122850   3.899   1.751   5.172  0.3979 -0.6391  1.0888
 3797SOL    HW222851   3.757   1.714   5.123 -1.4512  0.5343  0.5856
 3798SOL     OW22852   0.823   3.499   2.709  0.2915  0.0148  0.4083
 3798SOL    HW122853   0.845   3.518   2.800 -0.5287  0.5535  0.4891
 3798SOL    HW222854   0.801   3.406   2.714 -1.6349  0.3385 -2.0062
 3799SOL     OW22855   1.661   4.362  12.774 -0.1879 -0.6111  0.3962
 3799SOL    HW122856   1.713   4.356  12.693 -1.9547 -0.5006 -0.7429
 3799SOL    HW222857   1.705   4.427  12.828  1.1138 -0.8303 -0.3975
 3800SOL     OW22858   4.664   0.740   0.604  0.7087  0.8701  0.3153
 3800SOL    HW122859   0.006   0.680   0.569  0.2343  0.8464 -0.5274
 3800SOL    HW222860   4.687   0.826   0.568  0.8247 -1.1884 -4.5513
 3801SOL     OW22861   0.611   2.620   5.542  0.5993 -0.1261 -0.2047
 3801SOL    HW122862   0.587   2.606   5.634 -3.2652 -1.1829 -1.3777
 3801SOL    HW222863   0.637   2.712   5.549 -1.7268  0.8129 -3.6138
 3802SOL     OW22864   0.541   3.736   2.416  0.3370  0.0225 -0.0657
 3802SOL    HW122865   0.519   3.782   2.497  0.0520 -1.7023  0.8465
 3802SOL    HW222866   0.454   3.727   2.378  1.5554 -2.6967 -2.1391
 3803SOL     OW22867   0.401   3.642  12.067 -0.3277  0.2224 -0.0338
 3803SOL    HW122868   0.410   3.547  12.080  1.4726  0.1476 -1.8057
 3803SOL    HW222869   0.358   3.670  12.148  1.5526  1.7412  0.4237
 3804SOL     OW22870   3.368   3.648   0.626  0.0233 -0.1111 -0.2251
 3804SOL    HW122871   3.451   3.625   0.586  0.0804  1.4549 -0.9873
 3804SOL    HW222872   3.327   3.562   0.640 -0.4237  0.0369 -0.6218
 3805SOL     OW22873   1.041   2.013   7.749  0.1310  0.3919 -0.5792
 3805SOL    HW122874   1.085   2.095   7.773  1.8482 -0.9089  0.6878
 3805SOL    HW222875   0.956   2.033   7.787  0.6246  0.1695  0.6388
 3806SOL     OW22876   4.521   2.891   6.515 -0.2582 -0.1666  0.0463
 3806SOL    HW122877   4.544   2.954   6.445  0.3219 -1.3302 -0.8123
 3806SOL    HW222878   4.554   2.811   6.476  0.3453  0.0169  0.1796
 3807SOL     OW22879   2.022   2.056   0.533 -0.0581 -0.3147 -0.3823
 3807SOL    HW122880   1.948   2.006   0.566 -1.5185 -0.2876 -3.5793
 3807SOL    HW222881   2.047   2.117   0.602 -1.2813  0.1877 -0.3761
 3808SOL     OW22882   3.665   0.446   7.961  0.5395  0.3223  0.3359
 3808SOL    HW122883   3.584   0.416   7.920  0.1701 -2.1459  2.8996
 3808SOL    HW222884   3.635   0.465   8.050  1.7176 -2.1212  1.2579
 3809SOL     OW22885   1.081   2.696  13.462 -0.3850 -0.1574  0.3948
 3809SOL    HW122886   1.001   2.721  13.508  1.3002  3.7431  1.2710
 3809SOL    HW222887   1.131   2.778  13.458  1.0081 -1.0583 -0.5957
 3810SOL     OW22888   4.232   0.993   6.153 -0.3824  0.5321 -0.3354
 3810SOL    HW122889   4.218   1.087   6.153  1.0640  0.7470  0.2794
 3810SOL    HW222890   4.293   0.983   6.226 -2.4525 -2.0975  1.0453
 3811SOL     OW22891   3.229   3.123   2.472  0.1955 -0.3320 -0.6361
 3811SOL    HW122892   3.144   3.126   2.516  2.1448  2.8726  2.8551
 3811SOL    HW222893   3.222   3.028   2.466  0.1284 -0.4025  0.4870
 3812SOL     OW22894   4.253   0.323   6.695 -0.3200 -0.2711 -0.1426
 3812SOL    HW122895   4.188   0.387   6.666  1.1486  1.1125 -0.3713
 3812SOL    HW222896   4.231   0.244   6.645 -0.6062 -0.8678  0.9427
 3813SOL     OW22897   1.987   2.703   0.328  0.3158 -0.0612 -0.0403
 3813SOL    HW122898   1.976   2.689   0.422 -0.1074 -0.7767 -0.1961
 3813SOL    HW222899   2.055   2.771   0.337  2.8379 -2.7857  1.5064
 3814SOL     OW22900   2.240   1.885  11.894  0.4801 -0.1723  0.9735
 3814SOL    HW122901   2.169   1.894  11.830  0.7917 -0.6668  0.5555
 3814SOL    HW222902   2.257   1.794  11.870 -3.1853 -1.1453  2.0247
 3815SOL     OW22903   0.683   4.656   4.528  0.0559 -0.0766  0.7610
 3815SOL    HW122904   0.628   4.645   4.605 -0.6668  1.7800  0.5135
 3815SOL    HW222905   0.667   4.576   4.477  1.4970 -0.6063  1.1224
 3816SOL     OW22906   2.802   0.813   4.802 -0.4333 -0.6607 -1.1104
 3816SOL    HW122907   2.802   0.909   4.793  1.5709 -0.6815 -1.3940
 3816SOL    HW222908   2.791   0.780   4.713  3.6597 -0.1328 -1.7823
 3817SOL     OW22909   3.226   1.997   8.067 -0.2226  0.1211  0.3071
 3817SOL    HW122910   3.195   1.916   8.108  0.7978 -0.8242 -0.8090
 3817SOL    HW222911   3.200   2.060   8.134 -3.1953 -2.0448  1.2399
 3818SOL     OW22912   0.306   0.525   1.391 -0.1538  0.2522  0.2235
 3818SOL    HW122913   0.262   0.606   1.416  1.6143  1.0553  0.6440
 3818SOL    HW222914   0.350   0.541   1.308  0.7971 -3.2807  0.0577
 3819SOL     OW22915   0.508   1.074  10.977  0.0640  0.6740 -0.2573
 3819SOL    HW122916   0.533   0.992  10.935  2.6551  2.4008 -2.0915
 3819SOL    HW222917   0.472   1.042  11.060  0.2520 -0.9282 -0.8076
 3820SOL     OW22918   1.293   2.949   6.063  0.6917 -0.7164  0.3679
 3820SOL    HW122919   1.215   2.913   6.021  1.8785 -2.8872  0.0555
 3820SOL    HW222920   1.308   2.905   6.146  0.2256 -2.0464 -0.2581
 3821SOL     OW22921   4.028   4.111   3.187  0.5695 -0.2386 -0.0686
 3821SOL    HW122922   3.977   4.169   3.130  0.8996 -0.2580 -0.3820
 3821SOL    HW222923   4.008   4.026   3.147  0.6968 -0.9278  1.3186
 3822SOL     OW22924   1.267   3.512  10.497 -0.0715  1.1342 -0.5936
 3822SOL    HW122925   1.261   3.551  10.410 -2.2188  2.2461  0.0320
 3822SOL    HW222926   1.358   3.485  10.501 -0.5279 -0.2320  0.7487
 3823SOL     OW22927   0.965   4.613   6.418  0.7843 -0.0651  0.2558
 3823SOL    HW122928   1.000   4.580   6.501 -0.7022 -0.5643  0.6755
 3823SOL    HW222929   1.016   4.565   6.354 -0.0357 -1.1843  0.4410
 3824SOL     OW22930   1.579   0.245   2.173 -0.1925  0.1657  0.2173
 3824SOL    HW122931   1.497   0.208   2.208  0.8334 -0.7275  1.6765
 3824SOL    HW222932   1.579   0.206   2.086  0.5527 -0.9433  0.7080
 3825SOL     OW22933   2.426   2.915  14.398 -0.4590  0.2278 -0.2129
 3825SOL    HW122934   2.506   2.910  14.450 -0.5060  1.3564 -0.0218
 3825SOL    HW222935   2.414   2.829  14.359  1.2548 -1.5592  3.2138
 3826SOL     OW22936   0.458   0.829   7.388 -0.1051  0.1638 -0.2915
 3826SOL    HW122937   0.516   0.780   7.446 -0.1692  1.4360  0.8412
 3826SOL    HW222938   0.389   0.862   7.445  0.7802  0.1386  0.7804
 3827SOL     OW22939   0.785   4.145  12.151  0.0542  0.0200  0.2333
 3827SOL    HW122940   0.823   4.188  12.228 -0.9965 -1.3033  1.4764
 3827SOL    HW222941   0.738   4.219  12.113 -0.6692 -1.2480 -1.3352
 3828SOL     OW22942   0.232   4.282   4.184  0.0345  0.1756  0.0909
 3828SOL    HW122943   0.178   4.340   4.237 -0.0853 -1.8957  2.1834
 3828SOL    HW222944   0.188   4.280   4.099  1.5842  1.2239 -0.7473
 3829SOL     OW22945   1.448   0.145  15.344  0.2186  0.4335 -0.3445
 3829SOL    HW122946   1.454   0.187  15.258  1.6667  0.8275 -0.0494
 3829SOL    HW222947   1.357   0.157  15.371 -0.3581 -1.1176 -1.6549
 3830SOL     OW22948   3.736   2.293   4.459  0.4515 -0.1533  0.0190
 3830SOL    HW122949   3.736   2.375   4.409  1.9240  0.4259  0.9828
 3830SOL    HW222950   3.817   2.309   4.508  1.2628  0.5329 -1.5468
 3831SOL     OW22951   0.747   4.005   6.214  0.2279 -0.0929  0.7951
 3831SOL    HW122952   0.725   4.085   6.261  0.4067  1.0149 -0.9991
 3831SOL    HW222953   0.687   3.991   6.141  2.4047 -1.1282 -0.8034
 3832SOL     OW22954   2.436   4.138   5.652 -0.0091 -0.1320  0.5421
 3832SOL    HW122955   2.485   4.099   5.580  0.4348  1.2265  0.1024
 3832SOL    HW222956   2.429   4.060   5.707  1.1729 -0.3674  0.3677
 3833SOL     OW22957   3.425   2.126   2.994 -0.1831  0.2438 -0.3561
 3833SOL    HW122958   3.506   2.165   2.963 -0.1919 -0.1390 -0.8616
 3833SOL    HW222959   3.421   2.164   3.082  2.4481 -0.9669  0.2661
 3834SOL     OW22960   0.572   1.576   3.596  0.1181 -0.2103  0.2932
 3834SOL    HW122961   0.564   1.496   3.545 -0.8411 -0.7431  1.2857
 3834SOL    HW222962   0.594   1.644   3.532 -2.8481  1.3815  0.9878
 3835SOL     OW22963   0.736   0.529  14.518  0.3898 -0.5587 -0.5633
 3835SOL    HW122964   0.789   0.608  14.528  0.6186 -0.7745 -0.0917
 3835SOL    HW222965   0.701   0.551  14.431  1.2677 -1.0251 -1.0312
 3836SOL     OW22966   3.109   3.819   8.973  0.0729  0.3380 -0.2367
 3836SOL    HW122967   3.160   3.829   8.892 -1.1965 -0.8372 -1.1774
 3836SOL    HW222968   3.037   3.762   8.948 -0.8798  0.3419  2.5811
 3837SOL     OW22969   4.391   0.699   7.795 -0.5065 -0.1343  0.2383
 3837SOL    HW122970   4.472   0.717   7.844 -0.7599 -0.3475  0.7417
 3837SOL    HW222971   4.359   0.788   7.786 -1.8890 -0.8004 -1.2331
 3838SOL     OW22972   2.613   2.243   2.849  0.3874  0.7842  0.9594
 3838SOL    HW122973   2.579   2.158   2.878  0.1611  0.1310 -1.2019
 3838SOL    HW222974   2.702   2.213   2.829 -0.4161 -0.2784 -1.0467
 3839SOL     OW22975   0.413   3.665  11.731  0.3172  0.0071 -0.2700
 3839SOL    HW122976   0.484   3.600  11.727 -1.8362 -2.2505 -1.7359
 3839SOL    HW222977   0.426   3.682  11.824 -0.5236  1.2142 -0.3681
 3840SOL     OW22978   2.378   2.002   0.548 -0.1151  0.4351  0.3278
 3840SOL    HW122979   2.438   1.990   0.474 -0.6420 -2.8850  0.4197
 3840SOL    HW222980   2.334   1.917   0.545  0.2349  0.2802 -0.5636
 3841SOL     OW22981   3.248   1.046   6.947  0.2812  0.0504 -0.0528
 3841SOL    HW122982   3.298   0.971   6.915 -1.7019 -1.0875 -0.4414
 3841SOL    HW222983   3.296   1.123   6.917  1.2551 -0.1871  0.8530
 3842SOL     OW22984   1.890   4.641   7.092  0.0430  0.3547  0.1526
 3842SOL    HW122985   1.830   4.678   7.157  0.8825 -0.0524  1.1578
 3842SOL    HW222986   1.973   4.682   7.119  1.3205 -1.5155 -0.9459
 3843SOL     OW22987   3.588   3.638  11.448  0.7482 -0.0877  0.4456
 3843SOL    HW122988   3.665   3.582  11.447 -0.0986 -1.2855  1.8872
 3843SOL    HW222989   3.523   3.588  11.497 -0.4623  1.4829  0.4395
 3844SOL     OW22990   4.115   3.847  13.919 -0.0047 -0.0847  0.3633
 3844SOL    HW122991   4.210   3.840  13.919 -0.0477 -0.6173 -0.4071
 3844SOL    HW222992   4.106   3.833  13.825 -1.4062 -0.7861  0.6026
 3845SOL     OW22993   3.794   0.508   9.622  0.0648 -0.2692 -0.4255
 3845SOL    HW122994   3.736   0.583   9.602  0.3838 -0.9224 -3.7598
 3845SOL    HW222995   3.865   0.514   9.558  0.3140 -1.2733 -0.2406
 3846SOL     OW22996   2.914   3.198   3.136 -0.6357 -0.1423  0.2095
 3846SOL    HW122997   2.856   3.259   3.091 -0.4388  0.1517  0.3523
 3846SOL    HW222998   2.978   3.258   3.175  0.7865 -2.4977  1.5022
 3847SOL     OW22999   2.475   3.416  11.840 -0.0461 -0.1960 -0.0985
 3847SOL    HW123000   2.456   3.355  11.769 -1.2521 -0.0548  0.1026
 3847SOL    HW223001   2.546   3.374  11.889  0.5193  1.2264  0.2968
 3848SOL     OW23002   1.739   0.946   3.203 -0.2615 -0.1772 -0.4053
 3848SOL    HW123003   1.687   0.944   3.283  0.3035  1.2016  0.0037
 3848SOL    HW223004   1.679   0.898   3.146 -0.0922 -1.2302  0.2962
 3849SOL     OW23005   3.414   4.135   9.151  0.2500  0.2127 -0.1722
 3849SOL    HW123006   3.481   4.087   9.199 -1.7406 -1.5040  0.8839
 3849SOL    HW223007   3.336   4.121   9.205  0.4917  1.7843  0.5944
 3850SOL     OW23008   1.779   1.217   5.547 -0.3158  0.1844  0.0558
 3850SOL    HW123009   1.683   1.218   5.550 -0.2998  1.0940  0.5522
 3850SOL    HW223010   1.791   1.292   5.606 -0.2591  1.1876 -1.2510
 3851SOL     OW23011   1.071   4.631  13.225  0.4675 -0.2043 -0.1148
 3851SOL    HW123012   0.975   4.636  13.235  0.8700  0.1869  3.6269
 3851SOL    HW223013   1.105   4.698  13.284  1.0165  1.6518 -2.5131
 3852SOL     OW23014   1.142   3.989  12.908  0.0068  0.3773  0.4717
 3852SOL    HW123015   1.139   4.082  12.886  1.5900  0.0180 -1.2673
 3852SOL    HW223016   1.235   3.968  12.904  0.1097  0.8821  0.2007
 3853SOL     OW23017   3.694   0.761   7.345 -0.8212 -0.0810 -0.0526
 3853SOL    HW123018   3.744   0.760   7.426 -0.1824  1.1767 -0.4264
 3853SOL    HW223019   3.686   0.666   7.340  1.0223 -0.2568  0.2071
 3854SOL     OW23020   2.215   0.785  10.154  0.7311  0.8287  0.7846
 3854SOL    HW123021   2.304   0.753  10.137  1.4502  2.7107  1.0146
 3854SOL    HW223022   2.204   0.865  10.102 -1.6672  0.7220  1.1564
 3855SOL     OW23023   3.379   4.366   1.571  0.5294 -0.4003 -0.0500
 3855SOL    HW123024   3.327   4.428   1.621 -0.1714 -1.0455  0.0130
 3855SOL    HW223025   3.466   4.378   1.610  2.3507  1.5504 -4.6995
 3856SOL     OW23026   4.120   4.489   6.905 -0.5896 -0.1277  0.5166
 3856SOL    HW123027   4.067   4.452   6.834  1.7262 -2.5592  0.0932
 3856SOL    HW223028   4.063   4.489   6.982 -0.1856 -0.7934  0.8054
 3857SOL     OW23029   4.595   0.963   8.294  0.2056  0.7107 -1.0052
 3857SOL    HW123030   4.529   1.022   8.258  0.1451  0.8868 -0.5975
 3857SOL    HW223031   4.580   0.969   8.388  0.7975 -1.0564 -0.7862
 3858SOL     OW23032   3.484   1.498   5.744 -0.4975  0.0453  0.7434
 3858SOL    HW123033   3.545   1.469   5.677  0.3008 -4.3799  3.3762
 3858SOL    HW223034   3.402   1.490   5.695 -1.6382  1.8454  2.3217
 3859SOL     OW23035   4.538   2.825   5.930 -0.2616 -0.3205 -0.3110
 3859SOL    HW123036   4.564   2.760   5.865  1.5527  0.6432 -0.5601
 3859SOL    HW223037   4.545   2.905   5.877  0.8818 -0.6453 -0.6375
 3860SOL     OW23038   0.989   0.435   5.364 -0.7536  0.5387  0.5984
 3860SOL    HW123039   1.008   0.406   5.453 -1.1208 -0.9612  0.1802
 3860SOL    HW223040   0.908   0.478   5.390 -0.3668  0.8882  1.2406
 3861SOL     OW23041   2.904   0.621   7.129 -0.0928 -0.4566  0.1434
 3861SOL    HW123042   2.945   0.695   7.172 -0.3318 -0.5471  0.5246
 3861SOL    HW223043   2.953   0.624   7.047 -0.4647 -0.6448 -0.0877
 3862SOL     OW23044   1.307   0.102   9.336 -0.5200 -0.2279  0.8840
 3862SOL    HW123045   1.270   0.036   9.395  0.3899 -0.7393  0.8788
 3862SOL    HW223046   1.400   0.092   9.353 -0.2685  0.8248  0.1041
 3863SOL     OW23047   4.460   0.032   1.434 -0.0314 -0.5856 -0.2114
 3863SOL    HW123048   4.522   0.030   1.362  0.3170  0.9340  0.0433
 3863SOL    HW223049   4.519   0.087   1.485 -0.3240  0.4234 -0.9564
 3864SOL     OW23050   2.105   0.924  12.979 -0.7280  0.8351 -0.1229
 3864SOL    HW123051   2.087   0.920  12.885  0.9793 -3.0793 -0.2837
 3864SOL    HW223052   2.015   0.927  13.011  0.1250  1.9061  2.2596
 3865SOL     OW23053   4.356   0.799   2.672 -0.2684 -0.0157 -0.3226
 3865SOL    HW123054   4.440   0.766   2.704 -0.2156 -1.6309 -2.0977
 3865SOL    HW223055   4.383   0.875   2.622  0.4639 -0.6072 -0.8079
 3866SOL     OW23056   3.623   0.866   9.340  0.4264  0.2848 -0.0297
 3866SOL    HW123057   3.621   0.942   9.281 -0.9459 -0.3614 -0.8161
 3866SOL    HW223058   3.716   0.843   9.334  1.0358  2.9710 -0.6947
 3867SOL     OW23059   3.562   3.638   8.815  0.6372 -0.1771 -0.7157
 3867SOL    HW123060   3.536   3.696   8.743 -0.4590  0.7257  0.3951
 3867SOL    HW223061   3.652   3.669   8.815 -0.0459  1.8312  1.1954
 3868SOL     OW23062   1.258   0.254   8.462  0.1668 -0.1516 -0.4298
 3868SOL    HW123063   1.206   0.185   8.503 -0.3804  1.9531  2.4200
 3868SOL    HW223064   1.281   0.319   8.527 -2.5235  0.4915 -0.1436
 3869SOL     OW23065   4.130   4.482   8.855  0.1018  0.0026  0.6187
 3869SOL    HW123066   4.035   4.479   8.848  0.1739 -0.0133 -0.3559
 3869SOL    HW223067   4.146   4.576   8.866 -0.2786  0.1727 -0.2666
 3870SOL     OW23068   0.578   3.843  12.331 -0.2433 -0.2982 -0.6631
 3870SOL    HW123069   0.601   3.829  12.423  0.9165  2.4072 -0.5214
 3870SOL    HW223070   0.518   3.771  12.313  1.9696 -1.9810 -1.3447
 3871SOL     OW23071   3.923   3.296   9.001  0.0166  0.8249 -0.2775
 3871SOL    HW123072   3.879   3.292   9.086  0.5666 -0.6566 -0.0635
 3871SOL    HW223073   3.868   3.352   8.947  0.4426 -1.1573 -2.7439
 3872SOL     OW23074   4.195   2.910   9.152 -0.3884  0.6177 -0.2495
 3872SOL    HW123075   4.246   2.894   9.072 -0.3522 -1.5584  0.2291
 3872SOL    HW223076   4.117   2.859   9.131  0.6692 -0.7338 -0.8807
 3873SOL     OW23077   2.369   1.435   4.769 -0.0188 -0.2229 -0.4009
 3873SOL    HW123078   2.458   1.401   4.770 -0.4967 -1.4899 -1.8460
 3873SOL    HW223079   2.336   1.391   4.691  1.8876 -0.9215 -0.8168
 3874SOL     OW23080   4.352   1.981   8.077  1.0042 -0.1919  0.1845
 3874SOL    HW123081   4.402   1.935   8.144  2.7070  0.2368 -0.7973
 3874SOL    HW223082   4.271   1.930   8.080 -0.0262  1.3583 -0.8311
 3875SOL     OW23083   3.225   2.856   4.918  0.5862 -0.1771 -0.0108
 3875SOL    HW123084   3.167   2.897   4.983  0.6177 -1.8404  1.0754
 3875SOL    HW223085   3.194   2.765   4.922 -4.6590  1.5790 -1.0780
 3876SOL     OW23086   0.057   0.215   9.372  0.2352 -0.3558  0.0661
 3876SOL    HW123087   0.149   0.188   9.379  0.4839 -0.4599 -3.5851
 3876SOL    HW223088   0.073   0.309   9.368 -1.7073  0.0082  1.1393
 3877SOL     OW23089   4.714   1.751  14.523  0.4832  0.6459 -0.4104
 3877SOL    HW123090   4.717   1.841  14.554  1.4481  0.5527 -0.2294
 3877SOL    HW223091   0.083   1.735  14.500  1.0343  0.9742  1.5853
 3878SOL     OW23092   0.955   4.128   3.494 -0.4326 -0.5404 -0.2784
 3878SOL    HW123093   0.923   4.195   3.555  0.9393 -1.2271  1.1830
 3878SOL    HW223094   1.046   4.115   3.518 -1.2274 -0.1964  2.9214
 3879SOL     OW23095   2.470   0.192   0.083  0.2405  0.0548  0.0287
 3879SOL    HW123096   2.511   0.115   0.045  0.6082  0.1839  0.1683
 3879SOL    HW223097   2.379   0.191   0.054 -0.5523 -0.1871  2.5031
 3880SOL     OW23098   3.168   3.590  14.174  0.3465 -0.1087 -0.4779
 3880SOL    HW123099   3.080   3.554  14.161  0.7567 -0.9988 -0.7902
 3880SOL    HW223100   3.197   3.507  14.212  0.3961 -0.1826 -0.6775
 3881SOL     OW23101   4.216   3.525   8.740  0.5025  0.3184  0.0893
 3881SOL    HW123102   4.278   3.476   8.793  0.6143 -0.6436 -0.9489
 3881SOL    HW223103   4.280   3.579   8.693 -0.4324  0.0688 -1.4628
 3882SOL     OW23104   4.047   1.839   0.985  0.5022  0.6988 -0.5970
 3882SOL    HW123105   3.986   1.857   1.057  1.7914  0.1590  0.6293
 3882SOL    HW223106   4.061   1.931   0.962  1.5644  0.8772  0.7948
 3883SOL     OW23107   3.833   4.004  15.915  0.6472  0.0442 -0.5507
 3883SOL    HW123108   3.924   3.992  15.885  1.6671  0.2130  2.5041
 3883SOL    HW223109   3.794   4.058  15.846 -0.2470 -0.7095 -0.6298
 3884SOL     OW23110   3.262   3.114   4.782  0.1766  0.6546 -0.7936
 3884SOL    HW123111   3.262   3.019   4.780 -0.9855  0.6417 -0.0564
 3884SOL    HW223112   3.210   3.125   4.702  2.2213 -1.9111 -2.4656
 3885SOL     OW23113   2.492   0.666   6.799 -0.0973 -0.0455  0.3419
 3885SOL    HW123114   2.427   0.729   6.831 -0.3813 -0.4665  0.5892
 3885SOL    HW223115   2.531   0.644   6.883  0.3238  2.3012  0.7559
 3886SOL     OW23116   2.243   0.791  15.394  0.0889  0.1516  0.0581
 3886SOL    HW123117   2.150   0.811  15.402 -0.3753 -2.0961  0.1522
 3886SOL    HW223118   2.275   0.833  15.474 -0.5970  1.8801 -0.5818
 3887SOL     OW23119   0.312   2.560   3.982 -0.3382  0.3848 -0.4962
 3887SOL    HW123120   0.342   2.483   4.029 -0.8175 -0.7960 -2.1392
 3887SOL    HW223121   0.255   2.519   3.917  0.5527 -2.2544  0.4215
 3888SOL     OW23122   3.320   0.199   3.168  0.1563 -0.7293 -0.2839
 3888SOL    HW123123   3.390   0.226   3.109  0.3289  1.3916  0.9063
 3888SOL    HW223124   3.324   0.103   3.170  0.4643 -0.6230  4.1008
 3889SOL     OW23125   3.762   0.350  13.947 -0.3547  0.3976 -0.1461
 3889SOL    HW123126   3.763   0.306  14.031 -0.2048 -3.0072 -1.9523
 3889SOL    HW223127   3.673   0.387  13.951 -0.6165 -0.2487 -0.0484
 3890SOL     OW23128   2.165   1.840   4.913  0.0795  0.0295  0.0730
 3890SOL    HW123129   2.199   1.806   4.831 -3.5813 -2.6715 -0.3249
 3890SOL    HW223130   2.073   1.811   4.911 -0.1538  0.9106 -1.4770
 3891SOL     OW23131   3.210   0.246   3.810  0.1471 -0.6315 -0.0559
 3891SOL    HW123132   3.250   0.175   3.760  1.6089 -0.4222  0.8276
 3891SOL    HW223133   3.289   0.294   3.835  0.8498 -0.5881 -2.4229
 3892SOL     OW23134   2.373   2.689   6.354 -0.1602 -0.1469  0.1534
 3892SOL    HW123135   2.402   2.663   6.266  3.0834  0.4948  1.0342
 3892SOL    HW223136   2.432   2.757   6.386  1.3394 -1.8107  0.9837
 3893SOL     OW23137   0.877   0.740   5.964 -0.2578 -0.1545 -0.0762
 3893SOL    HW123138   0.896   0.833   5.979 -0.0036 -0.4647  1.6075
 3893SOL    HW223139   0.898   0.736   5.871 -1.9177 -0.5972 -0.4341
 3894SOL     OW23140   1.972   0.329   3.649  0.2011 -0.2186  0.0836
 3894SOL    HW123141   2.046   0.359   3.596 -0.1864 -0.8003 -0.8110
 3894SOL    HW223142   1.916   0.309   3.574  1.6609 -0.3545 -0.9867
 3895SOL     OW23143   1.457   4.330  16.454  0.3172 -0.6496 -0.2296
 3895SOL    HW123144   1.485   4.245  16.419 -1.2307 -0.6039 -1.5719
 3895SOL    HW223145   1.509   4.330  16.535 -0.0157 -0.3450 -0.0177
 3896SOL     OW23146   3.756   3.472  15.040 -0.3072  0.0894  0.2551
 3896SOL    HW123147   3.670   3.443  15.073 -1.2695 -0.4633 -2.7300
 3896SOL    HW223148   3.817   3.416  15.088 -1.4157 -1.9091 -0.6410
 3897SOL     OW23149   3.911   4.692  13.580  0.2397 -0.1835 -0.0174
 3897SOL    HW123150   3.922   0.064  13.582  0.9157 -0.2575 -0.4426
 3897SOL    HW223151   3.947   4.664  13.664 -2.4490 -0.0654  1.1806
 3898SOL     OW23152   1.519   1.184  10.532 -0.3377 -0.1709  0.4060
 3898SOL    HW123153   1.545   1.118  10.466  0.5175 -0.2713  0.8443
 3898SOL    HW223154   1.583   1.151  10.595  1.8847 -0.0703 -1.7590
 3899SOL     OW23155   0.344   2.084   2.591 -0.4115 -0.2711  0.0433
 3899SOL    HW123156   0.401   2.065   2.666 -0.4599  1.3666  0.4951
 3899SOL    HW223157   0.359   2.179   2.582 -0.2853 -0.1093  1.9140
 3900SOL     OW23158   1.207   3.577   2.654  0.2948  0.0969  0.0150
 3900SOL    HW123159   1.161   3.659   2.636 -1.5912 -1.6640 -3.3019
 3900SOL    HW223160   1.278   3.579   2.590  0.2079  3.3111 -0.0014
 3901SOL     OW23161   3.791   0.631   4.874 -0.2224 -0.2198 -0.2897
 3901SOL    HW123162   3.861   0.695   4.890 -1.3008  0.7194  0.7256
 3901SOL    HW223163   3.723   0.687   4.838  0.5202  1.4500  0.8824
 3902SOL     OW23164   2.325   3.541   0.149  0.0646  0.1257  0.3945
 3902SOL    HW123165   2.301   3.549   0.241  0.7961 -0.6043  0.6431
 3902SOL    HW223166   2.242   3.557   0.103  1.4029  2.0599 -1.3751
 3903SOL     OW23167   0.618   3.672   2.952 -0.2996  0.1604  0.1131
 3903SOL    HW123168   0.690   3.716   2.907 -0.3765  0.4022  0.2274
 3903SOL    HW223169   0.664   3.641   3.030  0.3191  1.7982  0.3873
 3904SOL     OW23170   0.913   2.351   6.297  0.1506 -0.3976  0.1159
 3904SOL    HW123171   0.960   2.350   6.213 -2.1263  0.9888 -1.1641
 3904SOL    HW223172   0.969   2.410   6.348 -0.1554  0.7170 -0.8475
 3905SOL     OW23173   4.553   3.078   1.411  0.7326 -0.0932 -0.2513
 3905SOL    HW123174   4.473   3.104   1.456  1.3744  0.2863  0.6692
 3905SOL    HW223175   4.527   3.061   1.320  0.5491  0.3830 -0.2840
 3906SOL     OW23176   2.476   2.876  10.558  0.3542  0.4119 -0.0958
 3906SOL    HW123177   2.428   2.865  10.640  0.8045  0.6243  0.2028
 3906SOL    HW223178   2.567   2.884  10.588  1.3219  1.9450 -3.3422
 3907SOL     OW23179   3.454   0.221   2.774  0.1275 -0.2524 -0.3102
 3907SOL    HW123180   3.490   0.154   2.830 -2.3547 -1.2287  0.1330
 3907SOL    HW223181   3.380   0.185   2.724  0.5279  0.5216 -1.4621
 3908SOL     OW23182   0.609   0.348   6.450 -0.3333 -0.1059  0.1150
 3908SOL    HW123183   0.531   0.402   6.442  0.7058  1.6857  2.1062
 3908SOL    HW223184   0.682   0.409   6.458  0.7073 -1.5774  1.7980
 3909SOL     OW23185   1.273   0.325   1.976  0.4712  0.5001 -0.2491
 3909SOL    HW123186   1.190   0.354   2.014 -0.2151 -0.5874 -0.8994
 3909SOL    HW223187   1.250   0.276   1.897 -0.1891  1.8764 -0.9224
 3910SOL     OW23188   4.402   4.130   2.617  0.1864 -0.1418 -0.4400
 3910SOL    HW123189   4.489   4.160   2.645 -0.9821  2.2397  0.6411
 3910SOL    HW223190   4.348   4.203   2.648 -0.0348 -0.2944 -0.4729
 3911SOL     OW23191   0.140   0.077   7.124  0.3255  0.4359  0.4546
 3911SOL    HW123192   0.050   0.058   7.150  0.5956  0.1947  1.2129
 3911SOL    HW223193   0.172   0.083   7.213 -1.8402 -0.2817  1.2845
 3912SOL     OW23194   4.115   3.891  10.487  0.3519 -0.6015 -0.0236
 3912SOL    HW123195   4.135   3.976  10.526  2.3148 -0.4394 -1.3426
 3912SOL    HW223196   4.189   3.888  10.426  0.5265  1.5108  0.0823
 3913SOL     OW23197   0.968   2.625   4.234  0.6644  0.6060  0.1607
 3913SOL    HW123198   0.913   2.595   4.161  1.6479 -1.8470  0.4077
 3913SOL    HW223199   0.934   2.568   4.303 -1.1318  0.5116 -0.8058
 3914SOL     OW23200   0.647   1.100   6.597  0.0593  0.8413  0.3864
 3914SOL    HW123201   0.672   1.192   6.594  0.1609  0.7346 -2.0249
 3914SOL    HW223202   0.617   1.093   6.687 -0.7817 -2.3245 -0.1332
 3915SOL     OW23203   1.235   4.570   7.385 -0.0879  0.2015  0.5439
 3915SOL    HW123204   1.199   4.655   7.412  3.1124  2.1410 -1.3342
 3915SOL    HW223205   1.160   4.555   7.327 -0.2888 -1.8351  1.3407
 3916SOL     OW23206   3.465   4.615   0.745  0.0059  0.5560  0.0573
 3916SOL    HW123207   3.432   4.648   0.828 -2.4512  0.5279 -0.8987
 3916SOL    HW223208   3.384   4.574   0.715 -0.4214  1.2520  0.2776
 3917SOL     OW23209   0.061   3.658   2.159  0.4537  0.4802  0.1241
 3917SOL    HW123210   4.708   3.601   2.168  0.9493 -0.4313 -1.4988
 3917SOL    HW223211   0.034   3.700   2.077 -0.5566 -0.2212  0.1006
 3918SOL     OW23212   1.069   2.625   5.265 -0.6061  0.0737 -0.0919
 3918SOL    HW123213   1.005   2.564   5.229 -0.4057 -0.7957  1.0362
 3918SOL    HW223214   1.138   2.619   5.199  0.5455  1.1119  0.9991
 3919SOL     OW23215   3.133   2.170   2.122 -0.1067  0.1951  0.3288
 3919SOL    HW123216   3.092   2.122   2.194 -0.6142  1.1040  0.6493
 3919SOL    HW223217   3.065   2.232   2.094 -0.3256  1.3417  3.3720
 3920SOL     OW23218   0.498   1.601   4.370  0.6281 -0.4346  0.1762
 3920SOL    HW123219   0.470   1.679   4.416  1.2840  0.4763 -0.9722
 3920SOL    HW223220   0.537   1.548   4.440 -2.5256 -1.1287  1.4307
 3921SOL     OW23221   0.376   4.546   3.594 -0.1787  0.4346 -0.0927
 3921SOL    HW123222   0.459   4.536   3.549 -1.0168  1.1175 -1.7880
 3921SOL    HW223223   0.320   4.492   3.538 -0.1043  1.8567 -1.5481
 3922SOL     OW23224   3.400   1.569   4.953  0.0765 -0.3557  0.3198
 3922SOL    HW123225   3.447   1.492   4.986  0.1898 -1.1965 -1.8266
 3922SOL    HW223226   3.379   1.548   4.862 -0.0215  0.3051  0.1892
 3923SOL     OW23227   1.400   0.100   0.511  0.3248 -0.2223  0.3885
 3923SOL    HW123228   1.369   0.070   0.426  1.2640 -0.9042  0.2858
 3923SOL    HW223229   1.388   0.024   0.568  3.2917  0.7047  2.2464
 3924SOL     OW23230   2.310   0.352   6.555  0.1742 -0.4412  0.3371
 3924SOL    HW123231   2.250   0.426   6.550 -0.4928 -1.0309 -0.3016
 3924SOL    HW223232   2.391   0.403   6.562  0.7284 -1.2999  0.1892
 3925SOL     OW23233   4.721   3.860   8.639  0.3287  0.0692 -0.0398
 3925SOL    HW123234   0.003   3.884   8.546 -0.5112  1.9806  0.4241
 3925SOL    HW223235   4.646   3.911   8.669  0.9676  0.8215  0.2538
 3926SOL     OW23236   2.851   2.608   5.429 -0.7840 -0.4456  0.0637
 3926SOL    HW123237   2.938   2.587   5.463 -1.4083 -1.2714  1.1577
 3926SOL    HW223238   2.822   2.654   5.508  0.8343 -0.6440  0.7842
 3927SOL     OW23239   3.240   3.252  10.721 -0.2759  0.2534  0.7332
 3927SOL    HW123240   3.333   3.274  10.716 -0.2613 -0.4138 -2.1545
 3927SOL    HW223241   3.202   3.299  10.646 -0.0076  1.4116  1.3228
 3928SOL     OW23242   2.586   2.913   2.775  0.1156 -0.1940 -0.0314
 3928SOL    HW123243   2.491   2.928   2.780  0.3486  1.8545 -1.5640
 3928SOL    HW223244   2.607   2.940   2.865 -0.5366  2.2408 -0.5975
 3929SOL     OW23245   2.010   3.079  15.766  0.5735  0.1507 -0.0679
 3929SOL    HW123246   1.969   3.014  15.709 -1.0464  1.0842  0.0405
 3929SOL    HW223247   1.958   3.061  15.843 -0.2190  0.9034 -0.4263
 3930SOL     OW23248   2.837   3.679   7.466  0.2265 -0.3161  0.1257
 3930SOL    HW123249   2.786   3.631   7.531  1.5850 -0.9754  0.7002
 3930SOL    HW223250   2.810   3.633   7.387 -0.5835  0.9887 -0.3625
 3931SOL     OW23251   0.320   3.668   5.749  0.6727 -0.4777 -0.0287
 3931SOL    HW123252   0.303   3.762   5.750  0.7019 -0.4625 -0.7879
 3931SOL    HW223253   0.415   3.668   5.747  0.6334  1.1507 -2.6048
 3932SOL     OW23254   1.450   4.624   9.117  0.7552 -0.1446  0.3733
 3932SOL    HW123255   1.404   4.585   9.191 -0.3735  0.9796  0.2610
 3932SOL    HW223256   1.380   4.674   9.075  1.4332 -0.5262 -1.2031
 3933SOL     OW23257   4.675   3.684   8.832 -0.6421 -0.2439 -0.3956
 3933SOL    HW123258   4.594   3.723   8.863  1.1929  2.3308  1.0700
 3933SOL    HW223259   4.705   3.746   8.766 -0.6364 -1.9638 -2.0128
 3934SOL     OW23260   0.382   0.353   4.542 -0.2050 -0.0538 -0.2767
 3934SOL    HW123261   0.444   0.290   4.504 -1.8397 -2.0212  0.3119
 3934SOL    HW223262   0.374   0.321   4.631  1.0177  1.6223  0.4391
 3935SOL     OW23263   1.778   4.542   0.034  0.0747  0.0696 -0.1838
 3935SOL    HW123264   1.826   4.572   0.111  0.5249 -0.2403 -0.3459
 3935SOL    HW223265   1.817   4.454   0.030 -0.5664 -0.1854 -0.9817
 3936SOL     OW23266   3.426   0.859   7.581 -0.2751 -0.1110  0.3985
 3936SOL    HW123267   3.500   0.825   7.632  0.1595 -1.2819 -1.0339
 3936SOL    HW223268   3.425   0.947   7.618 -2.1658 -0.5409  1.3391
 3937SOL     OW23269   0.811   1.648  11.268 -0.4298  0.1866 -0.1712
 3937SOL    HW123270   0.879   1.715  11.263 -0.3188  0.1268  0.5091
 3937SOL    HW223271   0.832   1.602  11.187  0.5120  3.9662 -2.0796
 3938SOL     OW23272   3.468   3.263   7.438 -0.1703 -0.0322  0.0970
 3938SOL    HW123273   3.521   3.192   7.402 -1.2712 -0.9850  0.3675
 3938SOL    HW223274   3.457   3.312   7.357  1.4312  1.3993  0.7392
 3939SOL     OW23275   4.082   0.405   1.875 -0.0802  0.2461  0.3059
 3939SOL    HW123276   3.988   0.410   1.891 -0.6905 -3.1901 -2.1875
 3939SOL    HW223277   4.103   0.315   1.899 -1.3757 -0.5790 -1.5890
 3940SOL     OW23278   4.382   2.588  15.397 -0.8041  0.6758  0.4029
 3940SOL    HW123279   4.383   2.569  15.491  1.4307  0.9296  0.4371
 3940SOL    HW223280   4.452   2.652  15.406 -0.5711  0.8724 -2.9638
 3941SOL     OW23281   1.728   4.371   7.128  0.1373  0.0283 -0.0121
 3941SOL    HW123282   1.731   4.445   7.067  0.9789  0.5626  0.6851
 3941SOL    HW223283   1.819   4.375   7.158 -0.1189  2.0178  0.5280
 3942SOL     OW23284   0.286   4.574   3.046  0.4434 -0.2639 -0.1537
 3942SOL    HW123285   0.294   4.636   2.974  0.5464  1.8985  1.7260
 3942SOL    HW223286   0.359   4.516   3.026  0.1963 -0.4432 -0.5301
 3943SOL     OW23287   3.968   0.733   1.859 -0.4247 -0.4432 -0.3100
 3943SOL    HW123288   3.963   0.828   1.870  1.3646 -0.3962  0.0461
 3943SOL    HW223289   3.903   0.710   1.925  0.2455  2.5699  1.3420
 3944SOL     OW23290   3.635   0.199   0.431 -0.0908  0.7287  0.8045
 3944SOL    HW123291   3.542   0.180   0.444 -0.0368 -1.1016 -1.5280
 3944SOL    HW223292   3.671   0.122   0.476  1.4691  2.0277  1.7821
 3945SOL     OW23293   1.866   0.113   7.847  0.3224 -0.0279  0.5849
 3945SOL    HW123294   1.826   0.045   7.901 -0.3299 -2.2540 -2.7154
 3945SOL    HW223295   1.881   0.170   7.923  3.5287  1.6623 -1.2949
 3946SOL     OW23296   3.230   1.484   2.777  0.5792 -0.1343 -0.0295
 3946SOL    HW123297   3.207   1.575   2.757  2.3034  0.2430 -0.3585
 3946SOL    HW223298   3.255   1.439   2.696  1.4260 -0.0329  0.1676
 3947SOL     OW23299   1.556   0.109   4.090  0.1260 -0.4818 -0.0084
 3947SOL    HW123300   1.637   0.059   4.082  0.8517  0.9590 -1.7920
 3947SOL    HW223301   1.565   0.143   4.179  1.0807  0.4674 -0.4560
 3948SOL     OW23302   3.230   4.331   5.632  0.8710 -0.2853  0.1609
 3948SOL    HW123303   3.212   4.355   5.541 -1.5923 -2.9288 -0.0569
 3948SOL    HW223304   3.182   4.248   5.628  0.6042  0.0048 -2.8909
 3949SOL     OW23305   4.218   2.817   2.335  0.5898 -0.1391  0.3346
 3949SOL    HW123306   4.224   2.723   2.321 -2.5581 -0.1592 -0.8333
 3949SOL    HW223307   4.232   2.841   2.243  1.2342  1.6333  0.8826
 3950SOL     OW23308   1.509   2.478   3.006  0.2441 -0.1579  0.5720
 3950SOL    HW123309   1.455   2.494   3.084 -3.1833  3.3914 -2.5005
 3950SOL    HW223310   1.596   2.454   3.036  0.9700 -1.0135 -2.1823
 3951SOL     OW23311   3.700   3.508   0.784 -0.6147 -0.4638  0.0592
 3951SOL    HW123312   3.677   3.499   0.877  0.3364 -0.8922  0.2563
 3951SOL    HW223313   3.787   3.546   0.792 -1.7690  1.8028  1.9471
 3952SOL     OW23314   2.687   3.333   2.961 -0.1610  0.5047 -0.4903
 3952SOL    HW123315   2.629   3.341   2.886 -0.5030  1.4323 -0.1192
 3952SOL    HW223316   2.769   3.314   2.916  0.5888 -0.2521  1.1699
 3953SOL     OW23317   4.394   4.271   7.497 -0.0903  0.2220  0.1918
 3953SOL    HW123318   4.460   4.219   7.544 -1.3557 -2.8259 -1.4247
 3953SOL    HW223319   4.330   4.267   7.568 -3.2478 -0.4086 -2.7146
 3954SOL     OW23320   4.020   4.590   6.514 -0.5591 -0.2575  0.4608
 3954SOL    HW123321   3.941   4.637   6.489 -0.3766  0.3513  1.0142
 3954SOL    HW223322   4.001   4.545   6.597  2.1058 -2.3836 -0.0744
 3955SOL     OW23323   4.432   1.613   2.957  0.0134 -0.4619 -0.0870
 3955SOL    HW123324   4.473   1.694   2.926  1.3910 -1.3027 -0.4364
 3955SOL    HW223325   4.420   1.573   2.871  0.5609  1.4873 -1.0939
 3956SOL     OW23326   0.322   1.929   6.360 -0.3888 -0.1475 -0.0851
 3956SOL    HW123327   0.232   1.904   6.379  0.5301 -2.8357  0.7573
 3956SOL    HW223328   0.343   1.882   6.280  0.7878  1.8353 -0.9616
 3957SOL     OW23329   3.825   2.538  10.044  0.2547  0.5997 -0.2078
 3957SOL    HW123330   3.859   2.606   9.986 -1.3631 -0.1893 -2.0921
 3957SOL    HW223331   3.742   2.573  10.074  1.2900  3.8977 -1.1580
 3958SOL     OW23332   2.877   3.435   3.367 -0.4408 -0.1373 -0.0960
 3958SOL    HW123333   2.968   3.450   3.342 -0.7652 -1.7878 -2.3121
 3958SOL    HW223334   2.836   3.443   3.281 -2.7538 -2.1157  0.8237
 3959SOL     OW23335   4.576   2.056   7.698  0.2333  0.2065 -0.0646
 3959SOL    HW123336   4.661   2.013   7.685 -0.5916 -1.2554 -0.5159
 3959SOL    HW223337   4.582   2.137   7.648  0.7753  0.2855  0.1274
 3960SOL     OW23338   3.229   1.078   9.885 -0.1896 -0.2703  0.1557
 3960SOL    HW123339   3.168   1.028   9.939  1.3281 -0.8494  1.3542
 3960SOL    HW223340   3.297   1.101   9.948  1.4718  1.8198 -2.3852
 3961SOL     OW23341   1.246   0.608   5.759  0.2742 -0.1068 -0.1072
 3961SOL    HW123342   1.279   0.519   5.741 -2.1174 -1.1713  0.8513
 3961SOL    HW223343   1.255   0.619   5.853 -1.5996  1.6207 -0.1385
 3962SOL     OW23344   1.912   2.887   6.741  0.1968  0.1590 -0.1645
 3962SOL    HW123345   1.910   2.890   6.645 -1.4257 -0.1255 -0.1321
 3962SOL    HW223346   1.999   2.924   6.756 -0.2246  0.7258  0.8735
 3963SOL     OW23347   1.454   0.801   4.131  0.5804 -0.5418  0.0103
 3963SOL    HW123348   1.359   0.795   4.130  0.6695 -2.0519 -0.9920
 3963SOL    HW223349   1.476   0.891   4.153  2.4204 -0.9966  0.1080
 3964SOL     OW23350   0.949   1.667  14.279  0.2567  0.4992 -0.3008
 3964SOL    HW123351   0.926   1.723  14.205  0.8521 -2.2173 -2.5537
 3964SOL    HW223352   0.986   1.735  14.335  1.5740 -0.8425  0.4452
 3965SOL     OW23353   0.044   0.325   3.633  0.2214 -0.3000  0.2994
 3965SOL    HW123354   0.054   0.232   3.614 -0.8087 -0.3081 -0.2222
 3965SOL    HW223355   0.003   0.359   3.553 -1.3100 -1.0218  0.7725
 3966SOL     OW23356   0.421   1.920   0.005 -0.5793 -0.4147  0.4299
 3966SOL    HW123357   0.509   1.948   0.029 -0.3504 -1.4980  0.8373
 3966SOL    HW223358   0.433   1.862  17.625  0.9755 -0.1763  0.5056
 3967SOL     OW23359   1.519   1.826  16.420  0.6669  0.6466  0.5388
 3967SOL    HW123360   1.557   1.760  16.361 -1.1345  0.0532  0.0500
 3967SOL    HW223361   1.427   1.826  16.393  0.5766 -2.3385  0.8472
 3968SOL     OW23362   0.491   2.859   4.888  0.6466 -0.3987  0.0035
 3968SOL    HW123363   0.530   2.821   4.809  0.8562  1.0176 -0.5744
 3968SOL    HW223364   0.509   2.794   4.956  2.3422  0.5088  0.4196
 3969SOL     OW23365   4.587   4.135  15.958  0.5591 -0.1834  0.2481
 3969SOL    HW123366   4.534   4.062  15.927 -1.1576  1.1761 -0.0741
 3969SOL    HW223367   4.525   4.207  15.945 -2.0738 -2.7145 -1.1843
 3970SOL     OW23368   3.509   0.650   9.451 -0.8167  0.3135 -0.2188
 3970SOL    HW123369   3.563   0.720   9.416 -0.2245 -0.4879 -0.9044
 3970SOL    HW223370   3.443   0.711   9.484  1.0959  1.9082  0.7190
 3971SOL     OW23371   3.165   1.778  10.462  0.0727  0.8590 -0.1645
 3971SOL    HW123372   3.097   1.782  10.395 -0.9460 -4.6219  0.5724
 3971SOL    HW223373   3.235   1.746  10.405 -0.2561 -1.8840  0.9474
 3972SOL     OW23374   1.434   1.926   4.813  0.7629 -0.7605 -0.4770
 3972SOL    HW123375   1.452   2.009   4.768 -0.5462  0.2760  0.8975
 3972SOL    HW223376   1.347   1.927   4.852  0.0505  0.7520 -2.1295
 3973SOL     OW23377   3.330   1.805   4.509 -0.2037 -0.1773 -0.5861
 3973SOL    HW123378   3.376   1.865   4.451  1.7703 -1.0575  0.0575
 3973SOL    HW223379   3.239   1.834   4.508  1.4288  5.0378  2.1802
 3974SOL     OW23380   0.338   2.001  13.525 -0.1641  0.3434  0.2835
 3974SOL    HW123381   0.418   1.992  13.472  0.0351  0.3495  0.5809
 3974SOL    HW223382   0.340   1.916  13.570 -0.3241 -0.8267 -1.8924
 3975SOL     OW23383   2.342   2.368   7.987  0.1420  0.3826 -0.5800
 3975SOL    HW123384   2.259   2.364   8.035  0.5177 -0.1777  0.0125
 3975SOL    HW223385   2.348   2.460   7.962  2.6657  1.1789  3.1963
 3976SOL     OW23386   4.037   4.399  11.314 -0.0865  0.3161  0.4054
 3976SOL    HW123387   3.943   4.382  11.320  0.1868 -0.4496  2.5470
 3976SOL    HW223388   4.049   4.466  11.380 -1.4693  1.5657 -0.6191
 3977SOL     OW23389   0.192   1.774  15.510  0.6374  0.0077  0.0844
 3977SOL    HW123390   0.221   1.863  15.491 -0.6876  0.6484  1.1163
 3977SOL    HW223391   0.210   1.774  15.605 -0.7843 -1.4079  0.3506
 3978SOL     OW23392   2.117   3.002  17.505 -0.3572 -0.0813  0.1652
 3978SOL    HW123393   2.068   2.972  17.428 -2.2720  0.9152  0.9889
 3978SOL    HW223394   2.090   3.093  17.521  0.9703 -0.1089  2.4370
 3979SOL     OW23395   1.103   0.954   5.631  0.2727 -0.5175 -0.5664
 3979SOL    HW123396   1.087   0.867   5.666 -0.1704 -0.4906 -0.6956
 3979SOL    HW223397   1.026   1.009   5.647  0.2253 -0.3931 -1.2040
 3980SOL     OW23398   1.901   3.987   4.996 -0.4910  0.6707  0.0107
 3980SOL    HW123399   1.973   3.971   4.935 -1.5043  0.3032 -1.0816
 3980SOL    HW223400   1.942   3.980   5.082  0.3730  0.6433 -0.4075
 3981SOL     OW23401   2.480   1.999   2.286  0.5174 -0.3924 -0.0962
 3981SOL    HW123402   2.549   2.066   2.284  0.3941 -0.2917 -1.0493
 3981SOL    HW223403   2.526   1.927   2.328 -0.0856 -0.8747 -0.2589
 3982SOL     OW23404   3.456   4.032  11.261  0.5075 -0.0198 -0.5021
 3982SOL    HW123405   3.412   4.117  11.263  0.1124 -0.1570 -3.2157
 3982SOL    HW223406   3.507   4.028  11.341  0.7794 -1.9648 -0.7711
 3983SOL     OW23407   2.103   3.496  12.902  0.0369  0.5702 -0.3575
 3983SOL    HW123408   2.023   3.501  12.954  0.3107  2.2464 -0.1020
 3983SOL    HW223409   2.135   3.586  12.902  0.5981  0.3684  1.1670
 3984SOL     OW23410   4.719   4.444   9.589 -0.1679  0.0768  0.2788
 3984SOL    HW123411   0.050   4.401   9.522 -1.5364  0.4107 -1.0578
 3984SOL    HW223412   4.715   4.533   9.555 -0.0347 -0.1244 -0.2802
 3985SOL     OW23413   3.033   4.153   7.184 -0.1011 -0.5126  0.1010
 3985SOL    HW123414   2.948   4.162   7.228  1.0475  1.8551  1.8182
 3985SOL    HW223415   3.033   4.058   7.173  1.6050 -0.7636  2.2525
 3986SOL     OW23416   2.596   1.695   8.738  0.0274 -0.0022  0.2158
 3986SOL    HW123417   2.648   1.706   8.659  1.8899 -1.1340  1.3041
 3986SOL    HW223418   2.548   1.613   8.728  1.0854 -0.5234 -0.4708
 3987SOL     OW23419   4.271   3.680   9.111  0.3065 -0.1892 -0.1863
 3987SOL    HW123420   4.254   3.747   9.178  0.7418  0.2925 -0.5605
 3987SOL    HW223421   4.184   3.646   9.093 -0.7879  2.7460 -0.3051
 3988SOL     OW23422   1.323   0.530  16.205  0.3976  0.2385  0.6170
 3988SOL    HW123423   1.248   0.565  16.157  1.9692  1.0478 -1.2587
 3988SOL    HW223424   1.286   0.508  16.290 -0.5163 -0.4780  0.0420
 3989SOL     OW23425   3.177   2.596   5.052 -0.6180 -0.2381 -0.1095
 3989SOL    HW123426   3.154   2.517   5.101 -1.2276  0.5471  0.8647
 3989SOL    HW223427   3.270   2.582   5.033 -0.5866 -1.4839  0.9177
 3990SOL     OW23428   1.157   1.497  11.925 -0.2472  0.6134 -0.2735
 3990SOL    HW123429   1.148   1.567  11.990 -0.3009 -0.6757  1.1132
 3990SOL    HW223430   1.234   1.455  11.963 -0.7602 -0.8465 -0.8515
 3991SOL     OW23431   1.359   4.521   8.250  0.2714  0.2080  0.2095
 3991SOL    HW123432   1.429   4.458   8.271 -0.2090 -0.1017  0.8729
 3991SOL    HW223433   1.288   4.490   8.306 -1.5417  0.4525 -1.9302
 3992SOL     OW23434   1.870   2.299   4.406 -0.3807  0.0139 -0.0607
 3992SOL    HW123435   1.840   2.216   4.444 -1.6653  0.0760 -0.9560
 3992SOL    HW223436   1.884   2.277   4.313 -2.7995  0.6749 -0.5665
 3993SOL     OW23437   3.465   3.422  10.617 -0.3141  0.3690  0.3814
 3993SOL    HW123438   3.471   3.451  10.526 -0.8024 -2.8150 -0.6566
 3993SOL    HW223439   3.536   3.469  10.661 -2.1191  1.6160  1.9976
 3994SOL     OW23440   2.517   0.978   7.663  0.3782 -0.3706  0.2912
 3994SOL    HW123441   2.498   0.892   7.626 -1.2909  0.6167 -1.1791
 3994SOL    HW223442   2.579   1.008   7.597  1.0466  1.1471  1.6026
 3995SOL     OW23443   1.604   0.176   5.309  0.2364  0.1927  0.4166
 3995SOL    HW123444   1.651   0.118   5.250  0.3766  1.5790 -0.8477
 3995SOL    HW223445   1.673   0.203   5.370 -1.4424  0.0153  2.3970
 3996SOL     OW23446   1.147   2.009   3.175  0.2982  0.0235  0.3394
 3996SOL    HW123447   1.172   2.080   3.116 -1.9439  0.1460 -0.4582
 3996SOL    HW223448   1.234   1.976   3.197  0.1335 -0.8981 -0.4435
 3997SOL     OW23449   4.676   4.297   4.880 -0.1234 -0.3676  0.0425
 3997SOL    HW123450   0.048   4.295   4.895  0.1224  0.4147 -1.4242
 3997SOL    HW223451   4.649   4.206   4.888 -2.9216  0.4464 -0.1508
 3998SOL     OW23452   0.932   0.804   2.835  0.2768  0.1575 -0.0713
 3998SOL    HW123453   0.940   0.894   2.804 -1.5831  0.5087  0.4552
 3998SOL    HW223454   0.843   0.793   2.800  0.9081 -1.1142 -1.2502
 3999SOL     OW23455   3.122   2.788  11.340 -0.4706  0.0481 -0.1773
 3999SOL    HW123456   3.213   2.812  11.321 -0.6858 -0.3861 -1.7538
 3999SOL    HW223457   3.126   2.797  11.435  1.1809  0.7981 -0.3183
 4000SOL     OW23458   2.905   0.021   6.110 -0.1630 -0.0431  0.5529
 4000SOL    HW123459   2.917   0.092   6.174 -2.3600  0.0338  0.8917
 4000SOL    HW223460   2.975   4.686   6.140 -0.5614 -0.9811 -0.3535
 4001SOL     OW23461   2.375   4.430   1.960 -0.0537 -0.3362 -0.1973
 4001SOL    HW123462   2.307   4.487   1.997  0.2526 -0.4917  0.6048
 4001SOL    HW223463   2.441   4.437   2.030 -0.0081 -0.0281 -0.2693
 4002SOL     OW23464   3.588   0.941   3.908  0.0354  0.1476  0.0736
 4002SOL    HW123465   3.571   0.853   3.873 -0.5499 -0.4994  2.0030
 4002SOL    HW223466   3.678   0.965   3.886 -0.1594  0.7337 -0.0737
 4003SOL     OW23467   3.512   2.850   6.063  0.1264  0.0122  0.4391
 4003SOL    HW123468   3.602   2.836   6.035  0.0209  1.2491 -0.4874
 4003SOL    HW223469   3.458   2.779   6.026  0.1746  0.2430 -0.0783
 4004SOL     OW23470   0.425   4.300   8.429  0.6769  0.1083  0.0670
 4004SOL    HW123471   0.504   4.335   8.470  1.9372  0.9782 -3.0634
 4004SOL    HW223472   0.414   4.363   8.358 -1.9614  0.0165  0.4010
 4005SOL     OW23473   0.683   2.268  11.949 -0.1528 -0.0695  0.0242
 4005SOL    HW123474   0.677   2.326  11.872  0.6823  1.0043  0.7666
 4005SOL    HW223475   0.712   2.341  12.004  2.2009  0.1075 -1.4390
 4006SOL     OW23476   4.709   4.279  17.677 -0.5864  0.0936 -0.3407
 4006SOL    HW123477   4.690   4.185  17.669  0.4483 -0.1163 -0.2478
 4006SOL    HW223478   0.003   4.296   0.074 -0.3320 -2.1865  0.0353
 4007SOL     OW23479   0.677   2.055   3.024  0.0976  0.1365  0.2617
 4007SOL    HW123480   0.721   2.139   3.013  3.1398 -1.6158 -0.8633
 4007SOL    HW223481   0.664   2.048   3.118  1.2206  0.5033  0.4387
 4008SOL     OW23482   2.953   4.439  13.623 -0.4053  0.4043  0.2695
 4008SOL    HW123483   2.928   4.445  13.716 -0.0456  2.8030  0.2165
 4008SOL    HW223484   3.040   4.477  13.611 -0.1810 -0.9573 -2.4044
 4009SOL     OW23485   1.530   3.455   9.202  0.2009 -0.5106  0.4770
 4009SOL    HW123486   1.550   3.455   9.109  2.5611 -0.0019  0.9893
 4009SOL    HW223487   1.621   3.471   9.228  1.0093 -0.2037 -2.6275
 4010SOL     OW23488   2.404   0.455   8.824  0.3231  0.6411  0.2690
 4010SOL    HW123489   2.428   0.422   8.911 -1.8998  1.9013  1.3806
 4010SOL    HW223490   2.315   0.423   8.805  0.8772  0.3748 -1.8437
 4011SOL     OW23491   0.475   1.204  12.200 -0.2252 -0.2788 -0.1939
 4011SOL    HW123492   0.481   1.124  12.251  0.1594 -0.2967 -0.2639
 4011SOL    HW223493   0.401   1.248  12.242  0.1965 -0.1227  0.3869
 4012SOL     OW23494   4.177   0.893   5.157  0.0648 -0.4727 -0.6458
 4012SOL    HW123495   4.200   0.818   5.214 -0.9800 -0.2404  0.0777
 4012SOL    HW223496   4.130   0.945   5.222  0.0069  0.8116 -1.7172
 4013SOL     OW23497   2.727   4.018   1.496  0.7567  0.3816 -0.8944
 4013SOL    HW123498   2.748   4.085   1.561 -0.8028  0.1559 -0.1537
 4013SOL    HW223499   2.656   3.975   1.544 -0.2716  1.8544 -1.1005
 4014SOL     OW23500   0.627   1.819  15.946 -0.4488  0.3675 -0.3023
 4014SOL    HW123501   0.604   1.762  16.020  0.7594  1.0322  0.5956
 4014SOL    HW223502   0.618   1.904  15.990  1.2644 -0.3432  1.4253
 4015SOL     OW23503   1.289   0.475  17.525  0.7142 -0.3400  0.3358
 4015SOL    HW123504   1.229   0.454  17.596  0.3116 -0.0785  0.0759
 4015SOL    HW223505   1.338   0.394  17.509  0.7372 -0.7758  2.6847
 4016SOL     OW23506   2.448   4.689  14.496 -0.1598 -0.2521 -0.3278
 4016SOL    HW123507   2.498   4.711  14.417 -1.7913 -1.1601 -1.6101
 4016SOL    HW223508   2.525   4.657  14.543 -0.1920 -1.4036 -1.0770
 4017SOL     OW23509   3.578   3.025   1.421 -0.1076  0.3234 -1.2248
 4017SOL    HW123510   3.510   3.065   1.476 -0.3001 -1.5268 -0.1145
 4017SOL    HW223511   3.561   3.080   1.345  0.5134  0.9978 -0.8717
 4018SOL     OW23512   0.350   0.158   0.208 -0.4764  0.3594  0.0887
 4018SOL    HW123513   0.306   0.219   0.149 -0.0533 -0.8361 -1.4384
 4018SOL    HW223514   0.379   0.090   0.148  1.1858  0.6548  0.5507
 4019SOL     OW23515   4.681   1.935  16.237  0.2424 -0.2038 -0.1933
 4019SOL    HW123516   4.655   1.854  16.280  1.0198 -0.5449 -0.3635
 4019SOL    HW223517   0.029   1.958  16.297  0.0012 -0.5035  0.2042
 4020SOL     OW23518   1.097   3.532  11.695  0.6152  0.1013  0.6162
 4020SOL    HW123519   1.186   3.567  11.689  1.6400 -2.6168  0.2815
 4020SOL    HW223520   1.039   3.608  11.685 -1.6169 -2.0327 -2.4874
 4021SOL     OW23521   2.193   3.766  15.300  0.2061 -0.0255  1.0737
 4021SOL    HW123522   2.103   3.733  15.293  0.1237  0.3848  0.1498
 4021SOL    HW223523   2.243   3.698  15.346  1.7673  0.2990 -0.1434
 4022SOL     OW23524   1.423   2.025   0.679  0.0844  0.1581 -0.2254
 4022SOL    HW123525   1.509   2.034   0.638  0.3274  1.3622  0.5438
 4022SOL    HW223526   1.370   2.049   0.603  0.6056 -0.1643 -0.6948
 4023SOL     OW23527   2.336   2.096  12.372  0.0437 -0.1106 -0.1699
 4023SOL    HW123528   2.296   2.064  12.291 -0.1342  0.9042 -0.4848
 4023SOL    HW223529   2.290   2.046  12.438  1.9530 -2.2453 -0.4625
 4024SOL     OW23530   3.168   2.258   6.543  0.2694  0.4637  0.0768
 4024SOL    HW123531   3.159   2.249   6.638  1.1304  0.3550  0.1529
 4024SOL    HW223532   3.214   2.178   6.516 -1.2676 -0.6142  0.6226
 4025SOL     OW23533   1.596   1.894  11.992  0.2799 -0.0787  0.2931
 4025SOL    HW123534   1.545   1.813  12.002  2.3961 -1.6874 -2.1672
 4025SOL    HW223535   1.538   1.954  11.945  1.6537  0.7581 -0.3348
 4026SOL     OW23536   4.614   1.500  16.786  0.4496  0.1343 -0.5285
 4026SOL    HW123537   4.602   1.594  16.777  0.4425  0.0840 -1.0837
 4026SOL    HW223538   4.591   1.475  16.696 -1.0087  0.5754 -0.2843
 4027SOL     OW23539   0.171   2.118  17.048 -0.1318 -0.1961  0.1674
 4027SOL    HW123540   0.086   2.122  17.005 -0.6239 -2.4575  0.9237
 4027SOL    HW223541   0.188   2.212  17.059 -1.4417 -0.0754  1.1879
 4028SOL     OW23542   1.410   4.222  13.002  0.0775 -0.5717 -0.4925
 4028SOL    HW123543   1.412   4.209  12.907 -0.7731  1.5899 -0.8045
 4028SOL    HW223544   1.388   4.315  13.008  0.7927 -0.2494 -2.9808
 4029SOL     OW23545   3.726   4.170   4.051  0.1102 -0.0500 -0.3328
 4029SOL    HW123546   3.768   4.216   4.124  2.2083 -1.2197 -0.8144
 4029SOL    HW223547   3.639   4.153   4.088 -0.1332  1.7250 -0.1072
 4030SOL     OW23548   0.251   4.289  15.699  0.3357  0.7935 -0.2062
 4030SOL    HW123549   0.314   4.308  15.768 -0.8381 -0.3346  1.1696
 4030SOL    HW223550   0.286   4.354  15.638  0.7048  0.0838 -0.7472
 4031SOL     OW23551   2.041   0.750   0.985 -0.5554 -0.1042 -0.3114
 4031SOL    HW123552   1.968   0.805   1.013  0.0888  0.6686 -0.1670
 4031SOL    HW223553   2.060   0.719   1.073 -0.4833  1.5222  0.2412
 4032SOL     OW23554   3.860   0.470   4.315  0.1926 -0.5418 -0.1570
 4032SOL    HW123555   3.827   0.404   4.376  2.7006  0.6176  2.4842
 4032SOL    HW223556   3.886   0.546   4.367  3.5360 -0.4443 -1.9836
 4033SOL     OW23557   2.275   3.291   3.097 -0.0103  0.0502 -0.2891
 4033SOL    HW123558   2.254   3.322   3.009  1.2241 -0.7845 -0.8740
 4033SOL    HW223559   2.245   3.201   3.084 -0.7018  0.3974 -1.0557
 4034SOL     OW23560   0.031   1.994   9.178  0.3516 -0.1592 -0.5189
 4034SOL    HW123561   0.106   2.003   9.120 -0.8640 -2.2471 -2.4018
 4034SOL    HW223562   0.042   2.065   9.242  2.2093 -1.8128  1.0079
 4035SOL     OW23563   1.747   2.273  10.738 -0.3098 -0.1102 -0.2121
 4035SOL    HW123564   1.689   2.319  10.798 -0.5423 -1.5129  0.6376
 4035SOL    HW223565   1.703   2.309  10.661 -1.4921 -0.7947  0.1550
 4036SOL     OW23566   0.072   4.015   4.848 -0.5044 -0.0101  0.2811
 4036SOL    HW123567   0.052   3.922   4.840 -2.8018  0.3952  1.5990
 4036SOL    HW223568   0.097   4.003   4.939 -0.5044  2.3857  0.5833
 4037SOL     OW23569   3.806   3.858   1.087  0.1406 -0.1302 -0.6632
 4037SOL    HW123570   3.867   3.787   1.068  1.5658  1.1579 -0.9751
 4037SOL    HW223571   3.744   3.818   1.148  1.5737 -2.8940 -1.0228
 4038SOL     OW23572   2.095   1.467   3.592 -0.1800  0.2350  0.4691
 4038SOL    HW123573   2.084   1.493   3.500  1.7732 -0.9912 -0.0873
 4038SOL    HW223574   2.068   1.551   3.629 -0.3918  1.0994 -1.6462
 4039SOL     OW23575   0.783   2.769  16.290  0.1077 -0.0912  0.5384
 4039SOL    HW123576   0.732   2.823  16.350 -0.3931 -0.0571  0.0843
 4039SOL    HW223577   0.873   2.768  16.324  0.3324  3.1648  0.0389
 4040SOL     OW23578   2.475   4.690   7.395  0.8788  0.3922 -0.5423
 4040SOL    HW123579   2.390   4.655   7.420  0.8316  1.1964  0.4281
 4040SOL    HW223580   2.536   4.664   7.464 -0.4718 -3.5361 -0.8697
 4041SOL     OW23581   2.097   2.724  14.918 -0.0668 -0.4348  0.5795
 4041SOL    HW123582   2.176   2.670  14.915  2.1217  2.7940 -0.1903
 4041SOL    HW223583   2.039   2.682  14.855  0.4992 -0.3486 -0.0018
 4042SOL     OW23584   1.308   0.960   7.404 -0.2892 -0.2795 -0.2612
 4042SOL    HW123585   1.298   1.043   7.358 -1.8380  0.0622  0.7047
 4042SOL    HW223586   1.383   0.985   7.459 -1.3973 -1.4229  1.7908
 4043SOL     OW23587   0.740   1.165   0.671  0.7294 -0.2550  0.2715
 4043SOL    HW123588   0.720   1.142   0.761 -0.9367  1.0086  0.2025
 4043SOL    HW223589   0.650   1.172   0.641  1.1338 -0.4635 -1.0115
 4044SOL     OW23590   2.389   1.237   5.624  0.1615  0.5313  0.1181
 4044SOL    HW123591   2.308   1.214   5.669 -0.3710 -1.8599 -2.0362
 4044SOL    HW223592   2.394   1.328   5.650 -0.0938 -0.6745  4.3470
 4045SOL     OW23593   1.663   2.048  13.148  0.2097 -0.3418  0.2457
 4045SOL    HW123594   1.609   2.064  13.071  0.3778 -1.9495 -0.2058
 4045SOL    HW223595   1.599   2.067  13.217 -1.0028 -1.6126 -0.5311
 4046SOL     OW23596   1.332   2.123  13.765  0.7328 -0.3657 -0.0374
 4046SOL    HW123597   1.249   2.166  13.785  0.7295 -0.7207  0.7559
 4046SOL    HW223598   1.346   2.058  13.834 -1.8951 -0.8035  0.1000
 4047SOL     OW23599   2.911   1.146   1.743 -0.4046 -0.5672 -0.0770
 4047SOL    HW123600   2.938   1.055   1.743 -0.4564 -0.5810  0.8447
 4047SOL    HW223601   2.854   1.151   1.820  2.2901 -3.8307  2.1129
 4048SOL     OW23602   1.084   3.993   7.149 -0.1237 -0.5708  0.4134
 4048SOL    HW123603   1.064   3.903   7.121  0.2182 -0.4542 -0.2006
 4048SOL    HW223604   1.149   4.020   7.085 -1.6390  1.1795 -0.3622
 4049SOL     OW23605   0.447   2.147   1.922 -0.4565 -0.3021 -0.8258
 4049SOL    HW123606   0.456   2.069   1.976 -0.1673  0.8033  0.7089
 4049SOL    HW223607   0.474   2.219   1.979 -1.6229  0.1354 -0.8142
 4050SOL     OW23608   2.341   1.352   3.916 -0.0189  0.4800 -0.0274
 4050SOL    HW123609   2.376   1.272   3.954 -1.8639  0.4120  1.5510
 4050SOL    HW223610   2.288   1.386   3.988  1.7919  1.6848  0.7466
 4051SOL     OW23611   0.412   4.063   5.108 -0.1738 -0.8500 -0.0929
 4051SOL    HW123612   0.318   4.045   5.116  0.0452 -1.3919  1.4038
 4051SOL    HW223613   0.441   3.999   5.173 -1.6052 -0.7213  0.6842
 4052SOL     OW23614   0.839   3.142  16.981  0.5416  0.0778  0.4297
 4052SOL    HW123615   0.844   3.188  16.897  3.7032 -0.7606  0.1275
 4052SOL    HW223616   0.748   3.113  16.981  0.3432  0.7230  1.5400
 4053SOL     OW23617   3.995   2.569   6.445 -0.2009  0.2836 -0.3903
 4053SOL    HW123618   3.920   2.602   6.396 -0.8790 -1.9283 -0.8366
 4053SOL    HW223619   4.054   2.526   6.382 -0.9665 -1.9464  0.4093
 4054SOL     OW23620   3.976   2.438  10.706 -0.1666  0.4865  0.6899
 4054SOL    HW123621   3.916   2.394  10.767 -1.9022  2.4491  0.3670
 4054SOL    HW223622   3.951   2.529  10.718  2.1033  1.1705  0.2086
 4055SOL     OW23623   0.610   4.587   7.904 -0.9705  0.1606  0.0215
 4055SOL    HW123624   0.693   4.560   7.866 -0.7778  2.4372 -1.1651
 4055SOL    HW223625   0.621   4.549   7.991 -0.1564 -2.0300 -1.0308
 4056SOL     OW23626   2.891   0.808   5.261 -0.5658 -0.0482 -0.2307
 4056SOL    HW123627   2.847   0.823   5.177  0.9126  0.4635 -0.9037
 4056SOL    HW223628   2.870   0.891   5.304 -0.0129 -0.8017  1.4748
 4057SOL     OW23629   0.128   4.220   7.373  0.4608 -0.0590  0.0645
 4057SOL    HW123630   0.108   4.291   7.433 -1.6429 -0.8926  0.3725
 4057SOL    HW223631   0.104   4.253   7.287  1.0687  2.6324  0.9500
 4058SOL     OW23632   2.934   0.277   4.265  0.2031  0.2785  0.5475
 4058SOL    HW123633   2.948   0.256   4.173  1.5359  2.0869  0.3366
 4058SOL    HW223634   3.021   0.304   4.292 -0.0824  0.6754  1.0844
 4059SOL     OW23635   0.723   1.645   4.726 -0.1996 -0.1521 -0.0952
 4059SOL    HW123636   0.806   1.645   4.679 -0.5034  0.3668 -0.6278
 4059SOL    HW223637   0.757   1.629   4.815  1.6428 -0.7327 -0.8972
 4060SOL     OW23638   2.824   2.437   3.789  0.1835 -0.0327 -0.3163
 4060SOL    HW123639   2.860   2.519   3.755 -0.6905 -0.5613 -2.5371
 4060SOL    HW223640   2.862   2.367   3.736 -0.5074  0.2277 -1.1540
 4061SOL     OW23641   2.240   0.829   4.184  0.1376  0.0994  0.3811
 4061SOL    HW123642   2.300   0.780   4.240  2.2480  1.0816 -0.9911
 4061SOL    HW223643   2.194   0.754   4.145 -0.1955  0.4597  0.0754
 4062SOL     OW23644   0.457   2.545   3.404 -0.2744  0.3017  0.2593
 4062SOL    HW123645   0.431   2.502   3.485  0.1160  0.3252  0.3982
 4062SOL    HW223646   0.488   2.473   3.349 -1.4344  0.9217 -1.2262
 4063SOL     OW23647   1.519   3.959  13.822 -0.1331 -0.8214 -0.1808
 4063SOL    HW123648   1.574   3.898  13.774  0.3169  0.5887 -1.4472
 4063SOL    HW223649   1.451   3.975  13.756  0.1856  0.3062 -0.2402
 4064SOL     OW23650   4.576   1.263   3.021  0.0182 -0.3562 -0.0286
 4064SOL    HW123651   4.557   1.173   2.994  1.8588 -0.2719 -1.5356
 4064SOL    HW223652   4.500   1.271   3.079  0.7962  0.8622  0.8229
 4065SOL     OW23653   3.020   2.210  17.507  0.1540 -0.3347  0.8983
 4065SOL    HW123654   3.106   2.175  17.482  0.1868 -1.9312  3.2650
 4065SOL    HW223655   2.959   2.149  17.467 -0.2072 -0.7799  2.1052
 4066SOL     OW23656   1.128   3.826  10.499 -0.0072 -0.3312  0.2539
 4066SOL    HW123657   1.155   3.838  10.408  2.4195  1.4005  1.2058
 4066SOL    HW223658   1.070   3.750  10.485 -0.3587  0.2029 -1.1633
 4067SOL     OW23659   1.348   1.418   4.064  0.2651  0.0072  0.4086
 4067SOL    HW123660   1.355   1.428   4.159  0.6520 -1.4983  0.5344
 4067SOL    HW223661   1.253   1.407   4.063  0.4162 -1.3416  1.9487
 4068SOL     OW23662   4.612   4.333   2.209 -0.1418  0.0015  0.3170
 4068SOL    HW123663   4.664   4.256   2.236 -1.4512 -0.7426  0.7443
 4068SOL    HW223664   4.546   4.291   2.153  1.0118 -0.2316 -0.8546
 4069SOL     OW23665   4.716   4.129   1.387  0.3741 -0.0249 -0.3722
 4069SOL    HW123666   4.626   4.124   1.354  0.0450 -1.1049  0.6493
 4069SOL    HW223667   0.041   4.119   1.306  1.4492 -1.9202  0.4987
 4070SOL     OW23668   4.430   0.183  12.758  0.0236  1.0196  0.2105
 4070SOL    HW123669   4.484   0.243  12.809  1.8983  0.5444 -1.2168
 4070SOL    HW223670   4.489   0.108  12.743 -1.0981 -0.2153  1.8885
 4071SOL     OW23671   0.789   4.282   0.677  1.1182  0.2183 -0.0447
 4071SOL    HW123672   0.702   4.312   0.706  1.8860  1.8308  0.5993
 4071SOL    HW223673   0.806   4.236   0.759  0.9305  0.1120 -0.0635
 4072SOL     OW23674   0.982   4.637   7.258  0.3766 -0.1747 -0.3549
 4072SOL    HW123675   0.928   4.709   7.293  0.5560 -0.1919 -0.0442
 4072SOL    HW223676   1.019   4.669   7.176 -0.9295  0.4244 -0.7228
 4073SOL     OW23677   3.511   2.573   2.048 -0.1164 -0.4951 -0.0593
 4073SOL    HW123678   3.448   2.502   2.040 -0.6008 -0.1716  0.8143
 4073SOL    HW223679   3.445   2.634   2.081  0.7109 -1.0013  2.5586
 4074SOL     OW23680   4.637   3.415  10.760 -0.4829  0.3012  0.1979
 4074SOL    HW123681   4.709   3.382  10.707 -1.9428 -0.8188 -1.0893
 4074SOL    HW223682   4.583   3.339  10.739 -2.2374  1.6801 -0.2850
 4075SOL     OW23683   0.842   0.873   6.674 -0.2663  0.7201  0.6803
 4075SOL    HW123684   0.768   0.903   6.621 -1.6785 -2.2399  0.9707
 4075SOL    HW223685   0.788   0.835   6.743  0.5498 -2.1536 -0.2489
 4076SOL     OW23686   1.415   4.407   5.798 -0.0043  0.3074 -0.1934
 4076SOL    HW123687   1.508   4.394   5.781 -0.0261  0.9291 -0.7914
 4076SOL    HW223688   1.380   4.333   5.749  3.0489 -2.1125  1.2800
 4077SOL     OW23689   0.948   2.233   6.936 -0.5976  0.4543  0.1508
 4077SOL    HW123690   0.943   2.139   6.955 -1.6311  0.6108  0.6334
 4077SOL    HW223691   0.994   2.267   7.013  1.0442 -1.6617  0.1034
 4078SOL     OW23692   0.802   0.467   9.086 -0.1820 -0.0485  0.4249
 4078SOL    HW123693   0.742   0.414   9.139 -2.1624 -1.9917 -3.7359
 4078SOL    HW223694   0.809   0.545   9.141  1.0351  0.2121 -0.1016
 4079SOL     OW23695   4.359   3.277   5.498  0.4877 -0.1365  0.6206
 4079SOL    HW123696   4.329   3.339   5.432  1.4785 -0.3631 -0.0394
 4079SOL    HW223697   4.354   3.196   5.446 -0.8162 -0.4913  1.2807
 4080SOL     OW23698   2.622   1.034   3.266 -0.0545  0.0103 -0.1819
 4080SOL    HW123699   2.695   0.998   3.316  0.0230  1.0384  0.4448
 4080SOL    HW223700   2.669   1.034   3.183  0.8646  1.1147  0.3393
 4081SOL     OW23701   2.336   4.388   6.349  0.1165  0.6763  0.2300
 4081SOL    HW123702   2.336   4.338   6.430 -1.2138  0.6884  0.2448
 4081SOL    HW223703   2.421   4.431   6.354 -0.3557  1.9688 -2.8458
 4082SOL     OW23704   0.377   2.358   7.659 -0.2364  0.0148  0.8535
 4082SOL    HW123705   0.413   2.331   7.744  0.0018  1.0336  1.0758
 4082SOL    HW223706   0.433   2.309   7.598  0.9789  2.2608  0.1592
 4083SOL     OW23707   2.924   1.286  11.741 -0.2029 -0.3618  0.2579
 4083SOL    HW123708   2.993   1.350  11.761 -1.1544  0.0829  2.1984
 4083SOL    HW223709   2.967   1.219  11.689 -3.3366  0.1205 -2.9430
 4084SOL     OW23710   4.304   1.516   7.105  0.2907 -0.0955  0.2015
 4084SOL    HW123711   4.345   1.530   7.020  1.6516 -0.1599  0.8564
 4084SOL    HW223712   4.334   1.426   7.118  0.1400 -0.2179 -0.3052
 4085SOL     OW23713   3.224   3.824  12.042  0.4967  0.1589  0.0827
 4085SOL    HW123714   3.283   3.805  11.969 -0.2718  1.0986 -0.7828
 4085SOL    HW223715   3.144   3.849  11.996 -0.7616 -1.3068  1.4516
 4086SOL     OW23716   3.735   2.854   7.784 -0.7364  0.3705  0.0327
 4086SOL    HW123717   3.647   2.820   7.795 -1.1414  1.9514  1.6215
 4086SOL    HW223718   3.725   2.908   7.705  0.6575  0.6403  0.0414
 4087SOL     OW23719   0.404   1.849  15.751 -0.0014 -0.2217  0.0679
 4087SOL    HW123720   0.341   1.912  15.785 -0.2352 -1.1139  1.2750
 4087SOL    HW223721   0.477   1.871  15.809  0.2061 -1.7794  0.3989
 4088SOL     OW23722   3.724   1.178   0.592  0.4173  0.4654 -0.3699
 4088SOL    HW123723   3.680   1.173   0.677  0.8947 -0.7565 -0.1884
 4088SOL    HW223724   3.689   1.263   0.567  0.2725  0.2578 -0.8659
 4089SOL     OW23725   1.125   4.510   1.724 -0.1089  0.4147 -1.0127
 4089SOL    HW123726   1.056   4.575   1.710 -1.0365 -0.5176 -0.8114
 4089SOL    HW223727   1.092   4.428   1.688  0.4389  0.4569 -1.5985
 4090SOL     OW23728   4.633   0.734   4.919  0.0998 -0.8068  0.3503
 4090SOL    HW123729   4.689   0.683   4.979  2.0973  1.9909  0.8786
 4090SOL    HW223730   4.689   0.808   4.896 -0.9374  0.0855  0.7247
 4091SOL     OW23731   2.444   3.275   8.698  0.5755  0.0553 -0.2598
 4091SOL    HW123732   2.512   3.209   8.712  2.3277  1.9499  0.2453
 4091SOL    HW223733   2.480   3.342   8.756  0.2710  1.2192 -1.4116
 4092SOL     OW23734   0.762   0.074  17.680  0.3175 -0.1785  0.0640
 4092SOL    HW123735   0.785   4.705  17.671  1.8942  0.3591 -1.5365
 4092SOL    HW223736   0.838   0.108  17.632 -0.9226 -0.4857 -2.1361
 4093SOL     OW23737   3.938   4.445   3.405  0.2432 -0.2333  0.0315
 4093SOL    HW123738   3.876   4.424   3.335 -0.3470 -1.0467  0.8030
 4093SOL    HW223739   4.016   4.412   3.361 -0.0434 -1.2397  0.2788
 4094SOL     OW23740   4.123   2.444   6.227 -0.6875 -0.6963  0.1919
 4094SOL    HW123741   4.071   2.407   6.155  0.6101 -1.9543 -0.0966
 4094SOL    HW223742   4.213   2.455   6.197 -1.0535  0.7037 -0.4030
 4095SOL     OW23743   2.896   3.927   3.850  0.5031 -0.1978 -0.3753
 4095SOL    HW123744   2.852   3.946   3.768  0.5929  0.4443 -0.2776
 4095SOL    HW223745   2.914   3.835   3.831  0.8304  0.3132 -2.5459
 4096SOL     OW23746   3.986   0.467   3.077  0.1294  0.1877  0.0445
 4096SOL    HW123747   3.907   0.470   3.023  0.1964 -1.9497 -0.1653
 4096SOL    HW223748   3.935   0.494   3.153 -1.3409  0.9655 -1.2136
 4097SOL     OW23749   2.220   1.983   0.775  0.2185 -1.4060 -0.5197
 4097SOL    HW123750   2.211   1.969   0.680 -0.5907 -0.5837 -0.5605
 4097SOL    HW223751   2.230   1.890   0.795 -0.6930 -1.6125 -1.0012
 4098SOL     OW23752   2.108   3.338   2.432  0.5236 -0.5638  0.2495
 4098SOL    HW123753   2.099   3.433   2.434 -0.8151 -0.6881  0.6071
 4098SOL    HW223754   2.022   3.312   2.399  1.3112 -1.2544 -1.2682
 4099SOL     OW23755   0.526   4.502  16.346 -0.0639  0.1687 -0.5093
 4099SOL    HW123756   0.616   4.487  16.375  0.4876  0.5605 -1.9954
 4099SOL    HW223757   0.509   4.580  16.399 -0.5630 -0.2499 -0.0640
 4100SOL     OW23758   0.459   1.970   5.463  0.4784  0.5196  0.2760
 4100SOL    HW123759   0.430   2.061   5.456  0.2184  0.2976 -1.6628
 4100SOL    HW223760   0.389   1.919   5.422  0.3591  2.0145 -1.3950
 4101SOL     OW23761   4.221   4.149  11.765 -0.0432  0.2406 -0.1495
 4101SOL    HW123762   4.141   4.166  11.814  0.9609  0.7029  1.3633
 4101SOL    HW223763   4.284   4.205  11.812  1.4750 -0.6319 -1.1409
 4102SOL     OW23764   1.596   0.714  12.010 -0.6943 -0.1659  0.5835
 4102SOL    HW123765   1.610   0.619  12.019  4.3453  0.5651  0.1569
 4102SOL    HW223766   1.526   0.725  12.074 -0.2917 -2.1434  1.3861
 4103SOL     OW23767   1.271   0.225  17.048 -0.1082 -0.4648 -0.0844
 4103SOL    HW123768   1.188   0.185  17.072 -0.1739 -0.7425 -0.7869
 4103SOL    HW223769   1.239   0.308  17.011 -0.3217  0.2241  1.6453
 4104SOL     OW23770   2.141   2.173  15.348 -0.4915 -0.2857 -0.2014
 4104SOL    HW123771   2.173   2.156  15.260  1.9051  1.6339  0.3184
 4104SOL    HW223772   2.146   2.269  15.350 -0.0041 -0.3110 -0.3185
 4105SOL     OW23773   2.385   3.432  17.099 -0.0487 -0.1697 -0.3457
 4105SOL    HW123774   2.296   3.429  17.135 -0.5748 -0.3324 -1.6360
 4105SOL    HW223775   2.367   3.449  17.006  0.4854  1.6962 -0.1187
 4106SOL     OW23776   3.052   4.621   3.919 -0.2095 -0.1311  0.2301
 4106SOL    HW123777   3.090   4.543   3.960  0.1199 -0.5141 -0.7942
 4106SOL    HW223778   3.069   4.608   3.825  3.2461 -0.4386  0.8798
 4107SOL     OW23779   3.617   2.550   2.884  0.4837  0.2398 -0.2453
 4107SOL    HW123780   3.609   2.457   2.905 -0.6527  0.6315  1.0329
 4107SOL    HW223781   3.702   2.560   2.928  0.2149 -0.7617  0.4961
 4108SOL     OW23782   2.862   4.668  17.245 -0.0636  0.2243 -0.7673
 4108SOL    HW123783   2.926   4.707  17.186  1.9437 -3.2587 -0.8597
 4108SOL    HW223784   2.801   0.018  17.254 -1.2981 -1.0508  1.1980
 4109SOL     OW23785   1.679   0.505  15.950 -0.0736 -0.0949  0.2334
 4109SOL    HW123786   1.704   0.416  15.971 -2.0535 -1.0723 -1.5134
 4109SOL    HW223787   1.764   0.543  15.971  0.0977 -0.3684  0.0258
 4110SOL     OW23788   3.567   2.790   7.409  0.0755 -0.0237  0.5623
 4110SOL    HW123789   3.632   2.734   7.451  1.4925  2.0268  1.1591
 4110SOL    HW223790   3.541   2.733   7.337  0.8617 -0.5019  0.6571
 4111SOL     OW23791   3.025   1.854   9.268 -0.1449  0.0934  0.2516
 4111SOL    HW123792   3.097   1.866   9.206 -1.3999 -2.7125 -1.7940
 4111SOL    HW223793   2.954   1.856   9.203 -0.2687  1.9671  0.4403
 4112SOL     OW23794   4.421   1.633   4.661  0.4969 -0.1873 -0.5015
 4112SOL    HW123795   4.493   1.579   4.694 -0.9527 -0.6390  1.9605
 4112SOL    HW223796   4.469   1.683   4.596  1.4222 -0.6352 -0.1769
 4113SOL     OW23797   3.339   2.761   7.031  0.0479 -0.0541  0.1979
 4113SOL    HW123798   3.413   2.725   7.080  0.5159  1.4779  0.6158
 4113SOL    HW223799   3.288   2.681   7.021  0.1656 -0.0914 -0.0859
 4114SOL     OW23800   0.787   1.967  17.293 -0.0031 -0.0501  0.2253
 4114SOL    HW123801   0.880   1.989  17.286 -0.3305  1.4090  0.6173
 4114SOL    HW223802   0.766   1.941  17.203 -2.7283  0.7895  0.6364
 4115SOL     OW23803   0.565   0.160   5.565 -0.1059 -0.2738 -0.3992
 4115SOL    HW123804   0.607   0.243   5.539 -1.3790  0.6905  0.6078
 4115SOL    HW223805   0.641   0.102   5.558  0.9175  1.1613 -1.2937
 4116SOL     OW23806   1.583   3.685   8.692  0.2638 -0.0622  0.3627
 4116SOL    HW123807   1.617   3.743   8.624  3.2883 -2.0680  0.1549
 4116SOL    HW223808   1.543   3.614   8.641  0.7108  0.1681 -0.3142
 4117SOL     OW23809   2.011   3.870   4.562  0.0186 -0.2469 -0.2314
 4117SOL    HW123810   2.089   3.877   4.507  0.2322  1.9458  0.3308
 4117SOL    HW223811   1.991   3.964   4.571 -3.5638 -0.9529 -0.8715
 4118SOL     OW23812   4.571   1.707  16.404  0.0360 -0.0022  0.3957
 4118SOL    HW123813   4.503   1.753  16.453  0.1938  0.2186  0.4048
 4118SOL    HW223814   4.565   1.619  16.442 -0.0780  0.3092  1.1008
 4119SOL     OW23815   4.117   4.116   5.794  0.7250 -0.1916  0.2274
 4119SOL    HW123816   4.198   4.066   5.785  1.0457  0.2417  0.6641
 4119SOL    HW223817   4.146   4.175   5.864  2.6324 -1.2244  0.3088
 4120SOL     OW23818   1.599   3.861  10.181  0.4643  0.4201  0.0546
 4120SOL    HW123819   1.682   3.899  10.152  0.6060  0.7349  0.8917
 4120SOL    HW223820   1.553   3.884  10.100 -1.2875 -2.4865  0.1987
 4121SOL     OW23821   0.641   0.326   2.470 -0.1679  0.2157 -0.5206
 4121SOL    HW123822   0.650   0.242   2.513  0.6073  0.0569 -0.9855
 4121SOL    HW223823   0.557   0.305   2.429 -1.8397  4.5374  0.6558
 4122SOL     OW23824   4.405   0.889   3.873  0.2746 -0.0238  0.5704
 4122SOL    HW123825   4.431   0.797   3.872  0.8019  0.1326  0.1052
 4122SOL    HW223826   4.481   0.940   3.848 -1.3091  0.9134 -2.3459
 4123SOL     OW23827   3.505   0.315   6.472 -0.1162 -0.3512  0.2754
 4123SOL    HW123828   3.515   0.333   6.379  1.5312  2.1567  0.9342
 4123SOL    HW223829   3.539   0.226   6.469  0.0747 -0.2285 -1.1489
 4124SOL     OW23830   0.128   0.484  10.809 -0.2299 -0.2831  0.2402
 4124SOL    HW123831   0.215   0.508  10.841 -0.5775  2.8184 -1.0407
 4124SOL    HW223832   0.102   0.533  10.730 -0.7799 -0.4818  0.2968
 4125SOL     OW23833   1.875   4.305   3.902  0.2006  0.0775 -0.2556
 4125SOL    HW123834   1.821   4.357   3.843  1.4417  2.1587  0.4569
 4125SOL    HW223835   1.911   4.381   3.948 -1.8790  0.4726  0.7298
 4126SOL     OW23836   0.862   2.115   5.436 -0.3030  0.2617 -0.6352
 4126SOL    HW123837   0.818   2.200   5.426 -0.9133  0.0033 -0.1279
 4126SOL    HW223838   0.922   2.109   5.362  1.6298  0.1157  0.9750
 4127SOL     OW23839   0.648   1.153   0.931  0.7113 -0.2022 -0.6291
 4127SOL    HW123840   0.566   1.201   0.924 -0.6675 -2.2888  0.9969
 4127SOL    HW223841   0.665   1.180   1.021 -1.4031 -1.3745  0.1300
 4128SOL     OW23842   4.109   1.370   3.329 -0.2644 -0.0709  0.0041
 4128SOL    HW123843   4.034   1.400   3.278 -0.3994 -1.6221 -0.7188
 4128SOL    HW223844   4.087   1.277   3.340  2.0525 -0.3512  2.4636
 4129SOL     OW23845   0.653   1.493   8.910  0.2512  0.0107 -1.1258
 4129SOL    HW123846   0.656   1.502   8.815 -0.2535  0.2217 -1.1208
 4129SOL    HW223847   0.630   1.401   8.921 -3.7861  1.0487 -0.8592
 4130SOL     OW23848   3.291   3.095  16.456 -0.2063  0.2543  0.3284
 4130SOL    HW123849   3.349   3.036  16.503  0.1897  0.9718  0.7394
 4130SOL    HW223850   3.262   3.149  16.530 -0.3368  1.0515 -0.2902
 4131SOL     OW23851   3.022   0.564   3.356 -0.3067  0.3060 -0.0211
 4131SOL    HW123852   3.020   0.529   3.445  0.5144  0.7580  0.1674
 4131SOL    HW223853   3.111   0.599   3.349 -0.8019  1.3695 -1.0156
 4132SOL     OW23854   4.232   3.346   6.892 -0.0224 -1.3278 -0.2813
 4132SOL    HW123855   4.161   3.351   6.956 -0.4567 -1.6473 -0.7298
 4132SOL    HW223856   4.297   3.284   6.924  1.4455  0.6935  0.6507
 4133SOL     OW23857   2.727   3.108   2.611 -0.3624  0.7060 -0.2019
 4133SOL    HW123858   2.673   3.187   2.619 -0.3698  0.7669 -0.8458
 4133SOL    HW223859   2.686   3.041   2.667  1.4144  1.3297  1.8244
 4134SOL     OW23860   4.470   3.930  16.310  0.1594  0.3325  0.2572
 4134SOL    HW123861   4.452   3.850  16.359 -0.8922  1.0472  1.0389
 4134SOL    HW223862   4.564   3.944  16.323  0.2651  0.6339 -0.8919
 4135SOL     OW23863   2.463   3.202   5.578 -0.7021 -0.2729  0.2716
 4135SOL    HW123864   2.385   3.211   5.523 -0.5275 -0.7924 -0.0645
 4135SOL    HW223865   2.530   3.252   5.531  0.8574 -1.3896  1.3159
 4136SOL     OW23866   4.187   1.905   2.706 -0.3726 -0.1411  0.0350
 4136SOL    HW123867   4.145   1.879   2.624  0.2352 -0.2034 -0.2506
 4136SOL    HW223868   4.210   1.819   2.741  2.9420  0.4390 -0.8079
 4137SOL     OW23869   2.230   2.352   4.665  0.5463 -0.2347  0.8777
 4137SOL    HW123870   2.161   2.415   4.642  1.3645 -0.3248 -1.7815
 4137SOL    HW223871   2.229   2.362   4.761  1.1059 -0.6523  0.9290
 4138SOL     OW23872   4.622   1.261   7.818 -0.1219  0.1902  0.3028
 4138SOL    HW123873   4.531   1.237   7.800  0.8016 -0.3029 -3.5893
 4138SOL    HW223874   4.626   1.356   7.812  1.1560 -0.0743 -2.8780
 4139SOL     OW23875   2.207   2.863  11.922 -0.3120  0.0950 -0.2552
 4139SOL    HW123876   2.164   2.857  12.007  3.7374 -0.3067  1.7634
 4139SOL    HW223877   2.271   2.933  11.935 -2.1939  1.7413  0.0629
 4140SOL     OW23878   1.805   3.583   8.301 -0.1050  0.3918 -0.2986
 4140SOL    HW123879   1.746   3.543   8.238 -0.7442 -1.3023  1.3510
 4140SOL    HW223880   1.787   3.533   8.382  3.5794  0.0074  0.2897
 4141SOL     OW23881   3.064   4.436   4.324 -0.3912 -0.1476 -0.2912
 4141SOL    HW123882   3.142   4.490   4.337 -0.0456 -0.8421  0.5861
 4141SOL    HW223883   3.026   4.438   4.412 -2.2902  1.6961 -1.1599
 4142SOL     OW23884   2.836   1.628   6.427 -0.1002  0.3214 -0.0563
 4142SOL    HW123885   2.790   1.553   6.465 -0.3424  0.5040  0.0104
 4142SOL    HW223886   2.923   1.590   6.434  0.0863  0.7102 -0.2698
 4143SOL     OW23887   4.114   0.863  11.890 -0.2839 -0.1351 -0.0589
 4143SOL    HW123888   4.151   0.778  11.913 -0.8149 -0.0837  1.0267
 4143SOL    HW223889   4.193   0.915  11.907  0.5889 -1.1522 -0.9935
 4144SOL     OW23890   2.658   2.092   4.460  0.3364  0.4869  0.1877
 4144SOL    HW123891   2.711   2.140   4.524 -2.0719  0.1578  2.4273
 4144SOL    HW223892   2.622   2.164   4.408 -1.7085  0.6186  1.7748
 4145SOL     OW23893   4.227   2.894   6.373  0.0201  0.5863  0.1140
 4145SOL    HW123894   4.290   2.903   6.302  1.2396  0.6974  1.2150
 4145SOL    HW223895   4.280   2.854   6.441 -1.3525  0.3571  1.0481
 4146SOL     OW23896   1.108   3.038  17.307 -0.5250 -0.6829 -0.7362
 4146SOL    HW123897   1.192   2.992  17.304 -0.1889 -0.0391 -1.1544
 4146SOL    HW223898   1.095   3.057  17.214 -0.2962  1.5541 -0.3166
 4147SOL     OW23899   0.873   3.733   2.582  0.0351 -0.3097 -1.0303
 4147SOL    HW123900   0.858   3.658   2.640  1.6708  1.4471  1.6785
 4147SOL    HW223901   0.853   3.702   2.494 -0.6148 -3.3070  0.1625
 4148SOL     OW23902   3.180   1.508   5.863  0.0609  0.3149  0.1300
 4148SOL    HW123903   3.178   1.603   5.857 -2.0219  0.1238 -2.0698
 4148SOL    HW223904   3.177   1.473   5.774 -2.8190  1.2498 -0.1489
 4149SOL     OW23905   2.236   0.927  15.632  0.1749 -0.3304  0.4201
 4149SOL    HW123906   2.153   0.960  15.665 -0.0201  0.3737 -0.7511
 4149SOL    HW223907   2.282   0.916  15.715  1.0662 -0.0194 -0.0213
 4150SOL     OW23908   3.225   0.505   6.491 -0.4595 -0.3284 -0.3640
 4150SOL    HW123909   3.145   0.453   6.484  0.0817 -1.2183 -0.0781
 4150SOL    HW223910   3.265   0.505   6.404 -0.4264 -2.6853 -0.3446
 4151SOL     OW23911   0.627   3.763   6.436 -0.5698 -0.0202 -0.0822
 4151SOL    HW123912   0.547   3.712   6.417 -0.0745 -0.6461 -0.5017
 4151SOL    HW223913   0.593   3.852   6.433  0.0040  0.2351  1.3005
 4152SOL     OW23914   0.464   3.534   4.530 -0.1394  0.1961  0.3575
 4152SOL    HW123915   0.397   3.599   4.555  0.8678  1.1957  0.4588
 4152SOL    HW223916   0.445   3.465   4.594  0.2087  0.1790  0.4408
 4153SOL     OW23917   1.064   1.748   5.409 -0.0580  0.0782  0.2294
 4153SOL    HW123918   0.976   1.726   5.379  0.2387 -2.7351  1.3685
 4153SOL    HW223919   1.089   1.683   5.474 -0.7970  0.4099  0.8424
 4154SOL     OW23920   0.855   4.203  14.972 -0.7724  1.1327  0.2119
 4154SOL    HW123921   0.934   4.224  15.022  0.1964  3.5165 -2.2942
 4154SOL    HW223922   0.865   4.109  14.956  1.1986  1.4227 -0.3145
 4155SOL     OW23923   1.028   0.894   7.289 -0.3651  0.0441  0.1037
 4155SOL    HW123924   0.970   0.935   7.353 -2.9218  0.8189 -2.7609
 4155SOL    HW223925   1.108   0.945   7.306 -0.1938 -0.1293 -0.1783
 4156SOL     OW23926   4.190   3.957   8.467 -0.2439 -0.1085  0.1959
 4156SOL    HW123927   4.199   3.975   8.373 -0.1152  0.9970  0.4157
 4156SOL    HW223928   4.118   3.895   8.458 -1.4016  1.5244 -1.7865
 4157SOL     OW23929   2.589   0.596   9.075 -0.3147 -0.1055  0.3491
 4157SOL    HW123930   2.631   0.555   9.151 -1.6500  0.5939  1.4708
 4157SOL    HW223931   2.553   0.516   9.039  0.6941 -0.4590  0.1274
 4158SOL     OW23932   1.497   2.284   2.062  0.6602  0.1971 -0.0023
 4158SOL    HW123933   1.459   2.220   2.002  1.8429  0.0239 -0.5660
 4158SOL    HW223934   1.563   2.332   2.012  1.3719 -1.0997 -0.2778
 4159SOL     OW23935   3.988   4.297   6.411  0.3740  0.6880  0.4026
 4159SOL    HW123936   4.078   4.317   6.439  0.7913 -0.8374  0.1431
 4159SOL    HW223937   3.969   4.233   6.480 -0.0222 -0.8647 -1.1550
 4160SOL     OW23938   1.523   2.451  13.391  0.1554  0.0228 -0.3072
 4160SOL    HW123939   1.559   2.406  13.468  0.3721 -1.2145 -1.1412
 4160SOL    HW223940   1.433   2.473  13.413  0.5235  0.8467  0.3774
 4161SOL     OW23941   1.628   4.397   9.165  0.0920 -0.6788  0.8855
 4161SOL    HW123942   1.601   4.487   9.148  0.1469 -0.7174  0.5921
 4161SOL    HW223943   1.594   4.402   9.254  0.1440 -1.2437  0.9397
 4162SOL     OW23944   2.703   3.982   0.516  0.0271  0.2122  0.2513
 4162SOL    HW123945   2.711   3.890   0.540  1.0915  0.7322  1.8759
 4162SOL    HW223946   2.670   4.025   0.595  1.9126  0.5714  0.8374
 4163SOL     OW23947   0.428   4.123   7.478  0.3268 -0.2522  0.1542
 4163SOL    HW123948   0.473   4.090   7.400  0.7616 -2.4697  1.3376
 4163SOL    HW223949   0.408   4.039   7.521  0.4472 -0.4482 -0.1711
 4164SOL     OW23950   3.598   0.967  14.457 -0.0344 -0.3002  0.5828
 4164SOL    HW123951   3.522   1.002  14.505 -0.2633  1.7515 -1.2969
 4164SOL    HW223952   3.666   0.995  14.518 -1.6948 -0.3489  2.4693
 4165SOL     OW23953   4.002   0.254   7.799  0.3373  0.2592  0.2059
 4165SOL    HW123954   3.994   0.162   7.825 -2.6194  0.6821  0.7546
 4165SOL    HW223955   4.059   0.292   7.866 -0.8139  0.4992  1.0406
 4166SOL     OW23956   0.137   1.752  16.418 -0.1073  0.0180  0.2602
 4166SOL    HW123957   0.048   1.716  16.418  0.1723 -0.6429 -2.6962
 4166SOL    HW223958   0.162   1.753  16.511 -0.1620 -2.8455  0.2938
 4167SOL     OW23959   1.760   4.584   6.846  0.2871  0.2166  0.6033
 4167SOL    HW123960   1.812   4.603   6.923 -0.0624  0.3282  0.8098
 4167SOL    HW223961   1.767   4.663   6.793 -0.8386 -1.7888 -2.5793
 4168SOL     OW23962   2.868   1.890   5.497 -0.0098 -0.1884  0.8066
 4168SOL    HW123963   2.805   1.904   5.567 -2.1254 -0.3811 -1.0642
 4168SOL    HW223964   2.820   1.841   5.430  1.7517 -1.9850  0.8454
 4169SOL     OW23965   3.077   3.424   8.155 -0.5379  0.0556 -0.1023
 4169SOL    HW123966   3.010   3.472   8.105  0.2040  1.3083  0.1069
 4169SOL    HW223967   3.159   3.471   8.140  0.9358 -1.0296  4.4729
 4170SOL     OW23968   1.002   3.733   0.283  0.3160 -0.0506  0.2025
 4170SOL    HW123969   1.055   3.704   0.358 -0.1550  0.5765  0.7774
 4170SOL    HW223970   0.943   3.793   0.328 -0.6042 -1.6969  1.1839
 4171SOL     OW23971   0.058   0.312   4.499  0.9685  0.0307  0.0636
 4171SOL    HW123972   0.007   0.367   4.440 -0.4124 -0.8681  0.4201
 4171SOL    HW223973   0.149   0.318   4.469  0.9830  0.8603  0.2724
 4172SOL     OW23974   3.391   1.522   7.649 -0.3651 -0.5601 -0.0122
 4172SOL    HW123975   3.391   1.578   7.572  0.8495 -0.3204  0.1641
 4172SOL    HW223976   3.432   1.448   7.603 -0.3111  0.7198 -2.0049
 4173SOL     OW23977   1.651   0.720   3.878  0.0631 -0.0891  0.6702
 4173SOL    HW123978   1.568   0.763   3.899  1.4186  2.4014  0.8883
 4173SOL    HW223979   1.669   0.681   3.964  0.8733  0.5132  0.7617
 4174SOL     OW23980   1.804   2.578   3.392  0.0537  0.2522  0.3547
 4174SOL    HW123981   1.802   2.648   3.327 -0.8169  1.6785  1.9253
 4174SOL    HW223982   1.892   2.585   3.429  0.6546 -3.0111 -0.4021
 4175SOL     OW23983   2.428   1.359   3.048 -0.0858 -0.2339  0.5520
 4175SOL    HW123984   2.481   1.438   3.041  0.3920 -0.7839 -1.9324
 4175SOL    HW223985   2.344   1.390   3.013 -0.0086  0.0074  0.5753
 4176SOL     OW23986   2.128   3.938  14.402 -0.0518 -0.0731 -0.2460
 4176SOL    HW123987   2.185   3.949  14.326  0.3856  2.6650  0.4549
 4176SOL    HW223988   2.040   3.945  14.364 -0.3193  0.2144  0.4281
 4177SOL     OW23989   2.684   2.212   5.638 -0.3151 -0.2255 -0.1761
 4177SOL    HW123990   2.669   2.165   5.720 -2.3111 -1.0530 -1.0270
 4177SOL    HW223991   2.728   2.291   5.669  1.2393 -0.2823 -2.2510
 4178SOL     OW23992   4.699   3.762   6.946  0.2844 -0.2514  0.0271
 4178SOL    HW123993   0.009   3.777   7.034  0.3793 -1.8432  0.2659
 4178SOL    HW223994   4.604   3.752   6.958  0.0756 -0.9223 -2.2502
 4179SOL     OW23995   3.984   3.554   6.480  0.5935  0.4671 -0.3379
 4179SOL    HW123996   3.959   3.468   6.446  1.5939 -0.4473  1.2356
 4179SOL    HW223997   4.037   3.532   6.556 -0.1108 -2.5202 -0.7000
 4180SOL     OW23998   4.511   3.529   2.196 -0.0030 -0.5157 -0.3486
 4180SOL    HW123999   4.492   3.484   2.278  2.6829 -1.4259 -0.2429
 4180SOL    HW224000   4.534   3.451   2.146 -2.0564 -1.4618  0.1866
 4181SOL     OW24001   3.431   3.253   1.330 -0.1858 -0.2744  0.4082
 4181SOL    HW124002   3.359   3.294   1.283 -0.2134 -0.9892 -0.1683
 4181SOL    HW224003   3.506   3.288   1.281 -0.1124  0.1640  0.8333
 4182SOL     OW24004   0.860   2.906  12.730 -0.0756 -0.0972 -0.5438
 4182SOL    HW124005   0.766   2.910  12.748  0.0383  0.6766 -0.0717
 4182SOL    HW224006   0.900   2.977  12.782  1.8863 -2.7405  1.6036
 4183SOL     OW24007   1.992   1.077   1.876 -0.2272  0.5713  0.0800
 4183SOL    HW124008   2.044   1.158   1.879  0.0517  0.4426 -1.1969
 4183SOL    HW224009   1.917   1.098   1.931 -1.4713  1.1423 -1.8005
 4184SOL     OW24010   2.980   2.941   3.100  0.1017  0.3249 -0.0271
 4184SOL    HW124011   2.948   3.031   3.100  1.3469  0.7677 -0.3494
 4184SOL    HW224012   3.065   2.948   3.057  0.0758 -1.2163 -0.3548
 4185SOL     OW24013   4.644   1.318   7.406  0.1881  0.3010 -0.3132
 4185SOL    HW124014   4.635   1.366   7.324  2.2997 -0.9367 -1.2727
 4185SOL    HW224015   4.562   1.338   7.452  0.2071 -0.4164  0.0334
 4186SOL     OW24016   4.175   4.699   0.827 -0.0703 -0.2951  0.3417
 4186SOL    HW124017   4.105   0.036   0.801  0.8318  0.7703  0.3921
 4186SOL    HW224018   4.243   0.042   0.819 -0.6495  0.4519  1.5448
 4187SOL     OW24019   0.442   3.957   4.865  0.1865 -0.0978  0.1900
 4187SOL    HW124020   0.437   3.993   4.953 -2.9885  0.6619 -0.2963
 4187SOL    HW224021   0.423   4.034   4.810  1.1384 -0.7563 -1.0528
 4188SOL     OW24022   0.235   1.564  13.758  0.1534  0.0553  0.0989
 4188SOL    HW124023   0.264   1.536  13.845 -2.1844  0.2644  0.9382
 4188SOL    HW224024   0.140   1.565  13.768  0.0166 -0.7211 -1.0697
 4189SOL     OW24025   2.334   0.807   5.669  0.3758  0.0795 -0.5429
 4189SOL    HW124026   2.292   0.892   5.656  1.0065  0.3128 -1.0533
 4189SOL    HW224027   2.317   0.773   5.582  1.4515 -1.1804 -0.2616
 4190SOL     OW24028   0.423   2.713  17.207 -0.0576  0.5961  0.3695
 4190SOL    HW124029   0.436   2.793  17.258 -0.1662  0.1537  1.1055
 4190SOL    HW224030   0.339   2.727  17.163 -1.1282  1.0519  2.5453
 4191SOL     OW24031   2.311   0.521   7.446  0.1470  0.6713 -0.2786
 4191SOL    HW124032   2.224   0.515   7.407 -0.1951 -0.2275  0.6145
 4191SOL    HW224033   2.377   0.479   7.390 -0.8987  0.3201 -1.2509
 4192SOL     OW24034   0.108   2.674  11.913 -0.3709  0.1533 -0.0500
 4192SOL    HW124035   0.042   2.723  11.863 -1.7233  0.7596  2.3494
 4192SOL    HW224036   0.068   2.588  11.920 -3.0933  1.2090 -2.0854
 4193SOL     OW24037   0.074   1.879   3.823  0.2715 -0.4568  0.4379
 4193SOL    HW124038   0.117   1.803   3.782  0.1281 -0.6997  0.7432
 4193SOL    HW224039   0.087   1.934   3.745 -0.0408 -0.0762  0.6563
 4194SOL     OW24040   0.852   3.258  16.741  0.1606  0.2401 -0.2631
 4194SOL    HW124041   0.939   3.296  16.730  1.0245 -2.2623 -1.9801
 4194SOL    HW224042   0.871   3.180  16.690 -0.4302  0.6191 -1.0720
 4195SOL     OW24043   3.850   4.405   3.141 -0.1013 -0.6253 -0.5292
 4195SOL    HW124044   3.936   4.419   3.103 -0.7403  2.8988 -0.6389
 4195SOL    HW224045   3.799   4.429   3.064 -2.2731 -0.8765  0.8245
 4196SOL     OW24046   0.104   1.096   6.845  0.2766  0.1096  0.6016
 4196SOL    HW124047   0.094   1.002   6.828 -0.5117  0.2438  0.3200
 4196SOL    HW224048   0.195   1.087   6.872  0.5668 -0.0828 -0.4145
 4197SOL     OW24049   0.384   1.454  13.538  0.1241 -0.3278 -0.6119
 4197SOL    HW124050   0.388   1.370  13.583 -0.4517 -1.2381 -2.2619
 4197SOL    HW224051   0.355   1.502  13.616 -0.2076 -0.0519 -0.9099
 4198SOL     OW24052   0.950   4.202   4.177 -0.1869 -0.1189 -1.0853
 4198SOL    HW124053   0.986   4.148   4.246 -0.7522 -3.5270 -3.4645
 4198SOL    HW224054   0.899   4.267   4.225 -1.0722 -1.4458 -0.2467
 4199SOL     OW24055   0.306   4.722   3.303  0.0289 -0.2625  0.2220
 4199SOL    HW124056   0.399   4.699   3.298  0.6703  2.6891 -1.5028
 4199SOL    HW224057   0.268   4.684   3.224  0.1259  0.8579 -0.3614
 4200SOL     OW24058   1.327   3.307  10.974  0.2949 -0.0935  0.2249
 4200SOL    HW124059   1.265   3.334  10.907  2.3152  0.8493 -1.2715
 4200SOL    HW224060   1.399   3.363  10.944 -0.5062  0.2555 -1.0195
 4201SOL     OW24061   0.903   2.476   8.332 -0.4886 -0.1887 -0.1013
 4201SOL    HW124062   0.888   2.428   8.413 -0.0494  2.2125  1.4204
 4201SOL    HW224063   0.999   2.479   8.338 -0.4045 -1.9608 -0.5752
 4202SOL     OW24064   3.568   3.450   2.613 -0.0327 -0.6800 -0.2082
 4202SOL    HW124065   3.526   3.364   2.600 -1.1271  0.3410 -3.4096
 4202SOL    HW224066   3.564   3.492   2.527 -0.7334 -0.6141 -0.1460
 4203SOL     OW24067   0.118   2.645   5.265  0.1444  0.0012 -0.1112
 4203SOL    HW124068   0.104   2.569   5.208 -0.4537  0.6212 -0.7847
 4203SOL    HW224069   0.213   2.647   5.278 -0.1080  0.1828  1.7001
 4204SOL     OW24070   1.687   0.042   8.122  0.1550 -0.1188  0.9016
 4204SOL    HW124071   1.748   0.099   8.170  0.6241 -1.2079  1.6057
 4204SOL    HW224072   1.608   0.071   8.167 -1.5162 -0.2450 -1.9144
 4205SOL     OW24073   1.730   3.162   8.104 -0.4157 -0.0284 -0.0323
 4205SOL    HW124074   1.744   3.142   8.196  1.7270 -0.7173 -0.5115
 4205SOL    HW224075   1.799   3.224   8.079 -1.2541  0.2875 -1.5769
 4206SOL     OW24076   1.293   2.863  17.327 -0.0336  0.8601  0.3102
 4206SOL    HW124077   1.381   2.847  17.295  0.2345 -1.3230  2.1524
 4206SOL    HW224078   1.241   2.794  17.287  3.5240 -2.2568  1.1334
 4207SOL     OW24079   1.496   2.975   5.304  0.7744  0.4958  0.0641
 4207SOL    HW124080   1.423   2.986   5.243  1.5172 -0.0232 -0.9163
 4207SOL    HW224081   1.574   2.959   5.251  0.6832  1.7729 -0.4553
 4208SOL     OW24082   2.716   4.536   5.560 -0.1369 -0.2802 -0.8352
 4208SOL    HW124083   2.678   4.490   5.636 -0.3997 -1.6956 -1.8189
 4208SOL    HW224084   2.798   4.571   5.595  0.1936 -0.1210 -1.7797
 4209SOL     OW24085   0.282   4.197   9.034  0.5725  0.7168 -0.1456
 4209SOL    HW124086   0.279   4.111   9.075  1.5051  1.1521  0.8605
 4209SOL    HW224087   0.307   4.174   8.945 -0.4383 -0.2993 -0.1626
 4210SOL     OW24088   3.767   3.114   4.280  0.6912 -1.1208  0.2871
 4210SOL    HW124089   3.710   3.098   4.355 -0.8352 -1.9204 -1.0469
 4210SOL    HW224090   3.769   3.210   4.276  2.8158 -1.1476  0.7452
 4211SOL     OW24091   4.389   2.908   5.504 -0.1725  0.7885  0.3182
 4211SOL    HW124092   4.309   2.886   5.551  0.0526  2.4338  1.4818
 4211SOL    HW224093   4.350   2.913   5.417  0.1966 -1.2454  0.0511
 4212SOL     OW24094   1.246   3.138   4.210 -0.6512 -0.4913  0.4167
 4212SOL    HW124095   1.203   3.121   4.293 -1.6646 -1.9681 -0.4136
 4212SOL    HW224096   1.247   3.233   4.220 -2.4073 -0.6016  1.5321
 4213SOL     OW24097   1.747   4.524   5.748  0.4851 -0.3508 -0.1717
 4213SOL    HW124098   1.702   4.609   5.754 -0.3429 -0.8237  0.2177
 4213SOL    HW224099   1.776   4.544   5.659 -0.9434  0.6745 -0.4124
 4214SOL     OW24100   0.629   3.926   8.210 -1.1331 -0.0354  0.5860
 4214SOL    HW124101   0.632   3.942   8.305  0.8296  0.2912  0.4730
 4214SOL    HW224102   0.707   3.978   8.191 -1.5140  0.8637  1.4398
 4215SOL     OW24103   0.263   1.079   7.770  0.0219  0.0434 -0.5096
 4215SOL    HW124104   0.312   1.041   7.843  0.9706 -0.2192 -1.2815
 4215SOL    HW224105   0.197   1.118   7.828  1.0669 -0.0938  0.7811
 4216SOL     OW24106   0.860   0.154  10.645  0.0871 -0.8209 -0.0128
 4216SOL    HW124107   0.792   0.145  10.712  0.2020 -1.2063  0.0527
 4216SOL    HW224108   0.925   0.205  10.694 -0.9908 -0.3673  0.9633
 4217SOL     OW24109   4.482   0.608  10.794  0.4260  0.2024  0.3800
 4217SOL    HW124110   4.401   0.643  10.759  0.1260  0.1860  1.0590
 4217SOL    HW224111   4.493   0.535  10.733 -3.7739  0.6651 -0.8967
 4218SOL     OW24112   0.806   4.686   3.538 -0.2540  0.8603 -0.7008
 4218SOL    HW124113   0.888   4.698   3.489 -0.2392 -0.3076 -0.9817
 4218SOL    HW224114   0.825   0.019   3.613 -0.8201 -0.4965  0.4584
 4219SOL     OW24115   1.840   2.270   7.569  0.7791  0.0701  0.3426
 4219SOL    HW124116   1.749   2.300   7.558  0.9961  1.9190  3.6728
 4219SOL    HW224117   1.855   2.263   7.474 -2.9901 -2.6311 -0.0536
 4220SOL     OW24118   3.357   3.674   6.738  0.0300 -0.2704  0.0851
 4220SOL    HW124119   3.322   3.684   6.827 -2.7804 -2.5499 -0.7686
 4220SOL    HW224120   3.318   3.593   6.705 -0.3863 -1.2295  2.9746
 4221SOL     OW24121   0.549   2.651   7.471 -0.0016 -0.5125 -0.0512
 4221SOL    HW124122   0.504   2.731   7.498  2.4318  0.2455  1.8051
 4221SOL    HW224123   0.639   2.671   7.500 -0.0692  0.0483 -0.2205
 4222SOL     OW24124   1.291   3.035   6.731  0.0898  0.2193  0.2619
 4222SOL    HW124125   1.314   3.014   6.641 -1.4550  1.0376 -0.3258
 4222SOL    HW224126   1.253   2.952   6.761  1.4004 -0.6047 -0.3520
 4223SOL     OW24127   3.467   2.126   9.049 -0.1186 -0.0779  0.2073
 4223SOL    HW124128   3.549   2.124   8.998 -1.4167 -0.0015 -1.8992
 4223SOL    HW224129   3.493   2.139   9.140  0.7034 -2.2294  0.2927
 4224SOL     OW24130   1.631   2.701   9.105 -0.5333  0.1582 -0.7266
 4224SOL    HW124131   1.552   2.728   9.152 -0.5218 -0.0170 -0.6040
 4224SOL    HW224132   1.621   2.606   9.099  1.9603 -0.1689  0.5217
 4225SOL     OW24133   2.349   4.561  13.736  0.1115  0.4634 -0.2212
 4225SOL    HW124134   2.290   4.629  13.704  1.4065  1.4254 -0.5812
 4225SOL    HW224135   2.312   4.545  13.823 -2.2999 -0.7858 -1.4759
 4226SOL     OW24136   1.492   2.520   5.087 -0.3203  0.5836  0.2101
 4226SOL    HW124137   1.517   2.453   5.023 -0.4286  0.9216 -0.1814
 4226SOL    HW224138   1.572   2.571   5.079  1.3923 -2.1888 -0.3257
 4227SOL     OW24139   4.642   1.034   2.313 -0.3002  0.2762  0.0684
 4227SOL    HW124140   4.691   1.106   2.354 -0.7662  0.2711  0.6278
 4227SOL    HW224141   4.593   1.071   2.239 -0.9372  1.1354  0.9092
 4228SOL     OW24142   1.825   4.080   2.484  0.2166 -0.6742 -0.2160
 4228SOL    HW124143   1.880   4.039   2.417 -0.4025  0.3238 -1.3443
 4228SOL    HW224144   1.819   4.167   2.445 -0.0892 -0.7394 -0.3106
 4229SOL     OW24145   2.620   2.332   9.295 -0.6391 -0.1905 -0.2313
 4229SOL    HW124146   2.654   2.293   9.376  1.4698  0.5907 -0.7324
 4229SOL    HW224147   2.554   2.272   9.260  0.6617 -1.3655 -0.6635
 4230SOL     OW24148   0.038   1.092   2.679  0.2416  0.3288  0.0491
 4230SOL    HW124149   4.715   1.172   2.652 -2.4855 -1.6067 -0.9922
 4230SOL    HW224150   0.107   1.081   2.614  2.2143  0.1467  2.1883
 4231SOL     OW24151   2.035   4.592  12.292  0.1867  0.1761  0.2306
 4231SOL    HW124152   2.082   4.520  12.334  3.6322  1.3901 -1.5701
 4231SOL    HW224153   1.951   4.547  12.277  0.1203  0.8139 -1.2690
 4232SOL     OW24154   1.266   4.461   7.083 -0.0149  0.0601 -0.5136
 4232SOL    HW124155   1.247   4.446   6.990 -2.0955  1.3071 -0.2643
 4232SOL    HW224156   1.285   4.376   7.124  1.2482  1.3959  1.6803
 4233SOL     OW24157   2.134   3.760   6.964 -0.2465 -0.1032 -0.0004
 4233SOL    HW124158   2.137   3.794   7.054 -2.1190  0.7517 -0.2656
 4233SOL    HW224159   2.112   3.668   6.983 -2.0289  0.3697  0.2430
 4234SOL     OW24160   1.693   3.150  13.203  0.3831  0.3224  0.0103
 4234SOL    HW124161   1.658   3.171  13.289 -0.2451 -1.2656  0.1520
 4234SOL    HW224162   1.644   3.070  13.185  1.6825 -0.6003  0.6119
 4235SOL     OW24163   3.109   2.881   8.473 -0.0327 -0.1703  0.2849
 4235SOL    HW124164   3.095   2.976   8.475  0.5806 -0.0716 -0.0346
 4235SOL    HW224165   3.203   2.876   8.457 -0.2856 -0.2487 -1.1515
 4236SOL     OW24166   1.102   2.235   8.407 -0.0298 -0.1219  0.8805
 4236SOL    HW124167   1.174   2.243   8.469 -1.1439  1.7979  1.9168
 4236SOL    HW224168   1.148   2.186   8.339  1.6132  0.1689  1.7736
 4237SOL     OW24169   0.999   2.580   3.540 -0.3544  0.1382 -0.2054
 4237SOL    HW124170   0.960   2.665   3.562 -1.2505 -0.1412 -0.7236
 4237SOL    HW224171   1.091   2.602   3.550 -0.6056  0.6361  0.9210
 4238SOL     OW24172   0.974   2.885   5.678 -0.4322  0.1510 -0.5272
 4238SOL    HW124173   1.048   2.926   5.632  0.4662 -0.1047  0.6843
 4238SOL    HW224174   0.894   2.881   5.626 -1.8928  0.5140  1.7354
 4239SOL     OW24175   1.424   0.178  11.821 -0.1257 -0.2359 -0.3035
 4239SOL    HW124176   1.362   0.229  11.769  0.1113  0.5940  0.2271
 4239SOL    HW224177   1.368   0.113  11.863 -1.5481 -0.6099 -2.7669
 4240SOL     OW24178   3.424   2.655  12.114  0.7568  0.1558 -0.5776
 4240SOL    HW124179   3.392   2.633  12.027  3.6763  0.3687 -1.6889
 4240SOL    HW224180   3.349   2.632  12.169  0.0813 -1.1633 -2.0749
 4241SOL     OW24181   4.428   3.152   6.945 -0.3388  0.2584  0.2716
 4241SOL    HW124182   4.432   3.094   6.869 -1.7850  0.5217 -0.0002
 4241SOL    HW224183   4.478   3.228   6.916  1.2715 -0.0372  2.2668
 4242SOL     OW24184   0.194   1.752   3.591  0.0735  0.3750  0.1106
 4242SOL    HW124185   0.203   1.782   3.501 -0.1224 -2.9799 -1.0226
 4242SOL    HW224186   0.281   1.772   3.626 -0.8844  2.2606  1.4304
 4243SOL     OW24187   1.325   4.716   0.232  0.0161 -0.2013 -0.0394
 4243SOL    HW124188   1.364   4.630   0.216  1.8523  0.6616 -0.2936
 4243SOL    HW224189   1.382   0.039   0.169  1.2349 -0.5378  0.8169
 4244SOL     OW24190   4.663   2.709  17.275 -0.1915  0.2996 -0.1332
 4244SOL    HW124191   4.659   2.779  17.340  0.9801 -1.5624  1.9736
 4244SOL    HW224192   4.570   2.693  17.264  0.1736 -1.8856 -0.0893
 4245SOL     OW24193   0.397   2.162  11.832  0.1748 -0.3688 -0.1214
 4245SOL    HW124194   0.472   2.221  11.823  1.4642 -2.2115 -1.5412
 4245SOL    HW224195   0.360   2.159  11.744 -1.3754  0.5690  0.4956
 4246SOL     OW24196   2.348   0.020   1.287 -0.1710 -0.0456 -0.7158
 4246SOL    HW124197   2.279   4.679   1.303  1.7474 -1.3158  2.6936
 4246SOL    HW224198   2.418   4.706   1.342 -1.6530 -0.8674  0.5934
 4247SOL     OW24199   0.626   4.632  10.426  0.2501 -0.3267 -0.4843
 4247SOL    HW124200   0.719   4.620  10.411  0.3131  0.5417 -0.7668
 4247SOL    HW224201   0.617   0.001  10.446  0.0588 -0.6152  0.8025
 4248SOL     OW24202   4.431   3.266  17.554  0.3976 -0.7640 -0.1315
 4248SOL    HW124203   4.455   3.187  17.506  2.8588  0.8761 -1.5908
 4248SOL    HW224204   4.405   3.224  17.636 -1.2068  0.4614 -0.0180
 4249SOL     OW24205   1.699   2.539  10.317 -0.2997  0.1136 -0.3161
 4249SOL    HW124206   1.702   2.618  10.264 -1.0461  2.0175  2.5287
 4249SOL    HW224207   1.711   2.572  10.406 -0.2951  1.6448 -0.8903
 4250SOL     OW24208   4.201   4.354   2.592 -0.7602  0.4243 -0.1037
 4250SOL    HW124209   4.246   4.438   2.609 -1.2071  0.0332  3.1189
 4250SOL    HW224210   4.181   4.350   2.499  1.8446  1.9657 -0.7400
 4251SOL     OW24211   3.624   4.258   2.920  0.5437 -0.1452  0.1197
 4251SOL    HW124212   3.683   4.322   2.880  0.7789  0.5757  1.6069
 4251SOL    HW224213   3.667   4.176   2.896 -0.3948 -0.2216 -1.2755
 4252SOL     OW24214   4.158   0.296  11.361 -0.3370 -0.3238  0.2625
 4252SOL    HW124215   4.074   0.249  11.361 -1.1345  1.0926  2.3142
 4252SOL    HW224216   4.139   0.339  11.278  2.1386  0.2697  0.0044
 4253SOL     OW24217   2.860   2.094   7.127 -0.3736 -0.2231  0.0803
 4253SOL    HW124218   2.813   2.026   7.176  1.1629  0.0880  1.9835
 4253SOL    HW224219   2.839   2.079   7.035  3.0393 -0.6805 -0.6277
 4254SOL     OW24220   2.614   4.387   4.017 -0.5902 -0.4857  0.2400
 4254SOL    HW124221   2.532   4.341   3.997 -0.9904  0.1756  0.3738
 4254SOL    HW224222   2.673   4.317   4.044 -0.1438 -0.0699  0.3336
 4255SOL     OW24223   1.771   0.650   6.062  0.1873  0.3912 -0.5721
 4255SOL    HW124224   1.820   0.652   6.144  1.3849 -1.5652 -1.2281
 4255SOL    HW224225   1.834   0.607   6.003  1.9729  0.3241  1.3946
 4256SOL     OW24226   2.072   3.443   7.519  0.4790  0.0440  0.1458
 4256SOL    HW124227   2.157   3.485   7.503  1.0244  0.0962  3.1590
 4256SOL    HW224228   2.065   3.376   7.451 -3.0397  1.3493 -0.8382
 4257SOL     OW24229   3.309   4.553  15.416 -0.5062 -0.2694  0.7241
 4257SOL    HW124230   3.334   4.584  15.329 -1.1245 -0.2178  0.5637
 4257SOL    HW224231   3.361   4.473  15.411  0.8952  0.5946  1.2150
 4258SOL     OW24232   0.457   4.465   8.213  0.3454  0.0470 -0.4342
 4258SOL    HW124233   0.449   4.531   8.282  1.9093 -0.9557  0.7160
 4258SOL    HW224234   0.548   4.473   8.185  0.1342 -2.5305 -1.8317
 4259SOL     OW24235   1.485   1.576   3.079 -0.9300  0.7967 -0.6845
 4259SOL    HW124236   1.539   1.577   3.158 -2.5118  2.5739  0.3663
 4259SOL    HW224237   1.396   1.585   3.114 -0.3038 -0.4800  1.1749
 4260SOL     OW24238   0.647   4.528   2.358  0.5044 -0.0346 -0.3326
 4260SOL    HW124239   0.733   4.489   2.341  0.5048  0.0298 -0.4797
 4260SOL    HW224240   0.607   4.500   2.276  0.8311 -0.0708 -0.4799
 4261SOL     OW24241   0.794   2.557  10.486  0.1892  0.0923  0.0277
 4261SOL    HW124242   0.728   2.606  10.436 -1.9311 -1.8866  0.8858
 4261SOL    HW224243   0.750   2.472  10.492 -0.4017  0.3577 -0.4907
 4262SOL     OW24244   4.276   3.636   4.072 -0.2843  0.3808  0.2644
 4262SOL    HW124245   4.249   3.608   4.159  0.7484  0.3339  0.5778
 4262SOL    HW224246   4.240   3.724   4.066  0.4032  0.7785  1.9256
 4263SOL     OW24247   3.253   1.032   2.556 -0.7741 -0.2258 -0.2093
 4263SOL    HW124248   3.263   1.118   2.516 -0.2441 -0.6079 -0.8994
 4263SOL    HW224249   3.177   1.010   2.502 -1.0174 -0.9861  0.4320
 4264SOL     OW24250   3.496   3.516   3.786  0.6009  0.0704 -0.0806
 4264SOL    HW124251   3.513   3.534   3.879 -0.5888 -0.0423  0.1563
 4264SOL    HW224252   3.407   3.481   3.789 -0.0730  1.7436 -0.5200
 4265SOL     OW24253   0.118   0.812   2.990  0.3734  0.5561 -0.3771
 4265SOL    HW124254   0.116   0.729   2.942  3.3408  0.3507 -0.1498
 4265SOL    HW224255   0.144   0.786   3.078  0.7842  0.0344 -0.6527
 4266SOL     OW24256   4.125   3.969  16.285 -0.5386  0.7953 -0.4066
 4266SOL    HW124257   4.155   3.899  16.342  0.6020 -1.2867 -3.5465
 4266SOL    HW224258   4.030   3.964  16.277 -0.4188 -0.6517 -0.9226
 4267SOL     OW24259   3.370   1.546  12.541  0.3379  0.0779  0.4268
 4267SOL    HW124260   3.340   1.484  12.474  0.4171 -0.4356  0.8685
 4267SOL    HW224261   3.313   1.620  12.522 -1.3138 -1.4605 -0.5606
 4268SOL     OW24262   4.560   4.193   5.308  0.5170  0.4877  0.5388
 4268SOL    HW124263   4.585   4.104   5.287  1.4423  1.0120 -0.5604
 4268SOL    HW224264   4.639   4.245   5.294 -1.0313  2.0955 -2.3255
 4269SOL     OW24265   3.441   1.470  14.017  0.4991 -1.0086  0.2135
 4269SOL    HW124266   3.445   1.453  14.111 -0.1277 -0.8323  0.2709
 4269SOL    HW224267   3.466   1.381  13.991 -0.4244 -1.0718 -0.4895
 4270SOL     OW24268   4.264   2.586   8.386 -0.8040 -0.1996  0.1669
 4270SOL    HW124269   4.266   2.521   8.456 -0.8996  1.9758  2.1565
 4270SOL    HW224270   4.274   2.671   8.427  0.0237  0.2830 -1.0054
 4271SOL     OW24271   0.705   3.176   7.310 -0.9991 -0.3310  0.4917
 4271SOL    HW124272   0.637   3.167   7.243 -0.0033 -0.5929 -0.4915
 4271SOL    HW224273   0.740   3.266   7.308 -1.6270 -0.0995 -0.1455
 4272SOL     OW24274   0.017   3.327   2.574  0.0685  0.4982  0.2090
 4272SOL    HW124275   4.661   3.282   2.604  1.3316 -0.9861  1.3078
 4272SOL    HW224276   0.087   3.263   2.585 -1.8088 -1.7484 -1.0552
 4273SOL     OW24277   4.480   2.799   1.727 -0.4211 -0.2538  0.3745
 4273SOL    HW124278   4.493   2.728   1.789  0.9228  1.3839  1.9522
 4273SOL    HW224279   4.508   2.763   1.643 -0.7642  1.5230 -0.5149
 4274SOL     OW24280   2.533   0.959   4.747 -0.0546  0.1733 -0.4072
 4274SOL    HW124281   2.498   1.038   4.705  1.3869  1.3744  0.6577
 4274SOL    HW224282   2.521   0.897   4.675 -2.9269  1.4521 -1.0332
 4275SOL     OW24283   2.165   2.115   4.529 -0.0580  0.1084  0.1935
 4275SOL    HW124284   2.195   2.192   4.578 -0.8616  0.1621  0.6033
 4275SOL    HW224285   2.096   2.076   4.583 -0.5355 -1.0758 -1.2665
 4276SOL     OW24286   3.365   3.068   3.703  0.1161 -0.1341  0.5928
 4276SOL    HW124287   3.271   3.079   3.696  0.4349  1.6709 -0.7261
 4276SOL    HW224288   3.385   3.096   3.792 -1.1633 -0.9258  1.1243
 4277SOL     OW24289   2.724   3.546   2.606 -0.1933 -0.0951 -1.1452
 4277SOL    HW124290   2.751   3.636   2.586 -0.9664  0.2133 -0.7852
 4277SOL    HW224291   2.675   3.571   2.684  1.8746  1.1030 -0.2236
 4278SOL     OW24292   2.906   0.197  14.158  0.3926 -0.3503 -0.7520
 4278SOL    HW124293   2.960   0.273  14.139  0.6457 -0.2094  0.5518
 4278SOL    HW224294   2.827   0.237  14.193  1.5456 -1.1640  2.8381
 4279SOL     OW24295   2.799   0.478   7.336 -0.2165  0.2665  0.1779
 4279SOL    HW124296   2.831   0.535   7.266  1.3656  1.8744  2.2058
 4279SOL    HW224297   2.709   0.451   7.317 -0.1003 -0.5465  0.8278
 4280SOL     OW24298   1.851   1.796  13.604 -0.0074 -0.4060  0.4934
 4280SOL    HW124299   1.877   1.751  13.524 -1.8620 -1.7285  0.6127
 4280SOL    HW224300   1.756   1.788  13.592 -0.4164  1.9783  2.1356
 4281SOL     OW24301   1.313   0.726  13.500 -0.0621 -0.0815 -0.4283
 4281SOL    HW124302   1.391   0.710  13.447 -1.0427  0.6382 -2.0883
 4281SOL    HW224303   1.268   0.795  13.451 -0.2646  0.6812  0.8319
 4282SOL     OW24304   1.980   1.206   2.437  0.3403  0.1741 -0.1351
 4282SOL    HW124305   2.005   1.203   2.345 -0.3674  0.8884 -0.3509
 4282SOL    HW224306   1.884   1.212   2.431  0.2173 -0.2080  1.3826
 4283SOL     OW24307   4.546   2.544   0.731  0.1225  0.4500 -0.0585
 4283SOL    HW124308   4.515   2.485   0.664 -1.5954 -2.4848  3.3168
 4283SOL    HW224309   4.563   2.622   0.678 -1.2342  1.7959  1.4761
 4284SOL     OW24310   3.126   3.819  13.962 -0.2861  0.0144  0.0937
 4284SOL    HW124311   3.094   3.907  13.944 -0.0680 -0.2767 -1.7447
 4284SOL    HW224312   3.119   3.831  14.057  1.1890 -2.5110  0.5269
 4285SOL     OW24313   2.417   4.198   4.658 -0.0578  0.0356 -0.1059
 4285SOL    HW124314   2.400   4.262   4.727  2.6770 -1.7418  2.2245
 4285SOL    HW224315   2.432   4.243   4.575 -3.0212  0.5036 -0.3760
 4286SOL     OW24316   3.695   2.649  17.546 -0.0966  0.1377  0.7295
 4286SOL    HW124317   3.748   2.617  17.619 -1.2038 -3.0458  0.1695
 4286SOL    HW224318   3.657   2.565  17.521 -2.5193  0.8491  1.9104
 4287SOL     OW24319   1.672   3.978   2.725  0.2823 -0.0113  0.0739
 4287SOL    HW124320   1.694   4.017   2.640 -1.6914 -0.3615 -0.5907
 4287SOL    HW224321   1.588   3.938   2.706 -0.0940  2.1103 -2.7291
 4288SOL     OW24322   3.314   2.885   4.197  0.0883  0.0237  0.6834
 4288SOL    HW124323   3.297   2.907   4.289  0.0416 -0.8158  0.8745
 4288SOL    HW224324   3.402   2.855   4.215  0.9929  1.8468 -0.6970
 4289SOL     OW24325   1.251   3.980   5.319  0.1810  0.7458  0.2983
 4289SOL    HW124326   1.219   4.004   5.406  0.2755 -0.5498  0.6794
 4289SOL    HW224327   1.318   4.043   5.291  0.1542  1.5681  2.1286
 4290SOL     OW24328   1.803   1.754  12.326  0.2960  0.7455  0.0605
 4290SOL    HW124329   1.856   1.736  12.403 -0.4325  0.8365  0.5853
 4290SOL    HW224330   1.751   1.831  12.347 -0.0685  0.6930 -0.6646
 4291SOL     OW24331   2.304   4.321  10.611  0.1849  0.5609  0.5733
 4291SOL    HW124332   2.342   4.339  10.697  1.1519 -2.5638  0.7827
 4291SOL    HW224333   2.209   4.328  10.625  0.2492 -0.0702  1.2961
 4292SOL     OW24334   3.885   0.046   1.039  0.1183  0.2178 -0.0422
 4292SOL    HW124335   3.959   0.048   1.100 -1.8702 -2.7567  2.4109
 4292SOL    HW224336   3.809   0.031   1.095  0.4419  0.2269  0.3997
 4293SOL     OW24337   0.005   1.545   3.500  0.2779 -0.0110 -0.0658
 4293SOL    HW124338   0.031   1.522   3.411  2.0421  2.0195 -0.0638
 4293SOL    HW224339   0.061   1.620   3.522  0.0611  0.3852 -0.8700
 4294SOL     OW24340   3.900   3.814  15.133 -0.4047  0.3572 -0.0069
 4294SOL    HW124341   3.927   3.805  15.041  0.9920  0.0588  0.4288
 4294SOL    HW224342   3.967   3.872  15.169  1.3647 -0.3313 -2.1511
 4295SOL     OW24343   3.233   1.102   9.564  0.2215 -0.0075  0.9803
 4295SOL    HW124344   3.244   1.192   9.533  0.0728 -0.5439 -0.6502
 4295SOL    HW224345   3.210   1.111   9.656  2.1893 -1.6426  1.6373
 4296SOL     OW24346   1.768   4.108   7.514  0.5456 -0.1424 -0.2840
 4296SOL    HW124347   1.744   4.059   7.593 -0.8735  2.7678  1.0991
 4296SOL    HW224348   1.839   4.049   7.491  0.6625  0.9299 -2.7271
 4297SOL     OW24349   0.114   3.945   7.414 -0.2004  0.0081 -0.0507
 4297SOL    HW124350   0.140   3.938   7.506  0.0395  2.5059  0.0892
 4297SOL    HW224351   0.123   4.040   7.407 -1.8217  0.0143 -2.2213
 4298SOL     OW24352   4.003   2.108   2.799 -0.7965  0.1691 -0.0202
 4298SOL    HW124353   4.063   2.036   2.781 -0.8233 -0.0815  0.8762
 4298SOL    HW224354   4.012   2.127   2.893 -0.3320 -3.1293  0.5911
 4299SOL     OW24355   1.954   2.907   8.958 -0.5222  0.0916 -0.0019
 4299SOL    HW124356   1.928   2.910   9.050  0.1092 -1.9781  0.2407
 4299SOL    HW224357   1.894   2.973   8.923  0.3340  1.3255  0.8706
 4300SOL     OW24358   4.235   2.707  15.796  0.1206  0.1159 -0.0902
 4300SOL    HW124359   4.236   2.797  15.830 -3.6355  0.2058 -0.2162
 4300SOL    HW224360   4.315   2.691  15.746 -1.5106 -1.1149 -2.3011
 4301SOL     OW24361   1.017   2.837  15.074 -0.3577  0.4245 -0.0641
 4301SOL    HW124362   1.088   2.876  15.024  0.7687 -0.5066  0.7845
 4301SOL    HW224363   0.950   2.837  15.006 -0.5947 -0.2619  0.1657
 4302SOL     OW24364   4.026   0.315  14.059  0.0718  0.0257 -0.2930
 4302SOL    HW124365   4.037   0.409  14.078 -1.7380 -0.2565  2.1306
 4302SOL    HW224366   3.999   0.283  14.145  1.2022 -2.8177 -0.9941
 4303SOL     OW24367   3.567   0.601  12.930  0.6240 -0.4628 -0.6821
 4303SOL    HW124368   3.647   0.653  12.930  0.7590 -0.6696 -1.6622
 4303SOL    HW224369   3.585   0.540  13.001 -1.5260 -2.5417 -1.8936
 4304SOL     OW24370   4.335   1.187   4.260  0.4243 -0.1885  0.0090
 4304SOL    HW124371   4.430   1.175   4.261  0.4322  0.0172  1.2965
 4304SOL    HW224372   4.330   1.273   4.218  3.4516 -0.6438 -1.3017
 4305SOL     OW24373   4.554   0.669   4.677 -0.4124  0.5774 -0.7579
 4305SOL    HW124374   4.472   0.714   4.658 -0.6163  0.9067  0.8909
 4305SOL    HW224375   4.571   0.692   4.768  1.8663 -1.1106 -0.7536
 4306SOL     OW24376   4.225   0.307  16.832 -0.4509 -0.6742 -0.2805
 4306SOL    HW124377   4.299   0.273  16.782 -0.2119  1.7135 -1.5393
 4306SOL    HW224378   4.236   0.401  16.818 -2.2928 -0.3058  0.6657
 4307SOL     OW24379   2.219   3.277  10.664 -0.3850 -0.2971 -0.9656
 4307SOL    HW124380   2.136   3.304  10.702 -1.1324 -0.4789 -2.4401
 4307SOL    HW224381   2.255   3.221  10.732 -4.5865 -3.6880 -1.5072
 4308SOL     OW24382   0.489   2.258  16.222  0.2611  0.4813  0.2148
 4308SOL    HW124383   0.468   2.299  16.306 -0.7181 -1.5668  0.9836
 4308SOL    HW224384   0.484   2.329  16.158 -0.4611  1.1531  1.0246
 4309SOL     OW24385   2.503   0.996   5.010  0.2584 -0.3340 -0.1290
 4309SOL    HW124386   2.425   0.941   5.012  0.5185 -0.7064 -0.0801
 4309SOL    HW224387   2.532   0.999   4.919  0.7593  0.6823  0.0594
 4310SOL     OW24388   3.299   0.075   3.608 -0.4940 -0.8217  0.0401
 4310SOL    HW124389   3.378   0.048   3.560  1.1146  0.3678  2.0197
 4310SOL    HW224390   3.257   0.133   3.545 -0.2832  1.2954  1.8615
 4311SOL     OW24391   2.791   2.766   6.538 -0.2878  0.3092  0.3188
 4311SOL    HW124392   2.742   2.684   6.543 -1.5768  1.1216  1.1681
 4311SOL    HW224393   2.833   2.764   6.624  1.8250 -0.0355 -0.7435
 4312SOL     OW24394   3.199   1.195  11.633 -0.0138 -0.7915  0.2623
 4312SOL    HW124395   3.207   1.206  11.728  1.6240  2.3547 -0.2295
 4312SOL    HW224396   3.280   1.160  11.596 -1.2013 -1.2962 -1.8639
 4313SOL     OW24397   4.190   1.599   3.084 -0.3744  0.3968 -0.0958
 4313SOL    HW124398   4.285   1.592   3.069 -0.5080  1.1202 -1.2248
 4313SOL    HW224399   4.190   1.649   3.166 -0.7563  0.6159 -0.2330
 4314SOL     OW24400   3.269   4.152   7.611  0.6884  0.3874  0.5277
 4314SOL    HW124401   3.334   4.159   7.541 -0.6890  0.2738 -0.7619
 4314SOL    HW224402   3.209   4.080   7.591  1.9813 -0.8955  1.2210
 4315SOL     OW24403   1.688   2.328  13.587  0.2147  0.1838  0.6263
 4315SOL    HW124404   1.727   2.241  13.585  2.0984  1.0380  0.4523
 4315SOL    HW224405   1.744   2.379  13.645 -0.1801  1.7924 -0.4127
 4316SOL     OW24406   2.771   3.183   1.509 -0.1937  0.3627 -0.0207
 4316SOL    HW124407   2.842   3.124   1.534 -0.2293  1.1567  1.9755
 4316SOL    HW224408   2.788   3.245   1.580 -0.0729  1.9293 -1.4228
 4317SOL     OW24409   2.347   1.018   8.587  0.6016  0.4167 -0.1938
 4317SOL    HW124410   2.298   0.954   8.535 -4.0485  2.3874  1.7697
 4317SOL    HW224411   2.359   0.974   8.671 -0.2575 -1.2572 -0.9516
 4318SOL     OW24412   3.724   2.293   3.805  0.7978  0.3993 -0.2130
 4318SOL    HW124413   3.718   2.313   3.899 -0.5340  0.9158 -0.4023
 4318SOL    HW224414   3.632   2.311   3.787  0.2705  0.0327  2.0394
 4319SOL     OW24415   4.678   0.597   7.030  0.5421  0.0503  0.2471
 4319SOL    HW124416   0.037   0.548   7.024  1.6599  1.6240  2.4576
 4319SOL    HW224417   4.646   0.572   7.117 -1.6691  0.3031 -0.5170
 4320SOL     OW24418   3.949   4.180   6.172 -0.2156  0.5984 -0.0961
 4320SOL    HW124419   3.970   4.220   6.256 -0.0063  0.6161 -0.1565
 4320SOL    HW224420   3.970   4.087   6.187 -1.6780  0.2523 -0.1855
 4321SOL     OW24421   3.938   4.148   7.228  0.4574 -0.2098 -0.3831
 4321SOL    HW124422   3.991   4.218   7.266  0.6538 -0.3158 -0.4596
 4321SOL    HW224423   3.992   4.122   7.153 -0.8827 -0.1033 -1.4042
 4322SOL     OW24424   3.859   3.992  16.184 -0.4774  0.4085  0.4305
 4322SOL    HW124425   3.772   3.974  16.219 -1.0902  2.1104 -0.2317
 4322SOL    HW224426   3.838   4.003  16.091 -1.5530 -2.5137  0.3384
 4323SOL     OW24427   4.449   0.420   0.121  0.1735  0.1087 -0.5301
 4323SOL    HW124428   4.458   0.516   0.120  0.7762  0.0286 -2.0739
 4323SOL    HW224429   4.432   0.379   0.037 -2.3637  2.9027 -1.3795
 4324SOL     OW24430   2.153   1.055   8.282 -0.1394 -0.5033 -0.0243
 4324SOL    HW124431   2.203   0.986   8.325  0.0440  0.9959  2.1941
 4324SOL    HW224432   2.181   1.135   8.327  0.7328  0.7603 -2.8683
 4325SOL     OW24433   4.677   0.392   4.731  0.0190  0.2743  0.1900
 4325SOL    HW124434   0.017   0.361   4.666 -0.7929 -1.8089  0.4043
 4325SOL    HW224435   4.655   0.314   4.782 -1.2429 -0.9209 -2.2095
 4326SOL     OW24436   2.888   1.570   9.029 -0.5290 -0.0496 -0.1636
 4326SOL    HW124437   2.971   1.599   8.992  0.3234 -1.1488  0.8732
 4326SOL    HW224438   2.843   1.655   9.029  0.1250  0.2898 -2.6205
 4327SOL     OW24439   4.714   3.604   1.849 -0.2204 -0.2729 -0.5724
 4327SOL    HW124440   4.645   3.651   1.801  1.4648  2.6225 -0.1580
 4327SOL    HW224441   0.003   3.523   1.799 -0.6505 -0.2143 -0.7762
 4328SOL     OW24442   4.435   4.203   2.077  0.2766 -0.1988  0.1343
 4328SOL    HW124443   4.451   4.126   2.022  0.5040 -0.2907  0.3296
 4328SOL    HW224444   4.376   4.163   2.140 -0.8741  0.5261 -0.4962
 4329SOL     OW24445   0.715   2.285  17.674  0.3419  0.3292  0.3553
 4329SOL    HW124446   0.755   2.329   0.054  2.5793 -2.4501  0.7749
 4329SOL    HW224447   0.634   2.335  17.668  0.0210 -0.4567 -1.7989
 4330SOL     OW24448   3.364   4.495   3.968  0.1323  0.3245 -0.0806
 4330SOL    HW124449   3.405   4.414   3.939  1.0064 -0.0688  2.2360
 4330SOL    HW224450   3.281   4.457   3.996  0.5169 -2.4382 -2.6337
 4331SOL     OW24451   4.622   2.480  10.186 -0.0651  0.5351  0.0617
 4331SOL    HW124452   4.548   2.422  10.169 -0.0293  0.0891  1.4068
 4331SOL    HW224453   4.691   2.417  10.169 -0.5255 -0.0957  0.5396
 4332SOL     OW24454   1.178   4.164   8.721  0.2203 -0.5394  0.2848
 4332SOL    HW124455   1.259   4.137   8.765  0.6724 -0.4219 -0.4866
 4332SOL    HW224456   1.116   4.136   8.789 -0.8714  0.1877 -0.4342
 4333SOL     OW24457   2.892   4.210  16.083  0.4011  0.2344 -0.3422
 4333SOL    HW124458   2.899   4.121  16.119 -0.5895 -0.3847 -1.7044
 4333SOL    HW224459   2.804   4.234  16.114  0.5052 -1.4287  1.2450
 4334SOL     OW24460   2.592   3.631  14.991  0.3022  0.1505  0.4718
 4334SOL    HW124461   2.537   3.696  15.034  0.8286  0.8690  0.0668
 4334SOL    HW224462   2.583   3.666  14.902 -0.9416 -1.1337  0.0996
 4335SOL     OW24463   1.476   0.850   4.751  0.3442  0.2501 -0.1297
 4335SOL    HW124464   1.537   0.780   4.773 -0.7438 -0.4288  0.6789
 4335SOL    HW224465   1.395   0.818   4.791  1.0469 -0.9128  0.3589
 4336SOL     OW24466   2.666   4.128   1.250  0.2988  0.0802 -0.4141
 4336SOL    HW124467   2.702   4.215   1.266  0.1272  0.0616  0.0698
 4336SOL    HW224468   2.668   4.089   1.337  0.4567  1.3495  0.1520
 4337SOL     OW24469   3.994   4.591   2.342 -0.2413  0.0291 -0.2644
 4337SOL    HW124470   3.946   4.576   2.260  1.8017 -2.5710 -0.9802
 4337SOL    HW224471   4.063   4.527   2.324 -1.8939 -1.9467  0.4514
 4338SOL     OW24472   2.477   4.039   3.411 -0.3623  0.0832  0.0239
 4338SOL    HW124473   2.566   4.062   3.438  0.2364 -0.2074 -1.6700
 4338SOL    HW224474   2.461   4.109   3.347  0.9033  1.6849  1.4518
 4339SOL     OW24475   1.068   1.274  17.543  0.4677  0.6320 -0.6392
 4339SOL    HW124476   1.132   1.229  17.489 -0.2964  0.2377 -1.2136
 4339SOL    HW224477   1.113   1.358  17.558  1.2710 -0.1077  1.0723
 4340SOL     OW24478   4.604   4.049  10.912 -0.4604  0.1371  0.5749
 4340SOL    HW124479   4.557   4.117  10.864 -1.9851  0.1937  2.1363
 4340SOL    HW224480   4.609   4.086  11.000 -0.0196 -1.0075  1.0361
 4341SOL     OW24481   2.777   0.943  14.244 -0.0374  0.1059 -0.0381
 4341SOL    HW124482   2.751   1.020  14.193 -0.5444  1.9366  3.0094
 4341SOL    HW224483   2.832   0.991  14.306 -0.9577 -1.6133  2.1248
 4342SOL     OW24484   4.486   0.854   5.122  0.1869 -0.3510  0.0358
 4342SOL    HW124485   4.503   0.811   5.038  1.6975  2.2093 -0.9678
 4342SOL    HW224486   4.484   0.776   5.178  0.9207 -0.6140 -0.3070
 4343SOL     OW24487   0.290   2.574   3.091  0.4344  0.3475  0.3038
 4343SOL    HW124488   0.383   2.553   3.101  0.2647 -0.5979 -0.1557
 4343SOL    HW224489   0.288   2.606   3.001 -1.7702  1.4976  0.7529
 4344SOL     OW24490   3.254   3.412   1.197  0.3802  0.5586 -0.3451
 4344SOL    HW124491   3.225   3.496   1.233 -1.6902 -1.0183  1.6707
 4344SOL    HW224492   3.243   3.419   1.102 -1.0589  0.6319 -0.1753
 4345SOL     OW24493   3.374   4.722  14.490 -0.3977 -0.3434 -0.0022
 4345SOL    HW124494   3.318   4.648  14.512 -1.7836  0.6240 -0.3232
 4345SOL    HW224495   3.408   4.699  14.403  0.3787  2.2771 -0.3841
 4346SOL     OW24496   3.990   4.310  17.436  0.1811 -0.1611  0.4015
 4346SOL    HW124497   3.947   4.380  17.485  1.5151  0.5217  0.6023
 4346SOL    HW224498   3.917   4.279  17.383  0.7434  0.6642 -0.8465
 4347SOL     OW24499   1.136   4.056   8.469 -0.0551 -0.2869 -0.2345
 4347SOL    HW124500   1.075   4.000   8.518  0.2191 -0.7980 -0.4814
 4347SOL    HW224501   1.183   4.095   8.542  0.4876  0.8255 -1.1864
 4348SOL     OW24502   3.745   1.538   5.529 -0.3525  0.1833  0.6756
 4348SOL    HW124503   3.765   1.484   5.606 -0.0710  0.1189  0.5574
 4348SOL    HW224504   3.800   1.614   5.549 -0.4387  0.5029 -0.3292
 4349SOL     OW24505   1.991   1.747   2.497  0.1991 -0.4812 -0.1360
 4349SOL    HW124506   1.987   1.652   2.513  0.6209 -0.2868  1.1059
 4349SOL    HW224507   2.014   1.792   2.578  1.3604 -1.9729  0.3598
 4350SOL     OW24508   4.037   1.159   9.681 -0.4261  0.0128  0.1413
 4350SOL    HW124509   3.954   1.137   9.639 -0.5088  1.6336 -0.5070
 4350SOL    HW224510   4.053   1.086   9.741  3.1178  0.7530  0.1200
 4351SOL     OW24511   2.425   3.543   2.419 -0.5502 -0.3670  0.0249
 4351SOL    HW124512   2.389   3.550   2.330 -1.7808  1.8282  0.7218
 4351SOL    HW224513   2.462   3.455   2.407  2.3883  1.2430 -2.7553
 4352SOL     OW24514   0.520   4.653   7.340 -0.1408 -0.3314 -0.5553
 4352SOL    HW124515   0.549   0.021   7.329 -2.3497  0.4608  0.2666
 4352SOL    HW224516   0.580   4.596   7.292  0.1039 -0.7682  0.2748
 4353SOL     OW24517   0.525   0.797   9.189 -0.1158  0.2717 -0.5652
 4353SOL    HW124518   0.482   0.734   9.248  3.5945  0.7845  2.6407
 4353SOL    HW224519   0.500   0.880   9.230  1.9439  1.2875 -1.3894
 4354SOL     OW24520   0.840   0.398   3.844 -0.7309 -0.1768 -0.1215
 4354SOL    HW124521   0.784   0.453   3.790 -1.2331  0.7990  1.4026
 4354SOL    HW224522   0.780   0.353   3.903  0.3773 -0.1194  1.0778
 4355SOL     OW24523   0.982   3.490   3.208  0.0740  0.3470 -0.5015
 4355SOL    HW124524   0.932   3.512   3.287 -0.2031  2.7179 -1.3487
 4355SOL    HW224525   0.986   3.394   3.213 -0.6256  0.2886 -1.0825
 4356SOL     OW24526   3.693   4.140   7.965 -0.0567 -0.0538  0.1051
 4356SOL    HW124527   3.734   4.214   7.922 -1.6553  0.5052 -0.4706
 4356SOL    HW224528   3.744   4.064   7.938  1.1539  0.3767  1.1872
 4357SOL     OW24529   0.882   1.219  14.406  0.0948 -0.2804 -0.1059
 4357SOL    HW124530   0.815   1.287  14.400 -0.1157 -0.0230  4.6087
 4357SOL    HW224531   0.878   1.188  14.316 -2.2433 -3.5096  1.1038
 4358SOL     OW24532   0.043   3.241  10.610 -0.0376 -0.4551 -0.0721
 4358SOL    HW124533   0.098   3.185  10.666 -0.0843  0.9469  1.3624
 4358SOL    HW224534   0.058   3.214  10.519 -2.4751  1.9814 -1.1918
 4359SOL     OW24535   2.581   2.932   8.155  0.7972  0.2099 -0.3416
 4359SOL    HW124536   2.673   2.915   8.136  0.4016 -1.5361 -0.7094
 4359SOL    HW224537   2.535   2.879   8.090  1.5502 -0.8964  0.0331
 4360SOL     OW24538   0.104   2.199  17.496 -0.4763 -0.0746  0.6231
 4360SOL    HW124539   0.198   2.209  17.508 -0.6900  0.7488  1.5954
 4360SOL    HW224540   0.077   2.290  17.490 -0.4138 -0.1645 -1.0853
 4361SOL     OW24541   2.730   2.304  14.205  0.5019 -0.5980 -0.2399
 4361SOL    HW124542   2.685   2.350  14.276  0.2907 -0.5188 -0.4247
 4361SOL    HW224543   2.753   2.226  14.256 -0.1926  0.2464  1.3685
 4362SOL     OW24544   3.750   1.721   7.470  0.3141  0.1372  0.7683
 4362SOL    HW124545   3.729   1.692   7.559 -1.2002  0.0024  0.3760
 4362SOL    HW224546   3.670   1.770   7.451 -1.3050 -2.7440  0.1282
 4363SOL     OW24547   0.654   4.139   5.613  0.6966 -0.0848 -0.1317
 4363SOL    HW124548   0.709   4.157   5.689  1.1668  1.4496 -0.8262
 4363SOL    HW224549   0.695   4.198   5.550  0.6793 -0.2041 -0.2549
 4364SOL     OW24550   2.976   3.946  12.007 -0.1349 -0.0640 -0.2416
 4364SOL    HW124551   2.982   3.979  11.917 -0.9916 -2.4646 -1.1850
 4364SOL    HW224552   2.976   4.031  12.051  0.8273 -0.9878  1.5014
 4365SOL     OW24553   4.563   1.345  11.560  0.1094 -0.5066 -0.0264
 4365SOL    HW124554   4.571   1.431  11.520 -0.2679 -1.1676 -1.5399
 4365SOL    HW224555   4.470   1.328  11.544 -0.0177  0.0790  0.1104
 4366SOL     OW24556   2.605   2.462   3.952  0.7125  0.4155 -0.2810
 4366SOL    HW124557   2.651   2.510   4.020  1.1423 -0.3823 -0.0064
 4366SOL    HW224558   2.670   2.454   3.882 -1.7027 -0.0896 -2.4951
 4367SOL     OW24559   0.764   0.787   8.678  0.2450  0.0424  0.2415
 4367SOL    HW124560   0.714   0.807   8.758 -0.9265 -2.1105  0.0315
 4367SOL    HW224561   0.804   0.705   8.707  2.1206  0.0905 -2.1806
 4368SOL     OW24562   1.342   1.446   8.664  0.0005 -0.5863 -0.0699
 4368SOL    HW124563   1.354   1.531   8.705 -3.4270 -0.6960  1.1183
 4368SOL    HW224564   1.289   1.397   8.727 -1.8873 -1.1537 -2.1012
 4369SOL     OW24565   0.782   1.102   3.399  0.0903 -0.1480  0.3727
 4369SOL    HW124566   0.804   1.193   3.377 -0.6700  0.6288  2.8616
 4369SOL    HW224567   0.749   1.060   3.319 -2.5737  3.2179 -0.2833
 4370SOL     OW24568   2.376   3.156   0.756  0.2054  0.7735 -0.0693
 4370SOL    HW124569   2.373   3.206   0.837 -0.2045  1.7429 -0.6789
 4370SOL    HW224570   2.464   3.184   0.730  1.0831 -0.3556  1.7300
 4371SOL     OW24571   4.272   4.608   2.024  0.0194  0.2287  0.3326
 4371SOL    HW124572   4.255   4.607   1.930  0.7020  1.0277  0.2010
 4371SOL    HW224573   4.239   4.522   2.048 -0.6488  0.3336 -0.2044
 4372SOL     OW24574   3.611   2.840   2.014  0.1134 -0.1130  0.4250
 4372SOL    HW124575   3.571   2.754   2.006  0.1715 -0.0610 -0.3705
 4372SOL    HW224576   3.690   2.811   2.060  2.1178  3.0181 -1.0678
 4373SOL     OW24577   1.641   1.609   3.292 -0.1458  0.2598  0.8607
 4373SOL    HW124578   1.689   1.690   3.308  1.2991 -0.3832 -0.2946
 4373SOL    HW224579   1.623   1.578   3.381  0.3173  1.5365  1.3973
 4374SOL     OW24580   3.799   1.758  15.638  0.0233  0.0091  0.7056
 4374SOL    HW124581   3.783   1.686  15.699 -1.9002  0.5927  0.8980
 4374SOL    HW224582   3.892   1.747  15.621  0.3758  2.7551  0.7869
 4375SOL     OW24583   0.687   2.285   1.791  0.1887 -0.0758  0.0854
 4375SOL    HW124584   0.681   2.355   1.726  2.3142  0.9304  0.9498
 4375SOL    HW224585   0.635   2.310   1.867 -0.8925  2.5985 -1.5424
 4376SOL     OW24586   4.002   4.325   9.451  0.1185 -0.7246  0.1057
 4376SOL    HW124587   4.044   4.266   9.514  0.1046  1.0106  1.7492
 4376SOL    HW224588   4.079   4.345   9.399 -0.1175 -1.3868 -0.5003
 4377SOL     OW24589   0.350   2.282  10.317 -0.4377  0.1636  0.1117
 4377SOL    HW124590   0.338   2.187  10.321  0.4769  0.0445 -0.0404
 4377SOL    HW224591   0.323   2.306  10.406 -1.4023  1.1681 -0.4515
 4378SOL     OW24592   3.976   0.240  13.560  0.5427  0.2020 -0.0043
 4378SOL    HW124593   4.072   0.246  13.560  0.4796  1.2016 -0.2088
 4378SOL    HW224594   3.953   0.249  13.652  1.5002  0.7986  0.1773
 4379SOL     OW24595   2.325   0.858  12.133  0.5177  0.2387 -0.0800
 4379SOL    HW124596   2.238   0.829  12.159  0.6961  0.5058  0.8407
 4379SOL    HW224597   2.376   0.793  12.181  2.4315 -1.7342 -4.8342
 4380SOL     OW24598   4.423   4.723  10.959 -0.2486  0.2234  0.3105
 4380SOL    HW124599   4.408   0.067  10.892 -0.3692 -0.3889 -0.2733
 4380SOL    HW224600   4.494   4.671  10.921 -0.5470  0.0924 -0.0713
 4381SOL     OW24601   2.542   0.279   1.374 -0.0613  0.4392 -0.0954
 4381SOL    HW124602   2.635   0.262   1.362 -0.3544 -1.0490 -0.2104
 4381SOL    HW224603   2.539   0.298   1.468  1.8384 -3.1571  0.6812
 4382SOL     OW24604   3.571   0.736  14.308  0.3893 -0.5486  0.7169
 4382SOL    HW124605   3.593   0.796  14.380  2.4698 -0.0222 -0.3564
 4382SOL    HW224606   3.596   0.650  14.342 -0.9459 -1.4134 -0.5378
 4383SOL     OW24607   2.198   0.363  16.588  0.2071  0.4025  0.3042
 4383SOL    HW124608   2.108   0.336  16.573 -0.6638  2.3060  2.1897
 4383SOL    HW224609   2.203   0.357  16.683 -0.1708  1.6807  0.3982
 4384SOL     OW24610   2.490   3.964   6.781 -0.5118  0.0528 -0.3315
 4384SOL    HW124611   2.410   4.015   6.772  0.2631  1.6817  1.9889
 4384SOL    HW224612   2.553   4.031   6.806  1.5362 -1.2254 -2.0474
 4385SOL     OW24613   3.936   2.160   5.120 -0.3630  0.3326 -0.0472
 4385SOL    HW124614   3.885   2.157   5.039 -1.4690 -0.0728  0.6819
 4385SOL    HW224615   4.026   2.173   5.089  0.5580 -1.4745  1.9237
 4386SOL     OW24616   1.404   3.660   3.851 -0.1654 -0.2606  0.4840
 4386SOL    HW124617   1.449   3.657   3.767 -1.3233 -1.1418 -0.1032
 4386SOL    HW224618   1.423   3.573   3.887  0.1917 -0.4015 -0.0322
 4387SOL     OW24619   2.033   0.613   2.196  0.1615 -0.2934 -0.8529
 4387SOL    HW124620   2.080   0.530   2.203  2.2782  0.9763 -0.0186
 4387SOL    HW224621   1.955   0.599   2.250  1.3740  1.0510  1.2538
 4388SOL     OW24622   1.727   1.466   3.804 -0.2225  0.0594 -0.2135
 4388SOL    HW124623   1.774   1.508   3.876 -0.5458  1.2120 -0.6637
 4388SOL    HW224624   1.637   1.481   3.833  0.1760 -1.8840  2.0069
 4389SOL     OW24625   2.537   3.218   1.367  0.5193 -0.4442 -0.3425
 4389SOL    HW124626   2.627   3.189   1.384  0.9445  0.6067 -0.8349
 4389SOL    HW224627   2.488   3.135   1.367  0.7503 -0.5812 -0.5778
 4390SOL     OW24628   3.376   2.330   2.771  0.0955  0.2963  0.2605
 4390SOL    HW124629   3.404   2.312   2.682 -0.0729 -1.0513  0.4764
 4390SOL    HW224630   3.321   2.252   2.784 -1.8687  2.0016  2.0917
 4391SOL     OW24631   4.076   0.906  10.707  0.2502  0.4396 -0.0807
 4391SOL    HW124632   3.988   0.917  10.673 -0.9028 -0.2115  2.7358
 4391SOL    HW224633   4.098   0.993  10.741  2.9710 -0.5375  0.6620
 4392SOL     OW24634   1.998   0.708   4.108  0.1608  0.3547  0.1443
 4392SOL    HW124635   1.960   0.796   4.116  0.0551  0.3090  0.1371
 4392SOL    HW224636   1.947   0.663   4.176 -1.3366  0.8114 -0.6894
 4393SOL     OW24637   0.957   0.591   7.770  0.3783  0.1706  0.4922
 4393SOL    HW124638   0.985   0.677   7.740  0.4386 -0.1093 -0.2635
 4393SOL    HW224639   1.046   0.562   7.787  0.4674 -0.6023 -1.2489
 4394SOL     OW24640   2.352   2.895  10.000 -0.0140  0.2245  0.6112
 4394SOL    HW124641   2.299   2.886  10.079  0.2423  0.0277  0.7605
 4394SOL    HW224642   2.443   2.889  10.028 -0.4675  0.3223  2.1481
 4395SOL     OW24643   1.146   3.196   8.292 -0.4762 -0.5289 -0.3082
 4395SOL    HW124644   1.057   3.214   8.261 -0.5411 -1.0431 -0.4128
 4395SOL    HW224645   1.124   3.179   8.383 -0.7609 -3.4739 -0.9501
 4396SOL     OW24646   1.799   4.334  13.849 -0.0606 -0.1600 -0.5940
 4396SOL    HW124647   1.884   4.375  13.834 -0.0859 -0.2821 -1.0893
 4396SOL    HW224648   1.749   4.408  13.815 -1.1618 -0.5818  0.1129
 4397SOL     OW24649   2.047   3.356  15.793 -0.5797 -0.4848 -0.0072
 4397SOL    HW124650   2.120   3.406  15.757  0.2016 -0.8081  1.0930
 4397SOL    HW224651   2.043   3.271  15.749  0.7706  0.5676 -2.1130
 4398SOL     OW24652   2.482   1.692  16.468 -0.1657  0.3684 -0.3457
 4398SOL    HW124653   2.452   1.707  16.378  1.5675  0.9960 -0.8138
 4398SOL    HW224654   2.512   1.603  16.453 -2.9867 -0.7708  0.6658
 4399SOL     OW24655   2.647   3.548   4.830 -0.5357  0.2848 -0.5035
 4399SOL    HW124656   2.656   3.468   4.778 -2.5836  0.3403 -0.9760
 4399SOL    HW224657   2.704   3.607   4.781 -0.8832  1.5440  0.6049
 4400SOL     OW24658   0.101   0.991   3.428  0.0923 -0.2045 -0.2935
 4400SOL    HW124659   0.036   1.018   3.493 -0.3028 -1.8980  0.0112
 4400SOL    HW224660   0.107   1.059   3.361 -0.7891  0.6873  0.5324
 4401SOL     OW24661   0.164   4.410   9.879  0.4611 -1.1377 -0.6122
 4401SOL    HW124662   0.182   4.444   9.792 -1.1541 -0.6441 -0.7439
 4401SOL    HW224663   0.133   4.491   9.918  0.3053 -0.8035 -1.4386
 4402SOL     OW24664   2.407   3.246   5.996  0.0644 -0.0551  0.0940
 4402SOL    HW124665   2.503   3.252   6.000  0.1302 -0.3153 -1.2528
 4402SOL    HW224666   2.397   3.157   5.963  0.2351  0.9525 -2.6862
 4403SOL     OW24667   2.651   0.133   2.477  0.1109 -0.4137 -0.8177
 4403SOL    HW124668   2.682   0.127   2.568 -2.0283  0.3081 -0.0352
 4403SOL    HW224669   2.719   0.092   2.424  1.6808  1.5664 -0.3334
 4404SOL     OW24670   3.581   3.206  10.750 -0.1606 -0.2686  0.1115
 4404SOL    HW124671   3.671   3.182  10.732 -0.2863 -0.7839  0.1638
 4404SOL    HW224672   3.548   3.263  10.681  1.0462  1.7843  1.2386
 4405SOL     OW24673   2.878   4.720   7.503  0.2265 -0.3426  0.7892
 4405SOL    HW124674   2.873   0.092   7.499  0.9102 -0.2606  1.7788
 4405SOL    HW224675   2.821   4.693   7.576  0.3107  1.8353  1.6374
 4406SOL     OW24676   0.925   0.797   3.524 -0.0039 -0.8753  0.1851
 4406SOL    HW124677   0.954   0.783   3.614  0.8401  1.4958  0.2864
 4406SOL    HW224678   0.831   0.810   3.539  0.7735  2.7176  1.8356
 4407SOL     OW24679   0.807   2.865   5.465 -0.1310 -0.3705  0.4237
 4407SOL    HW124680   0.880   2.884   5.406  0.8864 -0.7724  1.5673
 4407SOL    HW224681   0.740   2.851   5.398  0.3264  0.0429 -0.1236
 4408SOL     OW24682   0.713   3.644   5.095 -0.6675  0.2947  0.5198
 4408SOL    HW124683   0.651   3.572   5.086 -0.5767  0.4722 -1.4685
 4408SOL    HW224684   0.791   3.594   5.071 -1.2345  0.4886 -1.7020
 4409SOL     OW24685   3.220   2.139  10.839  0.1515  0.0996  0.2348
 4409SOL    HW124686   3.243   2.171  10.752  1.4264 -2.8294 -0.5092
 4409SOL    HW224687   3.296   2.083  10.850  1.2164  1.6274  0.6906
 4410SOL     OW24688   1.744   4.012  16.584 -0.1837 -0.0466  0.4102
 4410SOL    HW124689   1.713   4.042  16.499 -0.0221 -1.3732 -0.1130
 4410SOL    HW224690   1.712   3.922  16.588 -0.1702 -0.1946 -2.5762
 4411SOL     OW24691   3.033   2.352   0.485 -0.9574  0.1044 -0.5075
 4411SOL    HW124692   3.071   2.276   0.440 -2.3118 -0.9967  0.2071
 4411SOL    HW224693   2.952   2.368   0.437 -1.8314  1.7832  1.5497
 4412SOL     OW24694   1.316   0.936   8.649 -1.1605 -0.2368  0.4121
 4412SOL    HW124695   1.262   0.972   8.579 -0.9164  1.1601  0.9574
 4412SOL    HW224696   1.405   0.971   8.637 -1.7313  1.2373  0.5607
 4413SOL     OW24697   0.824   0.053   5.345 -0.1585  0.2207 -0.2341
 4413SOL    HW124698   0.798   0.087   5.259  0.1575 -3.1480 -1.6826
 4413SOL    HW224699   0.917   0.073   5.349  0.2519 -1.6244 -0.6134
 4414SOL     OW24700   0.847   1.587   6.964  0.3805 -0.6754 -0.1154
 4414SOL    HW124701   0.763   1.602   7.006  1.3307 -1.3763  2.0550
 4414SOL    HW224702   0.909   1.611   7.034 -0.8709  0.5308  0.5681
 4415SOL     OW24703   3.912   3.768  11.743  0.1317 -0.3226 -0.7727
 4415SOL    HW124704   3.867   3.696  11.787  0.5037  0.9430  1.6611
 4415SOL    HW224705   3.971   3.795  11.813 -1.7365 -2.0210  1.4620
 4416SOL     OW24706   1.873   4.396  11.301 -0.4109  0.4004  0.5460
 4416SOL    HW124707   1.850   4.309  11.270  1.1716 -0.0117  0.5511
 4416SOL    HW224708   1.929   4.407  11.224 -0.8722 -0.9777  0.0170
 4417SOL     OW24709   3.819   1.240   8.017 -0.5043  0.3493  0.2413
 4417SOL    HW124710   3.759   1.275   8.082 -0.6094  1.9119 -0.6907
 4417SOL    HW224711   3.881   1.194   8.074  0.7385 -0.2380 -1.5682
 4418SOL     OW24712   0.227   1.657   8.525  0.6573 -0.3890 -0.1056
 4418SOL    HW124713   0.309   1.608   8.532  0.3237 -1.0665 -0.8858
 4418SOL    HW224714   0.170   1.580   8.524  0.1481  0.0107 -1.7568
 4419SOL     OW24715   4.154   3.079  12.605 -0.4157  0.5782 -0.4626
 4419SOL    HW124716   4.079   3.089  12.663  2.3612  2.0030  2.9004
 4419SOL    HW224717   4.180   3.170  12.586 -0.7992  0.5538 -1.1267
 4420SOL     OW24718   2.480   0.156  12.238 -0.4845 -0.2265 -0.0394
 4420SOL    HW124719   2.420   0.204  12.296 -1.7448 -0.0690 -1.4638
 4420SOL    HW224720   2.416   0.100  12.195  0.7980 -0.9015 -1.0489
 4421SOL     OW24721   0.986   2.625   1.960 -0.0397  0.0873  0.0849
 4421SOL    HW124722   0.923   2.683   1.916  0.1156  1.9533  2.3076
 4421SOL    HW224723   1.047   2.698   1.966  0.6570 -0.3463 -1.7149
 4422SOL     OW24724   2.686   3.005   5.615 -0.7147  0.0896 -0.0351
 4422SOL    HW124725   2.592   3.024   5.616 -0.7392 -0.0888  0.9195
 4422SOL    HW224726   2.706   3.005   5.521 -0.6919  2.2782 -0.0210
 4423SOL     OW24727   4.635   0.324   5.106 -0.3790 -0.0406 -0.2263
 4423SOL    HW124728   4.706   0.289   5.052 -0.0780  0.2310 -0.0149
 4423SOL    HW224729   4.590   0.243   5.128  0.9559 -0.9904 -0.9789
 4424SOL     OW24730   1.292   4.628   6.433 -0.1791 -0.3698  0.2705
 4424SOL    HW124731   1.256   4.546   6.467 -1.9755  0.2462 -0.1400
 4424SOL    HW224732   1.351   4.660   6.501  0.1471 -1.1465  0.3560
 4425SOL     OW24733   1.446   0.768   5.578  0.7648  0.4421 -0.0078
 4425SOL    HW124734   1.378   0.767   5.645  0.2393 -1.6133 -0.5718
 4425SOL    HW224735   1.453   0.677   5.549 -1.1946  0.0318  0.7710
 4426SOL     OW24736   4.498   1.933   2.515 -0.3323  0.0291 -0.2092
 4426SOL    HW124737   4.468   1.868   2.578 -1.3219 -0.3167 -1.0402
 4426SOL    HW224738   4.523   2.002   2.576 -0.7791  0.6755 -0.7438
 4427SOL     OW24739   4.427   0.635  11.499  0.2841  0.1832 -0.3475
 4427SOL    HW124740   4.426   0.713  11.553  0.1663  0.0458 -0.1495
 4427SOL    HW224741   4.504   0.640  11.442  0.1295  1.9959 -0.3895
 4428SOL     OW24742   4.582   0.052   5.107  0.5702  0.5815  0.2373
 4428SOL    HW124743   4.556   0.060   5.199  0.5004  0.7935  0.2011
 4428SOL    HW224744   4.585   4.682   5.088 -2.2571  0.4473  0.3374
 4429SOL     OW24745   3.342   3.189   5.680 -0.0957 -0.5740 -0.5403
 4429SOL    HW124746   3.249   3.170   5.676 -0.3337  0.3700  0.5723
 4429SOL    HW224747   3.385   3.115   5.638  0.1283 -0.0948 -1.1518
 4430SOL     OW24748   3.199   4.376   9.197 -0.1980 -0.7235 -0.2366
 4430SOL    HW124749   3.250   4.408   9.271  0.1848  0.3540 -0.9772
 4430SOL    HW224750   3.170   4.287   9.217  1.2043 -1.0596  0.3205
 4431SOL     OW24751   3.327   3.222  14.558 -0.3338  0.2541  0.2867
 4431SOL    HW124752   3.334   3.242  14.651  2.1910  1.6498 -0.1921
 4431SOL    HW224753   3.315   3.127  14.558 -1.8186  0.4521 -0.4231
 4432SOL     OW24754   1.316   2.954   4.563 -0.2540 -0.1123 -0.3111
 4432SOL    HW124755   1.306   3.043   4.595  0.2986  0.0780 -0.6535
 4432SOL    HW224756   1.229   2.925   4.588 -0.4656  0.7711 -0.0264
 4433SOL     OW24757   2.934   3.156  13.701  0.7047 -0.1884 -0.5467
 4433SOL    HW124758   2.975   3.137  13.786  0.5407  0.4236 -0.3279
 4433SOL    HW224759   2.851   3.193  13.731  0.7611 -2.0446  1.9636
 4434SOL     OW24760   4.679   0.287   7.860  0.4309  0.0064  0.4892
 4434SOL    HW124761   0.020   0.225   7.827  1.8225  0.8179  1.6863
 4434SOL    HW224762   0.020   0.356   7.874  0.1322 -0.1402  2.7296
 4435SOL     OW24763   1.729   4.633   0.505  0.2427 -0.6927  0.3255
 4435SOL    HW124764   1.673   4.705   0.535  1.9414  1.1858 -0.9340
 4435SOL    HW224765   1.785   4.618   0.582  0.5750 -3.0031 -0.3737
 4436SOL     OW24766   4.398   3.621  10.718  0.1711 -0.2420 -0.3014
 4436SOL    HW124767   4.402   3.525  10.711  1.6694 -0.2649  0.8518
 4436SOL    HW224768   4.436   3.640  10.803  0.3839 -2.6338  0.1607
 4437SOL     OW24769   0.482   2.329   7.908  0.3108  0.4984  0.1685
 4437SOL    HW124770   0.417   2.347   7.976  1.1514  2.6486  0.3902
 4437SOL    HW224771   0.551   2.390   7.933 -1.9382  1.5031  3.9502
 4438SOL     OW24772   1.547   1.660   7.592 -0.4217 -0.0062  0.3938
 4438SOL    HW124773   1.643   1.662   7.603 -0.4216  2.7595 -0.2502
 4438SOL    HW224774   1.522   1.570   7.616  0.9232 -1.1738 -2.5867
 4439SOL     OW24775   2.118   3.024   8.006  0.1028 -0.1969  0.5551
 4439SOL    HW124776   2.087   2.942   7.966 -2.1980  0.7313  0.4162
 4439SOL    HW224777   2.167   2.998   8.083 -0.2475  1.9244  1.4808
 4440SOL     OW24778   0.505   1.821   2.537 -0.4195  0.4908 -0.3334
 4440SOL    HW124779   0.484   1.912   2.557 -1.6228  0.4651 -1.4837
 4440SOL    HW224780   0.600   1.818   2.541 -0.3571  1.4525 -1.0726
 4441SOL     OW24781   1.999   1.142   1.352  0.1864  0.0582 -0.1500
 4441SOL    HW124782   1.904   1.134   1.351  0.0744  0.9767  3.1884
 4441SOL    HW224783   2.014   1.126   1.445  1.4245  0.4913 -0.2768
 4442SOL     OW24784   2.377   2.961   5.187 -0.5854 -0.0628  0.2070
 4442SOL    HW124785   2.469   2.984   5.170 -1.6925  2.3609 -2.4410
 4442SOL    HW224786   2.379   2.865   5.196 -1.6224 -0.4548 -3.5212
 4443SOL     OW24787   1.998   0.991   3.168 -0.5516  0.0317  0.2856
 4443SOL    HW124788   1.907   0.971   3.189 -0.8380 -0.4308 -1.3818
 4443SOL    HW224789   1.996   0.974   3.074  0.6697  1.9304 -0.0933
 4444SOL     OW24790   4.631   3.401   8.003 -1.3926 -0.7897 -0.7239
 4444SOL    HW124791   4.581   3.384   7.923 -1.5873  2.2816 -1.2439
 4444SOL    HW224792   4.623   3.496   8.010  0.2254 -0.7135  0.2579
 4445SOL     OW24793   0.763   3.772   1.953  0.1522  0.1524  0.0057
 4445SOL    HW124794   0.823   3.828   1.905 -1.7129  2.8281  0.7568
 4445SOL    HW224795   0.770   3.811   2.040  1.2142  1.2813 -0.5956
 4446SOL     OW24796   1.352   1.162   6.678  0.3782 -0.0009 -0.1704
 4446SOL    HW124797   1.274   1.159   6.734 -0.5104  3.5463 -1.2026
 4446SOL    HW224798   1.332   1.098   6.609  0.5923 -0.0471 -0.1889
 4447SOL     OW24799   1.649   0.369   3.695  0.0536 -0.5748 -0.3491
 4447SOL    HW124800   1.559   0.401   3.692  0.0024 -1.0258 -4.1326
 4447SOL    HW224801   1.691   0.411   3.619  0.2312  1.8307  1.0749
 4448SOL     OW24802   2.145   4.018  12.744  0.5084  0.3250  0.0737
 4448SOL    HW124803   2.184   4.103  12.765 -0.0502 -0.1768  3.1200
 4448SOL    HW224804   2.102   4.004  12.828  0.2980  0.7904  0.0412
 4449SOL     OW24805   1.897   4.074   1.266 -0.1034 -0.8310 -0.3851
 4449SOL    HW124806   1.882   4.026   1.184 -2.7298  0.9980 -0.9478
 4449SOL    HW224807   1.984   4.109   1.249  0.7430 -2.9780 -0.5553
 4450SOL     OW24808   1.190   3.106   5.641 -0.1711 -0.0481  0.3366
 4450SOL    HW124809   1.257   3.173   5.624  0.1920 -0.9650 -1.8494
 4450SOL    HW224810   1.197   3.105   5.736 -0.7808 -1.5420  0.3592
 4451SOL     OW24811   3.737   2.048  13.804 -0.2781 -0.0205  0.3203
 4451SOL    HW124812   3.747   1.961  13.765  1.4850  0.6412 -0.7020
 4451SOL    HW224813   3.688   2.029  13.884  1.0928 -1.9865  0.6775
 4452SOL     OW24814   2.917   0.954  10.246 -0.1644 -0.1529 -0.1552
 4452SOL    HW124815   2.924   1.021  10.314  3.9521 -0.6222 -0.1230
 4452SOL    HW224816   2.944   0.881  10.302  0.7897  0.8413  0.6769
 4453SOL     OW24817   0.515   0.157  14.698  0.2211  0.5999  0.0831
 4453SOL    HW124818   0.487   0.224  14.636 -0.9285 -0.7308 -0.8460
 4453SOL    HW224819   0.564   0.199  14.769 -0.6507  0.1285  0.9744
 4454SOL     OW24820   2.722   4.130  17.681 -0.0851  0.0712  0.4483
 4454SOL    HW124821   2.681   4.095   0.065  0.3734  0.5884  0.9135
 4454SOL    HW224822   2.687   4.219  17.680  0.2594  0.1859 -3.0227
 4455SOL     OW24823   1.560   3.102   4.907  0.4107 -0.2209  0.2046
 4455SOL    HW124824   1.576   3.152   4.827 -0.3915 -1.8989 -1.0089
 4455SOL    HW224825   1.562   3.171   4.974  2.7129  0.9959 -1.1631
 4456SOL     OW24826   2.427   0.976   2.301 -0.7779 -0.2905  0.1062
 4456SOL    HW124827   2.516   0.942   2.299 -1.3444 -1.5627 -2.5083
 4456SOL    HW224828   2.374   0.902   2.331  0.1178 -1.5210 -1.3515
 4457SOL     OW24829   0.176   1.940  16.864  0.2900 -0.1493  0.1665
 4457SOL    HW124830   0.185   2.017  16.921 -0.6861 -0.0771  0.2231
 4457SOL    HW224831   0.259   1.893  16.876 -0.0876 -0.6094  0.9463
 4458SOL     OW24832   0.489   1.293  13.334  0.2116 -0.2852  0.5786
 4458SOL    HW124833   0.460   1.360  13.396 -1.1253  0.2499 -0.6257
 4458SOL    HW224834   0.560   1.256  13.387  1.3810 -1.5007 -1.8253
 4459SOL     OW24835   3.490   0.624   5.803  0.3756  0.1685 -0.0400
 4459SOL    HW124836   3.522   0.549   5.854 -1.2983 -1.6143 -1.5857
 4459SOL    HW224837   3.417   0.658   5.854  1.1366  0.1132  1.0883
 4460SOL     OW24838   3.585   1.875  13.298  0.1001 -0.2041  0.1284
 4460SOL    HW124839   3.556   1.964  13.275 -0.1687  0.8492  4.5587
 4460SOL    HW224840   3.511   1.849  13.353 -0.1465 -1.5728 -0.8426
 4461SOL     OW24841   3.946   2.556   1.132 -0.4822  0.4650  0.2518
 4461SOL    HW124842   3.895   2.606   1.195 -1.2392 -1.2989  1.0210
 4461SOL    HW224843   3.994   2.489   1.181  0.0204  1.4846  1.1576
 4462SOL     OW24844   1.090   4.002   3.834  0.0168 -0.3990 -0.1838
 4462SOL    HW124845   1.165   3.965   3.880 -1.1466 -1.7857  0.6350
 4462SOL    HW224846   1.032   3.993   3.910  1.2856  0.3639  0.8728
 4463SOL     OW24847   0.758   2.965  14.203 -0.2975  0.6006 -0.3139
 4463SOL    HW124848   0.682   2.937  14.152  1.2208  0.8141 -2.6848
 4463SOL    HW224849   0.802   2.881  14.200  0.0441  0.6577  3.0885
 4464SOL     OW24850   0.124   0.955   9.448 -0.2261 -0.3332  0.1258
 4464SOL    HW124851   0.158   0.867   9.463 -1.1401 -0.9323 -1.3932
 4464SOL    HW224852   0.062   0.932   9.379  0.8761 -0.7358 -0.7250
 4465SOL     OW24853   0.761   2.412   5.430 -0.9486 -0.8673  0.2601
 4465SOL    HW124854   0.693   2.474   5.456 -0.7462 -0.8462  0.7389
 4465SOL    HW224855   0.821   2.399   5.503 -0.0881 -1.7122 -0.5915
 4466SOL     OW24856   4.509   0.009  14.294  0.8102  0.3299  0.2836
 4466SOL    HW124857   4.595   0.051  14.300  0.7549  0.5305 -0.3365
 4466SOL    HW224858   4.514   4.660  14.356 -1.0628 -1.0379 -1.1618
 4467SOL     OW24859   1.447   1.801   0.417  0.1049  0.3750  0.0453
 4467SOL    HW124860   1.534   1.762   0.430 -0.9461 -1.5721  1.3369
 4467SOL    HW224861   1.431   1.794   0.323  0.0491 -2.9153  0.2980
 4468SOL     OW24862   1.166   2.674   2.329 -0.4141  0.6822  0.2580
 4468SOL    HW124863   1.201   2.586   2.344 -1.3947  0.3134  0.3890
 4468SOL    HW224864   1.124   2.698   2.411 -0.7564 -0.5196  0.4378
 4469SOL     OW24865   1.898   3.270  13.091  0.3489 -0.9450 -0.3605
 4469SOL    HW124866   1.976   3.218  13.109 -0.2523 -0.9862  2.0781
 4469SOL    HW224867   1.826   3.219  13.130 -0.8237 -0.4161 -1.8121
 4470SOL     OW24868   1.021   4.468   9.455  0.2034  0.5040  0.4458
 4470SOL    HW124869   1.038   4.374   9.450  0.3806  0.5079  0.9628
 4470SOL    HW224870   0.998   4.485   9.546  0.2512  0.8681  0.3897
 4471SOL     OW24871   2.626   1.942   8.590  0.8693  0.5073 -0.6352
 4471SOL    HW124872   2.623   1.869   8.528 -1.1107  0.3344 -0.3094
 4471SOL    HW224873   2.547   1.924   8.639 -0.2320  1.1655 -2.1633
 4472SOL     OW24874   3.378   2.998  11.288  0.2868 -0.6635 -0.4721
 4472SOL    HW124875   3.353   2.946  11.212 -1.4020  0.0996 -0.4322
 4472SOL    HW224876   3.446   3.056  11.253 -0.5887  0.5280 -0.1690
 4473SOL     OW24877   3.570   0.524   4.533  0.1845  0.2450  0.1871
 4473SOL    HW124878   3.622   0.453   4.495 -2.2515 -0.3522 -2.0811
 4473SOL    HW224879   3.557   0.579   4.456  2.8738  1.6255  0.7288
 4474SOL     OW24880   3.236   3.582   7.318  0.1836  0.1824 -0.3724
 4474SOL    HW124881   3.238   3.486   7.327  1.0693  0.3198  0.8626
 4474SOL    HW224882   3.329   3.601   7.316  0.5062 -1.2581  0.6762
 4475SOL     OW24883   4.472   1.056   0.682  0.0216  0.1892  0.0796
 4475SOL    HW124884   4.465   1.064   0.587 -2.9124 -1.3975  0.1609
 4475SOL    HW224885   4.402   1.114   0.712  0.0852  0.1222  0.3618
 4476SOL     OW24886   2.771   0.633   9.584  0.2392 -0.0852 -0.0227
 4476SOL    HW124887   2.857   0.609   9.620 -0.5773 -1.3793  1.0683
 4476SOL    HW224888   2.773   0.727   9.597 -0.5802 -0.1167  0.3164
 4477SOL     OW24889   0.978   0.602   8.779  0.1183 -0.4261  0.2107
 4477SOL    HW124890   0.977   0.507   8.774 -0.4037 -0.5045  2.0297
 4477SOL    HW224891   0.973   0.603   8.874  0.6716  4.7758  0.2136
 4478SOL     OW24892   1.318   3.779   5.738  0.0868 -0.3262 -0.1783
 4478SOL    HW124893   1.409   3.750   5.751  0.1152  0.4592  1.3497
 4478SOL    HW224894   1.328   3.842   5.666  0.2318  0.1803  0.2808
 4479SOL     OW24895   4.130   4.324  15.472  0.3264  0.1820 -0.7957
 4479SOL    HW124896   4.147   4.231  15.454  0.2115  0.1718 -0.8529
 4479SOL    HW224897   4.216   4.347  15.506  0.2383 -2.8667  1.4473
 4480SOL     OW24898   1.527   4.520  11.658 -0.5185  0.5565  0.2021
 4480SOL    HW124899   1.559   4.440  11.699 -1.4951  0.1651  0.2079
 4480SOL    HW224900   1.605   4.574  11.645 -1.2897  1.6161 -0.0025
 4481SOL     OW24901   0.746   3.282   6.295  0.1967  0.0503 -0.3592
 4481SOL    HW124902   0.815   3.238   6.246 -0.9448  1.1283 -2.9542
 4481SOL    HW224903   0.808   3.333   6.347  0.5151  0.4482 -1.1257
 4482SOL     OW24904   3.631   2.760   5.179 -0.3456 -0.2243 -0.4286
 4482SOL    HW124905   3.663   2.712   5.255 -1.4375  1.2920  1.0144
 4482SOL    HW224906   3.711   2.804   5.152  0.5678 -1.6719 -0.0467
 4483SOL     OW24907   1.185   1.288   5.391  0.0466 -0.0971 -0.4183
 4483SOL    HW124908   1.194   1.241   5.474 -0.7798 -0.2713 -0.4336
 4483SOL    HW224909   1.104   1.255   5.353 -0.1702  0.4956 -0.4603
 4484SOL     OW24910   3.364   1.022   5.246 -0.3961 -0.7240 -0.4481
 4484SOL    HW124911   3.430   1.056   5.307 -0.8325  0.6330 -0.7423
 4484SOL    HW224912   3.364   1.084   5.173 -1.3827 -1.3913 -1.0115
 4485SOL     OW24913   1.305   1.845   3.496  0.1008 -0.4035  0.5588
 4485SOL    HW124914   1.227   1.797   3.466 -0.1005 -1.3500  2.6601
 4485SOL    HW224915   1.371   1.800   3.444 -1.7204 -1.6014 -0.7511
 4486SOL     OW24916   3.708   0.276  13.561 -0.0012  0.4122  0.2434
 4486SOL    HW124917   3.721   0.360  13.605 -0.1047 -0.3113  1.6276
 4486SOL    HW224918   3.800   0.254  13.545 -0.7474 -1.9899 -0.7383
 4487SOL     OW24919   3.777   1.838  13.637 -0.0704 -0.4307  0.0538
 4487SOL    HW124920   3.865   1.818  13.605  0.0823  0.8287 -0.2813
 4487SOL    HW224921   3.739   1.753  13.661 -1.0085  0.1387  0.5628
 4488SOL     OW24922   3.667   3.787  13.176  0.1721  0.4457  0.1788
 4488SOL    HW124923   3.656   3.838  13.256 -1.4336  0.1757  0.1405
 4488SOL    HW224924   3.722   3.842  13.121  1.3984 -0.9281  0.0463
 4489SOL     OW24925   1.467   3.807   8.228 -0.1173 -0.6034  0.1559
 4489SOL    HW124926   1.545   3.788   8.176  0.3322  1.6367 -0.0124
 4489SOL    HW224927   1.413   3.844   8.158  1.7727 -0.1380 -1.0631
 4490SOL     OW24928   3.055   4.516   5.804  0.1141  0.3686 -0.0380
 4490SOL    HW124929   3.128   4.457   5.786  0.4708  1.0202 -0.7484
 4490SOL    HW224930   2.990   4.475   5.860  1.2388 -2.2276 -0.6649
 4491SOL     OW24931   4.620   0.989   7.261  0.5071  0.1403 -0.1636
 4491SOL    HW124932   4.653   0.900   7.274  1.6455  0.2730 -2.0472
 4491SOL    HW224933   4.704   1.037   7.264  0.9714 -0.8967  2.5959
 4492SOL     OW24934   2.339   3.933   3.068  0.0836 -0.5576  0.0486
 4492SOL    HW124935   2.328   3.966   2.979  0.7624  2.8066  1.2166
 4492SOL    HW224936   2.359   4.014   3.114  3.1016 -0.0868 -2.0738
 4493SOL     OW24937   0.721   2.148   8.290 -0.0517  0.0372  0.4094
 4493SOL    HW124938   0.660   2.076   8.274 -2.4862  1.5551  2.8360
 4493SOL    HW224939   0.793   2.123   8.231 -0.0499  1.0963 -0.0489
 4494SOL     OW24940   2.612   2.551   4.718 -0.3373  0.8611  0.0206
 4494SOL    HW124941   2.605   2.518   4.807 -0.5807  0.3001 -0.2070
 4494SOL    HW224942   2.597   2.645   4.729  0.0633  1.1097 -1.4657
 4495SOL     OW24943   4.440   0.246  11.351 -0.2098  0.7833  0.2116
 4495SOL    HW124944   4.459   0.241  11.258 -0.3389  0.9774  0.1747
 4495SOL    HW224945   4.346   0.230  11.357  0.1084 -1.1180 -0.0838
 4496SOL     OW24946   1.235   2.685  16.165 -0.2943  0.0783 -0.1789
 4496SOL    HW124947   1.299   2.688  16.236  1.4545 -4.2852 -1.5676
 4496SOL    HW224948   1.276   2.622  16.106 -0.5482 -0.1262 -0.1370
 4497SOL     OW24949   3.980   2.248   7.632  0.3426  0.1887  0.4494
 4497SOL    HW124950   3.991   2.342   7.618 -0.3851  0.3691  1.0720
 4497SOL    HW224951   4.072   2.222   7.625  0.8700  2.8329 -2.1940
 4498SOL     OW24952   4.388   2.561   0.107  0.4085 -0.0262  0.3266
 4498SOL    HW124953   4.311   2.533   0.057 -0.0952 -0.8241  1.5408
 4498SOL    HW224954   4.451   2.508   0.059 -0.7947 -0.4620 -0.7899
 4499SOL     OW24955   1.197   2.548   8.356 -0.2085  0.0853 -0.4105
 4499SOL    HW124956   1.202   2.556   8.451 -1.2726  0.5415 -0.3970
 4499SOL    HW224957   1.225   2.637   8.334  0.3721 -0.7495 -3.0372
 4500SOL     OW24958   2.570   2.780  10.149  0.1438  0.1948 -0.5454
 4500SOL    HW124959   2.591   2.699  10.104  0.2999 -0.5424  0.8755
 4500SOL    HW224960   2.512   2.761  10.222  1.4167 -0.8587  0.1854
 4501SOL     OW24961   1.794   2.385  16.776 -0.2662 -0.1719 -0.2991
 4501SOL    HW124962   1.802   2.427  16.690 -0.6570  1.5802  0.5263
 4501SOL    HW224963   1.884   2.353  16.779 -0.0698  0.1880 -2.0441
 4502SOL     OW24964   2.213   2.918   8.670 -0.2478 -0.4364 -0.0631
 4502SOL    HW124965   2.308   2.914   8.684 -0.2831 -2.8318 -0.5183
 4502SOL    HW224966   2.192   2.830   8.701  1.7610 -0.3065  1.6342
 4503SOL     OW24967   3.948   0.557  17.137  0.3922 -0.0069  0.0271
 4503SOL    HW124968   4.000   0.476  17.139 -0.0837 -0.3156 -0.1778
 4503SOL    HW224969   3.927   0.553  17.044 -1.6869 -0.8443  0.5279
 4504SOL     OW24970   3.974   1.297   4.012  0.6422  0.2044  0.4670
 4504SOL    HW124971   3.916   1.237   4.058  0.8835  1.1947  2.0436
 4504SOL    HW224972   3.948   1.383   4.047  0.5493  0.4374 -0.1697
 4505SOL     OW24973   3.744   3.724   9.720  0.5141  0.2564  0.0085
 4505SOL    HW124974   3.718   3.723   9.812  3.6087  0.3871  0.8772
 4505SOL    HW224975   3.690   3.652   9.688  0.1628  1.4765 -2.1771
 4506SOL     OW24976   1.299   0.509   4.194  0.1700  1.0820 -0.3332
 4506SOL    HW124977   1.257   0.573   4.137  0.7669  3.3940  1.8387
 4506SOL    HW224978   1.353   0.453   4.138 -0.6003 -1.5116  1.4840
 4507SOL     OW24979   1.838   0.156   8.914 -0.4236 -0.4600  0.2528
 4507SOL    HW124980   1.889   0.084   8.875 -1.5417 -0.3766 -1.3311
 4507SOL    HW224981   1.911   0.208   8.947  0.2761 -1.0575 -0.3377
 4508SOL     OW24982   4.053   0.074   2.753 -0.2927  0.8499 -0.2015
 4508SOL    HW124983   4.056   0.047   2.661  2.9056 -1.7382  0.6550
 4508SOL    HW224984   4.035   0.168   2.746 -1.0302  0.7481  0.4344
 4509SOL     OW24985   3.333   1.630   1.812 -0.1511  0.1390  0.2838
 4509SOL    HW124986   3.420   1.669   1.821  1.2778 -2.6423 -1.4422
 4509SOL    HW224987   3.295   1.682   1.883 -0.5058  0.0597  0.1521
 4510SOL     OW24988   3.860   3.923   6.325  0.3758  0.6397  0.2527
 4510SOL    HW124989   3.882   3.837   6.290  1.0563  0.7222  0.4857
 4510SOL    HW224990   3.810   3.954   6.249 -0.7374 -0.8512  0.3729
 4511SOL     OW24991   1.726   1.550   6.728 -0.4826  0.2273  0.0926
 4511SOL    HW124992   1.685   1.621   6.679 -1.5397 -0.3115  0.1881
 4511SOL    HW224993   1.733   1.475   6.669 -1.4976 -1.3537  1.9862
 4512SOL     OW24994   1.963   3.011   4.871  0.6892  0.2760  0.0805
 4512SOL    HW124995   2.051   2.992   4.904  1.9768  1.3529 -2.7339
 4512SOL    HW224996   1.964   3.106   4.857  0.6910  0.1370 -0.8190
 4513SOL     OW24997   1.614   1.313   3.352 -0.0114 -0.5193 -0.5711
 4513SOL    HW124998   1.618   1.390   3.408 -0.5667 -0.1724 -1.0094
 4513SOL    HW224999   1.542   1.324   3.289 -1.5794  0.0542  1.2940
 4514SOL     OW25000   2.684   4.598  14.339 -0.0390  0.4812  0.1173
 4514SOL    HW125001   2.706   4.610  14.246 -1.0045  4.0455  0.3612
 4514SOL    HW225002   2.742   4.664  14.376 -0.8858  1.2504  0.0604
 4515SOL     OW25003   1.905   4.132   5.899 -0.0466 -0.0192 -0.0210
 4515SOL    HW125004   1.997   4.125   5.872 -0.2093  4.1350 -1.5699
 4515SOL    HW225005   1.913   4.166   5.988  0.3765  0.1218 -0.1133
 4516SOL     OW25006   2.285   0.521   9.141 -0.0875  0.7700 -0.0569
 4516SOL    HW125007   2.302   0.519   9.235 -1.6695  0.0972  0.2231
 4516SOL    HW225008   2.344   0.449   9.120 -0.7979 -0.0902  0.8747
 4517SOL     OW25009   2.472   4.592   2.358 -0.6283 -0.4372  0.2756
 4517SOL    HW125010   2.417   4.634   2.425 -0.9812 -0.0764 -0.2421
 4517SOL    HW225011   2.555   4.640   2.363 -1.0558  0.3012  0.2323
 4518SOL     OW25012   0.632   1.151   3.680  0.0370  0.2971 -0.1594
 4518SOL    HW125013   0.688   1.228   3.687  0.7004  0.0186 -2.6433
 4518SOL    HW225014   0.626   1.122   3.772 -0.7658 -1.9546 -0.9175
 4519SOL     OW25015   1.834   0.830   2.648  0.4479  0.1568 -0.0168
 4519SOL    HW125016   1.915   0.851   2.602 -0.2938  0.1074 -1.3486
 4519SOL    HW225017   1.799   0.919   2.654  0.8548  0.3015  0.1561
 4520SOL     OW25018   1.058   4.316  11.543  0.3087 -0.1676 -0.4422
 4520SOL    HW125019   1.098   4.240  11.585  1.8170 -0.0026 -1.6060
 4520SOL    HW225020   1.127   4.377  11.570 -1.2734  0.7446  1.5586
 4521SOL     OW25021   3.540   3.158   6.857  0.2532  0.2327 -0.0635
 4521SOL    HW125022   3.476   3.221   6.892  1.1219 -0.0713  2.1016
 4521SOL    HW225023   3.624   3.191   6.889  0.2737  1.1206 -1.0236
 4522SOL     OW25024   4.667   0.731  11.864  0.5872 -0.1141 -0.2575
 4522SOL    HW125025   4.598   0.677  11.826 -0.1706 -1.3649  2.8411
 4522SOL    HW225026   4.688   0.681  11.943 -0.0123 -1.4031 -0.9148
 4523SOL     OW25027   3.510   2.409   8.941 -0.4889  0.3810  0.4198
 4523SOL    HW125028   3.575   2.426   8.872  0.3125 -0.9213  0.8676
 4523SOL    HW225029   3.492   2.316   8.925 -1.1003  0.2111  2.1483
 4524SOL     OW25030   0.039   2.067  11.361  0.5322  0.0856 -0.3978
 4524SOL    HW125031   4.699   2.112  11.305  0.4919  0.6851  0.1321
 4524SOL    HW225032   0.039   1.979  11.323 -2.7865  0.7442 -1.8341
 4525SOL     OW25033   1.022   2.760  16.389 -0.5675  0.5851  0.0291
 4525SOL    HW125034   1.117   2.768  16.393 -0.5514  0.6846 -0.5414
 4525SOL    HW225035   0.997   2.758  16.481  2.3257 -2.8020  0.7077
 4526SOL     OW25036   0.252   1.357  12.244 -0.1128  0.1876  0.7602
 4526SOL    HW125037   0.208   1.433  12.282 -1.2515  0.5967 -1.3697
 4526SOL    HW225038   0.265   1.390  12.155 -0.4456  1.1700  1.0777
 4527SOL     OW25039   2.906   3.826   8.382 -0.1747 -0.4148 -0.4882
 4527SOL    HW125040   2.983   3.802   8.331 -0.0291 -2.1393  0.5638
 4527SOL    HW225041   2.931   3.915   8.410  0.6181 -0.9675  0.5682
 4528SOL     OW25042   1.171   4.450   8.431 -0.1387  0.6892 -0.1154
 4528SOL    HW125043   1.100   4.503   8.466 -1.2671  0.4048 -1.9685
 4528SOL    HW225044   1.217   4.417   8.509  0.2424 -0.3487 -0.7756
 4529SOL     OW25045   3.645   3.974  15.172 -0.0465 -0.2303  0.0761
 4529SOL    HW125046   3.584   4.024  15.117  2.1554  1.8390 -0.4667
 4529SOL    HW225047   3.720   3.966  15.113  0.0126 -2.7389  0.4734
 4530SOL     OW25048   0.407   4.636   2.512  0.2659 -1.0186  0.6592
 4530SOL    HW125049   0.378   4.610   2.424 -1.0062  0.5325  0.6327
 4530SOL    HW225050   0.439   4.552   2.545  1.5310 -1.0052 -0.5615
 4531SOL     OW25051   1.222   1.056  14.133  0.1410 -0.1852  0.4292
 4531SOL    HW125052   1.289   1.036  14.068  0.9341  2.0683  0.5420
 4531SOL    HW225053   1.145   1.071  14.079  0.1594 -1.6815 -0.0013
 4532SOL     OW25054   4.699   4.054   1.681 -0.1298  0.0471 -0.0543
 4532SOL    HW125055   0.052   4.112   1.679 -1.5008  1.8521  0.5127
 4532SOL    HW225056   0.004   3.989   1.617  0.3626  1.1169 -0.9162
 4533SOL     OW25057   0.726   0.579   6.602 -0.2652 -0.1037  0.1861
 4533SOL    HW125058   0.703   0.663   6.563  0.9399 -0.7364 -1.9029
 4533SOL    HW225059   0.809   0.558   6.559 -0.6374 -3.9354  1.3079
 4534SOL     OW25060   4.505   2.128   9.132 -0.0549  0.2350 -0.4042
 4534SOL    HW125061   4.571   2.060   9.139 -0.6942 -0.1341  1.9339
 4534SOL    HW225062   4.432   2.084   9.176 -0.6309  1.4115 -0.1765
 4535SOL     OW25063   4.160   1.573   6.378 -0.6985 -0.2972 -0.4241
 4535SOL    HW125064   4.142   1.524   6.298 -0.1201  0.1403 -0.8185
 4535SOL    HW225065   4.082   1.629   6.381 -0.8589 -0.5059 -0.7075
 4536SOL     OW25066   0.026   2.106   5.482 -0.6669 -0.0592 -0.2650
 4536SOL    HW125067   4.711   2.114   5.569  0.6940 -0.4954  0.3659
 4536SOL    HW225068   4.700   2.174   5.436  0.6395  0.8825 -0.2374
 4537SOL     OW25069   1.413   2.381   1.780  0.1847 -0.0128 -0.0430
 4537SOL    HW125070   1.410   2.330   1.699 -1.3262 -0.2655  0.1599
 4537SOL    HW225071   1.329   2.356   1.820  0.7130 -0.0282  1.0325
 4538SOL     OW25072   2.709   2.615  11.733  0.5383 -0.5422  0.3442
 4538SOL    HW125073   2.784   2.571  11.774  1.4962  0.1733 -0.6537
 4538SOL    HW225074   2.741   2.701  11.758  1.7530 -0.1002 -2.7916
 4539SOL     OW25075   1.957   4.500   5.916 -0.5553  0.1051 -0.2614
 4539SOL    HW125076   1.881   4.516   5.859 -0.1799  0.5398 -0.6406
 4539SOL    HW225077   1.923   4.521   6.003  2.4103  2.1730  0.3991
 4540SOL     OW25078   1.739   4.374   7.621 -0.1072 -0.3208 -0.1862
 4540SOL    HW125079   1.654   4.358   7.662  0.7387 -0.5182  1.5041
 4540SOL    HW225080   1.759   4.292   7.575 -0.6177  1.0650 -2.8963
 4541SOL     OW25081   4.353   3.721   5.790 -0.2149 -0.1681  0.8600
 4541SOL    HW125082   4.400   3.793   5.748 -2.9223  0.3178 -1.3640
 4541SOL    HW225083   4.378   3.732   5.882  0.2838  0.4267  0.6522
 4542SOL     OW25084   4.126   2.262   4.341 -0.1281  0.0957 -0.1805
 4542SOL    HW125085   4.180   2.205   4.286 -1.9846 -0.8811 -0.9992
 4542SOL    HW225086   4.045   2.261   4.290 -0.4264 -0.3559  0.2947
 4543SOL     OW25087   2.565   1.546  15.239 -0.6562  0.3061  0.0753
 4543SOL    HW125088   2.473   1.568  15.226 -0.6438 -0.2849 -0.9548
 4543SOL    HW225089   2.583   1.472  15.182  2.2511  0.3743  0.8756
 4544SOL     OW25090   1.772   0.174  13.408  0.3202 -0.4437 -0.2739
 4544SOL    HW125091   1.683   0.151  13.435 -0.0965  1.7191  0.2353
 4544SOL    HW225092   1.779   0.167  13.313 -1.4143 -0.9254 -0.3619
 4545SOL     OW25093   3.142   3.531   9.145  0.1270 -0.4260  0.1866
 4545SOL    HW125094   3.207   3.584   9.099  0.5469  0.4638  1.7932
 4545SOL    HW225095   3.193   3.461   9.187  0.8957 -0.5580 -0.9563
 4546SOL     OW25096   1.033   3.879   7.949  0.0684  0.3279  0.0700
 4546SOL    HW125097   1.086   3.858   8.025 -1.9788 -0.5303  1.2578
 4546SOL    HW225098   1.068   3.818   7.884  3.0699 -0.0908  2.0911
 4547SOL     OW25099   4.257   2.461   7.763  0.1640 -0.1944 -0.3308
 4547SOL    HW125100   4.288   2.383   7.717 -0.1290 -1.5432  1.7935
 4547SOL    HW225101   4.234   2.523   7.693 -2.1514 -0.3496  0.2931
 4548SOL     OW25102   1.499   3.565  16.440  0.0618 -0.6245  0.4809
 4548SOL    HW125103   1.491   3.516  16.358  0.5703  0.2046 -0.0697
 4548SOL    HW225104   1.594   3.559  16.449 -0.0547 -0.7010  1.6546
 4549SOL     OW25105   2.701   4.087   3.679  0.5788 -0.2111 -0.0694
 4549SOL    HW125106   2.693   4.182   3.680 -0.8357 -0.3248 -0.7791
 4549SOL    HW225107   2.641   4.064   3.750  1.8831 -0.4309  0.9726
 4550SOL     OW25108   1.715   2.727   8.057  0.3790  0.1889 -0.3419
 4550SOL    HW125109   1.658   2.800   8.035  0.8128  0.1962 -1.4457
 4550SOL    HW225110   1.697   2.665   7.986 -2.7135 -0.5466  1.1188
 4551SOL     OW25111   1.382   3.287   5.582  0.6834 -0.3644  0.3458
 4551SOL    HW125112   1.434   3.245   5.651 -0.0092  0.0037  1.0985
 4551SOL    HW225113   1.440   3.273   5.508  0.6460  0.0986  0.2279
 4552SOL     OW25114   2.879   3.616   1.914  0.2998  0.2317  0.7577
 4552SOL    HW125115   2.885   3.658   1.828 -0.4932  1.4001  1.2638
 4552SOL    HW225116   2.791   3.645   1.938  0.5668  3.1425 -1.6819
 4553SOL     OW25117   2.134   0.501   6.353  0.3091  0.4817 -0.0188
 4553SOL    HW125118   2.077   0.570   6.319  1.2396  2.4247  2.3648
 4553SOL    HW225119   2.140   0.533   6.443  0.5309 -0.1532  0.1888
 4554SOL     OW25120   2.306   4.516   8.596  0.2034  0.0659  0.2556
 4554SOL    HW125121   2.211   4.505   8.606  0.1358  1.4298  1.1090
 4554SOL    HW225122   2.341   4.441   8.642 -0.6743 -0.6761 -0.2833
 4555SOL     OW25123   3.843   3.593   4.882  0.7512 -0.2566 -0.5909
 4555SOL    HW125124   3.822   3.670   4.829 -1.6260  0.4596  1.3971
 4555SOL    HW225125   3.868   3.640   4.962  0.6192  1.1108 -1.3494
 4556SOL     OW25126   3.057   2.644   4.148  0.0387  0.0594 -0.2162
 4556SOL    HW125127   3.120   2.673   4.081  0.6363 -0.3488  0.1661
 4556SOL    HW225128   3.083   2.711   4.211  3.6059  0.0456 -1.6387
 4557SOL     OW25129   1.548   2.396   0.131  0.2280 -0.0299  0.5304
 4557SOL    HW125130   1.560   2.396   0.036  1.7016  2.7138  0.7270
 4557SOL    HW225131   1.623   2.448   0.159  0.9130 -0.6289 -0.1579
 4558SOL     OW25132   2.977   0.837  15.959 -0.2047  0.0505 -0.3545
 4558SOL    HW125133   2.950   0.919  16.001 -0.2733  0.1377 -0.5666
 4558SOL    HW225134   2.936   0.846  15.873  1.4993 -2.8615 -1.4610
 4559SOL     OW25135   0.057   0.039  17.413  0.0032  0.2076 -0.3304
 4559SOL    HW125136   0.031   4.680  17.371 -0.9821  0.1437  0.4164
 4559SOL    HW225137   0.015   0.091  17.345  0.4597 -0.5321 -1.1993
 4560SOL     OW25138   0.434   2.451   1.002  0.5823 -0.3460  0.2174
 4560SOL    HW125139   0.416   2.413   1.088  1.4304 -0.6199  0.2676
 4560SOL    HW225140   0.434   2.545   1.020 -1.2631 -0.4317  0.7158
 4561SOL     OW25141   2.546   2.146  12.756 -0.4790  0.1813  0.2148
 4561SOL    HW125142   2.573   2.234  12.779 -0.4461  0.6047 -1.4274
 4561SOL    HW225143   2.603   2.131  12.680  1.1240 -0.6576  1.5873
 4562SOL     OW25144   0.807   1.700  15.735 -0.5299 -0.3741  0.3340
 4562SOL    HW125145   0.745   1.677  15.666 -2.3340 -0.7912  2.1048
 4562SOL    HW225146   0.759   1.755  15.796 -1.7758 -0.5452 -0.5007
 4563SOL     OW25147   1.060   1.872  14.499  0.0642 -1.1026 -0.0160
 4563SOL    HW125148   1.006   1.885  14.577  0.1771 -0.5919 -0.0191
 4563SOL    HW225149   1.141   1.897  14.544 -1.6192  0.1040  2.3824
 4564SOL     OW25150   2.227   1.773   5.346  0.5313  0.6020  0.4085
 4564SOL    HW125151   2.148   1.826   5.336 -0.3936 -0.4247  2.1769
 4564SOL    HW225152   2.242   1.739   5.258 -1.2292  2.2337 -0.5184
 4565SOL     OW25153   4.147   1.217   7.218  0.0528  0.5565 -0.2381
 4565SOL    HW125154   4.142   1.146   7.153 -0.3800  1.5044 -1.2316
 4565SOL    HW225155   4.102   1.289   7.173  0.5729  0.2223 -1.3172
 4566SOL     OW25156   0.669   2.740   9.995  0.4416  0.2573 -0.2395
 4566SOL    HW125157   0.631   2.817  10.037 -0.0986 -0.0354 -0.1925
 4566SOL    HW225158   0.758   2.772   9.977  0.9622  0.1172  2.0407
 4567SOL     OW25159   3.509   3.930   4.796  0.6529 -0.2033 -0.3641
 4567SOL    HW125160   3.504   3.998   4.863  1.6256 -0.3179 -0.1754
 4567SOL    HW225161   3.421   3.893   4.783  1.1339 -1.3720 -0.3454
 4568SOL     OW25162   4.158   1.795  10.387  0.1032 -0.8679  0.6199
 4568SOL    HW125163   4.177   1.771  10.478 -1.3002  1.0531  1.4390
 4568SOL    HW225164   4.148   1.890  10.394  1.4512 -0.6583 -0.3449
 4569SOL     OW25165   3.107   0.590   3.818 -0.2866 -0.3090 -0.4632
 4569SOL    HW125166   3.127   0.544   3.737  0.4041  1.0240 -1.0614
 4569SOL    HW225167   3.012   0.576   3.818 -0.3382 -0.0040 -1.9497
 4570SOL     OW25168   3.174   3.785  13.031  0.7749 -0.8395  0.2059
 4570SOL    HW125169   3.106   3.732  12.989 -1.7526  1.1365  1.8040
 4570SOL    HW225170   3.132   3.871  13.027  0.2217 -1.1068  0.2589
 4571SOL     OW25171   0.833   1.598   4.281 -0.2286 -0.4698 -0.1274
 4571SOL    HW125172   0.772   1.525   4.268  1.9044 -2.4985  1.2959
 4571SOL    HW225173   0.851   1.582   4.373 -0.8868 -3.4567 -0.5193
 4572SOL     OW25174   1.329   0.356   8.992  0.3394  0.6820 -0.0079
 4572SOL    HW125175   1.362   0.266   8.990 -0.4117  0.4068  0.1344
 4572SOL    HW225176   1.297   0.348   9.081  2.5799 -1.2741  0.6456
 4573SOL     OW25177   2.016   2.530  13.596  0.2301 -0.3198 -0.5673
 4573SOL    HW125178   1.978   2.477  13.666 -1.0057 -0.9173 -1.6973
 4573SOL    HW225179   1.971   2.497  13.519  1.0836 -0.7608 -0.8770
 4574SOL     OW25180   4.652   2.222   5.098 -0.4416  0.3337 -0.3433
 4574SOL    HW125181   4.604   2.294   5.057  0.7997  0.6471 -1.2615
 4574SOL    HW225182   4.619   2.152   5.043 -0.8238 -1.3655  2.0610
 4575SOL     OW25183   3.042   1.664  11.085  0.6959  0.5476  0.5689
 4575SOL    HW125184   3.098   1.618  11.022  0.6620 -2.0573  2.4263
 4575SOL    HW225185   3.030   1.594  11.150  0.5398 -0.5518 -0.6255
 4576SOL     OW25186   0.128   3.788  10.369 -0.1256 -0.5512 -0.2425
 4576SOL    HW125187   0.144   3.877  10.400  0.2868 -0.3861 -0.9353
 4576SOL    HW225188   0.085   3.744  10.443  1.3807  0.4654  1.2429
 4577SOL     OW25189   4.190   3.134   3.333 -0.0600  0.4678  0.4772
 4577SOL    HW125190   4.144   3.183   3.264 -0.2736 -0.5544 -0.1140
 4577SOL    HW225191   4.263   3.195   3.340  1.4396 -1.3698  0.8526
 4578SOL     OW25192   1.104   1.579  13.177 -0.0310 -0.3841  0.3047
 4578SOL    HW125193   1.123   1.489  13.150 -1.6619 -0.8758  0.7678
 4578SOL    HW225194   1.157   1.594  13.255  0.1206 -1.2258  0.3615
 4579SOL     OW25195   0.501   4.619   6.015 -0.1579 -0.0026 -0.5174
 4579SOL    HW125196   0.533   4.583   5.932 -3.6406 -0.9164 -1.4630
 4579SOL    HW225197   0.419   4.667   6.004 -0.3628 -0.4619 -1.0068
 4580SOL     OW25198   4.509   0.896   3.415  0.1636  0.5708 -0.1816
 4580SOL    HW125199   4.414   0.896   3.407  0.0995 -0.5961  0.5107
 4580SOL    HW225200   4.516   0.990   3.401 -0.4314  0.8011  1.0998
 4581SOL     OW25201   3.497   4.382   5.536 -0.1587  0.5296 -0.1840
 4581SOL    HW125202   3.406   4.381   5.565 -0.5134 -1.2755 -1.4238
 4581SOL    HW225203   3.490   4.411   5.445 -0.6846  0.3056 -0.2166
 4582SOL     OW25204   3.597   4.610  15.716 -0.4314  0.0651 -0.7942
 4582SOL    HW125205   3.624   4.590  15.806  1.2486 -0.5692 -1.4482
 4582SOL    HW225206   3.509   4.648  15.721  0.0424  1.1303 -0.5550
 4583SOL     OW25207   1.332   3.503  14.695 -0.4177 -0.4029 -0.1086
 4583SOL    HW125208   1.281   3.519  14.775 -0.1351  0.4261 -0.0981
 4583SOL    HW225209   1.322   3.590  14.658  0.0281  0.2890  1.3996
 4584SOL     OW25210   3.643   2.151   4.235  0.4380  0.1276 -0.3234
 4584SOL    HW125211   3.662   2.196   4.317 -2.1686 -2.5816  1.7635
 4584SOL    HW225212   3.726   2.133   4.191  0.8028 -0.7013  0.7134
 4585SOL     OW25213   0.778   2.503   4.339  0.2132  0.4574  0.8822
 4585SOL    HW125214   0.728   2.442   4.284  0.3914 -0.1207  1.3619
 4585SOL    HW225215   0.700   2.549   4.369  0.4528  0.5209  1.3998
 4586SOL     OW25216   0.444   1.805   6.876  0.0540 -0.0064  0.3958
 4586SOL    HW125217   0.451   1.884   6.822  1.5071  0.8073  1.7585
 4586SOL    HW225218   0.429   1.735   6.812 -2.1952 -1.0343  2.0308
 4587SOL     OW25219   0.054   0.516  15.381  0.3422 -0.2679 -0.2430
 4587SOL    HW125220   0.049   0.421  15.379 -0.4303 -0.2309  0.0650
 4587SOL    HW225221   4.703   0.530  15.323  0.4066 -1.2530 -0.5630
 4588SOL     OW25222   3.298   0.566  14.356  0.2261 -0.5692 -0.3543
 4588SOL    HW125223   3.375   0.588  14.304 -0.6860  0.4300 -1.2957
 4588SOL    HW225224   3.302   0.640  14.417 -1.2061  0.0462 -1.0020
 4589SOL     OW25225   0.684   1.921  11.475 -0.4294 -0.2240 -0.6595
 4589SOL    HW125226   0.677   1.826  11.471  2.9936 -0.4593 -1.6126
 4589SOL    HW225227   0.722   1.928  11.563 -0.5662  0.6845 -0.6764
 4590SOL     OW25228   3.609   3.487   4.496  0.0468 -0.0402 -0.1137
 4590SOL    HW125229   3.699   3.515   4.482  0.0449 -0.1427 -0.3245
 4590SOL    HW225230   3.571   3.562   4.541 -0.7081 -1.0853  1.0057
 4591SOL     OW25231   2.326   1.900   0.031  0.3459  0.1983  0.2914
 4591SOL    HW125232   2.306   1.815  17.687  1.5179  0.4348 -0.8329
 4591SOL    HW225233   2.327   1.963  17.653 -2.3898 -0.8546 -0.6493
 4592SOL     OW25234   4.108   4.014  11.567  0.0929  0.6861 -0.1700
 4592SOL    HW125235   4.135   4.048  11.652 -0.3133  2.5109 -0.7691
 4592SOL    HW225236   4.182   4.038  11.511  0.8856  1.3903  1.1989
 4593SOL     OW25237   1.472   3.328  17.503 -0.2966 -0.0635  0.6884
 4593SOL    HW125238   1.393   3.287  17.539 -2.2828  2.3678 -0.9448
 4593SOL    HW225239   1.481   3.271  17.427 -1.8310 -0.5671  0.8943
 4594SOL     OW25240   0.167   2.596   6.582 -0.1365  0.1025 -0.9172
 4594SOL    HW125241   0.249   2.622   6.624 -0.1095  1.6203 -1.8908
 4594SOL    HW225242   0.190   2.507   6.556 -1.1053 -0.8242  1.4656
 4595SOL     OW25243   3.116   1.403   7.310 -0.1678  0.5538  0.3695
 4595SOL    HW125244   3.109   1.321   7.359  0.0391 -0.1302 -0.7474
 4595SOL    HW225245   3.043   1.451   7.350  0.1089  0.1495  1.3616
 4596SOL     OW25246   1.638   3.853  15.233 -0.7361  0.2190  0.3284
 4596SOL    HW125247   1.567   3.809  15.187  0.3386  0.1843 -1.3024
 4596SOL    HW225248   1.687   3.874  15.153  0.9869  1.1470  1.6270
 4597SOL     OW25249   2.131   3.935   8.924 -0.0268 -0.1135  0.0927
 4597SOL    HW125250   2.153   4.028   8.928  2.2052 -0.6678  0.3119
 4597SOL    HW225251   2.037   3.936   8.944  0.1422  1.2087  0.8366
 4598SOL     OW25252   0.218   4.485  16.641 -0.1330  0.0767 -0.4113
 4598SOL    HW125253   0.255   4.417  16.584  0.6025  1.2518 -1.3305
 4598SOL    HW225254   0.293   4.514  16.692 -1.9906 -1.6094  3.3243
 4599SOL     OW25255   3.887   0.565   5.994  0.3048  0.2508  0.4508
 4599SOL    HW125256   3.797   0.557   6.025  0.1323 -2.4442 -0.7986
 4599SOL    HW225257   3.898   0.648   6.041 -2.0165  0.4850  0.5822
 4600SOL     OW25258   2.777   4.130   8.119  0.6368 -0.2580 -0.3598
 4600SOL    HW125259   2.870   4.148   8.130  0.6641 -0.0503 -0.9198
 4600SOL    HW225260   2.754   4.204   8.062 -0.7129 -1.7451 -1.7442
 4601SOL     OW25261   2.258   2.113   6.056  0.4496  0.3243  0.0794
 4601SOL    HW125262   2.168   2.114   6.024  0.4305 -0.2303  0.1159
 4601SOL    HW225263   2.251   2.192   6.110 -1.3857  0.6194 -0.5863
 4602SOL     OW25264   0.632   1.419   2.546 -0.5761  0.5669 -0.2160
 4602SOL    HW125265   0.614   1.511   2.528  0.2549  0.5386 -1.1617
 4602SOL    HW225266   0.717   1.401   2.505 -0.6902 -0.3955 -0.0341
 4603SOL     OW25267   4.360   4.345   8.765 -0.2891 -0.1582 -0.0561
 4603SOL    HW125268   4.427   4.405   8.799 -1.3033  0.8310  0.1782
 4603SOL    HW225269   4.285   4.393   8.799  0.1232 -0.1825  0.9063
 4604SOL     OW25270   1.280   3.223   4.591 -0.1015 -0.2249 -1.1144
 4604SOL    HW125271   1.212   3.180   4.540 -0.4450 -0.2643 -0.6305
 4604SOL    HW225272   1.247   3.313   4.594  0.8952  0.1095 -0.2383
 4605SOL     OW25273   2.722   1.296  13.323 -0.2627  0.4184 -0.1078
 4605SOL    HW125274   2.687   1.300  13.233 -0.1919 -2.5776 -0.2597
 4605SOL    HW225275   2.788   1.366  13.328  1.6488 -1.4234  0.0922
 4606SOL     OW25276   1.807   0.059   2.797 -0.6896  0.5037 -0.1408
 4606SOL    HW125277   1.716   0.073   2.772 -0.6894 -1.4147 -1.2409
 4606SOL    HW225278   1.857   0.118   2.740 -0.2838  0.0675 -0.2360
 4607SOL     OW25279   3.519   3.510  10.356  0.4923  0.5702  0.1629
 4607SOL    HW125280   3.482   3.598  10.350  2.0660  1.2290  0.0129
 4607SOL    HW225281   3.598   3.510  10.302 -1.5669  0.6301 -2.8838
 4608SOL     OW25282   0.851   2.134   1.973 -0.1877 -0.1074  0.1162
 4608SOL    HW125283   0.926   2.191   1.953 -2.7085  3.2810  0.2300
 4608SOL    HW225284   0.784   2.161   1.910  1.2148  0.3999 -1.1466
 4609SOL     OW25285   4.361   2.289  12.168  0.3844  0.1628  0.1709
 4609SOL    HW125286   4.406   2.297  12.084  1.0192 -2.2391  0.2844
 4609SOL    HW225287   4.352   2.380  12.194 -1.1483  0.2598 -0.7406
 4610SOL     OW25288   1.890   1.832   1.886 -1.2302  0.0978 -0.1144
 4610SOL    HW125289   1.966   1.815   1.829 -1.6266  0.8410 -0.8599
 4610SOL    HW225290   1.870   1.925   1.879  0.6660  0.5980  1.2165
 4611SOL     OW25291   3.994   3.607  11.452 -0.2517  0.7251 -0.2619
 4611SOL    HW125292   4.062   3.551  11.414  0.4255  0.5239  1.2588
 4611SOL    HW225293   3.934   3.593  11.378 -2.7237  0.9605  1.7226
 4612SOL     OW25294   1.447   0.751   6.258 -0.6979 -0.0904 -0.0189
 4612SOL    HW125295   1.520   0.785   6.206 -0.7767  1.0766  0.6414
 4612SOL    HW225296   1.453   0.777   6.350  0.2227  0.9544 -0.3791
 4613SOL     OW25297   0.961   3.938  12.048  0.5822 -0.3640  0.2930
 4613SOL    HW125298   1.002   3.866  12.000  1.0892 -0.3812  0.7535
 4613SOL    HW225299   1.033   3.973  12.101  0.6990 -0.0590 -0.0654
 4614SOL     OW25300   1.305   0.266   5.304  0.7061 -1.0325 -0.0103
 4614SOL    HW125301   1.374   0.207   5.334  1.4465  0.0837  0.4517
 4614SOL    HW225302   1.336   0.289   5.216  1.4512 -3.0613 -0.2728
 4615SOL     OW25303   2.399   2.146   6.794 -0.2265  0.3285  0.5106
 4615SOL    HW125304   2.309   2.120   6.813  0.8187 -1.7409  2.5014
 4615SOL    HW225305   2.426   2.087   6.724 -0.3226 -0.2406  0.9533
 4616SOL     OW25306   4.063   0.424  12.089 -0.1406  0.1860  0.4745
 4616SOL    HW125307   4.096   0.390  12.172 -1.5087 -0.8459  0.5926
 4616SOL    HW225308   4.007   0.356  12.053  0.0916  0.9091 -1.2518
 4617SOL     OW25309   0.307   1.779   0.209  0.5568 -0.7560 -0.5166
 4617SOL    HW125310   0.313   1.822   0.124 -0.3323 -1.5478 -0.9876
 4617SOL    HW225311   0.370   1.840   0.247 -1.4162  0.5987  0.6043
 4618SOL     OW25312   1.608   3.587  10.190  0.1306  0.3741 -0.0569
 4618SOL    HW125313   1.613   3.682  10.184 -1.0678  0.4817  0.7595
 4618SOL    HW225314   1.677   3.554  10.131 -0.6414  0.4139 -0.9805
 4619SOL     OW25315   1.485   0.741   0.217 -0.1079  0.0560 -0.1057
 4619SOL    HW125316   1.390   0.730   0.227 -0.1565  0.6470  0.0862
 4619SOL    HW225317   1.487   0.698   0.132 -0.6577 -1.2777  0.5571
 4620SOL     OW25318   1.315   2.354   5.212 -0.0967  0.1392  0.2869
 4620SOL    HW125319   1.234   2.365   5.163  1.2167  1.5678 -1.5535
 4620SOL    HW225320   1.372   2.419   5.170  2.3241  0.1576  3.6126
 4621SOL     OW25321   3.584   0.974  10.792  0.1100  0.0553  0.1827
 4621SOL    HW125322   3.572   1.061  10.755 -0.8946 -0.1103  0.1219
 4621SOL    HW225323   3.584   0.993  10.885  0.2715 -0.2275  0.2425
 4622SOL     OW25324   4.339   0.406   8.979  0.2010 -0.2891 -0.3443
 4622SOL    HW125325   4.269   0.444   9.032  0.4502 -0.6813  0.2683
 4622SOL    HW225326   4.356   0.486   8.928 -0.6012 -0.1916 -0.4489
 4623SOL     OW25327   2.162   4.240   7.396 -0.1822  0.0802  0.2014
 4623SOL    HW125328   2.121   4.155   7.379  1.1467 -0.3962 -0.5993
 4623SOL    HW225329   2.167   4.249   7.491  1.3719  1.7117 -0.0359
 4624SOL     OW25330   2.536   2.804   4.754 -0.5918 -0.3764  0.7191
 4624SOL    HW125331   2.536   2.873   4.688  0.2315 -0.0067  1.1068
 4624SOL    HW225332   2.531   2.861   4.832 -0.2418  0.1848  0.3293
 4625SOL     OW25333   1.205   0.209   6.428  0.5624 -0.1749  0.3101
 4625SOL    HW125334   1.114   0.210   6.457 -0.2251  1.0777 -2.1679
 4625SOL    HW225335   1.218   0.115   6.418  2.1858  0.0793  0.0140
 4626SOL     OW25336   0.398   0.270   6.749  0.2105  0.2143  0.0477
 4626SOL    HW125337   0.413   0.177   6.732 -1.2461  0.1678 -0.9920
 4626SOL    HW225338   0.316   0.283   6.700 -0.2296  0.2980  0.8047
 4627SOL     OW25339   1.377   4.565   2.437  0.5043 -1.0361  0.0553
 4627SOL    HW125340   1.340   4.541   2.351 -0.8186  0.6629  0.1630
 4627SOL    HW225341   1.429   4.486   2.447 -1.3006 -1.7526  3.8298
 4628SOL     OW25342   2.642   1.050   2.755  0.0290  0.0080  0.2689
 4628SOL    HW125343   2.589   1.063   2.676  0.2726  0.4482  0.1775
 4628SOL    HW225344   2.704   1.122   2.748 -1.3902  0.9859 -2.2922
 4629SOL     OW25345   4.017   4.468  10.806 -0.0738  0.0428  0.5653
 4629SOL    HW125346   3.989   4.446  10.895 -1.8540 -1.0580 -0.2709
 4629SOL    HW225347   3.937   4.479  10.755  0.4414  2.3085  0.2512
 4630SOL     OW25348   3.603   0.874   8.038 -0.2217  0.0323  0.2483
 4630SOL    HW125349   3.570   0.956   8.001  1.2789 -0.3068 -1.9116
 4630SOL    HW225350   3.576   0.879   8.129  0.2325 -0.0634  0.3903
 4631SOL     OW25351   4.385   0.015   2.559 -0.0367  0.2931  0.5059
 4631SOL    HW125352   4.306   0.061   2.532  1.5709  2.5215 -0.4772
 4631SOL    HW225353   4.361   4.677   2.628 -0.8771 -1.3824 -1.2847
 4632SOL     OW25354   1.102   3.686   7.788 -0.2368 -0.2467 -0.4276
 4632SOL    HW125355   1.179   3.682   7.732  0.9602 -2.0725  1.3861
 4632SOL    HW225356   1.042   3.621   7.750 -0.2042 -0.3807 -0.2480
 4633SOL     OW25357   0.364   3.071   7.864 -0.3170  0.5166 -0.2511
 4633SOL    HW125358   0.315   3.061   7.946 -0.2866 -2.4646 -0.5876
 4633SOL    HW225359   0.305   3.131   7.819 -2.0243 -1.2207 -0.3335
 4634SOL     OW25360   0.463   0.597   8.725 -0.8350  0.0116  0.4278
 4634SOL    HW125361   0.373   0.628   8.732 -1.0083 -0.4554  0.2829
 4634SOL    HW225362   0.507   0.674   8.761 -1.2015  1.1918 -1.7125
 4635SOL     OW25363   3.225   0.431   5.598 -0.0619  0.5822 -0.4715
 4635SOL    HW125364   3.265   0.456   5.514 -0.0141 -1.6642 -1.1088
 4635SOL    HW225365   3.241   0.503   5.660 -2.8699 -0.8183  1.8633
 4636SOL     OW25366   1.746   1.464   4.206 -0.0136 -0.8416 -0.2106
 4636SOL    HW125367   1.776   1.486   4.294 -1.1575 -1.2267  0.2841
 4636SOL    HW225368   1.830   1.482   4.164 -1.2450  0.2682 -2.2359
 4637SOL     OW25369   3.136   2.752  11.605  0.1660  0.2364 -0.4398
 4637SOL    HW125370   3.092   2.675  11.641 -2.2987  1.4560 -0.7848
 4637SOL    HW225371   3.102   2.826  11.655 -0.5987 -0.4168  0.0084
 4638SOL     OW25372   1.430   0.572   7.586  0.0399  0.5903 -0.0473
 4638SOL    HW125373   1.502   0.532   7.538 -0.8717  0.9043 -1.7018
 4638SOL    HW225374   1.373   0.601   7.514 -0.0509 -0.9517 -0.5967
 4639SOL     OW25375   2.844   2.052   8.063 -0.4990 -0.8559  0.5843
 4639SOL    HW125376   2.837   1.993   8.137 -1.2781  0.2285  1.3656
 4639SOL    HW225377   2.763   2.103   8.066  0.1159  0.1477  0.4034
 4640SOL     OW25378   1.857   0.684   7.465  0.4721  0.7416  0.1690
 4640SOL    HW125379   1.821   0.761   7.508 -0.4450 -0.5008  1.6227
 4640SOL    HW225380   1.791   0.615   7.478  1.4319 -0.0169  0.9985
 4641SOL     OW25381   1.712   1.899   6.827 -0.6067  0.0529 -0.1064
 4641SOL    HW125382   1.661   1.855   6.759 -0.6496  1.8167 -1.2039
 4641SOL    HW225383   1.800   1.884   6.791 -0.8213 -0.6234 -0.3619
 4642SOL     OW25384   2.913   3.945  16.177 -0.4678 -0.3511 -0.0881
 4642SOL    HW125385   2.883   3.856  16.158 -0.8122 -0.3353  0.4046
 4642SOL    HW225386   2.999   3.932  16.218 -1.7736 -0.3664  2.6701
 4643SOL     OW25387   4.099   3.617  10.209 -0.0493 -0.3321 -0.1719
 4643SOL    HW125388   4.038   3.651  10.275  0.3271  0.9486 -0.4726
 4643SOL    HW225389   4.171   3.679  10.216 -0.1804 -0.3602  1.3415
 4644SOL     OW25390   4.276   2.247   7.593  0.1879 -0.2298  0.3694
 4644SOL    HW125391   4.339   2.241   7.522 -1.8911  1.0325 -1.6001
 4644SOL    HW225392   4.264   2.154   7.612  1.5341 -0.6836 -1.0107
 4645SOL     OW25393   3.515   1.368  12.240  0.3447 -0.6952  0.1058
 4645SOL    HW125394   3.424   1.392  12.228  0.9859  2.0783  0.7036
 4645SOL    HW225395   3.505   1.275  12.256 -1.2447 -0.1076  2.4728
 4646SOL     OW25396   2.896   3.842   2.801 -0.0639  0.0119  0.2378
 4646SOL    HW125397   2.937   3.763   2.836  0.5888  1.6373  3.1355
 4646SOL    HW225398   2.855   3.808   2.722 -1.0743 -0.8329  1.1289
 4647SOL     OW25399   3.001   4.667   1.030  0.2323  0.1054 -0.1845
 4647SOL    HW125400   3.026   4.711   0.949 -0.2224  0.2842 -0.2318
 4647SOL    HW225401   2.979   0.014   1.091  1.2394  0.7103 -0.5199
 4648SOL     OW25402   3.187   0.125  11.573 -0.0539 -0.2015 -0.4878
 4648SOL    HW125403   3.201   0.107  11.480  0.2665  0.0086 -0.4832
 4648SOL    HW225404   3.202   0.220  11.581 -2.7536  0.0248  1.9881
 4649SOL     OW25405   0.325   2.140  13.107  0.1372  0.8611 -0.4520
 4649SOL    HW125406   0.403   2.086  13.117 -1.4955 -1.7930 -1.9063
 4649SOL    HW225407   0.348   2.222  13.152 -1.0679  0.6002  0.6319
 4650SOL     OW25408   4.677   1.096   5.088 -0.4770 -0.2866 -0.4093
 4650SOL    HW125409   0.005   1.085   5.168 -1.0021  0.5239  0.0368
 4650SOL    HW225410   4.617   1.022   5.098 -1.5438  1.0239  2.7796
 4651SOL     OW25411   0.883   0.455   5.854  0.2779 -0.4515  0.4548
 4651SOL    HW125412   0.865   0.534   5.905 -1.2726 -0.2288 -0.4599
 4651SOL    HW225413   0.955   0.417   5.904 -0.5804 -1.4597  0.9125
 4652SOL     OW25414   3.953   0.831   4.648 -0.0756  0.3380  0.1788
 4652SOL    HW125415   3.859   0.826   4.664  0.1738 -1.2821  1.1132
 4652SOL    HW225416   3.981   0.784   4.727 -0.5373  1.0861  0.7836
 4653SOL     OW25417   1.298   3.210   1.063 -0.0533 -0.1160  0.2826
 4653SOL    HW125418   1.375   3.185   1.114  1.3184  0.7664 -1.3375
 4653SOL    HW225419   1.268   3.293   1.101 -2.5007 -0.9439  0.1842
 4654SOL     OW25420   4.709   3.784   1.016 -1.0187 -0.0985 -0.2627
 4654SOL    HW125421   0.076   3.771   1.045 -1.8627 -2.8866  1.1805
 4654SOL    HW225422   4.720   3.836   0.937 -1.0297 -0.5066 -0.5362
 4655SOL     OW25423   4.247   3.328  12.417 -0.4893  0.1879 -0.0950
 4655SOL    HW125424   4.334   3.367  12.420 -0.0749 -0.6802 -0.9333
 4655SOL    HW225425   4.195   3.377  12.481 -0.6865 -1.2900  0.8609
 4656SOL     OW25426   2.684   4.011  11.224 -0.0660 -0.6438 -0.0994
 4656SOL    HW125427   2.589   4.014  11.240  0.1378  1.8291  0.6618
 4656SOL    HW225428   2.708   4.084  11.281 -1.3793  1.4767 -2.2411
 4657SOL     OW25429   1.191   1.652   7.022 -0.0481 -0.2165 -0.0561
 4657SOL    HW125430   1.219   1.640   6.931  0.4000 -0.2324  0.0829
 4657SOL    HW225431   1.129   1.580   7.025  0.5449 -0.8509 -2.4890
 4658SOL     OW25432   1.867   2.731   3.198 -0.1000 -0.1633  0.1359
 4658SOL    HW125433   1.891   2.820   3.175 -2.2866  1.1121  2.8425
 4658SOL    HW225434   1.947   2.682   3.178 -0.0430  0.6909 -1.7484
 4659SOL     OW25435   0.213   3.469   5.890 -0.4933 -0.0645 -0.2229
 4659SOL    HW125436   0.268   3.535   5.848 -0.5672  1.8184  2.6432
 4659SOL    HW225437   0.154   3.516   5.949  0.9936  2.9158 -1.1380
 4660SOL     OW25438   2.585   1.047  15.792 -0.3200 -0.3484 -0.9710
 4660SOL    HW125439   2.604   1.140  15.777  0.4207 -0.2440  0.6982
 4660SOL    HW225440   2.664   1.014  15.834  0.2584  2.1321 -0.1117
 4661SOL     OW25441   0.354   4.510   1.759 -0.1294  0.6954  0.1084
 4661SOL    HW125442   0.398   4.427   1.779 -1.1925 -0.1989 -1.2702
 4661SOL    HW225443   0.390   4.567   1.827 -1.4730  0.7011  0.8297
 4662SOL     OW25444   2.666   3.750   8.299  0.3860 -0.5873 -0.5137
 4662SOL    HW125445   2.759   3.765   8.316  0.1883 -0.0081  0.0312
 4662SOL    HW225446   2.640   3.717   8.385 -0.2230  2.1750  0.3822
 4663SOL     OW25447   3.064   1.566   3.527 -0.3372  0.2879 -0.3405
 4663SOL    HW125448   3.134   1.551   3.591 -1.2070 -0.2356  0.4972
 4663SOL    HW225449   3.113   1.548   3.447  1.2499  0.0957  0.6845
 4664SOL     OW25450   4.506   3.217   2.784  0.2926  0.1029  0.3857
 4664SOL    HW125451   4.568   3.267   2.837  0.1256  2.7978 -1.9947
 4664SOL    HW225452   4.484   3.158   2.856  1.5295 -0.5299  0.2577
 4665SOL     OW25453   2.550   2.065   0.838  0.4028 -0.3616 -0.2944
 4665SOL    HW125454   2.619   2.003   0.866 -1.7723 -2.0281  1.3830
 4665SOL    HW225455   2.599   2.147   0.851  0.1752  0.2063 -3.1280
 4666SOL     OW25456   0.994   2.725   7.871 -0.5501 -0.5228  0.5225
 4666SOL    HW125457   0.920   2.775   7.906 -1.0224 -0.6799 -0.2482
 4666SOL    HW225458   1.060   2.792   7.852 -1.1424  0.7449  2.9624
 4667SOL     OW25459   0.359   1.258  14.819  0.3018  0.3301  0.0077
 4667SOL    HW125460   0.415   1.215  14.754 -0.5615  0.2042 -0.6584
 4667SOL    HW225461   0.284   1.198  14.815  1.3367 -0.9935  0.4974
 4668SOL     OW25462   1.161   1.597   4.768 -0.7516 -0.1070  0.0670
 4668SOL    HW125463   1.246   1.607   4.812 -0.5254 -0.5917 -0.2514
 4668SOL    HW225464   1.139   1.689   4.753 -1.7145 -0.6705 -1.9584
 4669SOL     OW25465   1.197   1.142   9.629 -0.4013  0.0810  0.6449
 4669SOL    HW125466   1.180   1.223   9.581  1.4714 -1.8510 -3.2737
 4669SOL    HW225467   1.262   1.085   9.587 -1.3793 -0.0167 -0.7580
 4670SOL     OW25468   2.604   2.033   9.028 -0.8067 -0.0281  0.1492
 4670SOL    HW125469   2.620   2.117   8.986 -0.6672  0.6000  1.4563
 4670SOL    HW225470   2.548   2.066   9.098 -2.9598 -0.2581 -1.4489
 4671SOL     OW25471   3.087   0.775   6.430  0.1951 -0.2951  0.1586
 4671SOL    HW125472   3.009   0.793   6.379 -0.4586  2.2435  2.0923
 4671SOL    HW225473   3.047   0.702   6.477 -1.6960 -0.1095 -1.1817
 4672SOL     OW25474   3.391   2.158   7.544 -0.3901 -0.8319  0.2623
 4672SOL    HW125475   3.474   2.132   7.585  1.3683  1.7408 -1.6514
 4672SOL    HW225476   3.336   2.160   7.622  0.6116  0.8832  0.9220
 4673SOL     OW25477   4.047   1.683  14.720 -0.5498  0.1008 -0.1036
 4673SOL    HW125478   4.118   1.734  14.760  0.4794 -0.9026 -0.6591
 4673SOL    HW225479   4.057   1.596  14.759 -3.2144 -0.7409 -1.3067
 4674SOL     OW25480   3.366   2.106   1.612 -0.4309 -0.2007 -0.2007
 4674SOL    HW125481   3.368   2.167   1.539 -1.3657 -1.9490 -1.6815
 4674SOL    HW225482   3.271   2.118   1.621  0.1210  3.7424  0.2550
 4675SOL     OW25483   3.597   0.043   1.221  0.0125  0.1753  0.4850
 4675SOL    HW125484   3.566   0.127   1.186 -1.1383 -0.3520  0.2431
 4675SOL    HW225485   3.545   0.044   1.301 -0.9630  2.1083 -0.1666
 4676SOL     OW25486   2.078   0.230   9.060 -0.4118  0.1228  0.0521
 4676SOL    HW125487   2.081   0.325   9.059 -3.9666  0.2092 -0.1991
 4676SOL    HW225488   2.172   0.210   9.059 -0.4389 -0.0032  0.0094
 4677SOL     OW25489   2.641   4.270  13.280 -0.1118  0.1968 -0.3481
 4677SOL    HW125490   2.633   4.315  13.363  0.6115  0.0617 -0.2027
 4677SOL    HW225491   2.725   4.295  13.241  0.2411 -1.5549 -0.7120
 4678SOL     OW25492   1.435   3.847  10.944 -0.6306  0.1729  0.7696
 4678SOL    HW125493   1.511   3.875  10.894 -0.9289  0.2480  0.3637
 4678SOL    HW225494   1.377   3.815  10.875  2.0511  2.3734 -2.5194
 4679SOL     OW25495   1.369   4.707   3.082 -0.0543  0.1741  0.3711
 4679SOL    HW125496   1.334   4.632   3.130 -2.6098  0.0841 -1.6343
 4679SOL    HW225497   1.295   0.045   3.089  1.3476  1.8053  0.8190
 4680SOL     OW25498   4.689   2.136   2.602 -0.1601 -0.1276  0.4274
 4680SOL    HW125499   4.656   2.177   2.682 -0.9642  0.5839 -0.2788
 4680SOL    HW225500   4.720   2.208   2.548  1.3136 -1.9929 -1.2168
 4681SOL     OW25501   3.845   0.255   1.417  0.2832 -0.5146  0.1181
 4681SOL    HW125502   3.808   0.283   1.501 -1.0890 -2.8429  0.2937
 4681SOL    HW225503   3.821   0.162   1.421  2.2897 -1.1026 -1.7540
 4682SOL     OW25504   0.910   2.253   2.970  0.5518  0.3004  0.4308
 4682SOL    HW125505   0.958   2.250   3.052  0.2264  2.9451  0.7014
 4682SOL    HW225506   0.952   2.317   2.912  2.4729 -1.1494  0.2163
 4683SOL     OW25507   1.653   1.913   7.973 -0.7683 -0.6699  0.4297
 4683SOL    HW125508   1.691   1.845   7.918 -2.3229 -1.3291  0.1768
 4683SOL    HW225509   1.631   1.979   7.907 -0.9089  1.0919  2.2201
 4684SOL     OW25510   2.612   3.846  12.974  0.5725  0.6902  0.0234
 4684SOL    HW125511   2.665   3.895  13.037  0.7245 -0.1098  0.5112
 4684SOL    HW225512   2.526   3.843  13.016 -0.3531  1.2943 -1.8263
 4685SOL     OW25513   0.647   3.355  10.952 -0.5560  0.5904  0.1153
 4685SOL    HW125514   0.629   3.279  11.007  2.3707 -1.0464 -1.1557
 4685SOL    HW225515   0.594   3.338  10.874  0.5691  0.1368 -0.5529
 4686SOL     OW25516   4.598   0.078   7.161  0.0837  0.5005 -0.0320
 4686SOL    HW125517   4.551   0.132   7.225 -1.3743 -2.0284  1.0139
 4686SOL    HW225518   4.543   0.103   7.087  0.7525 -0.0111 -0.6985
 4687SOL     OW25519   0.112   0.746   9.173  0.4238  0.0988  0.6678
 4687SOL    HW125520   0.119   0.706   9.260 -2.2352  0.1867  0.9252
 4687SOL    HW225521   0.048   0.811   9.202  0.8443  1.1613 -0.7970
 4688SOL     OW25522   2.047   1.056   4.401  0.3490  0.2073  0.2011
 4688SOL    HW125523   2.122   1.020   4.449  0.9390  1.1302 -0.0498
 4688SOL    HW225524   2.094   1.083   4.323 -0.4102  0.0389 -0.3184
 4689SOL     OW25525   0.968   0.489   6.461 -0.3040 -0.0701  0.5975
 4689SOL    HW125526   1.050   0.484   6.511 -1.0414  1.2200  1.9209
 4689SOL    HW225527   0.971   0.399   6.429  0.6213 -0.1608  0.9358
 4690SOL     OW25528   1.925   1.699   7.175 -0.2300 -0.3496  0.1325
 4690SOL    HW125529   1.892   1.639   7.109  0.5084 -0.5666 -0.0398
 4690SOL    HW225530   1.842   1.703   7.223 -1.7742  0.4511 -2.6409
 4691SOL     OW25531   0.892   2.827  15.306  0.1842  0.8249 -0.0878
 4691SOL    HW125532   0.941   2.753  15.342  0.2454  1.1473  0.4878
 4691SOL    HW225533   0.940   2.838  15.224  2.2249 -0.4868  0.9436
 4692SOL     OW25534   1.772   3.874   8.180  0.5733  0.5371 -0.4533
 4692SOL    HW125535   1.761   3.794   8.232  3.5298 -0.2277 -1.0573
 4692SOL    HW225536   1.864   3.876   8.155  1.0072 -2.5144  0.8969
 4693SOL     OW25537   0.173   2.269  15.628 -0.1793  0.6903 -0.5518
 4693SOL    HW125538   0.085   2.291  15.660 -0.1152 -0.4588  0.4265
 4693SOL    HW225539   0.221   2.352  15.637  0.4587  0.2390  0.1826
 4694SOL     OW25540   3.281   0.097   4.461  0.3069 -0.2147 -0.7615
 4694SOL    HW125541   3.355   0.083   4.520  1.5269  0.2075 -2.1808
 4694SOL    HW225542   3.298   0.027   4.397 -0.2604 -2.2631  1.3249
 4695SOL     OW25543   3.734   4.001   7.314 -0.2275 -0.1534  0.1200
 4695SOL    HW125544   3.795   4.064   7.274  0.8270  0.1257  2.1542
 4695SOL    HW225545   3.728   4.026   7.406 -2.4227  0.3924 -0.1815
 4696SOL     OW25546   0.888   4.419   2.295  1.0567 -0.2449 -0.3112
 4696SOL    HW125547   0.954   4.416   2.365  1.5226 -1.0066 -0.7822
 4696SOL    HW225548   0.902   4.508   2.264 -0.6725  0.5143  1.1008
 4697SOL     OW25549   0.230   4.251   7.680 -0.5455  0.2119  0.1815
 4697SOL    HW125550   0.299   4.212   7.733 -1.3573  0.0638  1.1472
 4697SOL    HW225551   0.240   4.212   7.593  1.3915  1.1766 -0.0302
 4698SOL     OW25552   4.290   4.547   7.568  0.1835 -0.0049 -0.8032
 4698SOL    HW125553   4.365   4.599   7.596 -0.9252  0.1549  1.8679
 4698SOL    HW225554   4.235   4.612   7.526 -1.9369 -2.3427 -1.6836
 4699SOL     OW25555   2.982   3.648   4.678 -0.5043  0.0493  0.1376
 4699SOL    HW125556   2.911   3.709   4.659 -2.8221 -2.6720  0.0178
 4699SOL    HW225557   2.953   3.569   4.633  2.1055 -0.5822 -0.4044
 4700SOL     OW25558   1.772   2.037   4.481 -0.2717 -0.3437  0.4643
 4700SOL    HW125559   1.727   1.957   4.451  0.2864 -0.7311  0.6692
 4700SOL    HW225560   1.864   2.010   4.478  0.2284  1.2495  1.7078
 4701SOL     OW25561   2.742   3.483   5.799  0.6970 -0.0908 -0.0185
 4701SOL    HW125562   2.675   3.510   5.736  0.6985  0.6760  0.3138
 4701SOL    HW225563   2.734   3.388   5.813 -0.7869 -0.0066 -0.2168
 4702SOL     OW25564   0.842   4.435   8.827 -0.0927 -0.0918 -0.8002
 4702SOL    HW125565   0.790   4.512   8.803  0.5827  0.6116  0.0153
 4702SOL    HW225566   0.831   4.431   8.922  2.1432 -0.2631 -0.5446
 4703SOL     OW25567   1.784   2.000   9.374 -0.3952 -0.3813 -0.2711
 4703SOL    HW125568   1.873   1.966   9.381  0.7293  2.4543 -0.5629
 4703SOL    HW225569   1.769   2.007   9.279  1.1792  1.4267 -0.3830
 4704SOL     OW25570   3.637   2.976   3.729 -0.3167  0.0071 -0.5139
 4704SOL    HW125571   3.549   3.013   3.720 -0.4337 -0.2342 -0.3507
 4704SOL    HW225572   3.610   2.891   3.694 -3.3618  1.1128 -0.8346
 4705SOL     OW25573   4.607   0.711   2.139 -0.4795 -0.1918  0.1687
 4705SOL    HW125574   4.701   0.724   2.137 -0.5582  0.4604  0.7698
 4705SOL    HW225575   4.592   0.669   2.055  1.9628  0.5362 -0.6238
 4706SOL     OW25576   0.841   1.589   6.678 -0.0709 -0.3888 -0.2657
 4706SOL    HW125577   0.831   1.565   6.770  0.1821 -0.3955 -0.2406
 4706SOL    HW225578   0.793   1.671   6.678  2.2824  0.9821  0.3985
 4707SOL     OW25579   1.937   2.479   7.977  0.1552  0.3516 -0.5206
 4707SOL    HW125580   1.887   2.414   8.026 -1.5530  2.2157  0.2298
 4707SOL    HW225581   1.869   2.524   7.927 -1.2690  1.0456  2.0506
 4708SOL     OW25582   3.658   4.114  13.099 -0.5896 -0.2534  0.1377
 4708SOL    HW125583   3.740   4.136  13.144 -1.9977  0.4369  2.3402
 4708SOL    HW225584   3.686   4.042  13.043 -0.5680 -0.2724  0.1726
 4709SOL     OW25585   2.343   3.102   9.773  0.2381 -0.4303 -0.0680
 4709SOL    HW125586   2.292   3.038   9.824  1.6074 -0.8906  0.7377
 4709SOL    HW225587   2.376   3.048   9.701 -0.2052  0.5698 -1.0111
 4710SOL     OW25588   2.065   3.709   6.379 -0.0788 -0.0069  0.3924
 4710SOL    HW125589   1.981   3.691   6.420 -0.5347 -0.2302 -0.6589
 4710SOL    HW225590   2.096   3.619   6.370  0.8207  0.5417 -1.9527
 4711SOL     OW25591   1.693   4.186   0.325  0.1262  0.5096 -0.6218
 4711SOL    HW125592   1.606   4.195   0.285 -0.2954  0.1408  0.1948
 4711SOL    HW225593   1.687   4.096   0.359 -0.4674  1.0995  0.8248
 4712SOL     OW25594   4.381   4.598  10.645  0.5149  0.2072 -0.4678
 4712SOL    HW125595   4.438   4.657  10.693  0.3304 -0.1210  0.1457
 4712SOL    HW225596   4.391   4.622  10.552 -1.8953 -1.2141 -1.1029
 4713SOL     OW25597   3.907   3.233   2.413 -0.3715  0.1367 -0.3244
 4713SOL    HW125598   3.940   3.153   2.453  0.3925  0.2095 -0.8039
 4713SOL    HW225599   3.824   3.194   2.386 -0.4003  0.4232 -0.6506
 4714SOL     OW25600   4.196   2.608   7.555 -0.3899 -0.3574 -0.2302
 4714SOL    HW125601   4.140   2.676   7.591 -2.8239 -2.4618 -0.0656
 4714SOL    HW225602   4.211   2.641   7.467 -1.9828 -1.2182 -0.8088
 4715SOL     OW25603   2.788   3.181   5.801  0.2541 -0.5228 -0.1521
 4715SOL    HW125604   2.774   3.129   5.722 -0.2023  0.7491 -0.9191
 4715SOL    HW225605   2.882   3.177   5.815  0.4288  1.9879 -0.6220
 4716SOL     OW25606   3.143   1.991   0.842  0.3153  0.1899  0.2359
 4716SOL    HW125607   3.126   1.952   0.928  1.3127  1.6051  1.0634
 4716SOL    HW225608   3.074   2.057   0.846  2.2004  2.2922 -2.1088
 4717SOL     OW25609   3.383   3.773  14.236  0.2459  0.4947 -0.7474
 4717SOL    HW125610   3.323   3.710  14.199  1.1187 -0.5876 -0.3292
 4717SOL    HW225611   3.457   3.749  14.179 -0.7259 -2.0993 -0.8960
 4718SOL     OW25612   2.338   3.316   3.462  0.3202  0.3958  0.4062
 4718SOL    HW125613   2.397   3.251   3.501 -0.4390 -1.1079 -0.9448
 4718SOL    HW225614   2.394   3.347   3.391 -0.3418  0.1378 -0.2306
 4719SOL     OW25615   1.513   3.742   5.275 -0.1676  0.3548 -0.4183
 4719SOL    HW125616   1.541   3.799   5.204 -0.2988 -0.2282 -0.9375
 4719SOL    HW225617   1.579   3.759   5.343 -0.9520 -1.0917  0.7080
 4720SOL     OW25618   2.229   3.091   3.710  0.3885  0.4838  0.1368
 4720SOL    HW125619   2.315   3.109   3.673  0.6682 -0.1037  0.4938
 4720SOL    HW225620   2.229   3.163   3.774  1.4735  1.6670 -1.1899
 4721SOL     OW25621   4.111   2.064  10.409  0.0875 -0.2326  0.3284
 4721SOL    HW125622   4.031   2.044  10.360 -1.2080  0.0494  2.3569
 4721SOL    HW225623   4.100   2.159  10.411 -0.0451 -0.2301 -0.5788
 4722SOL     OW25624   4.088   1.505   5.890  0.5054  0.6034  0.6333
 4722SOL    HW125625   4.020   1.573   5.893 -0.4749 -0.3318 -0.4214
 4722SOL    HW225626   4.154   1.549   5.836 -0.4167 -0.2695 -1.1771
 4723SOL     OW25627   0.814   0.136   5.071 -0.0553 -0.3694 -0.4555
 4723SOL    HW125628   0.734   0.184   5.050 -0.1232 -1.9364 -3.7754
 4723SOL    HW225629   0.835   0.103   4.984 -1.2067  0.2633 -0.9791
 4724SOL     OW25630   0.836   0.687   9.497  0.7431  0.0307 -0.3831
 4724SOL    HW125631   0.828   0.696   9.402 -1.0108  0.7009 -0.1732
 4724SOL    HW225632   0.796   0.601   9.506  0.5367  0.1890  0.2259
 4725SOL     OW25633   3.289   1.702   8.558  0.1485 -0.3248 -0.1414
 4725SOL    HW125634   3.370   1.656   8.536 -0.3382 -2.1493  1.8445
 4725SOL    HW225635   3.224   1.633   8.546 -0.8282  0.5522  0.1513
 4726SOL     OW25636   4.431   2.476   0.489 -0.0714 -0.0932  0.1834
 4726SOL    HW125637   4.475   2.428   0.419  1.3037 -0.4724  1.2874
 4726SOL    HW225638   4.344   2.438   0.478 -0.3101 -0.3732  3.0156
 4727SOL     OW25639   3.096   4.246   3.554  0.4413 -0.4738  0.2568
 4727SOL    HW125640   3.144   4.328   3.564 -0.5436  0.0723  0.5249
 4727SOL    HW225641   3.019   4.254   3.610 -0.3233 -2.2028 -0.5353
 4728SOL     OW25642   0.862   3.559   2.387 -0.0762 -0.6648  0.5642
 4728SOL    HW125643   0.914   3.496   2.437  0.0116 -1.8859 -1.0562
 4728SOL    HW225644   0.886   3.539   2.297 -0.7680  1.7799 -0.1459
 4729SOL     OW25645   4.634   2.131  16.913 -0.0757 -0.0235 -0.5179
 4729SOL    HW125646   4.606   2.214  16.951  0.0472 -1.1197  1.9530
 4729SOL    HW225647   4.549   2.108  16.876  0.1838 -1.5727 -0.1378
 4730SOL     OW25648   2.167   1.011   3.976 -0.3311  0.1780  0.2583
 4730SOL    HW125649   2.199   0.923   3.999  0.1800  0.6012  1.1833
 4730SOL    HW225650   2.170   1.061   4.058 -1.1423  3.0067 -1.4593
 4731SOL     OW25651   4.279   3.935   5.531  0.1395 -0.4937  0.3548
 4731SOL    HW125652   4.366   3.938   5.571 -0.3586 -3.3095  1.6429
 4731SOL    HW225653   4.253   4.027   5.531  0.3522 -0.4337  0.3035
 4732SOL     OW25654   0.073   4.354  16.370 -0.7979  0.6738  0.3647
 4732SOL    HW125655   0.147   4.303  16.405 -1.0466 -0.0906 -0.2224
 4732SOL    HW225656   0.063   4.325  16.280  1.0969  2.2817 -0.3704
 4733SOL     OW25657   2.836   3.742  13.257  0.3065  0.3631  0.0322
 4733SOL    HW125658   2.919   3.694  13.264  0.6092  0.8479 -0.2426
 4733SOL    HW225659   2.790   3.719  13.337 -0.0276 -0.8784 -0.5185
 4734SOL     OW25660   1.591   1.387   2.841 -0.2479  0.5130 -0.4482
 4734SOL    HW125661   1.651   1.451   2.879  0.8135 -1.2715  0.8782
 4734SOL    HW225662   1.584   1.323   2.911  0.7018  0.1137 -0.7167
 4735SOL     OW25663   2.458   1.982  16.489  0.3157  0.3531  0.7539
 4735SOL    HW125664   2.366   2.008  16.483  0.6752  1.5674  0.4357
 4735SOL    HW225665   2.441   1.888  16.500 -0.8770  0.2998 -1.5662
 4736SOL     OW25666   1.816   0.121   3.088 -0.0688 -0.2006 -0.4175
 4736SOL    HW125667   1.900   0.082   3.114  0.1985  0.4899 -0.2572
 4736SOL    HW225668   1.811   0.103   2.994  0.2370  1.3529 -0.7353
 4737SOL     OW25669   1.247   2.213  13.383  0.1934  0.4515  0.0874
 4737SOL    HW125670   1.167   2.205  13.331  1.0690 -3.3504 -0.6801
 4737SOL    HW225671   1.213   2.191  13.469  2.5255  0.6697  1.0671
 4738SOL     OW25672   4.300   2.536   1.668 -0.5137  0.3650 -0.2601
 4738SOL    HW125673   4.369   2.513   1.605 -1.8539  1.7492 -2.2259
 4738SOL    HW225674   4.346   2.501   1.744  1.4327  1.2549 -1.0234
 4739SOL     OW25675   3.414   2.745   5.427 -0.4088 -0.3583  0.8312
 4739SOL    HW125676   3.355   2.747   5.352  0.8171  1.4455 -0.1009
 4739SOL    HW225677   3.445   2.654   5.418 -1.4622 -0.6360  0.0868
 4740SOL     OW25678   1.565   2.957   9.541 -0.1950  0.2301  0.0713
 4740SOL    HW125679   1.586   2.986   9.452 -0.5273 -1.5134 -0.5713
 4740SOL    HW225680   1.562   2.863   9.526 -0.1776  0.1382  0.6439
 4741SOL     OW25681   3.078   0.629   6.907 -1.0338 -0.1098  0.5514
 4741SOL    HW125682   3.121   0.556   6.953 -0.9729 -1.2874 -1.3551
 4741SOL    HW225683   3.142   0.649   6.839  0.8891 -0.8566  2.1445
 4742SOL     OW25684   0.195   1.446   6.842  0.2125 -0.8169  0.1587
 4742SOL    HW125685   0.265   1.439   6.906  2.0978  0.1505 -1.7982
 4742SOL    HW225686   0.242   1.424   6.761  1.9478  2.7994  0.2060
 4743SOL     OW25687   3.114   3.238   4.994 -0.3596 -0.0488 -0.3556
 4743SOL    HW125688   3.173   3.203   4.927 -2.3848 -0.9546 -1.6613
 4743SOL    HW225689   3.124   3.332   4.980 -3.7880  0.5314  1.0868
 4744SOL     OW25690   0.930   3.041  16.323 -0.3335 -0.0782 -0.2026
 4744SOL    HW125691   0.958   2.949  16.319 -0.2875 -0.0716  0.0253
 4744SOL    HW225692   0.874   3.053  16.399 -1.0186  5.2027 -1.5800
 4745SOL     OW25693   3.981   4.082   8.163  0.3208 -0.4403 -0.8214
 4745SOL    HW125694   4.002   4.147   8.230 -0.5276  0.7421 -1.6960
 4745SOL    HW225695   4.056   4.094   8.104  0.6219 -0.2491 -0.3998
 4746SOL     OW25696   3.953   1.005  12.657  0.6075  0.3117  0.7211
 4746SOL    HW125697   3.974   1.099  12.655 -2.5863  1.0445  0.6705
 4746SOL    HW225698   4.003   0.968  12.729  0.0447  0.3514  1.1346
 4747SOL     OW25699   1.695   4.642   6.493 -0.0505 -0.7903 -0.3210
 4747SOL    HW125700   1.621   4.634   6.553 -2.1975 -0.0560 -2.8352
 4747SOL    HW225701   1.686   0.007   6.458 -1.9409 -2.1851 -3.3980
 4748SOL     OW25702   0.798   3.663  10.620  0.2748 -0.2675  0.2767
 4748SOL    HW125703   0.797   3.598  10.691 -2.1241  2.3105  2.5830
 4748SOL    HW225704   0.860   3.627  10.557  0.1219 -1.7352  0.9428
 4749SOL     OW25705   1.600   4.667   2.180  0.4345  0.1339  0.2664
 4749SOL    HW125706   1.563   4.718   2.108 -0.8108 -1.2575 -0.0700
 4749SOL    HW225707   1.624   0.013   2.242  1.5880  0.7114 -0.8124
 4750SOL     OW25708   4.257   1.373  17.113  0.3184  0.4853 -0.2107
 4750SOL    HW125709   4.220   1.374  17.024 -0.8530 -2.9175  0.2282
 4750SOL    HW225710   4.304   1.456  17.117  0.2269  0.4837  0.7370
 4751SOL     OW25711   1.010   1.738   2.535  0.0984 -0.0912  0.5614
 4751SOL    HW125712   1.003   1.708   2.445  2.3639  2.6234 -0.5215
 4751SOL    HW225713   0.941   1.688   2.578 -0.0076  0.1003  0.6166
 4752SOL     OW25714   1.791   0.748   6.563 -0.0894 -0.6224 -0.1821
 4752SOL    HW125715   1.733   0.790   6.626  0.5994 -0.3907  0.2952
 4752SOL    HW225716   1.832   0.829   6.534  0.1822  0.2850  2.7536
 4753SOL     OW25717   0.264   4.160   6.536  0.4492 -0.2399  0.1910
 4753SOL    HW125718   0.297   4.070   6.530 -1.1863 -0.9551  1.7757
 4753SOL    HW225719   0.169   4.151   6.547  0.3184 -0.2362 -0.8902
 4754SOL     OW25720   4.303   1.287  11.517 -0.1034 -0.4931  0.2467
 4754SOL    HW125721   4.283   1.194  11.502 -1.4844 -0.0308 -0.7387
 4754SOL    HW225722   4.267   1.293  11.606 -5.3148 -2.4905 -1.7028
 4755SOL     OW25723   3.414   3.834   0.832 -0.1688  0.5076 -0.0853
 4755SOL    HW125724   3.507   3.822   0.812  0.3010 -1.6271  3.3653
 4755SOL    HW225725   3.376   3.786   0.759  0.6500 -0.0480 -0.1438
 4756SOL     OW25726   3.214   1.501  16.415  0.1729  0.3269  0.2781
 4756SOL    HW125727   3.267   1.514  16.494  4.4008 -1.4077 -2.2939
 4756SOL    HW225728   3.141   1.559  16.436 -0.3875 -1.1063  2.3552
 4757SOL     OW25729   2.255   3.788  13.977 -0.0788  0.4807 -0.1608
 4757SOL    HW125730   2.296   3.776  14.063 -0.6714 -0.8558 -0.0642
 4757SOL    HW225731   2.335   3.790  13.924 -0.4764 -1.7408 -0.8315
 4758SOL     OW25732   4.192   3.501   6.677 -0.2750  0.1911 -0.3489
 4758SOL    HW125733   4.275   3.548   6.687  1.0398 -2.4132  1.0992
 4758SOL    HW225734   4.208   3.421   6.728 -1.8762  0.5284  0.6835
 4759SOL     OW25735   3.169   0.782   3.986 -0.5751 -0.1322 -0.1024
 4759SOL    HW125736   3.164   0.707   3.928 -2.7377 -0.5275  0.5731
 4759SOL    HW225737   3.183   0.848   3.919 -0.9468  1.7537  1.6604
 4760SOL     OW25738   1.935   1.743  16.442 -0.0025  0.1282 -0.6780
 4760SOL    HW125739   1.965   1.720  16.530 -1.7030  0.3224 -0.0526
 4760SOL    HW225740   1.879   1.817  16.466  0.1178  1.1802 -3.6993
 4761SOL     OW25741   4.300   1.622   7.517 -0.2766  0.6076  0.4031
 4761SOL    HW125742   4.356   1.684   7.564  0.0315  0.4749  0.2157
 4761SOL    HW225743   4.273   1.662   7.435 -1.9718  1.2098  1.2673
 4762SOL     OW25744   0.423   3.733  14.026 -0.3684 -0.2256  0.0871
 4762SOL    HW125745   0.330   3.727  14.004 -0.5376  0.7352  0.5420
 4762SOL    HW225746   0.430   3.828  14.014  1.8165 -0.2664  1.0501
 4763SOL     OW25747   0.483   1.320   5.527 -0.2093  0.3566  0.0196
 4763SOL    HW125748   0.453   1.233   5.501  1.0250  0.1421 -0.7354
 4763SOL    HW225749   0.402   1.352   5.565 -0.6171 -0.5307 -0.0844
 4764SOL     OW25750   3.773   1.185   2.777 -0.5524  0.0214 -0.5869
 4764SOL    HW125751   3.840   1.253   2.785  0.6525 -1.3599  1.0867
 4764SOL    HW225752   3.833   1.112   2.789  0.4431  0.6603 -1.7079
 4765SOL     OW25753   1.885   0.681  14.914  0.1361 -0.4777  0.1890
 4765SOL    HW125754   1.853   0.592  14.902 -0.0850 -0.7604  2.7192
 4765SOL    HW225755   1.802   0.726  14.931  0.2714 -0.0980 -0.1658
 4766SOL     OW25756   2.870   4.029   5.005  0.0628  0.1375 -0.3275
 4766SOL    HW125757   2.872   4.047   5.099 -0.7953 -1.1116 -0.0631
 4766SOL    HW225758   2.783   4.055   4.975 -0.4636  1.4780  2.3511
 4767SOL     OW25759   2.431   1.390   8.952  0.2828  0.0588  0.1193
 4767SOL    HW125760   2.472   1.422   9.033  3.0215 -1.3247 -0.7175
 4767SOL    HW225761   2.338   1.396   8.974  0.4856 -0.5860  1.1883
 4768SOL     OW25762   1.052   1.856   4.755 -0.3301  0.0410  0.4163
 4768SOL    HW125763   1.081   1.937   4.712  0.5354 -0.4268  0.1060
 4768SOL    HW225764   0.963   1.888   4.771  0.4674  1.2830  2.3779
 4769SOL     OW25765   2.785   4.046  12.257  0.6564 -0.2534  0.3389
 4769SOL    HW125766   2.880   4.036  12.257  0.9017  2.2535  3.4130
 4769SOL    HW225767   2.766   4.012  12.344  1.4863 -0.6339  0.3769
 4770SOL     OW25768   0.205   2.400   3.745  0.1916 -0.6219  0.6238
 4770SOL    HW125769   0.173   2.348   3.671  1.8233 -1.5306  0.5576
 4770SOL    HW225770   0.126   2.385   3.797 -1.2034 -1.5608 -1.8052
 4771SOL     OW25771   3.563   2.417  17.466  0.2849 -0.2350  0.1756
 4771SOL    HW125772   3.497   2.349  17.458 -1.4106  1.4942 -0.6180
 4771SOL    HW225773   3.625   2.384  17.401 -0.1277  0.5126 -0.5907
 4772SOL     OW25774   3.090   2.868   2.341  0.1578 -0.4811  0.0525
 4772SOL    HW125775   3.136   2.784   2.335 -1.0477 -1.0530 -1.0472
 4772SOL    HW225776   3.067   2.888   2.250 -1.9185  1.1515  0.9177
 4773SOL     OW25777   1.203   0.815   2.064  0.4313 -0.9071  0.0732
 4773SOL    HW125778   1.178   0.808   1.972 -0.6552 -3.1678  0.5368
 4773SOL    HW225779   1.229   0.725   2.084  3.3018  0.0703  0.7390
 4774SOL     OW25780   0.858   4.563   7.491 -0.1393  0.0437 -0.4860
 4774SOL    HW125781   0.887   4.542   7.403 -1.3455  1.6245 -1.2506
 4774SOL    HW225782   0.799   4.489   7.507 -1.1362  1.5720  3.1439
 4775SOL     OW25783   1.323   4.275   4.942  0.0915 -0.0282  0.4953
 4775SOL    HW125784   1.244   4.223   4.953 -0.2323  0.4817  0.5799
 4775SOL    HW225785   1.295   4.359   4.980 -2.1847 -0.6715  0.2274
 4776SOL     OW25786   3.708   3.848  10.217 -0.1827  0.5562  0.1565
 4776SOL    HW125787   3.773   3.820  10.281 -0.7832 -1.2551 -0.0409
 4776SOL    HW225788   3.653   3.905  10.272 -0.3806  0.7442 -0.2349
 4777SOL     OW25789   3.040   0.353   4.574 -0.1476  0.1513 -0.1586
 4777SOL    HW125790   3.099   0.404   4.630  0.9076  0.3633 -1.4689
 4777SOL    HW225791   3.084   0.324   4.495  3.3435  3.1783  0.6883
 4778SOL     OW25792   0.272   0.217   1.139 -0.3578  0.0182  0.3314
 4778SOL    HW125793   0.313   0.297   1.170  0.1413  0.3502 -1.2048
 4778SOL    HW225794   0.198   0.249   1.088 -0.2153  4.3472  2.8957
 4779SOL     OW25795   1.569   0.616   4.844 -0.1020  0.3386  0.5402
 4779SOL    HW125796   1.565   0.557   4.769 -0.5332  0.6088  0.3540
 4779SOL    HW225797   1.655   0.595   4.882 -0.0874  0.5929  0.6418
 4780SOL     OW25798   2.404   1.435   6.502  0.4850  0.3788 -0.5221
 4780SOL    HW125799   2.415   1.491   6.425 -1.4656  0.1486 -0.9808
 4780SOL    HW225800   2.437   1.348   6.479 -1.1928 -0.4779  0.2674
 4781SOL     OW25801   0.920   3.884   5.645 -0.0669 -0.3637 -0.0732
 4781SOL    HW125802   0.866   3.926   5.712  1.5219 -0.1443  1.0641
 4781SOL    HW225803   0.995   3.944   5.642 -0.5555  0.2337 -0.2996
 4782SOL     OW25804   3.687   0.072   3.542 -0.3193  0.1999  0.5089
 4782SOL    HW125805   3.724   0.024   3.469  0.2061 -0.5904  1.2909
 4782SOL    HW225806   3.695   0.161   3.508 -1.9185  0.6300  1.2945
 4783SOL     OW25807   4.583   1.958  11.016  0.1067 -0.3402  0.1227
 4783SOL    HW125808   4.554   1.914  10.936  0.8900 -0.1281 -0.2720
 4783SOL    HW225809   4.500   1.948  11.062 -0.6039  3.2148 -0.3387
 4784SOL     OW25810   4.157   4.497  14.999 -0.4652 -0.3327  0.7393
 4784SOL    HW125811   4.241   4.452  15.008 -0.5876 -0.5990  0.5316
 4784SOL    HW225812   4.127   4.490  15.090 -1.8884 -0.5539  0.2483
 4785SOL     OW25813   4.398   0.932   6.977 -0.5635 -0.7542  0.6730
 4785SOL    HW125814   4.455   0.917   7.052  0.4139 -1.0448 -0.1299
 4785SOL    HW225815   4.424   0.855   6.927 -0.0967 -1.0794  1.4120
 4786SOL     OW25816   2.312   4.078   5.220  0.4662  0.2731 -0.1921
 4786SOL    HW125817   2.218   4.081   5.240  0.3263  0.2863 -0.8561
 4786SOL    HW225818   2.319   4.172   5.205  2.2634  0.2762  0.6605
 4787SOL     OW25819   3.736   4.641   6.884 -0.5161  0.1922  0.5615
 4787SOL    HW125820   3.750   0.013   6.889  0.8918  0.1000 -2.2029
 4787SOL    HW225821   3.682   4.631   6.806 -0.8552 -2.0178  1.0749
 4788SOL     OW25822   3.386   2.521   7.236 -0.2106  0.0928 -0.5667
 4788SOL    HW125823   3.347   2.468   7.166  2.6362 -1.7325 -0.7521
 4788SOL    HW225824   3.404   2.450   7.297 -0.4717  1.0113  0.5825
 4789SOL     OW25825   3.077   3.632  13.356  0.0188  0.5970 -0.0924
 4789SOL    HW125826   3.090   3.569  13.427  1.6892 -0.2518 -1.1663
 4789SOL    HW225827   3.166   3.644  13.323  0.8534 -1.0344  1.5638
 4790SOL     OW25828   2.585   2.124   6.319 -0.4867  0.0935 -0.5902
 4790SOL    HW125829   2.572   2.209   6.362  0.9689 -0.4968  1.0448
 4790SOL    HW225830   2.677   2.132   6.295 -0.3798  0.8500  0.0631
 4791SOL     OW25831   3.690   1.758  11.043 -0.0062  1.1351 -0.8461
 4791SOL    HW125832   3.634   1.681  11.060 -0.8388  1.8209 -0.4799
 4791SOL    HW225833   3.664   1.770  10.952 -2.8171  0.3789 -0.1510
 4792SOL     OW25834   3.644   1.307   8.200 -0.2611  0.0615  0.0223
 4792SOL    HW125835   3.610   1.261   8.276  0.2921 -0.4916 -0.0656
 4792SOL    HW225836   3.662   1.395   8.235 -1.2148  0.4510 -0.4592
 4793SOL     OW25837   3.127   2.419   0.721  0.4514  0.0388 -0.1098
 4793SOL    HW125838   3.101   2.371   0.643 -0.0088 -0.0035  0.0689
 4793SOL    HW225839   3.064   2.490   0.735 -0.3570 -0.8754  0.8673
 4794SOL     OW25840   2.568   4.324  11.152  0.3056 -0.7059 -0.0373
 4794SOL    HW125841   2.505   4.260  11.184  2.7005 -2.8737  0.3231
 4794SOL    HW225842   2.577   4.381  11.228 -4.4534 -0.8701  0.6186
 4795SOL     OW25843   3.214   1.035   5.895  0.2599  0.3717  0.2104
 4795SOL    HW125844   3.155   1.101   5.931  0.5299 -0.4675  2.1586
 4795SOL    HW225845   3.291   1.070   5.939  0.9295 -1.2378  0.3055
 4796SOL     OW25846   0.872   0.588   2.067  0.3073  0.6270 -0.3043
 4796SOL    HW125847   0.800   0.535   2.031  0.5777  0.2328 -0.2674
 4796SOL    HW225848   0.955   0.555   2.034  0.5793 -0.1237  1.1273
 4797SOL     OW25849   3.870   2.024  13.387 -1.2378 -0.1369  0.0130
 4797SOL    HW125850   3.802   1.995  13.447 -2.9354  2.3857 -0.7181
 4797SOL    HW225851   3.943   2.042  13.447 -0.3854 -0.3969 -0.9464
 4798SOL     OW25852   4.586   4.402   2.476 -0.1805  0.8313  0.4449
 4798SOL    HW125853   4.607   4.495   2.465  1.1967  0.5030  0.2631
 4798SOL    HW225854   4.589   4.372   2.385 -0.4953  0.8999  0.4126
 4799SOL     OW25855   0.443   2.520   1.745  0.2075  0.6352  0.6333
 4799SOL    HW125856   0.371   2.457   1.737  0.3989  0.6182 -0.8602
 4799SOL    HW225857   0.450   2.542   1.652 -2.7245 -2.1846 -0.2639
 4800SOL     OW25858   1.333   4.652   8.020 -0.5306 -0.4040 -0.1813
 4800SOL    HW125859   1.345   4.611   8.106 -0.1268  1.3078  0.5663
 4800SOL    HW225860   1.345   4.579   7.959 -2.8028  0.7563 -2.0406
 4801SOL     OW25861   4.671   0.126  11.698  0.0993  0.5945 -0.3064
 4801SOL    HW125862   4.678   0.198  11.636 -0.3960  1.2648  0.3985
 4801SOL    HW225863   4.606   0.064  11.664 -1.7169  2.2211  0.2011
 4802SOL     OW25864   0.254   4.227   0.676  0.1290 -0.2034  0.1962
 4802SOL    HW125865   0.240   4.217   0.770  1.6922 -2.5017  0.1816
 4802SOL    HW225866   0.241   4.138   0.644 -1.0927 -0.4032  1.2629
 4803SOL     OW25867   4.114   0.674   2.452 -0.3255 -0.0515 -0.0540
 4803SOL    HW125868   4.141   0.730   2.379  0.4070 -2.5520 -1.7322
 4803SOL    HW225869   4.175   0.600   2.455 -1.9695 -1.4484 -0.7757
 4804SOL     OW25870   3.769   2.087   0.080  0.2288  0.5477 -0.2575
 4804SOL    HW125871   3.688   2.037   0.082 -0.4541  1.7515  1.5624
 4804SOL    HW225872   3.838   2.022   0.090  0.2588  0.7718  0.9248
 4805SOL     OW25873   2.093   0.476   7.247  0.3147 -0.3201 -0.1325
 4805SOL    HW125874   2.015   0.432   7.213  1.1717 -0.7892 -1.5020
 4805SOL    HW225875   2.078   0.566   7.216 -2.0723 -0.4239  0.6860
 4806SOL     OW25876   2.433   3.739  12.641 -0.0131 -0.1991  0.2041
 4806SOL    HW125877   2.435   3.653  12.682 -2.5723  0.5018  1.8538
 4806SOL    HW225878   2.468   3.714  12.556  0.6243  2.3307 -0.2697
 4807SOL     OW25879   0.967   2.919   5.950  0.7582  0.1100  0.0413
 4807SOL    HW125880   0.976   2.901   5.857  0.9087  0.3639  0.0055
 4807SOL    HW225881   0.968   2.827   5.976 -3.0012  1.1604  4.0330
 4808SOL     OW25882   1.209   3.219   5.920 -0.1180  0.1635 -0.3328
 4808SOL    HW125883   1.294   3.198   5.881 -0.0040  0.3648 -0.1947
 4808SOL    HW225884   1.230   3.227   6.013 -0.0712  0.2658 -0.3527
 4809SOL     OW25885   3.591   1.803   0.873 -0.4411  0.2910 -0.1761
 4809SOL    HW125886   3.552   1.879   0.917  1.9512  0.8307  0.9866
 4809SOL    HW225887   3.534   1.734   0.908  1.9814  0.2180  3.6607
 4810SOL     OW25888   1.466   3.402   5.878 -0.0784  0.5127 -0.6168
 4810SOL    HW125889   1.453   3.307   5.877  2.3754  0.1471  2.3100
 4810SOL    HW225890   1.397   3.428   5.817 -0.4980 -1.0499 -0.8154
 4811SOL     OW25891   2.309   3.975  12.518  0.4558 -0.5316 -0.0155
 4811SOL    HW125892   2.380   4.031  12.548 -2.0166  1.4515  2.1108
 4811SOL    HW225893   2.321   3.986  12.423  2.5762  3.1434  0.7074
 4812SOL     OW25894   4.720   3.193   4.221 -0.1940  0.6209 -0.5168
 4812SOL    HW125895   0.042   3.110   4.236 -0.7075  0.7437  1.6898
 4812SOL    HW225896   4.689   3.185   4.131  0.3143 -0.3594 -0.6038
 4813SOL     OW25897   1.692   4.611  11.279 -0.2190  0.2777 -0.0901
 4813SOL    HW125898   1.765   4.674  11.279  1.3517 -1.5463  0.1838
 4813SOL    HW225899   1.734   4.525  11.284  3.6059  1.9441 -3.0947
 4814SOL     OW25900   3.756   1.595   4.499 -0.0765  0.5418  0.1396
 4814SOL    HW125901   3.831   1.605   4.441  0.6042  0.5452  1.0106
 4814SOL    HW225902   3.773   1.503   4.522  1.8681  0.5933 -1.1036
 4815SOL     OW25903   3.499   1.740  12.357 -0.2079 -0.2289  0.0150
 4815SOL    HW125904   3.460   1.706  12.438 -0.7840 -1.0274 -0.5938
 4815SOL    HW225905   3.508   1.832  12.380  0.8373  0.1227 -1.8557
 4816SOL     OW25906   2.644   0.130   3.679  0.1640 -0.3245  0.1231
 4816SOL    HW125907   2.666   0.144   3.771  0.0748 -2.3968  0.4696
 4816SOL    HW225908   2.550   0.132   3.692  0.3763  3.4720  0.9571
 4817SOL     OW25909   1.042   4.528   7.974  0.1827  0.2010  0.4926
 4817SOL    HW125910   1.130   4.512   8.007 -0.3367 -0.1261  1.6891
 4817SOL    HW225911   1.008   4.604   8.021 -1.1948 -1.1089  1.6100
 4818SOL     OW25912   3.867   2.819   2.195 -0.3938  0.0739 -0.7539
 4818SOL    HW125913   3.939   2.870   2.158  0.2725 -0.0236  0.3940
 4818SOL    HW225914   3.908   2.736   2.172 -0.0713 -0.2188  0.9033
 4819SOL     OW25915   3.107   0.661   2.039 -0.0880  0.5716 -0.1352
 4819SOL    HW125916   3.048   0.706   1.979 -1.0534 -0.1211  0.2916
 4819SOL    HW225917   3.180   0.637   1.981  1.1376  0.2102  1.5401
 4820SOL     OW25918   0.510   0.336  14.337 -0.4378 -0.4524  0.2123
 4820SOL    HW125919   0.517   0.384  14.420  1.1525 -1.1206  0.4609
 4820SOL    HW225920   0.558   0.254  14.344  2.1063  1.1411  1.3298
 4821SOL     OW25921   1.267   1.482   3.647  0.4816  0.6002  0.2935
 4821SOL    HW125922   1.206   1.471   3.574 -0.0904 -0.6876  0.9684
 4821SOL    HW225923   1.324   1.408   3.625  1.6677  1.3801  0.7077
 4822SOL     OW25924   3.491   0.738   5.537  0.0120  0.6151  0.1367
 4822SOL    HW125925   3.442   0.807   5.583 -1.9490  0.8895 -2.3667
 4822SOL    HW225926   3.511   0.676   5.607 -1.5677  0.0994  0.1100
 4823SOL     OW25927   3.141   1.582   8.903  0.1752  0.0400  0.0621
 4823SOL    HW125928   3.214   1.593   8.964 -0.6973  2.2774  0.6979
 4823SOL    HW225929   3.166   1.497   8.867 -2.2483  0.3878 -2.4282
 4824SOL     OW25930   2.717   1.677  10.852  0.3779  0.5238  0.5307
 4824SOL    HW125931   2.808   1.682  10.824 -0.1547 -0.8360 -1.3687
 4824SOL    HW225932   2.705   1.767  10.885 -1.8481 -0.6472  2.9748
 4825SOL     OW25933   1.682   0.184  11.451  0.5708  0.4944  0.9335
 4825SOL    HW125934   1.719   0.260  11.407  1.9643  0.1018  1.4395
 4825SOL    HW225935   1.730   0.112  11.409 -0.6726  0.4743 -0.4728
 4826SOL     OW25936   0.211   1.611   4.313  0.1629 -0.0071  0.3618
 4826SOL    HW125937   0.306   1.605   4.312  0.0197 -2.4317  1.9023
 4826SOL    HW225938   0.201   1.683   4.375 -1.4245  1.2623 -1.3691
 4827SOL     OW25939   2.814   0.942  15.196 -0.2627  0.2884  0.0042
 4827SOL    HW125940   2.868   0.999  15.140 -1.4498  1.0277 -0.3820
 4827SOL    HW225941   2.880   0.877  15.222  0.8443  1.3517 -0.1089
 4828SOL     OW25942   2.594   4.317  14.752 -0.2993 -0.0121  0.0417
 4828SOL    HW125943   2.604   4.298  14.658  0.1736  0.0680  0.0748
 4828SOL    HW225944   2.594   4.412  14.742  0.5681  0.0085  0.2796
 4829SOL     OW25945   4.710   2.358   4.745 -0.2786 -0.4332 -0.1667
 4829SOL    HW125946   4.671   2.357   4.658  4.1807  1.9634 -2.1484
 4829SOL    HW225947   0.077   2.378   4.723 -0.5503  0.5500 -0.3891
 4830SOL     OW25948   1.207   1.984   5.329 -0.4120  0.0702  0.0587
 4830SOL    HW125949   1.161   1.904   5.354  0.0127 -1.1161 -2.9679
 4830SOL    HW225950   1.260   2.006   5.405 -2.0372 -0.4683  1.3412
 4831SOL     OW25951   3.223   2.524   8.443 -0.1327  0.3704  0.0201
 4831SOL    HW125952   3.231   2.511   8.348  0.5402 -1.3913  0.3245
 4831SOL    HW225953   3.252   2.440   8.477 -2.0423 -1.6149 -3.2090
 4832SOL     OW25954   0.354   0.739   4.747 -0.2778 -0.5548 -0.1063
 4832SOL    HW125955   0.313   0.667   4.795  2.3469 -1.2811  1.0012
 4832SOL    HW225956   0.387   0.704   4.664 -0.1004 -0.0131 -0.2644
 4833SOL     OW25957   3.688   1.880   7.812  0.7107  0.2116  1.1218
 4833SOL    HW125958   3.649   1.943   7.751  0.6965 -0.5661  0.3179
 4833SOL    HW225959   3.781   1.876   7.790  0.0665 -1.4872 -1.2265
 4834SOL     OW25960   1.703   2.627   4.968 -0.3067  0.1785  0.3294
 4834SOL    HW125961   1.663   2.692   4.911  0.8126  1.0764  0.5571
 4834SOL    HW225962   1.789   2.667   4.980  1.0482 -2.3981 -0.6490
 4835SOL     OW25963   2.231   4.582   2.712  0.1139  0.1100  0.2470
 4835SOL    HW125964   2.296   4.561   2.778  1.7549  0.1154 -1.3692
 4835SOL    HW225965   2.155   4.596   2.768  0.0925  1.1350 -0.0294
 4836SOL     OW25966   0.822   2.165   4.127 -0.2657  0.0146 -0.3417
 4836SOL    HW125967   0.914   2.192   4.129 -0.3322  0.1782  0.6129
 4836SOL    HW225968   0.829   2.098   4.196  1.2844  0.7428  0.2301
 4837SOL     OW25969   4.628   0.536  13.764  0.1254  0.9397 -0.4218
 4837SOL    HW125970   4.704   0.488  13.796 -0.4112  0.5451  0.2772
 4837SOL    HW225971   4.573   0.528  13.842 -1.2109  1.5837 -1.2859
 4838SOL     OW25972   0.051   2.807   6.778  0.0166  0.2369 -0.0577
 4838SOL    HW125973   4.713   2.741   6.812 -2.5414  3.0804  0.8996
 4838SOL    HW225974   0.101   2.756   6.715  1.9889 -0.4148  2.0535
 4839SOL     OW25975   4.264   2.198   5.564 -0.6289  0.9237 -0.2333
 4839SOL    HW125976   4.260   2.127   5.499 -1.4029  1.8073 -1.1428
 4839SOL    HW225977   4.321   2.268   5.533  1.5621  0.4350  2.7184
 4840SOL     OW25978   3.884   4.558   0.401 -0.4550 -0.3997  0.1532
 4840SOL    HW125979   3.914   4.630   0.345 -1.2993 -0.0929  0.0838
 4840SOL    HW225980   3.829   4.609   0.461 -0.1169  1.8946 -1.4847
 4841SOL     OW25981   2.376   0.713   6.376  0.0223  0.3897 -0.0331
 4841SOL    HW125982   2.332   0.752   6.300  1.3349 -1.5566 -1.8242
 4841SOL    HW225983   2.327   0.768   6.438  0.5756  0.5479  0.2606
 4842SOL     OW25984   0.101   0.738   7.708  0.1616 -0.2993  0.0665
 4842SOL    HW125985   0.022   0.722   7.657 -0.1691 -0.0280  0.4971
 4842SOL    HW225986   0.061   0.815   7.749 -0.1447  0.0567 -0.9207
 4843SOL     OW25987   4.614   2.637   7.341  0.3574 -0.0674 -0.5264
 4843SOL    HW125988   4.615   2.596   7.427  0.3580  0.2790 -0.3638
 4843SOL    HW225989   4.709   2.651   7.334  0.3911  0.0416  0.1661
 4844SOL     OW25990   1.773   0.433   2.135 -0.1139  0.3250 -0.6706
 4844SOL    HW125991   1.839   0.385   2.185 -1.6713  1.2347  2.2750
 4844SOL    HW225992   1.695   0.379   2.149  0.5384  0.0748  1.9058
 4845SOL     OW25993   3.666   3.448  10.979 -0.8561 -0.0120 -0.6410
 4845SOL    HW125994   3.581   3.421  10.946  0.1846  0.1248 -3.4619
 4845SOL    HW225995   3.678   3.531  10.931 -2.4591  0.8616  0.4925
 4846SOL     OW25996   3.817   3.992   3.852 -0.1729  0.0333  0.1892
 4846SOL    HW125997   3.909   4.003   3.874 -0.1624 -0.3412  0.3293
 4846SOL    HW225998   3.776   4.021   3.933 -0.1539 -0.0836  0.2402
 4847SOL     OW25999   0.587   1.407   3.188 -0.5810  0.2059 -0.4279
 4847SOL    HW126000   0.573   1.400   3.282 -0.5327 -0.9966 -0.5043
 4847SOL    HW226001   0.522   1.344   3.157 -0.7427 -0.0598  0.4674
 4848SOL     OW26002   2.134   3.754   8.676  0.1829  0.3749 -0.0489
 4848SOL    HW126003   2.050   3.764   8.721 -0.1214 -0.5686 -0.4261
 4848SOL    HW226004   2.118   3.811   8.601  0.2962 -1.2823 -1.3272
 4849SOL     OW26005   2.763   1.398   0.140 -0.4562 -0.2533  0.0924
 4849SOL    HW126006   2.695   1.374   0.077  0.4983 -0.7318 -0.7549
 4849SOL    HW226007   2.836   1.342   0.113  1.6036  2.2041  0.5092
 4850SOL     OW26008   1.649   3.999   6.688 -0.5280 -0.7228 -0.1947
 4850SOL    HW126009   1.738   4.029   6.672 -0.6309 -1.0394 -1.3828
 4850SOL    HW226010   1.632   4.018   6.780 -0.1404  0.6263 -0.3965
 4851SOL     OW26011   3.213   3.275   2.254 -0.1859  0.2869  0.3807
 4851SOL    HW126012   3.228   3.223   2.333  0.0370  0.5567  0.5145
 4851SOL    HW226013   3.235   3.363   2.284 -0.0746  0.9641 -1.6535
 4852SOL     OW26014   2.270   3.799   4.124 -0.0508 -0.1685 -0.1783
 4852SOL    HW126015   2.266   3.714   4.079 -1.4543 -0.5345  0.6339
 4852SOL    HW226016   2.350   3.790   4.176 -0.9851 -3.8467  0.6378
 4853SOL     OW26017   0.160   1.755  11.426  0.2669 -0.0044  0.0378
 4853SOL    HW126018   0.183   1.820  11.359  0.1364  2.5056  2.4278
 4853SOL    HW226019   0.228   1.689  11.417  0.0136 -0.4562  1.5203
 4854SOL     OW26020   3.921   1.429   0.852  0.8343  0.6110 -0.1655
 4854SOL    HW126021   3.837   1.407   0.892  0.4195  1.2969 -0.6616
 4854SOL    HW226022   3.904   1.429   0.757  0.1329 -0.4389 -0.0390
 4855SOL     OW26023   1.485   3.052   8.726  0.2021  0.3298 -0.3221
 4855SOL    HW126024   1.461   2.987   8.661 -2.5241 -1.0017  1.9947
 4855SOL    HW226025   1.546   2.998   8.777 -0.8822  0.5797  1.2601
 4856SOL     OW26026   4.050   1.674   0.479 -0.5618  0.2708  0.0477
 4856SOL    HW126027   4.090   1.624   0.408 -2.4540  1.4284 -1.8748
 4856SOL    HW226028   4.080   1.624   0.555  0.7952 -0.8290 -1.2218
 4857SOL     OW26029   2.973   0.993   0.249  0.0906  0.6200 -0.3985
 4857SOL    HW126030   2.994   0.909   0.290  0.9145  1.4280  0.8118
 4857SOL    HW226031   2.975   1.055   0.322 -0.3926 -0.9992  0.9894
 4858SOL     OW26032   1.832   4.291   0.090  0.0300  0.0534  0.1880
 4858SOL    HW126033   1.791   4.264   0.172 -0.7979  0.2023 -0.1770
 4858SOL    HW226034   1.780   4.237   0.030 -0.5387  0.6857  0.1075
 4859SOL     OW26035   3.862   1.576  12.986  0.4862 -0.2697  0.4209
 4859SOL    HW126036   3.890   1.608  13.072  2.4450 -0.7926 -0.0043
 4859SOL    HW226037   3.949   1.562  12.947  0.0749  0.0786 -0.6170
 4860SOL     OW26038   0.460   1.202   2.546  0.3322  0.0689  0.5955
 4860SOL    HW126039   0.528   1.266   2.523  0.0051 -0.3806 -1.6113
 4860SOL    HW226040   0.434   1.235   2.633  0.6934  0.4232  0.5714
 4861SOL     OW26041   1.008   3.491   2.150  0.2987  0.4113  0.1215
 4861SOL    HW126042   1.032   3.541   2.072  1.0170  3.3651  2.2129
 4861SOL    HW226043   1.092   3.472   2.192  0.0576 -3.5583 -1.1404
 4862SOL     OW26044   0.150   4.134   6.915  0.2659 -0.7896  0.5633
 4862SOL    HW126045   0.170   4.188   6.992 -0.4384 -1.4416  1.1968
 4862SOL    HW226046   0.071   4.093   6.950 -1.0777 -0.0935 -1.6679
 4863SOL     OW26047   3.406   1.904  10.647  0.6091  0.7772 -0.3643
 4863SOL    HW126048   3.349   1.894  10.571  1.1029  1.2074 -0.7857
 4863SOL    HW226049   3.436   1.995  10.647 -1.7814  1.5473  0.6189
 4864SOL     OW26050   2.119   0.135  17.450  0.0562  0.0032  0.1602
 4864SOL    HW126051   2.056   0.133  17.378  2.6158  0.0042 -2.0707
 4864SOL    HW226052   2.098   0.223  17.482 -0.8595 -0.5323  1.0357
 4865SOL     OW26053   2.929   1.566   2.743 -0.0496 -0.0766  0.2882
 4865SOL    HW126054   2.844   1.547   2.781  1.0968 -0.6314  2.5886
 4865SOL    HW226055   2.981   1.505   2.794 -0.0094  0.2091  0.5906
 4866SOL     OW26056   3.561   4.410   7.004  0.3497  0.1901  0.0911
 4866SOL    HW126057   3.567   4.365   6.920  0.8637  2.1588 -0.9146
 4866SOL    HW226058   3.532   4.328   7.046  2.9781 -1.3741 -1.1788
 4867SOL     OW26059   3.872   0.316   3.292  0.4689  0.0181  0.1286
 4867SOL    HW126060   3.833   0.319   3.379  0.5952  0.0835  0.1833
 4867SOL    HW226061   3.962   0.337   3.316  0.2297  0.7975  0.3644
 4868SOL     OW26062   2.758   1.815  13.994 -0.4834 -0.2399 -0.0762
 4868SOL    HW126063   2.708   1.848  13.919  0.7767  0.2990 -0.6735
 4868SOL    HW226064   2.700   1.748  14.031 -2.3878 -0.0817 -2.7167
 4869SOL     OW26065   3.505   2.871   3.987 -0.1074  0.2279 -0.1283
 4869SOL    HW126066   3.561   2.873   4.065 -1.2735  1.5339  0.6824
 4869SOL    HW226067   3.550   2.930   3.927  0.2742 -0.3570 -0.4110
 4870SOL     OW26068   0.978   3.905   8.621  0.2553  0.1595 -0.2897
 4870SOL    HW126069   1.017   3.886   8.706  0.6251  1.1041 -0.2404
 4870SOL    HW226070   0.982   3.824   8.571 -0.8530 -2.1071  3.3415
 4871SOL     OW26071   1.452   4.492   0.181  0.3120 -0.5023 -0.2251
 4871SOL    HW126072   1.485   4.469   0.267  0.0107  0.5777  0.1714
 4871SOL    HW226073   1.425   4.404   0.154 -0.7670  0.1004 -1.1115
 4872SOL     OW26074   2.620   2.058  16.729  0.2305  0.0169 -0.1425
 4872SOL    HW126075   2.647   1.977  16.772 -0.0395 -0.1943 -0.3716
 4872SOL    HW226076   2.697   2.087  16.680  1.2764 -1.2933  0.6986
 4873SOL     OW26077   3.233   3.351   7.608 -0.6081  0.1429  1.0426
 4873SOL    HW126078   3.309   3.299   7.580 -0.2084  0.9921  0.5514
 4873SOL    HW226079   3.201   3.307   7.687  0.4388 -0.8331  0.9280
 4874SOL     OW26080   2.171   4.395  13.022 -0.4146  0.4907 -0.4646
 4874SOL    HW126081   2.115   4.374  13.097  1.1568 -0.5536  0.4050
 4874SOL    HW226082   2.241   4.441  13.068  0.1155  0.4609 -1.2374
 4875SOL     OW26083   1.895   2.687   6.982 -0.1935 -0.4946  0.0337
 4875SOL    HW126084   1.875   2.762   7.038  0.4043 -1.3397  1.3823
 4875SOL    HW226085   1.909   2.726   6.895 -3.6234  0.6519  0.0018
 4876SOL     OW26086   0.807   4.171   0.949  0.0347 -0.2193 -0.4255
 4876SOL    HW126087   0.771   4.082   0.957 -1.0695  0.2335 -0.2947
 4876SOL    HW226088   0.749   4.225   1.003 -0.4517 -0.1497 -1.0227
 4877SOL     OW26089   1.851   2.462   3.763 -0.4625  0.2248 -0.3248
 4877SOL    HW126090   1.776   2.444   3.706 -2.5929  2.0950  1.8959
 4877SOL    HW226091   1.865   2.549   3.726  3.0088 -0.7930 -1.4012
 4878SOL     OW26092   3.863   4.645  10.644  0.2616 -0.3907  0.6134
 4878SOL    HW126093   3.775   4.635  10.606  0.2531 -0.9065  0.7782
 4878SOL    HW226094   3.891   0.011  10.621  0.7768 -0.3135  1.5896
 4879SOL     OW26095   1.005   4.152   0.299 -0.2672  0.0838  0.1923
 4879SOL    HW126096   0.994   4.191   0.212  0.9374  0.6888  0.3195
 4879SOL    HW226097   0.980   4.222   0.359  1.0961 -1.1109  2.1545
 4880SOL     OW26098   0.711   3.076  13.514  0.3478 -0.0267 -0.0926
 4880SOL    HW126099   0.633   3.113  13.472  0.7425  0.9034 -0.0046
 4880SOL    HW226100   0.692   3.106  13.603 -1.2185 -0.3235 -0.3196
 4881SOL     OW26101   2.466   4.343   7.426  0.0569  0.1279  0.6481
 4881SOL    HW126102   2.384   4.391   7.435 -1.1933 -2.0966  1.0285
 4881SOL    HW226103   2.493   4.380   7.341  0.5609 -1.0850  0.2746
 4882SOL     OW26104   0.003   3.282   7.181  0.3051  0.4715 -0.1996
 4882SOL    HW126105   0.079   3.275   7.238 -0.0209 -1.8733 -0.0682
 4882SOL    HW226106   4.708   3.188   7.177  1.6848  0.1242  1.7031
 4883SOL     OW26107   2.671   3.155   9.517  0.3778  0.6841  0.3037
 4883SOL    HW126108   2.644   3.222   9.580 -2.4351 -0.0568 -0.0976
 4883SOL    HW226109   2.586   3.127   9.482  1.1380 -0.3291 -0.7240
 4884SOL     OW26110   4.226   0.178   1.427  0.7586 -0.1320 -0.7072
 4884SOL    HW126111   4.243   0.253   1.483 -0.7021  0.2230 -0.7213
 4884SOL    HW226112   4.295   0.113   1.443  1.5839  0.4869 -1.7645
 4885SOL     OW26113   3.552   0.099   8.853 -0.4595 -0.3360 -0.1833
 4885SOL    HW126114   3.647   0.091   8.854 -0.0992  3.2768 -3.0493
 4885SOL    HW226115   3.529   0.007   8.836  1.0722 -0.5281 -1.1966
 4886SOL     OW26116   3.582   1.619   2.577  0.1183 -0.4517  0.4203
 4886SOL    HW126117   3.668   1.661   2.565  0.2007 -1.1409 -1.4236
 4886SOL    HW226118   3.605   1.548   2.637  1.5049 -0.1096  0.3097
 4887SOL     OW26119   4.619   0.614  15.150  0.3401 -0.3542 -0.2365
 4887SOL    HW126120   4.639   0.615  15.057  0.1636  4.4085 -0.2370
 4887SOL    HW226121   4.616   0.707  15.172  1.3055 -0.5947  0.9253
 4888SOL     OW26122   2.851   2.201   6.252 -0.0475 -0.2341 -0.0874
 4888SOL    HW126123   2.928   2.184   6.198 -0.4310  0.1041 -0.7355
 4888SOL    HW226124   2.827   2.280   6.204  1.6799  0.5133  0.2973
 4889SOL     OW26125   1.530   0.770   8.442  0.2105  0.2882 -0.7536
 4889SOL    HW126126   1.608   0.726   8.477 -0.9404 -0.6036  0.6599
 4889SOL    HW226127   1.528   0.835   8.513  3.0061 -0.3731 -0.0721
 4890SOL     OW26128   2.518   3.770   5.152 -0.3289  0.0659 -0.3624
 4890SOL    HW126129   2.563   3.702   5.101  2.6625  2.1139 -0.4581
 4890SOL    HW226130   2.585   3.784   5.218 -1.4812 -0.3575  0.9008
 4891SOL     OW26131   2.407   1.864  17.378  0.3619  0.4330  0.4011
 4891SOL    HW126132   2.347   1.799  17.342 -0.0519 -0.1399  2.1042
 4891SOL    HW226133   2.474   1.798  17.399  2.7988  1.2451 -4.6733
 4892SOL     OW26134   3.457   3.828   3.788  0.0087 -0.2041 -0.4148
 4892SOL    HW126135   3.393   3.768   3.752  0.4852 -0.9085 -0.1000
 4892SOL    HW226136   3.438   3.893   3.720 -0.6113  0.2359  0.1795
 4893SOL     OW26137   1.773   2.902   4.679 -0.5474  0.3138 -0.3417
 4893SOL    HW126138   1.824   2.955   4.741 -1.3667 -0.2553  0.8047
 4893SOL    HW226139   1.694   2.886   4.730 -0.7159 -0.8373 -0.9630
 4894SOL     OW26140   4.317   2.671   4.795  0.0405 -0.2095  0.3599
 4894SOL    HW126141   4.385   2.678   4.727 -0.4947  1.5078  0.0050
 4894SOL    HW226142   4.367   2.689   4.874  0.0757  3.6111 -0.5390
 4895SOL     OW26143   0.198   0.028   1.797 -0.1199 -0.1173  0.4260
 4895SOL    HW126144   0.254   4.681   1.764 -2.6642 -0.6729 -2.6883
 4895SOL    HW226145   0.115   4.714   1.766  0.2799  0.4890 -1.4033
 4896SOL     OW26146   2.854   1.332   5.316 -0.2183  0.3335  0.9005
 4896SOL    HW126147   2.783   1.333   5.381 -0.8234 -1.4045  0.2556
 4896SOL    HW226148   2.850   1.424   5.289 -0.3905  0.6741  2.0440
 4897SOL     OW26149   0.923   0.373   8.515 -0.3876 -0.0871 -0.1356
 4897SOL    HW126150   0.876   0.293   8.494  1.4151 -0.8886 -1.0351
 4897SOL    HW226151   0.937   0.356   8.609 -1.6632 -0.8998 -0.0911
 4898SOL     OW26152   0.661   1.257   7.149 -0.1375  0.5322 -0.1349
 4898SOL    HW126153   0.686   1.337   7.194 -1.3098  1.1471 -0.5780
 4898SOL    HW226154   0.615   1.206   7.216  0.0300  0.1534 -0.3103
 4899SOL     OW26155   3.004   1.890  15.789  0.0086  0.1759  0.0509
 4899SOL    HW126156   3.021   1.977  15.825  0.3548 -0.0767  0.4919
 4899SOL    HW226157   3.016   1.922  15.700  1.0545  1.3926  0.6351
 4900SOL     OW26158   1.261   4.070   4.595  0.4055  0.0622 -0.8204
 4900SOL    HW126159   1.199   4.108   4.657 -0.9858 -1.6851 -1.1508
 4900SOL    HW226160   1.345   4.097   4.633 -0.3695  0.2955  0.7256
 4901SOL     OW26161   2.724   2.056  16.037 -0.5115  0.2469  0.8319
 4901SOL    HW126162   2.729   2.049  16.132 -0.2392  0.2341  0.8167
 4901SOL    HW226163   2.697   2.145  16.014 -0.4646  0.1755  0.4946
 4902SOL     OW26164   2.093   1.716  13.697  0.9339  0.2319 -0.6349
 4902SOL    HW126165   2.099   1.748  13.787 -0.1929  0.2526 -0.5695
 4902SOL    HW226166   2.012   1.761  13.675 -0.0462 -1.9169 -1.4581
 4903SOL     OW26167   1.320   3.276   9.186  0.2444  0.2220 -0.5414
 4903SOL    HW126168   1.287   3.271   9.276  1.4044 -1.0471 -0.1829
 4903SOL    HW226169   1.395   3.334   9.198  0.1863  0.1526  0.1630
 4904SOL     OW26170   1.216   4.166   2.506  0.0792  0.5441 -0.0365
 4904SOL    HW126171   1.123   4.146   2.497  0.9209 -2.8751 -1.2295
 4904SOL    HW226172   1.231   4.197   2.417 -2.0372  0.7621 -0.3221
 4905SOL     OW26173   0.147   4.688  13.240  0.5348  0.0212  0.0652
 4905SOL    HW126174   0.125   4.653  13.154 -1.4204 -1.0228  0.9940
 4905SOL    HW226175   0.067   0.013  13.261  1.3744  1.0351  0.9519
 4906SOL     OW26176   1.061   4.692   2.991 -0.0522  0.2282 -0.0109
 4906SOL    HW126177   0.983   4.712   3.043  0.0911 -0.1370  0.3506
 4906SOL    HW226178   1.050   0.044   2.934 -1.5927  0.9599  1.2364
 4907SOL     OW26179   2.054   4.237   6.425 -0.1690 -0.4147  0.6430
 4907SOL    HW126180   2.075   4.291   6.501  1.0490  0.2763 -0.1908
 4907SOL    HW226181   2.139   4.222   6.384 -1.3967 -1.8773 -1.3795
 4908SOL     OW26182   3.009   4.119   8.672  0.2366  0.0982  0.1830
 4908SOL    HW126183   3.088   4.072   8.698  1.0361  0.7542 -1.1188
 4908SOL    HW226184   3.007   4.113   8.577 -3.3997 -0.8289  0.3061
 4909SOL     OW26185   1.548   3.112   0.794  0.7208 -0.0121 -0.0971
 4909SOL    HW126186   1.517   3.051   0.862 -0.7421  2.7157  1.6741
 4909SOL    HW226187   1.464   3.148   0.766  0.4728  0.7425  1.5754
 4910SOL     OW26188   2.442   4.636  16.143 -0.0510 -0.3178 -0.1999
 4910SOL    HW126189   2.399   4.677  16.218  1.3627 -1.0492  1.0220
 4910SOL    HW226190   2.472   4.708  16.087  0.6245 -1.3807 -1.1993
 4911SOL     OW26191   0.631   4.469   3.186  0.0922  0.0070 -0.3850
 4911SOL    HW126192   0.667   4.512   3.108 -1.4871 -1.8913 -2.1495
 4911SOL    HW226193   0.624   4.381   3.150 -0.8636 -0.1321  0.1271
 4912SOL     OW26194   3.230   4.295  12.569  0.3256  0.2770  0.4468
 4912SOL    HW126195   3.223   4.274  12.662 -1.0147  2.0167  0.7513
 4912SOL    HW226196   3.146   4.334  12.545  0.4139 -0.6171 -1.3551
 4913SOL     OW26197   4.709   1.561   8.170 -0.4440  0.4236  0.5762
 4913SOL    HW126198   0.033   1.481   8.193 -0.2264 -0.0205 -1.4523
 4913SOL    HW226199   0.056   1.623   8.188 -0.2116  0.8109 -1.6611
 4914SOL     OW26200   2.214   3.236   4.737  0.2358  0.3096  0.2052
 4914SOL    HW126201   2.118   3.229   4.739  0.1974  1.0976  1.2647
 4914SOL    HW226202   2.216   3.316   4.684  2.7839 -0.2416 -0.4889
 4915SOL     OW26203   4.220   3.090   5.316 -0.2047  0.4170 -0.6713
 4915SOL    HW126204   4.219   3.072   5.222  0.0883  0.4139 -0.6732
 4915SOL    HW226205   4.148   3.151   5.332 -0.5930 -0.7314  1.8911
 4916SOL     OW26206   0.804   0.738   9.219 -0.5357 -0.2589  0.2255
 4916SOL    HW126207   0.855   0.775   9.146  0.7379 -1.6897  0.3885
 4916SOL    HW226208   0.718   0.773   9.195  0.4307  0.5827 -2.0526
 4917SOL     OW26209   3.518   4.723   1.477 -0.0215  0.1463  0.3180
 4917SOL    HW126210   3.452   4.706   1.544 -0.7662  0.4019 -0.3582
 4917SOL    HW226211   3.576   0.059   1.525 -1.6419  0.0885  2.3395
 4918SOL     OW26212   1.155   3.704   2.318  0.8076  0.4600 -0.0251
 4918SOL    HW126213   1.081   3.725   2.261  0.9450 -0.5271 -0.5611
 4918SOL    HW226214   1.140   3.758   2.397 -0.9978 -2.7825  1.8471
 4919SOL     OW26215   4.131   3.888  10.856  0.1718 -0.5663  0.1550
 4919SOL    HW126216   4.206   3.843  10.894 -0.0243 -0.4680  0.6625
 4919SOL    HW226217   4.165   3.977  10.849 -1.4090  0.2733  2.9294
 4920SOL     OW26218   4.112   1.515   1.402 -0.1791 -0.0491 -0.2512
 4920SOL    HW126219   4.146   1.446   1.344 -1.9990  0.0627 -1.4389
 4920SOL    HW226220   4.116   1.483   1.492  0.5000 -1.1088 -0.6565
 4921SOL     OW26221   3.070   0.921   9.059  0.5426  0.1464 -0.1851
 4921SOL    HW126222   3.004   0.879   9.115 -1.1626  2.2242 -0.6352
 4921SOL    HW226223   3.124   0.957   9.129  1.0090  1.1704 -1.0769
 4922SOL     OW26224   4.179   0.586  11.441 -0.2309 -0.2755 -0.0283
 4922SOL    HW126225   4.271   0.611  11.455 -0.8100  1.0694  1.4210
 4922SOL    HW226226   4.199   0.500  11.404 -0.2981 -0.7191  0.9640
 4923SOL     OW26227   0.870   3.367   1.299  0.0803 -0.0652 -0.7118
 4923SOL    HW126228   0.903   3.306   1.365 -0.4499 -0.2926 -0.6530
 4923SOL    HW226229   0.885   3.316   1.219 -0.6306  0.3113 -1.0877
 4924SOL     OW26230   3.610   1.157   5.855 -0.4872  0.0478  0.0200
 4924SOL    HW126231   3.542   1.205   5.901 -0.4953  2.3363 -2.3526
 4924SOL    HW226232   3.579   1.170   5.765 -1.6949 -0.5943  0.3455
 4925SOL     OW26233   0.599   4.513   4.273 -0.1065 -0.0286  0.4433
 4925SOL    HW126234   0.526   4.553   4.320  0.8564  0.9915  1.0711
 4925SOL    HW226235   0.619   4.568   4.198  0.3277 -0.6259  0.1174
 4926SOL     OW26236   1.809   0.912   1.089  0.3054  0.2946 -0.3654
 4926SOL    HW126237   1.769   0.872   1.167  0.8488 -1.1075 -0.8106
 4926SOL    HW226238   1.756   0.880   1.016  1.7401 -1.6603 -0.5317
 4927SOL     OW26239   3.444   3.468   5.499  0.2840 -0.5299  0.0081
 4927SOL    HW126240   3.403   3.541   5.453 -1.3819 -2.0439 -0.8703
 4927SOL    HW226241   3.410   3.474   5.589  0.4764 -0.3786  0.0706
 4928SOL     OW26242   1.844   3.727   4.226  0.3061 -0.0134  0.4238
 4928SOL    HW126243   1.868   3.814   4.260  1.4689 -0.0913 -0.1843
 4928SOL    HW226244   1.877   3.670   4.296 -0.0147 -3.1638 -1.9947
 4929SOL     OW26245   3.551   4.675   2.934  0.1779 -0.2586  0.1633
 4929SOL    HW126246   3.499   4.602   2.967  0.4863 -0.4447  0.2372
 4929SOL    HW226247   3.638   4.664   2.973  0.2528  1.7747  0.5965
 4930SOL     OW26248   0.183   0.330   1.790 -0.6241 -0.5150  0.1706
 4930SOL    HW126249   0.095   0.357   1.814 -1.2443 -2.2992 -0.1218
 4930SOL    HW226250   0.169   0.237   1.806 -2.3339 -0.5168 -1.4158
 4931SOL     OW26251   0.047   2.095   7.305  0.6470 -0.2057  0.0696
 4931SOL    HW126252   4.710   2.159   7.266  1.5443 -0.3872 -1.6335
 4931SOL    HW226253   0.069   2.149   7.381 -1.2076  0.6419  0.0017
 4932SOL     OW26254   1.039   2.648   8.844  0.1786 -0.3135 -0.4231
 4932SOL    HW126255   0.985   2.569   8.845  0.3063 -0.3694  2.9494
 4932SOL    HW226256   1.096   2.624   8.918  0.1381  1.0493  0.0456
 4933SOL     OW26257   1.343   3.815  12.464  0.1997  0.0776  0.3128
 4933SOL    HW126258   1.410   3.763  12.510 -0.8669 -1.5255  0.0373
 4933SOL    HW226259   1.286   3.829  12.539  0.9378  0.2088  0.8580
 4934SOL     OW26260   0.233   0.252   3.297 -0.1651  0.6029 -0.1954
 4934SOL    HW126261   0.276   0.169   3.316 -0.3876  0.3823 -0.6305
 4934SOL    HW226262   0.208   0.244   3.205 -2.1662 -0.3339  0.4200
 4935SOL     OW26263   0.578   3.336   3.591  0.1064  0.2186  0.0714
 4935SOL    HW126264   0.528   3.306   3.667  0.2840  0.6114  0.3384
 4935SOL    HW226265   0.526   3.410   3.558 -1.0998 -1.0275 -0.8230
 4936SOL     OW26266   2.882   1.671  11.877 -0.7118  0.4710 -0.2572
 4936SOL    HW126267   2.833   1.622  11.944  0.8181 -1.9799 -0.9405
 4936SOL    HW226268   2.851   1.647  11.789  1.7736  2.3780 -1.6262
 4937SOL     OW26269   1.334   0.349   5.785 -0.6458  0.4871  0.5233
 4937SOL    HW126270   1.324   0.258   5.760  1.8211  0.3504  0.0331
 4937SOL    HW226271   1.293   0.338   5.870  0.0358 -0.4570  0.7289
 4938SOL     OW26272   0.448   1.949   8.288  0.5488 -0.2763 -0.5535
 4938SOL    HW126273   0.395   1.993   8.354  0.4049 -0.9099 -0.2444
 4938SOL    HW226274   0.401   1.974   8.208  1.7480  2.2544 -0.4432
 4939SOL     OW26275   3.565   3.064   7.256 -0.2317  0.5196  0.0321
 4939SOL    HW126276   3.645   3.092   7.211 -0.2811  0.9811  0.2372
 4939SOL    HW226277   3.567   2.971   7.234  2.7851  0.2909  1.3687
 4940SOL     OW26278   2.834   1.875   8.268  0.1238  0.0660 -0.5875
 4940SOL    HW126279   2.796   1.836   8.346  0.6429  0.0189 -0.3585
 4940SOL    HW226280   2.929   1.875   8.285  0.3636  2.5303 -1.8072
 4941SOL     OW26281   1.031   3.098   3.529 -0.1129 -0.3702 -0.2226
 4941SOL    HW126282   1.094   3.026   3.519 -0.1997 -0.5709  0.6698
 4941SOL    HW226283   0.946   3.060   3.508 -0.8501  0.6420  0.9221
 4942SOL     OW26284   1.396   0.877   3.844  0.0120 -0.4059 -0.3262
 4942SOL    HW126285   1.337   0.806   3.869 -0.5059 -1.0235 -3.2662
 4942SOL    HW226286   1.377   0.899   3.753 -0.7542  0.4059  0.0342
 4943SOL     OW26287   3.593   0.833  10.406 -0.3931 -0.4764  0.1257
 4943SOL    HW126288   3.679   0.847  10.444 -0.7346 -1.4450  1.2505
 4943SOL    HW226289   3.598   0.741  10.381  0.2779  0.1789 -2.0986
 4944SOL     OW26290   0.241   1.787   7.075  0.2102 -0.5030 -0.3243
 4944SOL    HW126291   0.311   1.791   7.010  0.7009 -0.6125  0.1955
 4944SOL    HW226292   0.288   1.748   7.148  0.7947 -2.0934 -1.5467
 4945SOL     OW26293   2.382   0.364   3.686  0.0248  0.9012 -0.0083
 4945SOL    HW126294   2.306   0.423   3.682 -0.7901 -0.1260  0.2746
 4945SOL    HW226295   2.414   0.375   3.596  0.4961 -0.5877 -0.0202
 4946SOL     OW26296   2.516   1.819   1.820 -0.2808 -0.0032  0.1052
 4946SOL    HW126297   2.455   1.888   1.796 -2.1138 -1.6155  0.0749
 4946SOL    HW226298   2.466   1.738   1.811  1.7255 -1.1493 -0.7749
 4947SOL     OW26299   2.555   3.812   3.249 -0.2510 -1.0557  0.3600
 4947SOL    HW126300   2.555   3.851   3.162 -0.2212  0.6487  1.1278
 4947SOL    HW226301   2.580   3.891   3.297 -1.4294 -0.9722  0.8335
 4948SOL     OW26302   3.994   4.453   4.488 -0.6860 -0.0875  0.0149
 4948SOL    HW126303   4.088   4.451   4.508 -0.9832 -2.6430  1.1880
 4948SOL    HW226304   3.972   4.412   4.572  0.7868  3.0754  1.9524
 4949SOL     OW26305   2.046   4.459   2.492 -0.2371 -0.2287 -0.4691
 4949SOL    HW126306   1.963   4.431   2.533  1.1577 -2.6014  0.7592
 4949SOL    HW226307   2.097   4.482   2.570  0.2736  1.9716 -1.4792
 4950SOL     OW26308   1.639   0.301  12.919  0.6721  0.2235 -0.2800
 4950SOL    HW126309   1.642   0.245  12.997  2.5751 -0.5632 -0.9192
 4950SOL    HW226310   1.592   0.379  12.946 -0.8040 -1.0089  0.7091
 4951SOL     OW26311   4.406   0.705   1.578 -0.4059  0.4127  0.1697
 4951SOL    HW126312   4.484   0.650   1.577 -0.1479  0.7962 -0.4702
 4951SOL    HW226313   4.343   0.646   1.618 -0.3095 -1.2234 -2.1070
 4952SOL     OW26314   4.498   4.458   6.122  0.4882 -0.1754  0.5616
 4952SOL    HW126315   4.548   4.419   6.051 -0.3330  1.5113 -0.9572
 4952SOL    HW226316   4.419   4.404   6.133  0.9955 -0.9122  0.5624
 4953SOL     OW26317   3.186   1.520   3.243 -0.5703 -0.7056 -0.0190
 4953SOL    HW126318   3.118   1.558   3.187 -0.1499  0.9257  0.5948
 4953SOL    HW226319   3.238   1.600   3.253 -0.5379 -0.7966  0.5569
 4954SOL     OW26320   0.305   0.909  12.712 -0.4526 -0.1892  0.4814
 4954SOL    HW126321   0.341   0.940  12.795 -0.2307 -0.2121  0.3953
 4954SOL    HW226322   0.245   0.982  12.695  0.8221  0.8787  0.5232
 4955SOL     OW26323   1.273   4.121   6.999  0.6041  0.2858  0.1774
 4955SOL    HW126324   1.359   4.143   7.036 -0.4990  0.6541  2.5070
 4955SOL    HW226325   1.296   4.068   6.922  0.2940 -0.3525  0.5281
 4956SOL     OW26326   4.287   0.064   7.753  0.5398  0.1044  0.1459
 4956SOL    HW126327   4.248   4.718   7.806  0.5975 -1.2139 -1.5226
 4956SOL    HW226328   4.375   0.026   7.754  0.8079  0.7491  1.4404
 4957SOL     OW26329   1.067   1.350   8.334 -0.0818  0.2424 -0.3002
 4957SOL    HW126330   1.053   1.344   8.428  1.6092  1.8522  0.0371
 4957SOL    HW226331   1.040   1.265   8.298 -1.7285 -0.8807  3.5588
 4958SOL     OW26332   1.603   0.129   9.298 -0.8224 -0.1637 -0.6950
 4958SOL    HW126333   1.583   0.072   9.224  1.1635 -0.9250 -0.6430
 4958SOL    HW226334   1.590   0.214   9.257  0.4517 -0.0226 -0.8009
 4959SOL     OW26335   1.327   2.207   1.595 -0.0546 -0.5647 -0.5855
 4959SOL    HW126336   1.388   2.149   1.641 -1.2674 -1.8745 -0.6094
 4959SOL    HW226337   1.330   2.150   1.518 -3.1368  0.9999 -1.8479
 4960SOL     OW26338   1.725   4.127   6.276 -0.7330 -0.4123 -0.2844
 4960SOL    HW126339   1.721   4.060   6.208 -0.8894 -0.0956 -0.5879
 4960SOL    HW226340   1.780   4.191   6.230 -0.0046 -2.1641 -1.8453
 4961SOL     OW26341   3.356   0.530   6.241  0.1588  0.0891  0.0790
 4961SOL    HW126342   3.345   0.497   6.152 -0.9167 -0.9457  0.5964
 4961SOL    HW226343   3.383   0.618   6.215  0.3666  0.6498  2.1945
 4962SOL     OW26344   0.773   4.680   2.994  0.5113 -0.4637  0.3161
 4962SOL    HW126345   0.716   0.005   2.935  1.5697 -0.5273 -0.7611
 4962SOL    HW226346   0.788   4.602   2.939  1.5230 -1.1588  1.5693
 4963SOL     OW26347   1.440   2.875   2.498 -0.0486 -0.4189 -0.5499
 4963SOL    HW126348   1.508   2.808   2.493 -1.7426 -2.1258 -0.8173
 4963SOL    HW226349   1.356   2.831   2.482 -0.2371  0.0872 -0.9501
 4964SOL     OW26350   3.523   0.580   6.635  0.3249  0.0746  0.1176
 4964SOL    HW126351   3.501   0.503   6.582 -1.4126 -0.4231  1.5519
 4964SOL    HW226352   3.589   0.621   6.579  0.0625  0.7909  0.3315
 4965SOL     OW26353   1.566   2.931   6.416 -0.0045 -0.1058  0.4218
 4965SOL    HW126354   1.647   2.926   6.365 -0.7682  2.4895 -1.0331
 4965SOL    HW226355   1.585   3.008   6.470 -0.5697 -0.8553  1.6865
 4966SOL     OW26356   1.140   4.249  12.799 -0.1129 -0.1186 -0.2271
 4966SOL    HW126357   1.140   4.338  12.834 -1.6704 -0.3965  0.4869
 4966SOL    HW226358   1.226   4.245  12.759 -0.8962 -0.5576 -1.8645
 4967SOL     OW26359   0.744   1.071   5.459  0.4863  0.5490 -0.2682
 4967SOL    HW126360   0.752   1.166   5.453  0.2683  0.5974  0.1373
 4967SOL    HW226361   0.655   1.047   5.433 -0.5314  1.7805  2.0284
 4968SOL     OW26362   1.438   4.078   0.580  0.3673 -0.0063  0.0281
 4968SOL    HW126363   1.413   4.166   0.608 -0.5028 -0.0919 -0.4959
 4968SOL    HW226364   1.384   4.065   0.502 -0.7206  0.8353  0.6570
 4969SOL     OW26365   0.169   3.493  12.441  0.0791 -0.0716 -0.0149
 4969SOL    HW126366   0.080   3.528  12.433 -0.1847  0.0167  3.3123
 4969SOL    HW226367   0.159   3.398  12.439  0.2079 -0.0640 -1.1572
 4970SOL     OW26368   0.647   4.681   1.452 -0.3904  0.3057  0.2878
 4970SOL    HW126369   0.639   4.712   1.362 -0.1255 -1.7234 -0.4402
 4970SOL    HW226370   0.563   4.640   1.472 -1.1625  2.7582  2.0737
 4971SOL     OW26371   0.553   0.707   7.832  0.5300 -0.4678  0.2988
 4971SOL    HW126372   0.633   0.729   7.881  0.8979 -0.1865 -0.4386
 4971SOL    HW226373   0.543   0.613   7.847 -0.6267 -0.6452 -1.7238
 4972SOL     OW26374   3.341   2.249  12.654  0.5263  0.2978  0.0374
 4972SOL    HW126375   3.318   2.187  12.723  0.8510 -1.1802 -1.1906
 4972SOL    HW226376   3.406   2.306  12.696 -1.0949  1.7587  0.5546
 4973SOL     OW26377   4.105   0.694  11.023  0.2824 -0.1028  0.0974
 4973SOL    HW126378   4.013   0.697  10.996  0.1036 -2.0266  0.4566
 4973SOL    HW226379   4.123   0.781  11.057  0.2191  1.1952 -3.1538
 4974SOL     OW26380   0.949   3.561  15.506 -0.4321 -0.1545  0.5234
 4974SOL    HW126381   0.937   3.487  15.447  0.4712  0.3316 -0.2799
 4974SOL    HW226382   0.895   3.632  15.470  0.7333  1.2588  1.5386
 4975SOL     OW26383   1.946   3.563   3.472 -0.4651 -0.7670 -0.0959
 4975SOL    HW126384   1.891   3.590   3.399 -2.0602  0.4913  1.5644
 4975SOL    HW226385   2.030   3.576   3.428 -0.5902 -1.2154 -0.4578
 4976SOL     OW26386   3.461   0.239  14.359  0.1367  0.1305  0.1018
 4976SOL    HW126387   3.387   0.230  14.300 -0.4426 -1.6575  1.0968
 4976SOL    HW226388   3.437   0.171  14.423  3.6976  1.6999  3.1404
 4977SOL     OW26389   2.686   3.636   9.116 -0.2535 -0.1611  0.3117
 4977SOL    HW126390   2.674   3.636   9.212  0.4802 -0.0079  0.3979
 4977SOL    HW226391   2.595   3.634   9.084  0.3473  2.3115 -1.5139
 4978SOL     OW26392   1.142   1.015   8.452  0.1804 -0.5313  0.3739
 4978SOL    HW126393   1.075   1.058   8.399 -1.5513 -1.3042  1.9305
 4978SOL    HW226394   1.123   0.926   8.422 -0.5471 -0.2423 -0.0248
 4979SOL     OW26395   3.245   1.456  12.285 -0.1403  0.2150 -0.5873
 4979SOL    HW126396   3.179   1.431  12.221 -0.4447 -0.9316  0.1755
 4979SOL    HW226397   3.253   1.545  12.249 -0.4581  0.4222 -0.1492
 4980SOL     OW26398   3.491   2.977   9.236 -0.3804 -0.2770  0.1095
 4980SOL    HW126399   3.443   3.015   9.162 -0.1707 -0.6782 -0.2339
 4980SOL    HW226400   3.526   3.057   9.274 -1.2759  0.8067 -1.3421
 4981SOL     OW26401   0.077   1.456  11.716 -0.0633  0.0261 -0.4197
 4981SOL    HW126402   0.011   1.401  11.673 -1.2019 -1.1538  2.8791
 4981SOL    HW226403   0.101   1.508  11.639  0.2638  0.1827 -0.2131
 4982SOL     OW26404   4.633   3.227   6.771 -0.5374  0.2975  0.0944
 4982SOL    HW126405   4.650   3.293   6.703 -2.1712 -0.3325 -0.9256
 4982SOL    HW226406   4.677   3.156   6.726 -0.0802  0.7297 -0.1471
 4983SOL     OW26407   2.888   1.699   7.158 -0.2984  0.1600 -0.4098
 4983SOL    HW126408   2.821   1.641   7.120  0.5703 -1.7099  0.9585
 4983SOL    HW226409   2.834   1.762   7.206  0.2110  2.1759 -2.4748
 4984SOL     OW26410   1.859   0.798   8.213 -0.1383 -0.4941 -0.2708
 4984SOL    HW126411   1.865   0.861   8.141 -0.4614  0.8218  0.8636
 4984SOL    HW226412   1.817   0.846   8.284  0.7112  0.7874 -0.6235
 4985SOL     OW26413   2.433   4.664  11.152  0.3054 -0.0239 -0.1939
 4985SOL    HW126414   2.423   4.667  11.247  1.4812  1.1504 -0.1121
 4985SOL    HW226415   2.522   4.694  11.135  0.7194 -0.7272  0.6982
 4986SOL     OW26416   2.871   3.214   8.114  0.3829 -0.2657 -0.1008
 4986SOL    HW126417   2.946   3.272   8.127  1.1181 -1.0084 -1.0290
 4986SOL    HW226418   2.809   3.240   8.182  2.5801  1.7977  1.1338
 4987SOL     OW26419   0.104   2.440  11.597 -0.5060  0.5182 -0.2025
 4987SOL    HW126420   0.152   2.358  11.612 -1.0469  0.0802 -0.8647
 4987SOL    HW226421   0.027   2.409  11.549  1.1929 -0.6692 -2.1835
 4988SOL     OW26422   4.711   2.760  16.238 -0.4636 -0.1004  0.1536
 4988SOL    HW126423   4.687   2.740  16.328  0.0062 -1.1904  0.0340
 4988SOL    HW226424   0.083   2.758  16.236 -0.5033 -1.7668  0.2963
 4989SOL     OW26425   0.202   3.605   8.460  0.2865 -0.9371 -0.0315
 4989SOL    HW126426   0.181   3.640   8.374  0.2064 -0.6308  0.1114
 4989SOL    HW226427   0.247   3.526   8.432  0.8712 -0.4549 -0.4388
 4990SOL     OW26428   4.545   0.145  10.544  0.2386 -0.8993 -0.2431
 4990SOL    HW126429   4.479   0.145  10.474  1.2961  0.4682 -1.2346
 4990SOL    HW226430   4.482   0.151  10.616 -0.8523 -3.3125 -0.9981
 4991SOL     OW26431   3.213   0.055   4.836  0.5383  0.5363 -0.0979
 4991SOL    HW126432   3.201   0.145   4.867  0.8800  0.8454 -0.8590
 4991SOL    HW226433   3.137   0.048   4.777 -0.2845 -0.5297  1.0752
 4992SOL     OW26434   0.420   3.684   1.996  0.0181 -0.1633  0.3718
 4992SOL    HW126435   0.351   3.618   1.991 -0.3767  0.1502  1.7455
 4992SOL    HW226436   0.474   3.640   2.061 -0.4133  0.7767  1.3547
 4993SOL     OW26437   2.344   2.703   4.927 -0.1499  0.2449 -0.1951
 4993SOL    HW126438   2.405   2.697   5.000 -0.0565  2.4893 -0.1100
 4993SOL    HW226439   2.417   2.710   4.866  0.2678  2.0187  0.5237
 4994SOL     OW26440   1.562   0.227   7.081  0.3002 -0.1405 -0.1975
 4994SOL    HW126441   1.483   0.270   7.111  0.7899  0.2883  0.4822
 4994SOL    HW226442   1.537   0.140   7.112  0.8729  0.1541  1.0883
 4995SOL     OW26443   1.571   4.151   1.261  0.6251  0.5672  0.0448
 4995SOL    HW126444   1.569   4.246   1.246  0.6717  0.1033 -2.7937
 4995SOL    HW226445   1.655   4.132   1.302 -0.2791  0.6882  1.9594
 4996SOL     OW26446   4.134   2.363   3.266  0.0645 -0.4663 -0.8428
 4996SOL    HW126447   4.106   2.455   3.269 -1.2005 -0.8747 -0.0666
 4996SOL    HW226448   4.146   2.356   3.171 -0.1066  1.0894 -0.9848
 4997SOL     OW26449   1.936   4.108  16.763 -0.5459  0.1177 -0.0703
 4997SOL    HW126450   1.873   4.162  16.809 -1.4410 -0.7664 -0.2453
 4997SOL    HW226451   1.875   4.057  16.709 -0.8610  0.3001  0.1147
 4998SOL     OW26452   0.470   0.641   4.530  0.5997 -0.2804  0.4490
 4998SOL    HW126453   0.461   0.546   4.535 -2.8656 -0.0347 -0.9202
 4998SOL    HW226454   0.560   0.638   4.498  0.1483  2.0601 -1.0614
 4999SOL     OW26455   3.396   3.801   9.876 -0.5528  0.0753  0.6306
 4999SOL    HW126456   3.448   3.876   9.903  1.6160 -0.8913 -0.8678
 4999SOL    HW226457   3.335   3.847   9.818  0.0328  0.2050  0.1311
 5000SOL     OW26458   1.791   2.753  16.268  0.8250  0.2182  0.1903
 5000SOL    HW126459   1.853   2.783  16.202  3.2526 -0.4115  2.1919
 5000SOL    HW226460   1.705   2.778  16.234  0.6716 -0.4977  0.0560
 5001SOL     OW26461   3.709   1.401   1.279  0.3099 -0.9501  0.1490
 5001SOL    HW126462   3.774   1.350   1.328  0.5225 -0.5261  0.3084
 5001SOL    HW226463   3.702   1.481   1.331  1.6478 -1.3774  0.9787
 5002SOL     OW26464   2.742   2.036  16.344 -0.5088 -0.3698  0.3442
 5002SOL    HW126465   2.659   2.004  16.379 -0.4701  1.2328  1.8832
 5002SOL    HW226466   2.788   2.085  16.412  0.7795 -0.7721 -0.2333
 5003SOL     OW26467   3.450   0.782   0.103 -0.1334  0.0219 -0.0889
 5003SOL    HW126468   3.517   0.714   0.103  1.3538  1.4849 -0.8050
 5003SOL    HW226469   3.481   0.856   0.051 -1.9480  0.5571 -0.3816
 5004SOL     OW26470   4.216   2.606   9.693 -0.3328  0.1310  0.4508
 5004SOL    HW126471   4.123   2.619   9.674  0.0330 -0.6409 -1.7943
 5004SOL    HW226472   4.210   2.591   9.787 -2.1117 -1.0701  0.1372
 5005SOL     OW26473   2.422   4.021  10.964  0.0255 -0.0316 -0.3213
 5005SOL    HW126474   2.408   4.097  10.907  1.1040  0.7030  0.3906
 5005SOL    HW226475   2.407   3.948  10.904  1.3202 -0.5910  0.0237
 5006SOL     OW26476   0.434   3.878   2.872 -0.4817 -0.0981 -0.2647
 5006SOL    HW126477   0.526   3.858   2.884  0.2834  2.1571 -2.4348
 5006SOL    HW226478   0.392   3.827   2.941 -1.6454  2.0194  0.6161
 5007SOL     OW26479   0.094   4.704   0.049  0.1137 -0.1735 -0.4564
 5007SOL    HW126480   0.066   0.009  17.657 -1.1019  3.0071  0.9656
 5007SOL    HW226481   0.152   4.633   0.021 -0.4249 -0.9203  0.3284
 5008SOL     OW26482   2.472   1.380   8.244 -0.5232 -0.3011  0.0423
 5008SOL    HW126483   2.466   1.361   8.151 -0.7534  2.1222 -0.4328
 5008SOL    HW226484   2.413   1.455   8.240  1.5420  1.5614  4.5921
 5009SOL     OW26485   3.755   1.845  10.466 -0.1570  0.4580 -0.0469
 5009SOL    HW126486   3.797   1.852  10.380 -0.0158 -1.3876 -0.1365
 5009SOL    HW226487   3.756   1.936  10.495 -0.5776  0.6467 -0.6148
 5010SOL     OW26488   1.076   0.144   5.350  0.3074  0.1461  0.1492
 5010SOL    HW126489   1.145   0.194   5.306 -0.7383 -0.1413 -1.8285
 5010SOL    HW226490   1.055   0.198   5.425 -0.8615 -0.9118  0.5812
 5011SOL     OW26491   3.234   3.208  16.697 -0.1669 -0.3496  0.0461
 5011SOL    HW126492   3.250   3.300  16.720 -0.1167 -0.4368  0.3737
 5011SOL    HW226493   3.276   3.156  16.766  0.0149 -1.1933 -0.7061
 5012SOL     OW26494   2.923   4.006   4.660  0.6282  0.0063  0.7106
 5012SOL    HW126495   2.894   4.086   4.705 -1.6988  0.3239 -1.3467
 5012SOL    HW226496   3.004   3.989   4.708  1.1912 -0.5140 -0.4418
 5013SOL     OW26497   0.538   0.057   2.156 -0.0928  0.2550 -0.1707
 5013SOL    HW126498   0.494   0.126   2.207  0.7735 -0.6240  1.7630
 5013SOL    HW226499   0.574   0.001   2.225  3.4483  2.9543  0.1333
 5014SOL     OW26500   2.907   3.395   2.115 -0.0507 -0.4125 -0.7344
 5014SOL    HW126501   2.904   3.470   2.055 -2.1523 -1.5175 -2.0113
 5014SOL    HW226502   2.907   3.439   2.200  1.3684  0.3383 -1.1290
 5015SOL     OW26503   0.173   2.415   5.106  0.3842  0.0891  0.3283
 5015SOL    HW126504   0.231   2.346   5.139 -0.8869 -0.1367  2.1247
 5015SOL    HW226505   0.106   2.362   5.064 -1.5870  2.2314  0.7606
 5016SOL     OW26506   1.510   0.425   1.434 -0.3009  0.1074  0.2396
 5016SOL    HW126507   1.604   0.443   1.431 -0.5680  1.7300  1.7200
 5016SOL    HW226508   1.497   0.331   1.448  2.4920 -0.2285  0.5766
 5017SOL     OW26509   1.795   2.923   6.264 -0.2483 -0.2417 -0.4626
 5017SOL    HW126510   1.730   2.928   6.194  0.8971  2.2543 -1.3803
 5017SOL    HW226511   1.860   2.983   6.226 -0.2969  1.5237  2.2283
 5018SOL     OW26512   2.023   1.960   5.339 -0.1754  0.0089 -0.2252
 5018SOL    HW126513   1.966   2.034   5.360  1.0566  0.8562  0.1407
 5018SOL    HW226514   1.968   1.895   5.294 -1.3590 -0.2407  1.5914
 5019SOL     OW26515   4.013   1.769   2.120  0.4059  0.0556  0.6046
 5019SOL    HW126516   3.943   1.722   2.164 -0.7261  1.1824  0.0084
 5019SOL    HW226517   4.054   1.697   2.071 -2.7804 -0.1728 -1.7285
 5020SOL     OW26518   3.514   4.490   3.533  0.2636  0.5122  0.3557
 5020SOL    HW126519   3.541   4.400   3.553  0.5643  0.2451 -1.2142
 5020SOL    HW226520   3.540   4.529   3.616  0.3096 -1.1920  1.1488
 5021SOL     OW26521   1.035   4.377   0.816 -0.3131 -0.0178  0.0763
 5021SOL    HW126522   0.964   4.406   0.874 -0.9023 -0.8981 -0.2035
 5021SOL    HW226523   1.022   4.433   0.740 -1.3377 -0.9511 -0.4481
 5022SOL     OW26524   0.443   2.723   2.541  0.3439  0.0235 -0.3339
 5022SOL    HW126525   0.403   2.717   2.454  4.4425 -0.6243 -2.2041
 5022SOL    HW226526   0.523   2.675   2.518  1.3687 -0.1544  3.7099
 5023SOL     OW26527   4.631   2.431   3.139  0.0962  0.4280  0.2809
 5023SOL    HW126528   4.675   2.352   3.171 -1.2833  0.5517  2.4427
 5023SOL    HW226529   4.692   2.499   3.167 -0.4602 -0.1925  2.9569
 5024SOL     OW26530   0.161   4.661   8.622 -0.2696  0.8020 -0.3340
 5024SOL    HW126531   0.256   4.664   8.631 -0.2936 -1.0499  0.3880
 5024SOL    HW226532   0.162   4.696   8.533  4.6556  0.1448 -0.4832
 5025SOL     OW26533   2.886   2.305   2.473  0.5234  0.3530  0.1531
 5025SOL    HW126534   2.925   2.368   2.533 -1.6807 -0.4795  2.4582
 5025SOL    HW226535   2.839   2.358   2.409  0.2375 -0.9807 -0.7313
 5026SOL     OW26536   3.646   3.960   6.728 -0.0487 -0.2526 -0.6112
 5026SOL    HW126537   3.705   4.006   6.668 -0.6540 -0.3022 -1.2514
 5026SOL    HW226538   3.720   3.919   6.771  0.7791  2.2194  0.3089
 5027SOL     OW26539   0.189   3.717   0.568 -0.0580 -0.1954 -0.1385
 5027SOL    HW126540   0.148   3.669   0.639  1.7404  0.5182  1.3671
 5027SOL    HW226541   0.109   3.759   0.535 -1.3230 -0.0776  3.0582
 5028SOL     OW26542   1.695   3.847   9.044  0.1936  0.0082  0.3207
 5028SOL    HW126543   1.779   3.862   9.001  0.0030 -2.1985 -0.7974
 5028SOL    HW226544   1.675   3.937   9.072 -1.0913 -0.3406  0.5140
 5029SOL     OW26545   0.425   0.853   3.298  0.2069  0.1815 -1.0208
 5029SOL    HW126546   0.475   0.774   3.277  0.5099  0.1776 -0.2987
 5029SOL    HW226547   0.474   0.933   3.280 -2.4118  2.2824  1.0515
 5030SOL     OW26548   1.763   0.700   8.570  0.1617  0.5508 -0.6051
 5030SOL    HW126549   1.818   0.754   8.513  0.9120 -1.8073 -2.1183
 5030SOL    HW226550   1.800   0.725   8.655 -3.0612 -0.9442  1.2015
 5031SOL     OW26551   3.640   3.704   9.983 -0.1401 -0.2152 -0.7132
 5031SOL    HW126552   3.548   3.724   9.965 -0.8317 -3.1621 -0.5403
 5031SOL    HW226553   3.650   3.754  10.064 -0.9481 -1.4915  0.1687
 5032SOL     OW26554   1.734   1.997  12.440 -0.2191  0.6431 -0.2112
 5032SOL    HW126555   1.721   2.011  12.534 -0.5447  0.7364 -0.2709
 5032SOL    HW226556   1.645   2.018  12.410 -0.6038 -1.7271 -0.6709
 5033SOL     OW26557   0.589   1.708   5.166  0.4491  0.6138 -0.5934
 5033SOL    HW126558   0.505   1.677   5.130  0.0459  1.6709 -0.5599
 5033SOL    HW226559   0.553   1.775   5.224  0.7905  0.2807  0.0045
 5034SOL     OW26560   0.992   1.209  16.449  0.1172 -0.3499  0.4787
 5034SOL    HW126561   1.056   1.246  16.388 -0.9677 -0.8433 -0.9695
 5034SOL    HW226562   0.911   1.215  16.399  0.2647  1.0879  0.4247
 5035SOL     OW26563   2.588   2.959   6.214 -0.3446 -0.0505  0.0996
 5035SOL    HW126564   2.552   2.925   6.296 -0.4534 -1.2613 -0.4586
 5035SOL    HW226565   2.672   2.913   6.214  0.3797  1.2502 -0.8096
 5036SOL     OW26566   0.634   3.063   4.710  0.3537 -0.2194  0.0780
 5036SOL    HW126567   0.617   2.986   4.763 -1.4254  0.7873  0.9627
 5036SOL    HW226568   0.705   3.111   4.752 -0.1088  0.0655  0.5300
 5037SOL     OW26569   2.125   3.773   7.631  0.6141 -0.4240 -0.2957
 5037SOL    HW126570   2.108   3.735   7.718  0.6915  1.6568  0.6307
 5037SOL    HW226571   2.215   3.753   7.605  0.4670 -2.1413  0.4977
 5038SOL     OW26572   0.065   1.142   8.464  0.4453 -0.3051  0.0536
 5038SOL    HW126573   4.694   1.126   8.470  0.4506 -0.0277  0.9284
 5038SOL    HW226574   0.067   1.173   8.374 -1.3931 -2.8425 -0.8598
 5039SOL     OW26575   4.196   0.071   6.599 -0.2761 -0.5006  0.0023
 5039SOL    HW126576   4.116   0.048   6.552 -0.0333  0.1663 -0.7380
 5039SOL    HW226577   4.232   4.715   6.640 -2.0089 -2.1481 -1.6542
 5040SOL     OW26578   0.707   2.950   0.488  0.2343 -0.0793  0.4444
 5040SOL    HW126579   0.743   2.919   0.405 -0.1882  1.0084 -0.1496
 5040SOL    HW226580   0.721   2.872   0.541 -2.5602 -1.8621 -1.4375
 5041SOL     OW26581   0.454   4.401   1.305  0.1614  0.2098 -0.2976
 5041SOL    HW126582   0.423   4.310   1.304  0.8357 -0.0462  1.1753
 5041SOL    HW226583   0.438   4.436   1.393 -1.1134 -1.3090  0.0732
 5042SOL     OW26584   1.911   4.138   4.580  0.2283 -0.1693  0.2494
 5042SOL    HW126585   1.945   4.213   4.531  0.1141 -0.9888 -1.0875
 5042SOL    HW226586   1.850   4.114   4.510  0.7993 -0.3532 -0.1888
 5043SOL     OW26587   2.220   3.174   7.084  0.2017 -0.0223  0.3389
 5043SOL    HW126588   2.290   3.180   7.148 -0.8799 -2.1876  1.7195
 5043SOL    HW226589   2.261   3.218   7.009  1.5032 -0.0322  1.0500
 5044SOL     OW26590   3.715   0.270  14.228  0.0708 -0.2461  0.3381
 5044SOL    HW126591   3.721   0.265  14.324  2.6549 -0.3068  0.1913
 5044SOL    HW226592   3.644   0.208  14.216 -0.9964  1.4873 -2.3060
 5045SOL     OW26593   2.563   2.720   5.096 -0.4346  0.0912  0.2449
 5045SOL    HW126594   2.575   2.632   5.133  2.2308  0.9098  1.2982
 5045SOL    HW226595   2.650   2.759   5.104 -0.2045 -0.1095 -1.3000
 5046SOL     OW26596   2.930   4.569  11.475 -0.2658 -0.1482  0.1404
 5046SOL    HW126597   2.956   4.510  11.404 -1.6842  0.3721 -0.8160
 5046SOL    HW226598   2.938   4.655  11.433 -0.6168  0.2746  0.9282
 5047SOL     OW26599   3.267   4.144   0.361 -0.1243 -0.5265 -0.4863
 5047SOL    HW126600   3.255   4.208   0.291 -0.5114 -0.4526 -0.3509
 5047SOL    HW226601   3.292   4.198   0.436  1.3928 -0.6815 -0.8886
 5048SOL     OW26602   3.341   2.009   5.241  0.0988  0.1970  0.5016
 5048SOL    HW126603   3.261   1.979   5.282  0.9405  2.0988  3.5725
 5048SOL    HW226604   3.331   1.959   5.161 -2.2852 -0.3396  1.1489
 5049SOL     OW26605   0.276   4.355   5.592 -0.3264 -0.2251  0.2859
 5049SOL    HW126606   0.186   4.362   5.624 -0.5441 -1.1958 -0.1003
 5049SOL    HW226607   0.297   4.444   5.561  0.1695 -0.1897  0.7276
 5050SOL     OW26608   1.573   4.100   4.066 -0.0454  0.4488 -0.1593
 5050SOL    HW126609   1.557   4.113   3.973 -0.0346 -0.6772 -0.3254
 5050SOL    HW226610   1.602   4.009   4.059  0.8957  0.7536 -0.1637
 5051SOL     OW26611   1.930   2.748   5.049  0.0921  0.3407  0.2205
 5051SOL    HW126612   1.990   2.819   5.072  1.2461 -0.6749  0.3584
 5051SOL    HW226613   1.905   2.704   5.130 -0.0959 -0.6902 -0.3951
 5052SOL     OW26614   1.732   0.465  12.018 -0.1277  0.7571  0.4339
 5052SOL    HW126615   1.826   0.473  12.001  0.0432 -0.4918  0.7839
 5052SOL    HW226616   1.705   0.380  11.985 -0.6744  1.3721 -0.7051
 5053SOL     OW26617   1.872   2.753   9.452  0.2205  0.0005  0.2471
 5053SOL    HW126618   1.904   2.663   9.447  0.1919 -0.0108  0.2626
 5053SOL    HW226619   1.790   2.743   9.501  0.8867  2.6740  1.8916
 5054SOL     OW26620   4.314   0.018   0.566 -0.2140  0.0872  0.0842
 5054SOL    HW126621   4.293   0.105   0.531  0.4440 -0.1141 -0.7925
 5054SOL    HW226622   4.359   0.044   0.646 -0.8457 -0.1003  0.4998
 5055SOL     OW26623   0.765   2.188  15.211  0.2554 -0.4264  0.0877
 5055SOL    HW126624   0.693   2.244  15.238  0.0360  0.1737 -1.7368
 5055SOL    HW226625   0.733   2.128  15.144  1.4299 -1.0247  0.0713
 5056SOL     OW26626   0.638   3.297   6.935 -0.2530 -0.0272 -0.0092
 5056SOL    HW126627   0.592   3.298   6.851  0.1272  0.4799 -0.2108
 5056SOL    HW226628   0.595   3.237   6.996 -0.8990 -0.9787 -1.3957
 5057SOL     OW26629   2.361   4.043  15.202  0.2314  0.4804  0.3078
 5057SOL    HW126630   2.314   4.034  15.285 -0.0843 -0.3594  0.0387
 5057SOL    HW226631   2.361   4.138  15.191 -0.2499  0.4156 -0.2443
 5058SOL     OW26632   4.113   3.860   4.801  0.4510  0.2452  0.5024
 5058SOL    HW126633   4.091   3.887   4.890  1.0998  2.2794  0.0423
 5058SOL    HW226634   4.083   3.944   4.765 -1.6109 -0.3852  0.7886
 5059SOL     OW26635   2.986   3.730   3.610 -0.0511  0.0122  0.5252
 5059SOL    HW126636   2.909   3.706   3.560 -0.4526  2.2028  0.0633
 5059SOL    HW226637   2.992   3.652   3.664  0.6033 -0.1413  0.2361
 5060SOL     OW26638   2.895   1.079   4.808 -0.5878  0.0226 -0.6219
 5060SOL    HW126639   2.975   1.118   4.772 -1.4774  2.7152  0.2888
 5060SOL    HW226640   2.828   1.136   4.770 -1.5266  1.8788  3.8700
 5061SOL     OW26641   1.400   2.022   2.609  0.7363  0.3283  0.3897
 5061SOL    HW126642   1.383   2.044   2.701 -1.0533  2.8578 -0.5339
 5061SOL    HW226643   1.377   1.929   2.611 -0.9561  0.7643  2.4267
 5062SOL     OW26644   2.348   3.768  14.217  0.6305 -0.1289 -0.0519
 5062SOL    HW126645   2.408   3.838  14.191  0.3281  0.3991  0.6623
 5062SOL    HW226646   2.340   3.778  14.312  0.0296 -2.1938  0.1237
 5063SOL     OW26647   1.998   2.193   9.130  0.4191 -0.1973  0.1576
 5063SOL    HW126648   1.916   2.151   9.105 -0.6047  0.9947  1.4728
 5063SOL    HW226649   2.057   2.168   9.059  0.8891  0.7032  0.2364
 5064SOL     OW26650   1.789   4.638   4.569 -0.0761 -0.3987 -0.6045
 5064SOL    HW126651   1.781   4.603   4.480 -1.5910 -0.9971 -0.2261
 5064SOL    HW226652   1.703   4.681   4.569 -0.1668 -0.5256 -3.5373
 5065SOL     OW26653   2.267   0.763   4.772 -0.2165 -0.3244 -0.0948
 5065SOL    HW126654   2.242   0.715   4.694  0.6944 -0.0168 -0.5736
 5065SOL    HW226655   2.334   0.699   4.798  0.0931 -0.4595 -1.2417
 5066SOL     OW26656   2.392   4.195   3.209  0.1136  0.5669 -0.2040
 5066SOL    HW126657   2.451   4.271   3.210 -1.1584  1.5626 -1.3643
 5066SOL    HW226658   2.315   4.240   3.174  0.1020 -0.6923 -1.7955
 5067SOL     OW26659   2.776   3.398   6.800 -0.1263 -0.2923 -0.2300
 5067SOL    HW126660   2.694   3.443   6.781 -0.5971 -0.3374  1.7424
 5067SOL    HW226661   2.765   3.368   6.890  0.8733 -2.4333 -0.8065
 5068SOL     OW26662   0.552   2.054   7.986  0.3093 -0.4544 -0.6767
 5068SOL    HW126663   0.458   2.066   7.999  0.5524  0.3227  0.4110
 5068SOL    HW226664   0.579   2.110   7.914  0.3509  0.2925 -0.0793
 5069SOL     OW26665   1.930   0.934   6.260 -0.3662  0.2324 -0.0728
 5069SOL    HW126666   1.923   1.006   6.323 -1.4128  0.3892 -0.3690
 5069SOL    HW226667   1.998   0.965   6.200 -1.3346  1.4913 -0.5068
 5070SOL     OW26668   2.821   3.107   4.713 -0.6062 -0.1957  0.2165
 5070SOL    HW126669   2.785   3.195   4.705 -0.8261 -0.4761 -1.7918
 5070SOL    HW226670   2.758   3.049   4.671  0.4371 -1.4125  0.3217
 5071SOL     OW26671   3.489   1.858   6.469 -0.6065  0.2284 -0.1060
 5071SOL    HW126672   3.489   1.772   6.510  0.1802 -0.1891 -0.9748
 5071SOL    HW226673   3.574   1.889   6.502 -0.0370 -0.6084 -0.8038
 5072SOL     OW26674   1.866   2.402   5.447  0.1125  0.3930  0.0948
 5072SOL    HW126675   1.931   2.472   5.451 -0.8555  1.3290 -0.4855
 5072SOL    HW226676   1.818   2.403   5.530 -0.6595 -0.4603 -0.3413
 5073SOL     OW26677   0.327   4.511  14.926 -0.0797  0.3420 -0.1148
 5073SOL    HW126678   0.331   4.491  14.832 -1.4932 -1.4906  0.2133
 5073SOL    HW226679   0.261   4.449  14.957 -0.5091  0.9070  0.1063
 5074SOL     OW26680   1.682   1.027   5.180 -0.3489  0.1184 -0.5127
 5074SOL    HW126681   1.677   0.983   5.265  0.2868  0.2336 -0.4150
 5074SOL    HW226682   1.589   1.042   5.161 -0.7201  0.3264  1.4714
 5075SOL     OW26683   4.612   2.765   5.291 -0.6706  0.5460  0.0360
 5075SOL    HW126684   4.692   2.719   5.266  0.1292  1.7208  0.4083
 5075SOL    HW226685   4.618   2.852   5.252  1.3816  0.0214 -0.8135
 5076SOL     OW26686   1.616   1.555   7.041 -0.6006 -0.4261  0.0262
 5076SOL    HW126687   1.554   1.484   7.023 -0.4460 -0.0893 -1.8175
 5076SOL    HW226688   1.686   1.537   6.978 -1.7089  0.5211 -1.4738
 5077SOL     OW26689   4.185   0.758   6.579 -0.1677 -0.1146  0.0212
 5077SOL    HW126690   4.275   0.783   6.599  0.5517 -1.6403 -1.3264
 5077SOL    HW226691   4.157   0.812   6.505  1.3968 -0.2115 -0.6474
 5078SOL     OW26692   1.672   0.213  11.960  0.0028  0.0260 -0.0450
 5078SOL    HW126693   1.595   0.187  11.909  1.0437 -1.0639 -1.0415
 5078SOL    HW226694   1.654   0.175  12.046 -0.4529  0.1992 -0.0602
 5079SOL     OW26695   1.493   1.530   6.176  0.4988  0.0065  0.0015
 5079SOL    HW126696   1.582   1.556   6.153  0.5345 -0.1047  0.0117
 5079SOL    HW226697   1.468   1.583   6.252 -2.0286 -1.3787  0.1143
 5080SOL     OW26698   0.331   2.129   2.242 -0.3437 -0.0817 -0.0272
 5080SOL    HW126699   0.357   2.063   2.178  1.2737 -0.7501  1.3110
 5080SOL    HW226700   0.324   2.075   2.321 -0.2388  1.3276  0.9477
 5081SOL     OW26701   1.325   3.379  15.435  0.2662 -0.4621  0.0608
 5081SOL    HW126702   1.386   3.324  15.385  0.2358 -1.3349  0.9638
 5081SOL    HW226703   1.377   3.415  15.506 -0.7094  1.6086 -0.2899
 5082SOL     OW26704   0.016   2.525   6.233 -0.3646 -0.7523  0.2382
 5082SOL    HW126705   0.056   2.440   6.253 -2.2762 -1.4720  1.0099
 5082SOL    HW226706   0.010   2.519   6.137  0.7662  0.4573  0.1035
 5083SOL     OW26707   2.876   4.193   9.341 -0.0617  0.1701  0.2273
 5083SOL    HW126708   2.884   4.284   9.370 -1.7956 -0.3361  2.2941
 5083SOL    HW226709   2.877   4.154   9.428 -0.3574  1.4498  0.8061
 5084SOL     OW26710   3.469   1.555   4.079  0.1176 -0.2543  0.5758
 5084SOL    HW126711   3.514   1.624   4.128 -1.6317  2.7170 -2.0152
 5084SOL    HW226712   3.377   1.574   4.098 -0.8047 -2.3414 -1.7943
 5085SOL     OW26713   4.621   0.395   1.837  0.3777 -0.8723  0.4454
 5085SOL    HW126714   4.646   0.377   1.928  0.5103  3.0735  1.1620
 5085SOL    HW226715   4.526   0.385   1.836  0.0281  2.5458  0.0216
 5086SOL     OW26716   4.082   3.352  12.630 -0.3872 -0.5230 -0.1537
 5086SOL    HW126717   4.063   3.309  12.713  0.0902 -0.2024  0.1240
 5086SOL    HW226718   4.094   3.443  12.656  0.3307 -0.9168  0.8918
 5087SOL     OW26719   4.324   4.598  14.147  0.0251 -0.0451  0.3954
 5087SOL    HW126720   4.264   4.669  14.170 -0.1695 -0.1261  0.1311
 5087SOL    HW226721   4.394   4.638  14.199 -0.2569  1.3710 -0.3085
 5088SOL     OW26722   3.118   4.597   3.626 -0.4188 -0.1256 -0.1466
 5088SOL    HW126723   3.181   4.668   3.624  0.6296 -1.0065  1.5778
 5088SOL    HW226724   3.096   4.589   3.533 -1.0969 -0.7204  0.0590
 5089SOL     OW26725   0.056   0.310   8.501  0.1790 -0.0408 -0.3247
 5089SOL    HW126726   0.085   0.361   8.577 -0.1231  1.8532 -1.4850
 5089SOL    HW226727   0.139   0.275   8.468  0.1882  0.6792 -1.0703
 5090SOL     OW26728   4.627   0.562   1.627 -0.2210  0.3582 -0.3161
 5090SOL    HW126729   4.636   0.493   1.693 -0.1075 -0.9501 -1.7148
 5090SOL    HW226730   4.616   0.500   1.556 -1.7847 -1.7041  1.7132
 5091SOL     OW26731   0.888   1.291   4.622  0.2579 -0.8342 -0.0577
 5091SOL    HW126732   0.935   1.223   4.574 -0.7522 -1.4836 -0.1103
 5091SOL    HW226733   0.801   1.258   4.644 -0.5058  0.2900 -1.3690
 5092SOL     OW26734   1.510   1.671  13.812 -0.9557 -0.3629 -0.3748
 5092SOL    HW126735   1.593   1.652  13.856  0.5279  0.0198 -2.9991
 5092SOL    HW226736   1.471   1.585  13.795 -0.0994 -0.9135  0.4379
 5093SOL     OW26737   1.783   1.333   6.565  0.6108 -0.0143 -0.1999
 5093SOL    HW126738   1.865   1.306   6.523 -0.0926 -3.6355  0.7840
 5093SOL    HW226739   1.718   1.276   6.525 -0.3029 -0.3692  1.8047
 5094SOL     OW26740   0.859   3.232   8.205 -0.9600  0.2442 -0.1996
 5094SOL    HW126741   0.784   3.269   8.158 -1.0662  3.1677  2.2869
 5094SOL    HW226742   0.869   3.298   8.273  1.7710 -0.2901 -0.1110
 5095SOL     OW26743   0.458   2.294   3.689  0.0517  0.3812 -0.3220
 5095SOL    HW126744   0.497   2.285   3.776  0.5920  1.4882 -0.4494
 5095SOL    HW226745   0.366   2.311   3.708  0.1705  1.7724 -1.0024
 5096SOL     OW26746   3.490   4.609  14.252 -0.6821 -0.3784 -0.3435
 5096SOL    HW126747   3.508   4.693  14.211 -1.1827 -0.9328 -1.6838
 5096SOL    HW226748   3.536   4.549  14.193  3.2326  3.8311 -1.5065
 5097SOL     OW26749   4.682   0.975   8.836 -0.7613  0.0257 -0.1885
 5097SOL    HW126750   4.632   0.899   8.867 -0.4920 -0.0304  0.1162
 5097SOL    HW226751   0.041   0.974   8.885 -1.6334 -1.8678  1.2526
 5098SOL     OW26752   3.376   3.215   3.951  0.1931  0.2367  0.0678
 5098SOL    HW126753   3.464   3.253   3.954  0.0396  0.6172 -0.1483
 5098SOL    HW226754   3.324   3.277   3.900 -0.5475 -0.5886 -0.1736
 5099SOL     OW26755   4.286   1.944  11.047  0.0061  0.5484 -0.5813
 5099SOL    HW126756   4.228   1.905  10.982 -0.9464  1.4787 -0.2812
 5099SOL    HW226757   4.249   1.904  11.125  2.6208 -1.1864 -0.2272
 5100SOL     OW26758   4.388   1.113   8.216 -0.3442  0.6310  0.4214
 5100SOL    HW126759   4.382   1.101   8.121 -3.5602  2.0540  0.4122
 5100SOL    HW226760   4.388   1.209   8.214  1.1583  0.6266  0.5791
 5101SOL     OW26761   0.414   4.104   7.826  0.2411  0.5914 -0.7230
 5101SOL    HW126762   0.479   4.055   7.777  2.0264  1.0793  1.1504
 5101SOL    HW226763   0.422   4.068   7.914 -2.0507  0.9030 -0.3898
 5102SOL     OW26764   4.294   3.936   2.072  0.1532 -0.6601  0.6433
 5102SOL    HW126765   4.358   3.888   2.020  1.5180  0.6080  1.1306
 5102SOL    HW226766   4.279   3.873   2.142  0.6633 -0.8676  0.5676
 5103SOL     OW26767   2.783   2.274  15.829 -0.5519 -0.0364 -0.2790
 5103SOL    HW126768   2.756   2.220  15.755  0.1442  0.3257 -0.7876
 5103SOL    HW226769   2.839   2.217  15.882  1.1685  2.2637  0.3783
 5104SOL     OW26770   0.368   0.432   6.404 -0.0491 -0.6411  0.6341
 5104SOL    HW126771   0.274   0.444   6.418  0.1677  0.7830  0.8263
 5104SOL    HW226772   0.362   0.441   6.309 -2.9362 -0.3952  0.8388
 5105SOL     OW26773   4.205   2.484  10.251 -0.0817 -0.0145 -0.1148
 5105SOL    HW126774   4.180   2.576  10.261 -1.7095 -0.2281 -2.3957
 5105SOL    HW226775   4.190   2.453  10.341  2.6409  1.1352  0.7438
 5106SOL     OW26776   0.690   0.939   8.111  0.1103  0.1651  0.7846
 5106SOL    HW126777   0.746   0.874   8.069  0.2098 -0.1957  1.4691
 5106SOL    HW226778   0.667   1.002   8.042  1.7836  0.7827  0.7987
 5107SOL     OW26779   3.385   1.059   6.111 -0.7025  0.4789  0.3758
 5107SOL    HW126780   3.339   1.057   6.195 -1.0842 -1.2608  0.1285
 5107SOL    HW226781   3.439   1.135   6.132 -0.6348  1.0186 -1.7285
 5108SOL     OW26782   2.905   3.207  11.387 -0.1286  0.6115  0.5199
 5108SOL    HW126783   2.909   3.288  11.337  1.6260  0.4130  0.3084
 5108SOL    HW226784   2.960   3.157  11.326 -0.1237  1.9520 -0.5736
 5109SOL     OW26785   1.699   1.940  11.317  0.1584 -0.5629  0.0340
 5109SOL    HW126786   1.739   1.933  11.230  0.6449  0.2164  0.1956
 5109SOL    HW226787   1.621   1.989  11.290 -0.5839 -0.3098  2.6474
 5110SOL     OW26788   4.489   1.780   3.439  0.1046 -0.2488  0.3401
 5110SOL    HW126789   4.519   1.717   3.374 -0.4358  1.4898 -1.6038
 5110SOL    HW226790   4.522   1.864   3.406 -1.7326  0.3975  0.1538
 5111SOL     OW26791   2.050   3.089   4.540 -0.4791  0.0912 -0.6006
 5111SOL    HW126792   1.979   3.147   4.564 -1.7161 -1.6327 -0.0658
 5111SOL    HW226793   2.008   3.044   4.466 -0.5721 -1.5685  0.4484
 5112SOL     OW26794   4.591   3.450   7.024  0.4431 -0.4349 -0.0050
 5112SOL    HW126795   4.644   3.422   6.949  1.7113  1.7815  0.0564
 5112SOL    HW226796   4.633   3.398   7.092  0.0434 -0.1821  0.4312
 5113SOL     OW26797   0.277   2.009   8.098  0.1543 -0.0342 -0.2084
 5113SOL    HW126798   0.292   2.102   8.114  0.1300  0.0252 -0.5426
 5113SOL    HW226799   0.209   2.001   8.166 -1.5362 -0.0465 -1.9062
 5114SOL     OW26800   2.664   2.379  13.938 -0.0904  0.0504  0.8503
 5114SOL    HW126801   2.706   2.325  14.005  2.8543  1.6263  0.2764
 5114SOL    HW226802   2.731   2.384  13.870 -0.3649 -1.1106  0.4921
 5115SOL     OW26803   2.985   0.488   6.185  0.2813 -0.0804 -0.6096
 5115SOL    HW126804   2.932   0.559   6.223 -0.0844 -1.7548  1.9865
 5115SOL    HW226805   2.932   0.410   6.201  0.1345  0.4078  1.3567
 5116SOL     OW26806   4.638   2.676  11.510 -0.0233 -0.5631  0.1846
 5116SOL    HW126807   4.688   2.594  11.505  2.1582  0.6653  1.4385
 5116SOL    HW226808   4.705   2.736  11.476  1.8357 -2.6385  0.1265
 5117SOL     OW26809   2.329   1.710   4.752 -0.3385 -0.2249  0.3662
 5117SOL    HW126810   2.400   1.724   4.816  0.4346 -0.9157 -0.3496
 5117SOL    HW226811   2.322   1.615   4.757 -0.0150 -0.2698 -0.0134
 5118SOL     OW26812   3.177   0.973   9.321 -0.0304  0.4045 -0.0236
 5118SOL    HW126813   3.152   0.889   9.360 -1.7726  0.4626 -1.0389
 5118SOL    HW226814   3.198   1.012   9.406 -2.0748 -2.5394  1.8423
 5119SOL     OW26815   1.409   0.558   3.370 -0.1080  0.0823  0.1443
 5119SOL    HW126816   1.487   0.606   3.398  1.2657 -3.7432  2.8829
 5119SOL    HW226817   1.428   0.471   3.407  0.5568  0.2341  0.1522
 5120SOL     OW26818   2.696   0.264   8.234 -0.1160 -0.7572  0.0414
 5120SOL    HW126819   2.603   0.266   8.257  0.5095 -2.5507  2.8067
 5120SOL    HW226820   2.738   0.225   8.310  1.6524 -0.1696 -0.6386
 5121SOL     OW26821   1.818   2.708  13.272  0.4495 -0.1114  0.2434
 5121SOL    HW126822   1.739   2.671  13.232  1.1559 -1.0822 -0.2496
 5121SOL    HW226823   1.849   2.636  13.327  1.8162  0.5956  0.3899
 5122SOL     OW26824   2.531   1.212   6.439 -0.4783  0.5470  0.2652
 5122SOL    HW126825   2.500   1.128   6.405 -2.2588  0.7299  1.4169
 5122SOL    HW226826   2.624   1.196   6.426 -1.1639 -4.0457  0.9753
 5123SOL     OW26827   1.122   0.177  15.725  0.6335 -0.3829 -0.5304
 5123SOL    HW126828   1.175   0.108  15.767  0.2874 -0.4346 -0.1821
 5123SOL    HW226829   1.193   0.218  15.675  0.6198  2.0450  1.4412
 5124SOL     OW26830   2.100   1.603  11.951  0.1910 -0.2331  0.1118
 5124SOL    HW126831   2.163   1.565  12.013 -0.3788 -0.6092  0.4582
 5124SOL    HW226832   2.045   1.655  12.008 -1.2153 -0.7886 -0.7430
 5125SOL     OW26833   3.617   2.126   8.784  0.2649 -0.3717  0.0418
 5125SOL    HW126834   3.705   2.108   8.815  0.8956  0.7408 -1.0983
 5125SOL    HW226835   3.626   2.221   8.774  1.2900 -0.5310 -0.5549
 5126SOL     OW26836   4.594   3.214   5.297  0.3120  0.0836 -0.2001
 5126SOL    HW126837   4.661   3.150   5.273  1.1614  0.2449  1.7501
 5126SOL    HW226838   4.575   3.261   5.215 -1.7350 -1.9418 -0.8822
 5127SOL     OW26839   0.171   0.309   0.579  0.4438  0.2899 -0.1564
 5127SOL    HW126840   0.148   0.374   0.512  0.3024  1.0905  0.6813
 5127SOL    HW226841   0.202   0.233   0.529  1.2466 -1.3572  2.8425
 5128SOL     OW26842   1.455   2.369   4.758  0.0827 -0.3818 -0.2137
 5128SOL    HW126843   1.486   2.440   4.702 -0.3735  0.1026  0.1367
 5128SOL    HW226844   1.518   2.374   4.830 -1.9161  1.8503  1.3892
 5129SOL     OW26845   4.285   2.152   3.397  0.0666 -0.3870 -0.4457
 5129SOL    HW126846   4.276   2.109   3.311 -1.9517 -0.0978 -0.3888
 5129SOL    HW226847   4.229   2.226   3.375  1.3468  0.9531  0.9357
 5130SOL     OW26848   3.044   2.118   4.289  0.3605 -0.2204 -0.3267
 5130SOL    HW126849   2.968   2.079   4.247  0.5639 -0.9830  0.0134
 5130SOL    HW226850   3.016   2.209   4.281 -1.1673 -0.6177  0.4648
 5131SOL     OW26851   0.607   4.519  12.108  0.0400  0.0893  0.0593
 5131SOL    HW126852   0.583   4.462  12.035  0.1163 -1.8608  1.5652
 5131SOL    HW226853   0.525   4.568  12.108 -0.2566 -0.4133  1.6160
 5132SOL     OW26854   1.073   4.135  13.631 -0.0577  0.8462  0.3739
 5132SOL    HW126855   0.991   4.186  13.631 -1.6544 -1.6861 -1.4857
 5132SOL    HW226856   1.085   4.140  13.536  0.8866  1.4305  0.5253
 5133SOL     OW26857   0.233   3.158   3.002 -0.4446 -0.2835 -0.9467
 5133SOL    HW126858   0.259   3.067   2.985  3.0167  0.1700  1.8138
 5133SOL    HW226859   0.176   3.152   3.079  0.4609 -2.8022 -0.4790
 5134SOL     OW26860   0.538   3.907   5.274 -0.5789  0.1877 -0.5143
 5134SOL    HW126861   0.548   3.906   5.369 -0.4223  0.4936 -0.5293
 5134SOL    HW226862   0.615   3.854   5.252 -1.2792  0.2448 -3.1320
 5135SOL     OW26863   3.480   3.702   4.584  0.1415  0.2232 -0.5470
 5135SOL    HW126864   3.523   3.773   4.632  2.3375 -1.1073 -0.5086
 5135SOL    HW226865   3.390   3.713   4.613 -0.4476 -2.0434 -1.5274
 5136SOL     OW26866   4.137   4.489   1.508  0.1214 -0.3228  0.5761
 5136SOL    HW126867   4.123   4.396   1.530 -0.0389 -0.1947  1.0033
 5136SOL    HW226868   4.216   4.476   1.454 -1.3621 -0.3871 -1.5878
 5137SOL     OW26869   3.318   3.038   9.037  0.3790  0.5403  0.2899
 5137SOL    HW126870   3.246   3.100   9.048  0.0258  0.0896  0.5386
 5137SOL    HW226871   3.295   3.001   8.952 -0.7640  1.4760  0.1925
 5138SOL     OW26872   2.510   2.152   2.011 -0.3898 -0.3500  0.3318
 5138SOL    HW126873   2.464   2.127   2.091 -0.5023  3.0962  1.3218
 5138SOL    HW226874   2.457   2.096   1.954 -0.2308 -1.6308  1.4414
 5139SOL     OW26875   3.568   2.884  12.946 -0.0514 -0.4582  0.4237
 5139SOL    HW126876   3.473   2.878  12.937 -0.2032  0.8295  1.1248
 5139SOL    HW226877   3.595   2.794  12.929  2.1883 -0.0292  1.6769
 5140SOL     OW26878   3.847   1.198   6.869 -0.2395 -0.0659  0.4102
 5140SOL    HW126879   3.890   1.114   6.852  0.4739  0.6565 -1.3661
 5140SOL    HW226880   3.919   1.262   6.864 -1.0096  0.7948  0.3856
 5141SOL     OW26881   2.925   4.334   3.283  0.2262  0.3060  0.4092
 5141SOL    HW126882   2.953   4.420   3.315  1.2661  0.5602 -1.1628
 5141SOL    HW226883   2.979   4.271   3.331  0.7702 -0.1075 -0.7626
 5142SOL     OW26884   3.232   1.259  17.096  0.3406 -0.1061 -0.0268
 5142SOL    HW126885   3.229   1.256  17.000  0.4498 -0.6034 -0.0178
 5142SOL    HW226886   3.154   1.312  17.109  0.1671 -0.1271 -0.9724
 5143SOL     OW26887   2.795   4.664  13.376  0.3012  0.3597  0.0900
 5143SOL    HW126888   2.874   4.626  13.338 -0.0299 -0.3633  0.1230
 5143SOL    HW226889   2.833   0.017  13.419  1.5041  0.8034 -1.7372
 5144SOL     OW26890   1.716   1.174   1.418 -0.1923  0.0981  0.1642
 5144SOL    HW126891   1.714   1.201   1.510 -0.0517  1.2175 -0.1667
 5144SOL    HW226892   1.672   1.246   1.373 -1.2204 -0.2622  0.5863
 5145SOL     OW26893   3.166   0.034  16.363  0.2678 -0.2398  0.2727
 5145SOL    HW126894   3.138   4.670  16.387 -2.1455  0.7686  1.1261
 5145SOL    HW226895   3.084   0.083  16.366  0.0906 -0.5550  0.5596
 5146SOL     OW26896   2.140   3.600  11.692  0.1415  0.1316 -0.0362
 5146SOL    HW126897   2.138   3.532  11.625  2.5212  0.4130 -0.3942
 5146SOL    HW226898   2.048   3.626  11.689  0.1118  0.1754  1.4622
 5147SOL     OW26899   2.961   4.224   0.972 -0.0455 -0.2968 -0.2262
 5147SOL    HW126900   2.928   4.238   0.883 -0.0897  3.1725  0.3534
 5147SOL    HW226901   2.938   4.131   0.974  0.8158 -0.4600  1.6305
 5148SOL     OW26902   1.681   0.662   4.168 -0.2031  0.2134 -0.0609
 5148SOL    HW126903   1.694   0.681   4.261 -3.7553 -0.1920  0.5388
 5148SOL    HW226904   1.589   0.689   4.162 -0.8158 -1.1508  3.0785
 5149SOL     OW26905   2.466   4.076  16.389 -0.2379 -0.3729  0.1738
 5149SOL    HW126906   2.506   3.992  16.412 -0.9796 -0.2383  1.9286
 5149SOL    HW226907   2.447   4.112  16.476 -2.9081  1.3562 -1.1456
 5150SOL     OW26908   3.837   4.496   3.916 -0.3282 -0.1211  0.8079
 5150SOL    HW126909   3.835   4.493   3.820  1.2107  1.9489  0.7203
 5150SOL    HW226910   3.907   4.441   3.952 -2.2024 -2.1028  1.4564
 5151SOL     OW26911   1.649   0.203   0.581 -0.1321 -0.5730  0.0778
 5151SOL    HW126912   1.633   0.278   0.637 -1.4634 -0.1061 -0.9361
 5151SOL    HW226913   1.562   0.178   0.549  0.4429  0.1620 -2.0891
 5152SOL     OW26914   1.311   3.792  13.533  0.3745  0.3120 -0.3786
 5152SOL    HW126915   1.330   3.876  13.575 -1.4270 -0.4374  1.8851
 5152SOL    HW226916   1.271   3.744  13.605  0.3664 -1.0079 -1.2596
 5153SOL     OW26917   3.920   1.590   8.150  0.1452 -0.1191 -0.0339
 5153SOL    HW126918   4.002   1.634   8.172  0.3152 -0.9880  1.0710
 5153SOL    HW226919   3.964   1.533   8.087  0.0707  2.0425 -2.0435
 5154SOL     OW26920   2.644   2.464  13.110  0.2564  0.1143  0.2437
 5154SOL    HW126921   2.628   2.495  13.199 -0.5698  0.2438  0.0560
 5154SOL    HW226922   2.734   2.433  13.116  0.1044 -0.2500  0.6442
 5155SOL     OW26923   1.833   0.230   4.448 -0.2228 -0.6191  0.0667
 5155SOL    HW126924   1.871   0.201   4.532 -1.5522 -2.3774  0.0615
 5155SOL    HW226925   1.828   0.325   4.454  0.1831 -0.6119  0.2903
 5156SOL     OW26926   0.044   2.515  17.453 -0.1921 -0.3954  0.0532
 5156SOL    HW126927   0.134   2.518  17.420 -0.7008  2.1149 -1.1157
 5156SOL    HW226928   4.714   2.558  17.386  0.4314  3.5572  2.1242
 5157SOL     OW26929   1.429   1.380   7.577  0.1736  0.3951  0.6246
 5157SOL    HW126930   1.403   1.393   7.486  1.0339  1.0773  0.4819
 5157SOL    HW226931   1.343   1.386   7.619 -1.2910 -0.8824 -2.1679
 5158SOL     OW26932   1.130   2.273   3.743  0.0752  0.2934  0.4056
 5158SOL    HW126933   1.181   2.322   3.809  2.5098 -1.4988 -0.1481
 5158SOL    HW226934   1.190   2.209   3.706  1.5652  2.8418 -1.5944
 5159SOL     OW26935   2.654   1.244   8.641 -0.1365 -0.0324  0.0882
 5159SOL    HW126936   2.643   1.172   8.703  1.6225  0.4325  0.9439
 5159SOL    HW226937   2.626   1.200   8.560  0.7582 -0.1385 -0.1580
 5160SOL     OW26938   0.134   1.404   5.249  0.0088  0.2674 -0.3674
 5160SOL    HW126939   0.129   1.421   5.343  0.0516  0.0304 -0.3224
 5160SOL    HW226940   0.046   1.432   5.225  0.6269  3.2851  0.7827
 5161SOL     OW26941   1.813   0.750   2.125 -0.0635  0.7585  0.2917
 5161SOL    HW126942   1.770   0.752   2.211  0.0582 -0.7904  0.4052
 5161SOL    HW226943   1.884   0.687   2.137 -1.1275 -0.1717  1.9053
 5162SOL     OW26944   1.425   3.290   6.406  0.0765 -0.1151  0.2033
 5162SOL    HW126945   1.347   3.238   6.424 -0.2105 -0.1712 -1.1844
 5162SOL    HW226946   1.439   3.328   6.492 -1.6231 -0.9859  0.8561
 5163SOL     OW26947   1.870   0.422  15.177 -0.0237 -0.0213 -0.1194
 5163SOL    HW126948   1.952   0.461  15.207 -1.0147  0.1543  2.3736
 5163SOL    HW226949   1.807   0.452  15.242 -0.9001 -0.5275 -0.7392
 5164SOL     OW26950   3.525   1.926  11.782 -0.9882  0.1426 -0.0635
 5164SOL    HW126951   3.619   1.916  11.800 -0.8634 -0.1721 -0.8859
 5164SOL    HW226952   3.500   1.862  11.715  1.2262 -2.1263  1.2772
 5165SOL     OW26953   2.165   2.662   8.757  0.1549 -0.2393  0.4386
 5165SOL    HW126954   2.177   2.681   8.850  0.9177  0.9683  0.1000
 5165SOL    HW226955   2.104   2.589   8.760  1.3060 -1.1865  0.7093
 5166SOL     OW26956   1.168   1.911  11.725 -0.7963 -0.0257 -0.0790
 5166SOL    HW126957   1.240   1.863  11.685 -0.2438 -0.7916  1.8623
 5166SOL    HW226958   1.131   1.854  11.791  1.1223 -0.4182  0.6534
 5167SOL     OW26959   1.572   0.143  14.942  0.2005 -0.3341  0.0797
 5167SOL    HW126960   1.534   0.096  14.868 -0.0498 -1.4302  0.8986
 5167SOL    HW226961   1.603   0.063  14.986  1.4992 -0.6531 -1.4160
 5168SOL     OW26962   2.027   2.757   6.082 -0.2551 -0.1621 -0.7478
 5168SOL    HW126963   2.037   2.849   6.108 -0.4982 -0.7786  1.4804
 5168SOL    HW226964   1.933   2.751   6.067 -0.7408  0.4752  2.1147
 5169SOL     OW26965   4.634   2.539   5.535  0.1389 -0.2130 -0.0640
 5169SOL    HW126966   4.617   2.490   5.616  2.0830 -0.9621 -0.0969
 5169SOL    HW226967   4.581   2.618   5.532  2.2361  1.2668  2.1149
 5170SOL     OW26968   3.008   4.096   8.396 -0.4222 -0.2855  0.3043
 5170SOL    HW126969   3.096   4.071   8.370 -0.6010 -1.7823  1.0848
 5170SOL    HW226970   3.007   4.191   8.408  0.9476 -0.1940 -0.3559
 5171SOL     OW26971   2.874   3.501  15.344  0.1798 -0.0354  0.7563
 5171SOL    HW126972   2.922   3.442  15.285 -0.5705  0.1944 -0.0823
 5171SOL    HW226973   2.869   3.576  15.285  0.1687  0.7116  1.7168
 5172SOL     OW26974   2.883   4.351  13.210 -0.6974  0.3871 -0.4261
 5172SOL    HW126975   2.937   4.420  13.248  0.3239  0.8429 -2.7154
 5172SOL    HW226976   2.908   4.280  13.269 -1.4490  0.8602  0.4498
 5173SOL     OW26977   2.103   3.676   7.893  0.1960 -0.7650 -0.2514
 5173SOL    HW126978   2.069   3.742   7.953  2.8556  0.2735  0.1171
 5173SOL    HW226979   2.024   3.622   7.896  0.0333 -0.6144 -1.5665
 5174SOL     OW26980   2.224   3.283   1.504 -0.1468 -0.1379 -0.2747
 5174SOL    HW126981   2.174   3.359   1.476  0.8016  0.7195  0.3526
 5174SOL    HW226982   2.290   3.315   1.564 -0.3695 -0.5372  0.1852
 5175SOL     OW26983   3.773   3.379   8.496  0.3089  0.4378 -0.2583
 5175SOL    HW126984   3.772   3.359   8.402 -1.6103  0.3504 -0.2217
 5175SOL    HW226985   3.790   3.472   8.485 -0.8309  0.7284  0.4691
 5176SOL     OW26986   4.270   4.043   3.504 -0.5215  0.0357  0.4732
 5176SOL    HW126987   4.174   4.046   3.502 -0.6144  0.5917  4.5841
 5176SOL    HW226988   4.290   4.092   3.424 -0.9062  0.3820  0.5916
 5177SOL     OW26989   3.572   0.933   6.538 -0.5748  0.0221 -0.3478
 5177SOL    HW126990   3.497   0.875   6.526 -0.5464 -0.0672 -0.0871
 5177SOL    HW226991   3.552   1.000   6.473 -0.0021 -1.5790 -2.1901
 5178SOL     OW26992   3.315   2.156  17.053  0.4120  0.3795 -0.0473
 5178SOL    HW126993   3.405   2.176  17.076  0.4389  0.3870 -0.1592
 5178SOL    HW226994   3.264   2.215  17.109 -1.1124  1.0309 -2.1032
 5179SOL     OW26995   4.235   2.234   1.912  0.2322  0.2000  0.2072
 5179SOL    HW126996   4.191   2.290   1.976 -1.8633  1.1008 -2.0221
 5179SOL    HW226997   4.324   2.262   1.934  0.8044 -2.1649  0.8703
 5180SOL     OW26998   1.059   4.651  10.203 -0.1556 -0.0056  0.3596
 5180SOL    HW126999   1.004   4.590  10.153  2.0807 -1.5273 -0.2316
 5180SOL    HW227000   0.993   4.672  10.268 -0.0989  2.1802 -0.2920
 5181SOL     OW27001   0.115   4.616   4.705  0.1436 -0.1158 -0.5623
 5181SOL    HW127002   0.198   4.636   4.662 -0.0838  0.9721 -0.5017
 5181SOL    HW227003   0.086   4.533   4.667  2.2058  0.2169 -2.8370
 5182SOL     OW27004   2.008   4.653   3.230  0.3606  0.3414 -0.3425
 5182SOL    HW127005   2.089   4.607   3.206  0.4000  0.1570  0.1587
 5182SOL    HW227006   2.005   4.642   3.325  0.6311  2.3094 -0.1159
 5183SOL     OW27007   1.433   3.674  15.720 -0.0434 -0.5242  0.1296
 5183SOL    HW127008   1.468   3.652  15.633 -1.7135 -2.4691 -0.0641
 5183SOL    HW227009   1.364   3.610  15.737 -0.5189  0.0302  0.2688
 5184SOL     OW27010   3.287   2.621   4.341 -0.4683 -1.0256 -0.7074
 5184SOL    HW127011   3.197   2.592   4.352 -1.5806  2.3137 -1.1387
 5184SOL    HW227012   3.279   2.716   4.347  0.3477 -0.9854 -0.2956
 5185SOL     OW27013   0.598   2.088  12.801 -0.5768  0.5293  0.1907
 5185SOL    HW127014   0.634   2.137  12.875 -1.8435 -1.2640  1.9964
 5185SOL    HW227015   0.580   2.004  12.843  0.2525  0.5390  0.5476
 5186SOL     OW27016   4.536   2.037  16.031 -0.2185  0.5707  0.0799
 5186SOL    HW127017   4.585   1.991  16.100 -0.1030  0.6850  0.0732
 5186SOL    HW227018   4.554   1.982  15.955  0.9665  0.5538  0.3826
 5187SOL     OW27019   1.901   1.134   7.507  0.5941 -0.0350  0.0660
 5187SOL    HW127020   1.882   1.205   7.445 -1.8293  0.7731  1.7668
 5187SOL    HW227021   1.988   1.101   7.484  1.0103  0.6980  0.5900
 5188SOL     OW27022   4.110   1.404  10.462  0.5791  0.6404 -0.5642
 5188SOL    HW127023   4.020   1.434  10.453  0.7630  0.8191 -1.8057
 5188SOL    HW227024   4.133   1.462  10.535  1.1373 -1.0609  0.6253
 5189SOL     OW27025   3.257   3.403  14.370  0.0006 -0.2871  0.0168
 5189SOL    HW127026   3.285   3.476  14.425  1.0782 -1.8398  1.5255
 5189SOL    HW227027   3.316   3.334  14.400  0.6428  0.4463  0.4344
 5190SOL     OW27028   1.930   1.997   5.727  0.0362 -0.2659  0.0599
 5190SOL    HW127029   1.953   2.085   5.757  0.1936 -0.4548  0.5043
 5190SOL    HW227030   2.012   1.963   5.691 -0.6331 -0.4997 -1.2110
 5191SOL     OW27031   1.135   2.834   2.556 -0.0908  0.1044 -0.7672
 5191SOL    HW127032   1.141   2.843   2.651 -0.6370  1.0852 -0.8231
 5191SOL    HW227033   1.100   2.917   2.523  1.2192  0.7254 -0.6200
 5192SOL     OW27034   0.976   2.209   9.027 -0.1061 -0.4187  0.2750
 5192SOL    HW127035   0.976   2.123   8.986  2.3500 -0.4619  0.3929
 5192SOL    HW227036   0.933   2.196   9.112  1.7568 -2.0293  0.9420
 5193SOL     OW27037   2.207   3.336   7.871  0.1030 -0.1125  0.0280
 5193SOL    HW127038   2.260   3.267   7.910  2.0206  0.0787 -2.2333
 5193SOL    HW227039   2.179   3.392   7.943 -4.1798 -0.2626 -1.5105
 5194SOL     OW27040   0.281   4.531   9.649  0.6542 -0.1795  0.1421
 5194SOL    HW127041   0.226   4.610   9.651  0.5655 -0.2452  0.3239
 5194SOL    HW227042   0.371   4.564   9.654  1.2878 -1.9293  0.2969
 5195SOL     OW27043   4.063   0.475   0.967 -0.2403 -0.0691  0.4963
 5195SOL    HW127044   4.043   0.389   0.929 -1.2936  0.6153 -0.4888
 5195SOL    HW227045   3.990   0.488   1.028  0.4683  0.7161  1.1634
 5196SOL     OW27046   2.376   0.629   3.016 -0.3921  0.4825 -0.1228
 5196SOL    HW127047   2.382   0.664   2.927 -2.0773  0.9856 -0.0482
 5196SOL    HW227048   2.440   0.682   3.063 -2.5787  1.8105  1.4033
 5197SOL     OW27049   3.520   0.031  16.221  0.4453  0.0251 -0.3397
 5197SOL    HW127050   3.451   0.094  16.200 -0.7465 -1.5724 -1.2598
 5197SOL    HW227051   3.500   4.717  16.307 -0.2578  0.3802 -0.3527
 5198SOL     OW27052   4.188   3.124   7.436 -0.6670  0.2984  0.1728
 5198SOL    HW127053   4.231   3.042   7.459 -0.1133  0.5572  0.0603
 5198SOL    HW227054   4.241   3.148   7.360  0.1820 -0.1037  0.6450
 5199SOL     OW27055   3.725   0.395   4.949  1.0553  0.1741 -0.5968
 5199SOL    HW127056   3.739   0.478   4.903 -0.4428  1.0340  0.4911
 5199SOL    HW227057   3.810   0.396   4.992 -0.2383 -2.3975  2.0262
 5200SOL     OW27058   3.720   2.123   4.914  0.5416  0.5989  0.3059
 5200SOL    HW127059   3.698   2.130   4.821  2.0484 -1.4262 -0.2303
 5200SOL    HW227060   3.694   2.034   4.937 -0.4895  0.4662 -1.3523
 5201SOL     OW27061   1.163   3.203  16.420  0.3393  0.3312 -0.6376
 5201SOL    HW127062   1.249   3.201  16.461  1.4654  0.1821 -2.9582
 5201SOL    HW227063   1.107   3.251  16.480  0.7322  0.9208 -0.7427
 5202SOL     OW27064   0.201   0.268   7.597 -0.2705  0.1492 -0.4222
 5202SOL    HW127065   0.188   0.354   7.556  2.2805  0.3909 -0.7138
 5202SOL    HW227066   0.290   0.268   7.631  0.0407  0.8562 -1.2422
 5203SOL     OW27067   2.902   3.268  17.117 -0.0086 -0.7542  0.5795
 5203SOL    HW127068   2.876   3.297  17.030 -0.8168 -0.9926  0.7377
 5203SOL    HW227069   2.983   3.223  17.093  0.8452  1.3142 -0.4102
 5204SOL     OW27070   1.807   3.240   6.384 -0.4231 -0.1129  0.8119
 5204SOL    HW127071   1.802   3.330   6.418 -1.4749  0.2028 -0.1653
 5204SOL    HW227072   1.738   3.200   6.436 -0.7112 -0.3113  0.2792
 5205SOL     OW27073   4.105   3.933   3.829 -0.1784 -0.8224  0.0251
 5205SOL    HW127074   4.124   4.014   3.783 -1.7172  1.1074  2.7689
 5205SOL    HW227075   4.107   3.882   3.748  3.7747  0.9370 -0.9558
 5206SOL     OW27076   2.836   3.470  17.304  0.7612  0.4823  0.0432
 5206SOL    HW127077   2.853   3.381  17.275 -0.3108  0.1401  0.4459
 5206SOL    HW227078   2.802   3.505  17.222 -0.6245  1.0875  0.8661
 5207SOL     OW27079   3.652   3.917   4.396  0.1206 -0.1646  0.2526
 5207SOL    HW127080   3.627   4.001   4.435  1.1592  0.6671 -0.8988
 5207SOL    HW227081   3.734   3.924   4.348  0.1094 -1.5346  0.0195
 5208SOL     OW27082   2.776   1.394   1.837  0.0121  0.1981 -0.0481
 5208SOL    HW127083   2.744   1.484   1.833  2.1587  1.0123  1.4697
 5208SOL    HW227084   2.870   1.409   1.827  0.6693 -3.1779  1.0722
 5209SOL     OW27085   1.511   4.279   7.753  0.4126  0.0558  0.2899
 5209SOL    HW127086   1.535   4.240   7.837 -1.6059 -0.1499  0.7597
 5209SOL    HW227087   1.465   4.210   7.704  0.0712  0.2442  0.3497
 5210SOL     OW27088   2.276   0.969  11.823  0.8841 -0.0367  0.1957
 5210SOL    HW127089   2.322   0.906  11.767  0.7115 -1.3027  1.4854
 5210SOL    HW227090   2.301   0.939  11.910  0.9066 -0.2986  0.0993
 5211SOL     OW27091   4.081   2.941   2.068 -0.7840 -0.1535 -0.5282
 5211SOL    HW127092   4.106   2.972   1.981 -1.2712  0.1103 -0.5746
 5211SOL    HW227093   4.130   2.986   2.136  0.0201  1.9603 -2.5195
 5212SOL     OW27094   4.197   0.667   8.245 -0.9757 -0.7208 -0.2474
 5212SOL    HW127095   4.228   0.750   8.209 -0.5777 -0.3154  1.0223
 5212SOL    HW227096   4.276   0.618   8.221 -0.0137  0.8701 -0.3007
 5213SOL     OW27097   0.854   4.150  15.279 -0.3068 -0.0880 -0.3394
 5213SOL    HW127098   0.894   4.075  15.235 -0.8110  0.1800 -1.2561
 5213SOL    HW227099   0.934   4.192  15.311 -0.1497 -2.7157  2.7099
 5214SOL     OW27100   1.169   0.761   8.952  0.3655  0.2767  0.4724
 5214SOL    HW127101   1.077   0.786   8.966  0.3409 -0.7028  2.0121
 5214SOL    HW227102   1.165   0.683   9.007 -1.5391  0.0605  0.0508
 5215SOL     OW27103   1.117   2.240   7.885 -0.0455 -0.5058  0.8584
 5215SOL    HW127104   1.040   2.294   7.869  0.1778 -0.4443 -0.0056
 5215SOL    HW227105   1.122   2.253   7.980 -2.3659  0.1936  0.8719
 5216SOL     OW27106   3.242   3.152   5.343  0.2814 -0.2071  0.0773
 5216SOL    HW127107   3.338   3.153   5.342  0.2704  0.7211 -0.1962
 5216SOL    HW227108   3.224   3.244   5.320  1.7568 -0.2018 -1.0890
 5217SOL     OW27109   2.868   3.280   3.590 -1.0385  0.1316  0.0448
 5217SOL    HW127110   2.811   3.216   3.547  0.2585 -1.1265  0.1774
 5217SOL    HW227111   2.873   3.351   3.527 -1.3954  0.9780  0.9738
 5218SOL     OW27112   2.292   1.260  17.427  0.0386 -0.0948 -0.3887
 5218SOL    HW127113   2.260   1.225  17.344  1.1728 -0.3315 -0.7284
 5218SOL    HW227114   2.245   1.209  17.493  0.5019 -0.0534 -0.0270
 5219SOL     OW27115   0.812   1.091   2.540 -0.1257  0.0513 -0.4743
 5219SOL    HW127116   0.835   1.184   2.534 -1.2607  0.4520  1.2719
 5219SOL    HW227117   0.770   1.080   2.454 -3.5148 -0.2816  1.2341
 5220SOL     OW27118   1.260   0.070   2.109 -0.4298 -0.2123  0.0559
 5220SOL    HW127119   1.172   0.084   2.075 -0.6943  1.2089  1.3209
 5220SOL    HW227120   1.322   0.109   2.048 -2.5796  0.5590 -1.6280
 5221SOL     OW27121   0.847   2.445   5.165  0.4227  0.0333  0.1410
 5221SOL    HW127122   0.801   2.460   5.247  0.7172 -0.7259  0.4459
 5221SOL    HW227123   0.851   2.349   5.160 -1.7922 -0.0248 -0.6627
 5222SOL     OW27124   0.679   4.438   9.464  0.0265  0.5041 -0.1286
 5222SOL    HW127125   0.594   4.393   9.461  0.2503  0.1588 -1.5278
 5222SOL    HW227126   0.730   4.356   9.467 -0.9993 -0.2265 -2.8176
 5223SOL     OW27127   1.612   2.197   3.365  0.3654 -0.5897 -0.1700
 5223SOL    HW127128   1.680   2.203   3.432  1.3284 -2.0119 -1.0119
 5223SOL    HW227129   1.637   2.113   3.326  0.3908 -1.4862  1.8035
 5224SOL     OW27130   1.188   3.351   7.851 -0.0588  0.7851  0.1391
 5224SOL    HW127131   1.181   3.356   7.946  0.3769 -1.0935  0.2676
 5224SOL    HW227132   1.279   3.321   7.850  0.3051  1.9760 -2.5082
 5225SOL     OW27133   2.094   3.983   8.499  0.0571 -0.1882 -0.2463
 5225SOL    HW127134   2.143   4.050   8.449 -1.0940  1.2095  0.4910
 5225SOL    HW227135   2.053   3.935   8.427  0.5489 -1.3554  0.2594
 5226SOL     OW27136   4.581   3.363   0.960  0.4164  0.7162  0.0049
 5226SOL    HW127137   4.527   3.415   0.901  1.0589 -0.7483 -1.8707
 5226SOL    HW227138   4.667   3.378   0.922 -0.1412  1.5132 -0.9440
 5227SOL     OW27139   0.011   0.991   7.915  0.0074  0.3629 -0.6353
 5227SOL    HW127140   4.697   1.077   7.895 -0.0417  0.6854  0.8082
 5227SOL    HW227141   0.090   1.027   7.955 -0.2255 -2.0252  1.9974
 5228SOL     OW27142   0.568   3.331   7.756 -0.0323 -0.1869  0.4090
 5228SOL    HW127143   0.617   3.338   7.838 -2.1164 -0.1654  1.6475
 5228SOL    HW227144   0.518   3.413   7.760 -1.0196 -0.8498  1.7584
 5229SOL     OW27145   0.043   1.698   0.283 -0.1303 -0.0165 -0.0134
 5229SOL    HW127146   0.135   1.709   0.261  0.0101 -1.2314 -0.0220
 5229SOL    HW227147   0.006   1.721   0.197 -1.3831  2.3028  1.1486
 5230SOL     OW27148   3.600   0.999   4.912  0.4649  0.4241 -0.4726
 5230SOL    HW127149   3.537   1.056   4.867 -0.8058 -1.1756 -0.7065
 5230SOL    HW227150   3.679   1.040   4.876 -1.4845  3.5409 -1.2785
 5231SOL     OW27151   3.989   3.999  11.081  0.0743  0.2094 -0.2829
 5231SOL    HW127152   3.919   3.936  11.100 -1.2818  2.0218  0.6497
 5231SOL    HW227153   4.013   3.961  10.997 -2.1410 -0.4912 -0.6026
 5232SOL     OW27154   3.115   4.363   4.010 -0.4488 -0.3149 -0.0854
 5232SOL    HW127155   3.076   4.369   4.097  0.1716  0.9533  0.1035
 5232SOL    HW227156   3.117   4.268   3.999 -0.0963 -0.2557 -0.5183
 5233SOL     OW27157   1.749   3.876   1.090 -0.1757  0.6173 -0.4414
 5233SOL    HW127158   1.823   3.819   1.070 -1.2225 -0.1512 -2.1278
 5233SOL    HW227159   1.691   3.827   1.148  1.0601  0.2461  0.4607
 5234SOL     OW27160   0.703   1.034   2.312 -0.4313 -0.2832  0.0615
 5234SOL    HW127161   0.720   0.940   2.306 -0.1867 -0.1231 -1.6729
 5234SOL    HW227162   0.615   1.034   2.274  0.5221  4.1417 -2.1273
 5235SOL     OW27163   0.577   2.094   9.933  0.2926  0.5275  0.1069
 5235SOL    HW127164   0.618   2.146   9.863 -0.1552 -0.1685 -0.6707
 5235SOL    HW227165   0.580   2.157  10.005  1.2237 -1.9153  2.1971
 5236SOL     OW27166   0.519   3.171   4.375 -0.7139 -0.5467 -0.7271
 5236SOL    HW127167   0.555   3.258   4.358 -3.0976 -0.3229 -4.6067
 5236SOL    HW227168   0.562   3.110   4.315  0.1481  0.2649 -0.9180
 5237SOL     OW27169   3.397   2.300  12.126 -0.0416 -0.7797 -0.3002
 5237SOL    HW127170   3.445   2.365  12.074 -1.0784  0.9715  0.9741
 5237SOL    HW227171   3.452   2.307  12.203 -0.7957 -3.9729  0.5368
 5238SOL     OW27172   0.566   1.638   2.779 -0.0689 -0.0571  0.1334
 5238SOL    HW127173   0.613   1.714   2.815  0.4184 -0.5233  0.4884
 5238SOL    HW227174   0.498   1.684   2.730 -0.1831 -0.3513  0.0222
 5239SOL     OW27175   0.776   1.339  16.317 -0.0216 -0.2585 -0.4326
 5239SOL    HW127176   0.766   1.345  16.222 -1.2930  1.3825 -0.1842
 5239SOL    HW227177   0.758   1.430  16.341  3.9595  1.0843 -2.5374
 5240SOL     OW27178   3.087   1.529   8.143  0.2660  0.1797  0.0265
 5240SOL    HW127179   3.114   1.524   8.052  1.1870 -0.2226  0.3184
 5240SOL    HW227180   3.064   1.438   8.163  0.8151 -0.1095 -0.6599
 5241SOL     OW27181   2.299   4.585   3.195  0.2723 -0.1995 -0.2397
 5241SOL    HW127182   2.378   4.531   3.191 -0.9968 -2.0196 -0.4424
 5241SOL    HW227183   2.280   4.611   3.104  0.5808  0.0551 -0.2332
 5242SOL     OW27184   1.380   4.514   5.261  0.1094 -0.1026 -0.2706
 5242SOL    HW127185   1.368   4.576   5.189  2.1008  0.9179  0.2788
 5242SOL    HW227186   1.392   4.581   5.328 -1.2505 -0.4446  0.2997
 5243SOL     OW27187   3.541   1.152   3.584 -0.1254  0.4534  0.4293
 5243SOL    HW127188   3.488   1.219   3.541  0.2696  0.8947  0.6418
 5243SOL    HW227189   3.596   1.194   3.650 -0.1221  0.6685  0.2883
 5244SOL     OW27190   3.289   2.968   4.454 -0.4478  0.0347 -0.6686
 5244SOL    HW127191   3.345   2.926   4.519 -0.7327  2.7529  1.3263
 5244SOL    HW227192   3.229   3.019   4.508 -0.5554  1.4724 -2.1271
 5245SOL     OW27193   3.625   3.509   9.254 -0.4512 -0.1159  0.1780
 5245SOL    HW127194   3.554   3.469   9.305  0.0284 -1.4156 -0.1627
 5245SOL    HW227195   3.652   3.427   9.213 -0.2193 -0.0102  0.1191
 5246SOL     OW27196   1.798   2.710   5.283 -0.5977 -0.3555  0.2336
 5246SOL    HW127197   1.860   2.760   5.337 -0.8304 -0.2990  0.4474
 5246SOL    HW227198   1.762   2.779   5.228  0.3717  1.2353  1.6052
 5247SOL     OW27199   0.675   3.110   0.708  0.2416 -0.6328 -0.6173
 5247SOL    HW127200   0.654   3.032   0.656  0.2194 -0.2064 -1.2493
 5247SOL    HW227201   0.770   3.099   0.700  0.2509  1.3221 -2.8863
 5248SOL     OW27202   1.342   1.020   1.532  0.7285 -0.6864  0.4588
 5248SOL    HW127203   1.316   1.002   1.622 -0.2906 -2.3169 -0.1677
 5248SOL    HW227204   1.373   0.938   1.494 -0.7204 -1.9613  2.0294
 5249SOL     OW27205   2.606   1.188   8.365 -0.2031 -1.0416 -0.0168
 5249SOL    HW127206   2.575   1.109   8.322 -0.4077 -0.6728 -0.5408
 5249SOL    HW227207   2.561   1.258   8.319  0.3004  0.7993  2.2907
 5250SOL     OW27208   2.941   2.157   3.863 -0.3040 -0.9265 -0.2509
 5250SOL    HW127209   2.980   2.070   3.868  0.5059 -0.6533 -1.7443
 5250SOL    HW227210   2.867   2.138   3.806  1.3810  2.0410 -3.4736
 5251SOL     OW27211   0.761   0.543  17.164 -0.9797 -0.0844 -0.1921
 5251SOL    HW127212   0.707   0.558  17.242 -0.8184  0.3286 -0.1593
 5251SOL    HW227213   0.774   0.630  17.125 -0.8228  0.3903  0.9382
 5252SOL     OW27214   3.878   3.943   5.827 -0.3602 -0.0355  0.3014
 5252SOL    HW127215   3.958   3.987   5.799 -0.8387  0.3378 -0.4555
 5252SOL    HW227216   3.915   3.863   5.865  0.1633 -0.0215 -0.1926
 5253SOL     OW27217   2.828   0.283  12.654  0.1926 -0.3739 -0.0445
 5253SOL    HW127218   2.918   0.253  12.639  0.7530  0.1609  2.2630
 5253SOL    HW227219   2.841   0.377  12.666  0.1352 -0.2536 -0.9410
 5254SOL     OW27220   0.659   3.551   2.093 -0.2064 -0.2326 -0.7592
 5254SOL    HW127221   0.708   3.582   2.169 -0.3680  0.3706 -0.9008
 5254SOL    HW227222   0.682   3.624   2.034  2.3010 -0.9281 -0.6423
 5255SOL     OW27223   2.302   4.020   7.214  0.2170  0.1539  0.2175
 5255SOL    HW127224   2.298   4.065   7.299  0.6920  1.3763 -0.4082
 5255SOL    HW227225   2.272   3.934   7.244  0.2797 -0.7786 -2.3804
 5256SOL     OW27226   2.449   1.848  10.107 -0.4870 -0.7859 -0.8001
 5256SOL    HW127227   2.431   1.768  10.057  3.0968 -2.0703 -0.0127
 5256SOL    HW227228   2.458   1.806  10.192 -2.2512 -1.1218 -0.7803
 5257SOL     OW27229   4.042   4.339   3.976 -0.4875  0.4295 -0.1588
 5257SOL    HW127230   4.007   4.286   3.904 -0.3144  0.8873 -0.5770
 5257SOL    HW227231   4.105   4.277   4.013 -0.4728  0.1163 -0.7151
 5258SOL     OW27232   2.917   2.763  11.865 -0.5453 -0.2573 -0.1148
 5258SOL    HW127233   2.957   2.704  11.930  0.0451 -0.7956 -0.9673
 5258SOL    HW227234   2.911   2.846  11.912 -0.1208 -0.8111  0.9235
 5259SOL     OW27235   0.362   4.408   8.716 -0.0503  0.3364  0.2909
 5259SOL    HW127236   0.333   4.440   8.801 -0.9169  1.5180 -0.4397
 5259SOL    HW227237   0.377   4.492   8.671 -0.0429  0.8798  1.3191
 5260SOL     OW27238   3.782   4.399   7.500  0.5817 -0.1220 -0.9163
 5260SOL    HW127239   3.736   4.419   7.419 -1.5949 -0.2765  0.2800
 5260SOL    HW227240   3.792   4.484   7.543 -1.5072  0.0433 -0.7888
 5261SOL     OW27241   0.140   3.152   5.158  0.1882 -0.0149  0.0386
 5261SOL    HW127242   0.197   3.203   5.216 -1.2601  1.5036  0.1203
 5261SOL    HW227243   0.198   3.089   5.115  0.3731  0.6818 -0.7286
 5262SOL     OW27244   0.352   3.260   9.880 -0.5687  0.0360 -0.3332
 5262SOL    HW127245   0.418   3.282   9.814  1.0954  0.1021  1.3888
 5262SOL    HW227246   0.290   3.205   9.832  1.1184 -3.0906  1.0650
 5263SOL     OW27247   3.535   4.395   1.852  0.5759  0.3769 -0.5024
 5263SOL    HW127248   3.592   4.465   1.822 -1.0990  1.9961  0.1308
 5263SOL    HW227249   3.463   4.443   1.892  1.9542  0.1016  2.3283
 5264SOL     OW27250   3.489   2.606   3.240 -0.3770 -0.6087 -0.2495
 5264SOL    HW127251   3.531   2.588   3.325 -3.0839 -0.8544  1.0294
 5264SOL    HW227252   3.405   2.562   3.246 -0.4534 -0.2811  1.0339
 5265SOL     OW27253   0.913   0.545  12.457 -0.0541  0.3952 -0.5585
 5265SOL    HW127254   0.985   0.607  12.469 -0.6827  1.3913 -1.8960
 5265SOL    HW227255   0.844   0.590  12.506  0.8716  0.0279  1.0905
 5266SOL     OW27256   1.678   0.431   6.285  0.4036  0.6754 -0.1385
 5266SOL    HW127257   1.700   0.459   6.196  0.2744  0.0662 -0.3593
 5266SOL    HW227258   1.583   0.439   6.298  0.6195  1.2026  1.0698
 5267SOL     OW27259   3.701   1.365   9.744  0.3968 -0.0734 -0.4957
 5267SOL    HW127260   3.672   1.456   9.751  2.1563  0.4092  0.7297
 5267SOL    HW227261   3.719   1.338   9.835  0.1241  0.7381 -0.2035
 5268SOL     OW27262   4.432   1.910   7.149  0.4706 -0.4340  0.0132
 5268SOL    HW127263   4.337   1.925   7.146  0.6958  0.7694 -1.2141
 5268SOL    HW227264   4.445   1.880   7.059 -3.3411  0.9072 -0.9751
 5269SOL     OW27265   3.404   0.888   1.571  0.3476 -0.5621  0.0293
 5269SOL    HW127266   3.317   0.927   1.562  0.1135 -1.5895 -2.1065
 5269SOL    HW227267   3.413   0.892   1.666  0.4506  1.3549 -0.0605
 5270SOL     OW27268   3.003   2.390   4.781  0.3210 -0.1483 -0.1422
 5270SOL    HW127269   2.981   2.388   4.874 -0.1582 -0.7199 -0.2634
 5270SOL    HW227270   2.991   2.300   4.751  2.3911 -0.5985  0.3405
 5271SOL     OW27271   0.832   0.046   1.091  0.2128 -0.8177  0.0103
 5271SOL    HW127272   0.856   0.130   1.053  1.6021 -1.0374  0.4012
 5271SOL    HW227273   0.752   0.073   1.135 -0.3391 -1.8578 -0.3483
 5272SOL     OW27274   4.047   3.769   5.988  0.5379  0.3561 -0.5399
 5272SOL    HW127275   4.022   3.723   6.069  1.3821  0.0799 -0.4294
 5272SOL    HW227276   4.117   3.716   5.950  1.8823  1.0946  0.9139
 5273SOL     OW27277   3.995   3.101  15.160 -0.2940 -0.8272 -0.3723
 5273SOL    HW127278   3.949   3.184  15.169 -0.0177 -0.5215 -1.9271
 5273SOL    HW227279   4.029   3.086  15.249 -1.0809 -1.3657 -0.1655
 5274SOL     OW27280   2.705   3.776  11.334 -0.0465  0.4549  0.1141
 5274SOL    HW127281   2.777   3.824  11.377  0.6183 -0.0560 -0.4218
 5274SOL    HW227282   2.681   3.846  11.273 -1.2082  2.0704  2.4449
 5275SOL     OW27283   0.604   1.389   6.571  0.0557  0.1890 -0.6242
 5275SOL    HW127284   0.656   1.469   6.563  0.9879 -0.3102  0.5660
 5275SOL    HW227285   0.591   1.392   6.666  0.1573 -0.6074 -0.5867
 5276SOL     OW27286   1.732   4.515   2.439 -0.7008  0.0762 -0.5048
 5276SOL    HW127287   1.651   4.465   2.434 -1.0097  0.5621 -0.3161
 5276SOL    HW227288   1.773   4.465   2.510 -1.7660  1.8580  1.3613
 5277SOL     OW27289   3.787   3.163   5.708  0.4001 -0.2666 -0.1871
 5277SOL    HW127290   3.769   3.137   5.618 -0.0343  0.5651 -0.3378
 5277SOL    HW227291   3.695   3.176   5.731 -0.3736 -1.2756 -2.7061
 5278SOL     OW27292   0.159   2.357   4.259  0.0230  0.0437  0.4349
 5278SOL    HW127293   0.237   2.344   4.203 -0.3516  1.4380 -0.4102
 5278SOL    HW227294   0.145   2.451   4.260 -0.7024 -0.0778  0.9700
 5279SOL     OW27295   1.812   1.623  17.211  0.7852 -0.1955  0.0694
 5279SOL    HW127296   1.849   1.536  17.195 -0.8714 -0.5985 -1.4580
 5279SOL    HW227297   1.806   1.622  17.307 -1.0298  0.0503 -0.0424
 5280SOL     OW27298   3.848   0.402   2.593 -0.2778  0.0309 -0.2173
 5280SOL    HW127299   3.865   0.368   2.505  1.9115  1.2673 -0.2699
 5280SOL    HW227300   3.931   0.385   2.637 -0.9738  2.1033  1.8397
 5281SOL     OW27301   1.985   1.240   5.799  0.1865  0.3670  0.0275
 5281SOL    HW127302   1.956   1.256   5.889 -0.2602 -1.3897  0.2025
 5281SOL    HW227303   2.012   1.328   5.775 -1.9330  0.7572 -0.9461
 5282SOL     OW27304   0.731   0.994  16.215  0.2423  0.0278  0.1333
 5282SOL    HW127305   0.709   0.937  16.288  0.8337  0.3320  0.5496
 5282SOL    HW227306   0.742   0.929  16.145 -4.9705 -0.4507 -0.1993
 5283SOL     OW27307   1.416   3.534  11.701 -0.2288 -0.0716  0.2928
 5283SOL    HW127308   1.414   3.616  11.654 -0.3542 -0.0065  0.4106
 5283SOL    HW227309   1.400   3.565  11.790 -0.1705 -1.3573  0.7537
 5284SOL     OW27310   2.440   1.544   6.256 -0.0985  0.5177  0.5158
 5284SOL    HW127311   2.529   1.553   6.223 -0.4262  0.9897 -0.2158
 5284SOL    HW227312   2.419   1.637   6.250  2.3258  1.0152 -0.2139
 5285SOL     OW27313   2.308   3.982  11.600 -0.1670  0.4788  0.3247
 5285SOL    HW127314   2.278   4.051  11.660  0.1619 -0.1801  1.2567
 5285SOL    HW227315   2.403   3.995  11.603  0.1534 -1.9819  0.2195
 5286SOL     OW27316   3.925   3.985   4.321 -0.8057  0.5433  0.1606
 5286SOL    HW127317   4.000   3.939   4.360  0.3322  1.7118 -0.6120
 5286SOL    HW227318   3.963   4.049   4.260  0.6379 -0.8427 -0.3998
 5287SOL     OW27319   3.949   1.128  10.846 -0.5207 -0.2582  0.5924
 5287SOL    HW127320   3.997   1.171  10.775 -1.0896  1.8671  1.5257
 5287SOL    HW227321   3.958   1.198  10.910  0.2126  0.6019 -0.4565
 5288SOL     OW27322   3.900   0.624  10.657  0.0745  0.2245 -0.4169
 5288SOL    HW127323   3.903   0.717  10.637  1.0721  0.1828 -0.4648
 5288SOL    HW227324   3.891   0.621  10.752  2.2270  1.6648 -0.1734
 5289SOL     OW27325   2.110   3.361  13.302  0.0306 -0.5673  0.3263
 5289SOL    HW127326   2.018   3.340  13.284  0.8390 -2.3183 -1.7281
 5289SOL    HW227327   2.143   3.351  13.213 -0.2654 -0.6307  0.2240
 5290SOL     OW27328   1.162   1.656   9.613  0.5407  0.1037  0.0063
 5290SOL    HW127329   1.234   1.717   9.627  0.5259 -0.1233  1.0700
 5290SOL    HW227330   1.089   1.700   9.658  0.5142 -0.2713  0.3337
 5291SOL     OW27331   2.757   1.073   3.025 -0.3583  0.0443 -0.0064
 5291SOL    HW127332   2.739   1.032   2.940 -1.7987  2.2424 -0.7778
 5291SOL    HW227333   2.852   1.068   3.035 -0.7453 -2.5616  2.0715
 5292SOL     OW27334   0.577   0.683   6.074  0.1031  0.5934  0.1379
 5292SOL    HW127335   0.667   0.711   6.089  0.8813 -1.0051 -1.5395
 5292SOL    HW227336   0.573   0.587   6.079  1.1320  0.4716 -1.5898
 5293SOL     OW27337   3.138   1.490   6.375  0.0916  0.2095 -0.2874
 5293SOL    HW127338   3.189   1.570   6.363 -1.0478  0.9383 -0.3352
 5293SOL    HW227339   3.200   1.432   6.418  0.8226  1.1815 -0.0320
 5294SOL     OW27340   0.069   0.832   9.780  0.7156  0.3417 -0.0942
 5294SOL    HW127341   4.718   0.777   9.804  1.6588 -0.5929  0.7266
 5294SOL    HW227342   0.109   0.860   9.863  1.7828  1.1078 -0.8810
 5295SOL     OW27343   2.805   4.155  11.867  0.1030  0.0964 -0.1807
 5295SOL    HW127344   2.776   4.070  11.836  0.0412  0.2771 -0.6352
 5295SOL    HW227345   2.735   4.208  11.829  0.5999  0.3585 -0.7500
 5296SOL     OW27346   4.389   0.979   2.455  0.1820  0.2623  0.6427
 5296SOL    HW127347   4.473   0.938   2.434  0.6803  3.0365 -2.9735
 5296SOL    HW227348   4.326   0.917   2.418  0.0922  0.0431  1.1781
 5297SOL     OW27349   0.820   4.579  17.086  0.0773 -0.4520  0.1641
 5297SOL    HW127350   0.869   4.609  17.162 -1.1222 -0.1646  0.8289
 5297SOL    HW227351   0.750   4.644  17.091  0.9992  0.6985 -1.8793
 5298SOL     OW27352   0.307   1.756  10.122  0.2324 -0.5648  0.0617
 5298SOL    HW127353   0.397   1.786  10.107  0.1144  0.3066  1.1341
 5298SOL    HW227354   0.292   1.697  10.048  0.2946  0.4347 -0.7320
 5299SOL     OW27355   0.278   3.781   8.651  0.5476  0.1872 -0.3231
 5299SOL    HW127356   0.264   3.714   8.584  0.0846 -1.0188  0.9815
 5299SOL    HW227357   0.195   3.827   8.659  0.3112 -0.4379  0.8881
 5300SOL     OW27358   3.404   4.263   4.378  0.0300 -0.0103 -0.3855
 5300SOL    HW127359   3.487   4.310   4.379  1.2738 -2.1927 -0.0620
 5300SOL    HW227360   3.416   4.210   4.457  0.6666  0.2216 -0.3326
 5301SOL     OW27361   1.266   1.336   6.153  0.6339 -0.9675  0.2970
 5301SOL    HW127362   1.231   1.337   6.242  0.0802 -2.4730  0.0924
 5301SOL    HW227363   1.333   1.403   6.168 -1.1507  0.5065  1.5776
 5302SOL     OW27364   1.866   4.030   6.503  0.3999  0.0386 -0.4288
 5302SOL    HW127365   1.809   4.038   6.426  1.3077 -3.7892 -1.5243
 5302SOL    HW227366   1.924   4.104   6.487 -0.1441  0.6961  0.6284
 5303SOL     OW27367   3.490   0.889   8.291  0.5181  0.2479 -0.0962
 5303SOL    HW127368   3.564   0.873   8.350  0.2508  1.9770  0.7123
 5303SOL    HW227369   3.445   0.969   8.316  0.3202  0.3754 -0.8532
 5304SOL     OW27370   0.186   2.081   7.069  0.4059 -0.2979  0.3344
 5304SOL    HW127371   0.171   1.986   7.074  0.3591 -0.4299 -2.6856
 5304SOL    HW227372   0.141   2.100   7.152  0.1805  1.6513 -0.2512
 5305SOL     OW27373   4.235   4.526   8.569 -0.1877  0.5860 -0.2233
 5305SOL    HW127374   4.297   4.477   8.623  0.1215  0.8976 -0.2916
 5305SOL    HW227375   4.270   4.615   8.576 -1.2195  0.8085  2.0865
 5306SOL     OW27376   0.448   4.646   8.583  0.1461  0.0902  0.2252
 5306SOL    HW127377   0.453   4.671   8.491 -0.3362  1.3235  0.5324
 5306SOL    HW227378   0.533   4.676   8.614 -0.2143  0.8712  0.4497
 5307SOL     OW27379   4.645   0.310  11.505  0.0430  0.0850  0.4510
 5307SOL    HW127380   4.571   0.268  11.461 -0.2644 -0.0063  1.0479
 5307SOL    HW227381   4.687   0.356  11.433 -2.0589  1.1118 -0.1057
 5308SOL     OW27382   1.399   2.133   5.522 -0.4688  0.1771 -0.0797
 5308SOL    HW127383   1.434   2.195   5.459 -0.3280 -2.5769 -2.7475
 5308SOL    HW227384   1.482   2.126   5.568 -0.6064 -2.0308 -0.1532
 5309SOL     OW27385   1.669   1.186  11.122  0.1438  0.1534  0.0119
 5309SOL    HW127386   1.692   1.097  11.093 -0.5306 -0.2139  0.6219
 5309SOL    HW227387   1.611   1.194  11.046 -0.2802 -1.0963  0.2089
 5310SOL     OW27388   3.643   1.490   3.680  0.0558  0.2261 -0.5602
 5310SOL    HW127389   3.575   1.555   3.702 -1.0950 -0.6577 -1.5030
 5310SOL    HW227390   3.625   1.415   3.736  0.3210  1.4535  1.1815
 5311SOL     OW27391   1.260   3.868   6.362  0.0288 -0.2914 -0.6305
 5311SOL    HW127392   1.266   3.774   6.381  2.2562  0.0029  0.1495
 5311SOL    HW227393   1.200   3.891   6.433  0.6020  0.5653 -0.4236
 5312SOL     OW27394   1.953   2.337   2.815  0.1243  0.4643  0.7218
 5312SOL    HW127395   1.910   2.265   2.769  0.3135  0.5127  0.4662
 5312SOL    HW227396   2.021   2.365   2.753  0.0174  0.6158  0.6746
 5313SOL     OW27397   2.214   4.651   6.078  0.1769  0.6229 -0.2723
 5313SOL    HW127398   2.196   4.599   6.156 -0.1401  0.1575 -0.6545
 5313SOL    HW227399   2.128   4.663   6.038 -0.0710  1.9803  0.6417
 5314SOL     OW27400   3.379   1.358   5.246 -0.5566 -0.6592 -0.1828
 5314SOL    HW127401   3.467   1.376   5.280 -1.6904  2.1537  1.2657
 5314SOL    HW227402   3.401   1.318   5.162 -1.8537 -1.9319  0.0913
 5315SOL     OW27403   1.699   1.132  11.931  0.3997 -0.0430 -1.0425
 5315SOL    HW127404   1.730   1.197  11.868 -1.8835  3.1019  1.0421
 5315SOL    HW227405   1.658   1.181  12.003  1.5575  2.0574 -1.8160
 5316SOL     OW27406   1.534   0.717   7.939 -0.3524 -0.7655  0.4021
 5316SOL    HW127407   1.512   0.758   8.023  0.7438  0.5532  0.0409
 5316SOL    HW227408   1.526   0.626   7.969  0.9625 -0.3732  1.9791
 5317SOL     OW27409   3.298   3.864  14.935 -0.9444  0.2614  0.9473
 5317SOL    HW127410   3.309   3.884  15.027  0.8654  0.7350  0.6153
 5317SOL    HW227411   3.236   3.792  14.940 -2.6791  1.7143  0.5760
 5318SOL     OW27412   1.390   1.706  12.062 -0.0924  0.2627  0.4606
 5318SOL    HW127413   1.407   1.615  12.039 -1.0715 -0.2024  1.5500
 5318SOL    HW227414   1.296   1.725  12.061 -0.0188  0.4894 -1.5473
 5319SOL     OW27415   0.155   1.522  12.433 -0.6592  0.4197 -0.1161
 5319SOL    HW127416   0.103   1.529  12.513 -1.5299 -0.2410 -0.6312
 5319SOL    HW227417   0.243   1.543  12.464  0.8579 -1.3142 -3.2552
 5320SOL     OW27418   0.846   3.898   3.432 -0.3407 -0.0746 -0.1622
 5320SOL    HW127419   0.863   3.992   3.444 -0.5139 -0.1425  0.6417
 5320SOL    HW227420   0.880   3.878   3.519 -3.3602  0.3647  1.1060
 5321SOL     OW27421   2.681   3.998  17.374 -0.3592  0.0644 -0.0171
 5321SOL    HW127422   2.627   4.055  17.430 -1.9054  1.1373 -2.5933
 5321SOL    HW227423   2.620   3.984  17.302 -1.2848 -1.1459  1.0108
 5322SOL     OW27424   1.010   0.812   7.034 -0.6796  0.8775  0.0798
 5322SOL    HW127425   0.963   0.738   7.074  0.0061  0.3817 -0.0408
 5322SOL    HW227426   1.048   0.850   7.113 -0.0529 -0.3327  0.3532
 5323SOL     OW27427   3.211   1.732  12.502 -0.2333  0.3853 -0.1631
 5323SOL    HW127428   3.177   1.815  12.535 -1.7789 -1.1910  2.1767
 5323SOL    HW227429   3.199   1.744  12.408 -1.9505 -0.1314 -0.0116
 5324SOL     OW27430   4.281   4.316   8.385 -0.3899  0.1553 -0.2005
 5324SOL    HW127431   4.299   4.248   8.450 -0.3241  0.5629  0.2074
 5324SOL    HW227432   4.275   4.396   8.438 -0.1304  0.7735 -1.0954
 5325SOL     OW27433   2.137   2.343   4.917  0.0154 -0.1351  0.0833
 5325SOL    HW127434   2.044   2.364   4.919 -0.5372 -2.5882  0.9789
 5325SOL    HW227435   2.145   2.255   4.956  1.3543  1.1036  2.6187
 5326SOL     OW27436   4.240   4.148  10.892  0.8223 -0.5537  0.6003
 5326SOL    HW127437   4.262   4.211  10.823  1.1346 -0.3563  0.8822
 5326SOL    HW227438   4.161   4.191  10.923 -0.1793 -1.3599 -0.8078
 5327SOL     OW27439   1.771   2.864  10.894  0.1926 -0.0482  0.2526
 5327SOL    HW127440   1.750   2.857  10.987  0.8297  0.0996  0.4115
 5327SOL    HW227441   1.705   2.925  10.862  0.1441  0.7960  1.9570
 5328SOL     OW27442   1.003   0.237   6.714 -0.1344  0.5317 -0.4289
 5328SOL    HW127443   1.037   0.148   6.709  1.6312  1.1363  0.8487
 5328SOL    HW227444   1.080   0.291   6.733  0.5714  0.4717 -3.1726
 5329SOL     OW27445   3.368   3.657   3.377 -0.1340  0.4250 -0.2613
 5329SOL    HW127446   3.412   3.740   3.360  0.6779 -0.3181 -1.7964
 5329SOL    HW227447   3.280   3.686   3.402  0.6351  1.1477  1.6070
 5330SOL     OW27448   2.635   2.281   8.853  0.7767  0.2913  0.0831
 5330SOL    HW127449   2.643   2.376   8.861  1.0124  0.3012 -0.2635
 5330SOL    HW227450   2.723   2.262   8.820  0.8278  2.0720 -0.8049
 5331SOL     OW27451   0.373   3.505   5.228 -0.0636  0.1437 -0.5063
 5331SOL    HW127452   0.368   3.415   5.261  1.4235  0.3776  0.3842
 5331SOL    HW227453   0.445   3.496   5.166  0.9154  2.8253  0.2272
 5332SOL     OW27454   2.049   3.990   0.521  0.0093 -0.7299 -0.8296
 5332SOL    HW127455   1.983   3.940   0.472 -0.1068 -1.8800  0.4870
 5332SOL    HW227456   2.124   3.931   0.518 -0.3515 -1.2725  0.7659
 5333SOL     OW27457   3.068   0.458  14.279 -0.1777  0.0610  0.1380
 5333SOL    HW127458   3.154   0.499  14.281  0.6683 -1.7102 -0.3289
 5333SOL    HW227459   3.091   0.377  14.324  0.2889  0.0619 -0.1013
 5334SOL     OW27460   1.429   0.890  15.400 -0.0150 -0.6432 -0.2382
 5334SOL    HW127461   1.456   0.829  15.468  1.3500 -1.5188 -1.5412
 5334SOL    HW227462   1.400   0.964  15.452 -0.0553 -1.1067  0.4044
 5335SOL     OW27463   1.596   4.244   8.006 -0.3959  0.0582 -0.3380
 5335SOL    HW127464   1.560   4.250   8.095  0.1382 -0.0882 -0.1167
 5335SOL    HW227465   1.661   4.314   8.010  0.7963 -1.1393  0.9314
 5336SOL     OW27466   0.945   2.258  17.495 -0.4828  0.1769 -0.2602
 5336SOL    HW127467   1.012   2.232  17.558 -0.0396 -0.3600 -0.9654
 5336SOL    HW227468   0.890   2.304  17.559 -0.2262 -0.7046  0.5999
 5337SOL     OW27469   1.233   2.068   0.491 -0.4797 -0.5394  0.3340
 5337SOL    HW127470   1.161   2.077   0.554  0.0581  1.9864  0.5707
 5337SOL    HW227471   1.210   2.135   0.428  1.6567  0.4258  0.6015
 5338SOL     OW27472   1.538   3.883  16.069 -0.3433  0.1716 -0.1333
 5338SOL    HW127473   1.618   3.935  16.064 -0.2183 -0.0642 -0.5541
 5338SOL    HW227474   1.489   3.921  16.143 -1.8161  0.7355 -1.3957
 5339SOL     OW27475   0.332   2.645   8.167 -0.2215  0.1440  0.7425
 5339SOL    HW127476   0.258   2.678   8.216 -2.8218 -1.2221 -2.2452
 5339SOL    HW227477   0.404   2.704   8.190  0.8024 -1.6049  2.0943
 5340SOL     OW27478   2.671   2.688   9.634  0.0356 -0.0136 -0.5241
 5340SOL    HW127479   2.577   2.698   9.648  0.3366 -1.3077  2.4051
 5340SOL    HW227480   2.693   2.773   9.596  1.4384  0.1048  0.5597
 5341SOL     OW27481   0.228   2.307   4.518 -0.1066 -0.1989 -0.0495
 5341SOL    HW127482   0.176   2.323   4.440  0.7856  0.5705 -0.4799
 5341SOL    HW227483   0.289   2.250   4.471 -1.2554 -0.2153 -1.5210
 5342SOL     OW27484   0.801   0.538   1.043  0.2843 -0.2684  0.8344
 5342SOL    HW127485   0.725   0.506   0.994 -1.5269  0.5917  3.0709
 5342SOL    HW227486   0.802   0.623   0.999  0.8038 -0.3323  0.7199
 5343SOL     OW27487   3.499   3.732  12.374  0.8673  0.4295  0.1153
 5343SOL    HW127488   3.420   3.786  12.360  1.0449  0.6573 -0.0069
 5343SOL    HW227489   3.505   3.708  12.467  1.5199 -2.1494 -0.5943
 5344SOL     OW27490   3.549   3.775  14.647 -0.2139 -0.7160  0.5013
 5344SOL    HW127491   3.567   3.854  14.699 -0.5257  0.8184 -1.7271
 5344SOL    HW227492   3.601   3.710  14.696  1.2411  0.4112  0.4756
 5345SOL     OW27493   0.770   4.575  13.224 -0.8263 -0.4716  0.0343
 5345SOL    HW127494   0.802   4.572  13.134 -1.4340  0.0042 -0.1950
 5345SOL    HW227495   0.688   4.525  13.220 -0.7121 -0.5976 -0.6494
 5346SOL     OW27496   3.869   1.359   4.971 -0.2471 -0.1716 -0.3731
 5346SOL    HW127497   3.891   1.266   4.973 -1.4331 -0.4426  0.0827
 5346SOL    HW227498   3.921   1.376   5.049  0.3457 -2.0371 -0.3608
 5347SOL     OW27499   3.984   1.585   7.431  0.1221  0.2164 -0.1084
 5347SOL    HW127500   3.910   1.645   7.417 -1.6949 -1.9039  0.3494
 5347SOL    HW227501   4.057   1.626   7.386  0.2555 -1.0379 -1.0192
 5348SOL     OW27502   2.536   0.412   7.269 -0.2021  0.7492  0.3465
 5348SOL    HW127503   2.532   0.460   7.186  1.8920 -1.3909 -1.0031
 5348SOL    HW227504   2.528   0.320   7.243 -0.8026  0.0797  2.9386
 5349SOL     OW27505   1.115   4.379  13.137 -0.0487 -0.1018  0.0614
 5349SOL    HW127506   1.149   4.413  13.054  0.2305  1.0077  0.6309
 5349SOL    HW227507   1.102   4.463  13.179 -1.3845  0.7555 -2.0569
 5350SOL     OW27508   0.069   2.609  13.978  0.5290  1.3532 -0.3718
 5350SOL    HW127509   0.038   2.647  14.060 -0.5301 -1.1662  0.4208
 5350SOL    HW227510   0.065   2.680  13.915 -1.6155  2.1729  0.6841
 5351SOL     OW27511   4.404   2.216  15.775  0.8428  0.0619 -0.3342
 5351SOL    HW127512   4.337   2.265  15.822 -0.5901 -0.2224 -2.0701
 5351SOL    HW227513   4.465   2.211  15.848  1.9086  0.0090 -1.2158
 5352SOL     OW27514   4.104   4.499  15.250  0.7068  0.4553  0.3058
 5352SOL    HW127515   4.011   4.505  15.271  1.0882  0.6426  1.9582
 5352SOL    HW227516   4.120   4.441  15.324  2.3113 -1.7416 -1.7641
 5353SOL     OW27517   4.505   3.950   5.738  0.3166 -1.0641  0.2805
 5353SOL    HW127518   4.569   3.969   5.805  1.2998 -2.4007 -0.2763
 5353SOL    HW227519   4.520   4.030   5.688 -1.2483 -0.9616 -0.0505
 5354SOL     OW27520   3.352   0.044   9.037  0.0377 -0.2076  0.0752
 5354SOL    HW127521   3.386   0.004   8.958 -0.8154 -0.2603 -0.2677
 5354SOL    HW227522   3.382   4.702   9.100  3.4146  1.1893 -0.0827
 5355SOL     OW27523   3.223   3.549  13.611  0.5126  0.2152  0.0630
 5355SOL    HW127524   3.225   3.639  13.646 -1.7627  0.7840 -1.2904
 5355SOL    HW227525   3.174   3.503  13.679  1.6386  1.9749  2.0964
 5356SOL     OW27526   0.882   4.307  13.593 -0.2934 -0.0143  0.2068
 5356SOL    HW127527   0.891   4.402  13.598 -0.9254  0.1711 -1.9478
 5356SOL    HW227528   0.809   4.283  13.649 -1.0263  2.0212  0.1479
 5357SOL     OW27529   0.340   4.099   5.506  0.1184 -0.0520  0.3943
 5357SOL    HW127530   0.408   4.134   5.448 -1.1077  0.5557 -0.6588
 5357SOL    HW227531   0.315   4.179   5.552  1.0330  0.2814  0.3110
 5358SOL     OW27532   0.862   2.863  13.514  0.0612  0.2879  0.2998
 5358SOL    HW127533   0.806   2.940  13.519 -0.1705 -0.0482  2.9236
 5358SOL    HW227534   0.795   2.800  13.486 -0.0044  1.1754 -1.5332
 5359SOL     OW27535   1.049   1.550   0.783  0.4236  0.2094  0.2163
 5359SOL    HW127536   1.075   1.487   0.850  3.1432  1.7344  0.5989
 5359SOL    HW227537   1.131   1.595   0.762  1.0418 -1.2778 -0.4860
 5360SOL     OW27538   4.508   2.651  16.459 -0.0271 -0.5575  0.4339
 5360SOL    HW127539   4.480   2.739  16.433 -0.6873 -0.3872  1.6786
 5360SOL    HW227540   4.516   2.612  16.372  3.3144 -1.6143  1.1962
 5361SOL     OW27541   0.111   1.974  14.265  0.1290  0.0146  0.4259
 5361SOL    HW127542   0.049   2.046  14.256 -1.2850 -1.1399  0.7975
 5361SOL    HW227543   0.066   1.925  14.335  0.4176 -1.5210 -0.4529
 5362SOL     OW27544   0.043   3.618   2.579  0.6338 -0.5754  0.1534
 5362SOL    HW127545   0.133   3.623   2.611  0.4657  1.0792  0.3876
 5362SOL    HW227546   0.007   3.531   2.589 -2.3095  0.8742  2.1260
 5363SOL     OW27547   3.486   3.822   5.116 -0.4294  0.5346 -0.1672
 5363SOL    HW127548   3.556   3.839   5.179  0.3709  1.0486 -1.1841
 5363SOL    HW227549   3.479   3.913   5.086 -0.9327 -0.2319 -2.3717
 5364SOL     OW27550   4.365   1.044   6.708 -0.0935  0.2500 -0.4474
 5364SOL    HW127551   4.423   1.120   6.703  0.8599 -0.5944 -2.1795
 5364SOL    HW227552   4.391   1.009   6.793 -0.7130  0.9036  0.0136
 5365SOL     OW27553   3.304   3.939   8.063  0.0166 -0.2631  0.0625
 5365SOL    HW127554   3.235   3.993   8.023 -0.6824 -1.2098 -0.0161
 5365SOL    HW227555   3.359   3.925   7.986  1.1612 -1.6499  1.1416
 5366SOL     OW27556   3.984   1.162  10.569  0.1340  0.0666 -0.9090
 5366SOL    HW127557   3.950   1.250  10.582 -1.8081 -0.9505  0.9277
 5366SOL    HW227558   4.062   1.172  10.515  0.7810  1.4113  0.2660
 5367SOL     OW27559   2.009   4.551   3.941  0.0890  0.5535 -0.6149
 5367SOL    HW127560   2.105   4.548   3.945 -0.0157 -1.0564  0.5652
 5367SOL    HW227561   1.997   4.629   3.886  2.2135  0.8395 -0.6929
 5368SOL     OW27562   3.048   4.562   6.452 -0.3069 -0.0060 -0.0566
 5368SOL    HW127563   3.133   4.581   6.492 -1.9236  1.7499  2.4800
 5368SOL    HW227564   3.070   4.580   6.360 -0.0518 -2.1572 -0.4305
 5369SOL     OW27565   1.870   1.830   8.695  0.2136 -0.0382  0.7303
 5369SOL    HW127566   1.819   1.777   8.633 -3.1697  3.5251  0.4928
 5369SOL    HW227567   1.963   1.820   8.676 -0.0322  0.5845 -0.8055
 5370SOL     OW27568   3.453   0.440   1.520  0.0052 -0.1781  0.2455
 5370SOL    HW127569   3.456   0.400   1.607 -1.5758 -0.4700  0.1574
 5370SOL    HW227570   3.414   0.361   1.483  1.4436 -0.6533 -0.2525
 5371SOL     OW27571   1.205   0.732  17.684  0.0152  0.8012  0.1253
 5371SOL    HW127572   1.160   0.746  17.601 -2.1191 -0.4548  1.0613
 5371SOL    HW227573   1.139   0.759   0.052 -0.8949 -2.9407  0.7967
 5372SOL     OW27574   0.282   1.085   5.776 -0.5479 -0.1580  0.2281
 5372SOL    HW127575   0.350   1.102   5.841 -0.2912  0.3315 -0.1705
 5372SOL    HW227576   0.237   1.018   5.828  0.6378 -1.2130 -0.1180
 5373SOL     OW27577   0.130   3.969   5.128  0.1551  0.4196 -0.0941
 5373SOL    HW127578   0.063   3.971   5.196 -0.4517  0.6315 -0.6946
 5373SOL    HW227579   0.163   3.881   5.147  0.3847 -0.1011 -2.8929
 5374SOL     OW27580   1.844   3.643   6.912 -0.1441  0.3887 -0.3963
 5374SOL    HW127581   1.822   3.696   6.989 -2.1981  0.6137 -1.1271
 5374SOL    HW227582   1.893   3.572   6.954  0.3807  0.7296 -0.4480
 5375SOL     OW27583   0.268   1.196   3.668 -0.2835 -0.5994 -0.4435
 5375SOL    HW127584   0.225   1.281   3.676 -0.4927 -0.7523  0.0499
 5375SOL    HW227585   0.296   1.201   3.576 -2.0835  1.0369 -0.8905
 5376SOL     OW27586   4.208   3.941   2.670 -0.0710 -0.8491 -0.2525
 5376SOL    HW127587   4.278   4.000   2.643 -0.9708  0.8256  1.0593
 5376SOL    HW227588   4.240   3.858   2.635  2.0754 -1.6237  3.5702
 5377SOL     OW27589   4.322   1.601   8.390  0.2494 -0.1050  0.8787
 5377SOL    HW127590   4.414   1.621   8.405  0.0167  0.3002  1.7474
 5377SOL    HW227591   4.295   1.562   8.473  0.3871 -1.3633  0.3438
 5378SOL     OW27592   1.239   2.998   1.282 -0.3564 -0.3849  0.4723
 5378SOL    HW127593   1.248   3.079   1.332  2.2702  0.0286 -0.6524
 5378SOL    HW227594   1.149   2.991   1.253  0.1347  0.0388 -1.1763
 5379SOL     OW27595   1.130   2.825   0.842  0.6478 -0.2782 -0.5408
 5379SOL    HW127596   1.129   2.761   0.914 -0.3025 -1.6330 -1.7633
 5379SOL    HW227597   1.140   2.760   0.773 -1.5109 -2.9717  1.6718
 5380SOL     OW27598   1.133   3.797  11.914  0.5060 -0.3606 -0.0648
 5380SOL    HW127599   1.209   3.740  11.926  0.8421  0.0870 -0.0810
 5380SOL    HW227600   1.094   3.762  11.834 -1.3394 -2.5285  1.7812
 5381SOL     OW27601   0.326   3.040   4.988 -0.1806 -0.3126 -0.3643
 5381SOL    HW127602   0.358   2.995   4.910 -1.5377  0.6813 -1.5072
 5381SOL    HW227603   0.406   3.034   5.040 -0.8286 -1.2440  0.5381
 5382SOL     OW27604   1.689   2.612  10.595  0.5160 -0.3942 -0.2293
 5382SOL    HW127605   1.658   2.560  10.669  2.5380 -0.3416  0.6504
 5382SOL    HW227606   1.747   2.668  10.647  1.4384 -1.3138 -0.2793
 5383SOL     OW27607   1.865   3.676  17.319  0.4065  0.0276  0.0591
 5383SOL    HW127608   1.957   3.691  17.299  0.2430 -1.6587 -1.9933
 5383SOL    HW227609   1.873   3.593  17.364  4.2828  0.0819 -0.5128
 5384SOL     OW27610   1.210   4.356   3.636  0.0359  0.1984 -0.2700
 5384SOL    HW127611   1.289   4.403   3.609  0.5460 -1.0198 -0.9445
 5384SOL    HW227612   1.152   4.425   3.666  0.0732 -0.5618  1.5194
 5385SOL     OW27613   0.801   2.251  12.501  0.0524  0.5141  0.2792
 5385SOL    HW127614   0.864   2.185  12.472  1.3382  1.9962 -0.2926
 5385SOL    HW227615   0.859   2.326  12.512 -0.9321  0.9989  2.1804
 5386SOL     OW27616   3.547   1.299   4.155 -0.3066 -0.5381 -0.0285
 5386SOL    HW127617   3.460   1.295   4.195 -2.0302  1.0989 -3.5888
 5386SOL    HW227618   3.551   1.390   4.127 -2.7948 -0.5013 -0.2635
 5387SOL     OW27619   1.037   1.755  15.603 -0.3130  0.0572 -0.0214
 5387SOL    HW127620   0.962   1.738  15.660 -1.4015 -1.0912 -1.8004
 5387SOL    HW227621   0.996   1.816  15.542 -2.6411  0.6196  2.1458
 5388SOL     OW27622   0.275   3.658   2.343  0.3037 -0.3365  0.7941
 5388SOL    HW127623   0.211   3.680   2.275  0.2042 -2.0376  0.3387
 5388SOL    HW227624   0.260   3.564   2.348  0.6672 -0.5384 -1.6357
 5389SOL     OW27625   4.529   0.755  17.022 -0.1262  0.9464  0.1075
 5389SOL    HW127626   4.513   0.793  17.109  1.0720  0.3963  0.5772
 5389SOL    HW227627   4.488   0.819  16.964  0.1842  0.5619 -0.5258
 5390SOL     OW27628   1.269   1.446  17.668 -0.1324 -0.5667  0.2017
 5390SOL    HW127629   1.354   1.438  17.625 -0.1165 -1.2138  0.3540
 5390SOL    HW227630   1.264   1.357   0.007 -1.2176 -0.8341 -0.6266
 5391SOL     OW27631   2.179   1.962   9.170  0.1035  0.2437 -0.1089
 5391SOL    HW127632   2.130   1.968   9.252  0.5257  1.7109  0.0421
 5391SOL    HW227633   2.182   1.869   9.150 -3.6667 -0.3341  2.0502
 5392SOL     OW27634   4.686   1.007   1.911  0.4054  0.1913  0.0692
 5392SOL    HW127635   4.693   0.975   1.821  0.2982  0.2983  0.0228
 5392SOL    HW227636   4.669   0.924   1.955 -1.7188  0.8383  0.4605
 5393SOL     OW27637   1.773   0.823  16.827  0.0674 -0.9014 -0.2185
 5393SOL    HW127638   1.760   0.734  16.795  1.3448 -0.1733 -2.8286
 5393SOL    HW227639   1.694   0.862  16.789  0.7482 -0.9630 -1.7000
 5394SOL     OW27640   0.916   3.857   4.417  0.2422 -0.0078 -0.0399
 5394SOL    HW127641   0.965   3.939   4.419  0.8532 -0.3495 -1.0052
 5394SOL    HW227642   0.832   3.881   4.379 -0.3079 -2.6882 -0.4643
 5395SOL     OW27643   3.038   3.314  16.510  0.3291  0.3264  0.0019
 5395SOL    HW127644   3.020   3.225  16.480  2.6041  0.0396 -0.5367
 5395SOL    HW227645   3.046   3.311  16.605 -1.0267  0.7584  0.1332
 5396SOL     OW27646   3.727   3.464   2.888 -0.3520 -0.0703 -0.2055
 5396SOL    HW127647   3.784   3.515   2.830 -2.9047  2.9455 -0.1083
 5396SOL    HW227648   3.718   3.390   2.827  2.7146 -1.2131  0.7412
 5397SOL     OW27649   0.306   3.239   1.756 -0.0495 -0.0907  0.2366
 5397SOL    HW127650   0.345   3.238   1.669  0.7685  1.3137  0.5932
 5397SOL    HW227651   0.345   3.161   1.796  2.4357  1.8280  1.5505
 5398SOL     OW27652   3.714   2.386   6.224 -0.1541  0.0944 -0.2619
 5398SOL    HW127653   3.630   2.392   6.177 -1.2502  1.4167  1.8256
 5398SOL    HW227654   3.749   2.475   6.236  2.4302 -0.7559 -1.6021
 5399SOL     OW27655   2.272   1.587   9.403 -0.4312 -0.9944 -0.6457
 5399SOL    HW127656   2.196   1.615   9.352 -1.2573 -1.4735  0.3311
 5399SOL    HW227657   2.330   1.634   9.342  0.6111  0.3357  1.3696
 5400SOL     OW27658   3.959   0.449   8.785  1.0371  0.7621  0.7653
 5400SOL    HW127659   3.892   0.386   8.812 -0.5395  2.1979  0.2342
 5400SOL    HW227660   3.982   0.410   8.701  1.4431 -2.1016  2.1747
 5401SOL     OW27661   3.171   1.189   1.222  0.2875  0.7001 -0.2808
 5401SOL    HW127662   3.242   1.125   1.217 -1.0266 -0.8828  1.1776
 5401SOL    HW227663   3.170   1.211   1.315 -1.6965  1.7142 -0.5312
 5402SOL     OW27664   3.309   1.073   4.391  0.1867  0.2132  0.0090
 5402SOL    HW127665   3.223   1.031   4.383  0.8792 -0.4450 -4.2671
 5402SOL    HW227666   3.294   1.162   4.359  1.2035 -0.5850 -2.7615
 5403SOL     OW27667   3.454   0.900  17.518  0.3095  0.2778  0.3335
 5403SOL    HW127668   3.471   0.812  17.550 -1.7986  0.1455  1.0621
 5403SOL    HW227669   3.538   0.947  17.521  0.1589  0.6469 -1.0940
 5404SOL     OW27670   4.404   0.705  11.772  0.1083  0.1357  0.1703
 5404SOL    HW127671   4.331   0.656  11.810 -0.8647  0.9891 -0.5960
 5404SOL    HW227672   4.398   0.779  11.833  0.4872 -0.6605  1.1820
 5405SOL     OW27673   0.947   1.115   3.974  0.0755 -0.1837  0.1086
 5405SOL    HW127674   0.990   1.197   3.999  0.4472 -0.5544  0.6514
 5405SOL    HW227675   0.955   1.122   3.878  0.9835  1.1156  0.2704
 5406SOL     OW27676   0.486   3.349   1.914 -0.6062  0.4447  0.2846
 5406SOL    HW127677   0.433   3.366   1.992 -0.3919 -2.6221  1.0917
 5406SOL    HW227678   0.413   3.321   1.860 -1.9338  2.6763  0.9177
 5407SOL     OW27679   2.117   0.521   7.738 -0.0913 -0.0473 -0.2476
 5407SOL    HW127680   2.197   0.528   7.790  0.5296 -2.3338 -0.8989
 5407SOL    HW227681   2.057   0.548   7.807  1.2992  0.5719  0.7337
 5408SOL     OW27682   3.726   1.550   2.975  0.7101  0.1624  0.0676
 5408SOL    HW127683   3.654   1.586   3.026  0.0281  2.6127 -2.6592
 5408SOL    HW227684   3.762   1.496   3.046 -0.8077 -4.0298 -2.3500
 5409SOL     OW27685   4.579   3.860   7.628  0.3409  0.2723 -0.1171
 5409SOL    HW127686   4.548   3.950   7.639 -0.2676  0.4805 -3.6000
 5409SOL    HW227687   4.665   3.871   7.670 -0.0163 -0.8102  0.9077
 5410SOL     OW27688   1.800   0.735   5.755  0.1534 -0.3804  0.2414
 5410SOL    HW127689   1.803   0.821   5.714 -1.4030 -0.0119  0.9296
 5410SOL    HW227690   1.773   0.683   5.680 -2.5421  1.8376 -0.3030
 5411SOL     OW27691   3.626   4.262   3.278 -0.7542 -0.0442 -0.6494
 5411SOL    HW127692   3.709   4.271   3.232  0.1237 -1.2674  0.6882
 5411SOL    HW227693   3.576   4.341   3.258 -1.5743 -0.7970 -1.5121
 5412SOL     OW27694   3.622   0.293   2.290 -0.8334  0.2919  0.7178
 5412SOL    HW127695   3.550   0.354   2.302 -0.6217  0.8849 -1.0490
 5412SOL    HW227696   3.643   0.268   2.380  0.5951 -0.9329  0.0534
 5413SOL     OW27697   0.091   0.821  15.798  0.5489  0.2769 -0.3301
 5413SOL    HW127698   0.122   0.738  15.762 -0.1245 -0.5444  1.0346
 5413SOL    HW227699   0.001   0.803  15.824  0.1424  0.9112 -1.2942
 5414SOL     OW27700   2.720   4.178  11.454 -0.0648  0.4897  0.3675
 5414SOL    HW127701   2.812   4.163  11.477  0.1823 -0.3339 -1.2000
 5414SOL    HW227702   2.671   4.115  11.508  2.5335 -3.0560 -1.4085
 5415SOL     OW27703   2.242   1.307   9.271  0.7401  0.4028 -0.3392
 5415SOL    HW127704   2.203   1.313   9.184 -1.2373  1.6178  0.6363
 5415SOL    HW227705   2.296   1.385   9.283  0.3895  0.4946  0.6369
 5416SOL     OW27706   4.350   0.843   2.027 -0.0948 -0.2640 -0.3831
 5416SOL    HW127707   4.366   0.897   1.950 -0.7006 -1.5820 -1.4293
 5416SOL    HW227708   4.423   0.831   2.088  0.3686 -1.7202 -1.2382
 5417SOL     OW27709   4.065   4.055  13.511  0.0139  0.5587 -0.0880
 5417SOL    HW127710   3.972   4.043  13.492  0.1371 -0.2343 -0.1759
 5417SOL    HW227711   4.067   4.113  13.435  1.1657  0.7696  0.1043
 5418SOL     OW27712   1.062   0.668   6.153 -0.9050  0.2298 -0.5512
 5418SOL    HW127713   1.148   0.703   6.127  0.1147 -2.7290 -1.1337
 5418SOL    HW227714   1.023   0.647   6.068 -0.4600  1.8044 -1.1653
 5419SOL     OW27715   3.112   3.396  13.819 -0.0251  0.2367  0.5296
 5419SOL    HW127716   3.201   3.368  13.843  0.1737 -0.1979 -0.7116
 5419SOL    HW227717   3.058   3.367  13.892  0.7704 -1.6731  0.3609
 5420SOL     OW27718   1.385   3.413  10.121  0.0886 -0.6729 -0.0114
 5420SOL    HW127719   1.361   3.387  10.210 -2.8024  1.9988  0.0026
 5420SOL    HW227720   1.464   3.466  10.127 -0.7731  0.5302  0.7489
 5421SOL     OW27721   4.710   1.505   3.029  0.1181 -0.7862  0.0479
 5421SOL    HW127722   4.698   1.551   2.946  2.2487 -1.2384 -0.5138
 5421SOL    HW227723   4.656   1.427   3.017  0.3015 -0.8280 -0.5462
 5422SOL     OW27724   0.600   1.380   6.863  0.0734  0.0091 -0.2166
 5422SOL    HW127725   0.508   1.393   6.885 -0.4932 -1.5285 -1.6823
 5422SOL    HW227726   0.635   1.365   6.951 -2.6463 -0.4610  0.8090
 5423SOL     OW27727   1.142   1.402   7.925  0.5157 -0.2085 -0.3585
 5423SOL    HW127728   1.221   1.348   7.930  1.4969  1.0936 -1.9529
 5423SOL    HW227729   1.136   1.428   7.833  1.7476  2.6369  0.3944
 5424SOL     OW27730   0.710   3.933   3.872 -0.0684  0.0262 -0.5325
 5424SOL    HW127731   0.778   3.901   3.812  0.0817 -1.1016  0.2416
 5424SOL    HW227732   0.633   3.895   3.831  1.2998 -1.9528 -1.2708
 5425SOL     OW27733   2.862   1.845   6.699  0.4118  0.6342 -0.0846
 5425SOL    HW127734   2.900   1.872   6.616 -0.9718  2.0224 -0.2521
 5425SOL    HW227735   2.942   1.839   6.752  0.4625 -0.6552 -0.3133
 5426SOL     OW27736   4.132   2.625   3.320  0.4696  0.0192  0.0548
 5426SOL    HW127737   4.172   2.709   3.295 -1.0401  1.0130  1.0443
 5426SOL    HW227738   4.065   2.656   3.380  2.7735  3.4616  0.8835
 5427SOL     OW27739   2.025   1.116   1.069  0.4128 -0.3113 -0.1815
 5427SOL    HW127740   1.959   1.048   1.079  1.0683 -1.1007 -1.0726
 5427SOL    HW227741   2.026   1.151   1.157  1.4500 -0.6983 -0.0349
 5428SOL     OW27742   1.044   2.720   2.880 -0.1803 -0.4774 -0.0231
 5428SOL    HW127743   1.048   2.740   2.973 -0.6367  2.4530 -0.6335
 5428SOL    HW227744   1.105   2.784   2.843 -0.7313 -0.0203 -0.1397
 5429SOL     OW27745   1.773   4.533  12.947  0.2093 -0.1732 -0.2395
 5429SOL    HW127746   1.826   4.568  13.019  0.3496  2.7509 -1.7808
 5429SOL    HW227747   1.846   4.522  12.885  0.3563 -1.6083  0.1811
 5430SOL     OW27748   1.174   1.068   6.427  0.8289 -0.3931  0.3727
 5430SOL    HW127749   1.117   1.057   6.502  1.8729 -1.6072  0.9878
 5430SOL    HW227750   1.161   0.985   6.381 -1.7696  0.7832 -0.9941
 5431SOL     OW27751   1.588   3.929   0.404  0.2498  0.7089  0.1376
 5431SOL    HW127752   1.559   3.840   0.425 -2.1552  1.6776  0.9303
 5431SOL    HW227753   1.547   3.975   0.478  0.3828  0.0463  0.6241
 5432SOL     OW27754   2.303   1.340  12.379 -0.0292  0.0588  0.6076
 5432SOL    HW127755   2.286   1.247  12.391 -2.4556  0.3437 -0.6204
 5432SOL    HW227756   2.214   1.375  12.378 -0.1272 -0.2200 -2.2710
 5433SOL     OW27757   1.076   2.733   9.770 -0.0418 -0.1613  0.0535
 5433SOL    HW127758   1.066   2.655   9.825  0.5010  0.5385  1.1545
 5433SOL    HW227759   1.019   2.725   9.694  1.4912 -2.5966 -0.8219
 5434SOL     OW27760   1.585   0.460  15.672 -0.0053  0.0195 -0.1020
 5434SOL    HW127761   1.492   0.449  15.688 -0.1838 -0.3986 -1.4971
 5434SOL    HW227762   1.620   0.463  15.761 -1.0056 -5.4499  0.4716
 5435SOL     OW27763   0.680   2.544   6.642  0.0060 -0.0274 -0.5913
 5435SOL    HW127764   0.700   2.461   6.684  2.8564  1.0889  0.2981
 5435SOL    HW227765   0.748   2.596   6.687 -1.5895  0.7446  0.9275
 5436SOL     OW27766   3.719   3.936   5.265 -0.0220  0.7420  0.1183
 5436SOL    HW127767   3.765   4.014   5.233 -0.6060  0.8944 -0.3692
 5436SOL    HW227768   3.776   3.924   5.341  0.0610  1.3785  0.1545
 5437SOL     OW27769   3.308   3.585   6.984 -0.5891 -0.0174 -0.4984
 5437SOL    HW127770   3.223   3.564   7.022  1.5131 -0.8888  3.6877
 5437SOL    HW227771   3.340   3.496   6.966 -0.3893 -0.6319  2.8371
 5438SOL     OW27772   3.510   4.677  12.059  0.6089 -0.2345  0.6106
 5438SOL    HW127773   3.481   4.614  11.993  3.8893  0.8146 -1.8503
 5438SOL    HW227774   3.468   4.662  12.144  0.0991  1.3163  0.6341
 5439SOL     OW27775   2.539   1.781   3.753  0.6806 -0.2972 -0.2533
 5439SOL    HW127776   2.551   1.751   3.663 -1.9977 -2.2794  0.0430
 5439SOL    HW227777   2.539   1.696   3.798 -2.0787 -0.3988 -0.4555
 5440SOL     OW27778   2.165   2.223   3.591  0.2492 -0.6948  0.1049
 5440SOL    HW127779   2.206   2.296   3.545 -0.3757 -0.5656 -0.2399
 5440SOL    HW227780   2.132   2.262   3.672  1.4185 -0.5101  0.4978
 5441SOL     OW27781   3.625   0.509   1.792  0.2297 -0.0204  0.2347
 5441SOL    HW127782   3.543   0.547   1.822 -0.7052 -0.8150 -1.2935
 5441SOL    HW227783   3.676   0.507   1.873  2.0597 -0.9894 -0.9251
 5442SOL     OW27784   1.119   3.328  16.751 -0.7720 -0.1024  0.2346
 5442SOL    HW127785   1.175   3.254  16.775  1.1988  1.3288  0.0307
 5442SOL    HW227786   1.184   3.391  16.722 -2.0546  1.3810  0.5851
 5443SOL     OW27787   0.500   1.624   2.309  0.2394 -0.3727 -0.5619
 5443SOL    HW127788   0.481   1.676   2.388  0.0412  0.0675 -0.9014
 5443SOL    HW227789   0.413   1.585   2.298 -0.3783  0.8808 -0.1134
 5444SOL     OW27790   2.948   3.873  17.363 -0.5085 -0.7556 -0.2167
 5444SOL    HW127791   2.881   3.877  17.295 -0.2452 -1.4128 -0.5166
 5444SOL    HW227792   2.987   3.786  17.359  2.2948  0.4138  1.1344
 5445SOL     OW27793   4.662   2.161   2.908  0.5525 -0.2488  0.3446
 5445SOL    HW127794   4.656   2.252   2.880  0.2293 -0.1022  0.9064
 5445SOL    HW227795   4.593   2.148   2.972 -1.3214  3.6019 -0.9416
 5446SOL     OW27796   3.562   1.187  10.529  0.6965 -0.1081 -0.8660
 5446SOL    HW127797   3.468   1.204  10.532  1.4231  3.5876  0.9667
 5446SOL    HW227798   3.592   1.263  10.579 -2.4826  1.3910 -1.1922
 5447SOL     OW27799   2.782   1.046   7.510 -0.3239  0.0905 -0.9439
 5447SOL    HW127800   2.865   1.068   7.552 -1.6277 -0.9750  2.1892
 5447SOL    HW227801   2.798   1.076   7.421  0.3381  1.5089 -0.3574
 5448SOL     OW27802   0.512   3.091  14.330  0.6195  1.0812  0.2539
 5448SOL    HW127803   0.467   3.118  14.250 -2.0203  0.3904  1.4992
 5448SOL    HW227804   0.581   3.029  14.306 -1.2646 -1.4811  1.4600
 5449SOL     OW27805   3.606   3.422   5.075  0.4600 -0.0189 -0.7313
 5449SOL    HW127806   3.565   3.377   5.002 -1.7511 -1.4025  1.3543
 5449SOL    HW227807   3.596   3.510   5.039 -0.6238  0.3697  0.5086
 5450SOL     OW27808   1.500   4.525   7.348 -0.0837  0.5239  0.0788
 5450SOL    HW127809   1.494   4.429   7.348 -1.7147  0.6116  0.9685
 5450SOL    HW227810   1.409   4.553   7.364  0.7521  2.7987  0.8644
 5451SOL     OW27811   1.807   0.439   8.815  0.3980 -0.2570  0.2061
 5451SOL    HW127812   1.842   0.497   8.883 -0.9227  0.3678  0.3490
 5451SOL    HW227813   1.718   0.473   8.812  0.0248 -1.1929  0.7796
 5452SOL     OW27814   2.914   1.961   2.919  0.3907 -0.8990  0.1089
 5452SOL    HW127815   2.938   2.035   2.974  1.9390  0.4053 -2.3149
 5452SOL    HW227816   2.908   1.896   2.990 -0.6818 -0.1689  0.6777
 5453SOL     OW27817   0.214   2.100  10.467 -0.1989  0.1814 -0.2874
 5453SOL    HW127818   0.170   2.180  10.495 -1.2069  0.3475 -2.3055
 5453SOL    HW227819   0.142   2.041  10.444  0.1472 -0.3113 -0.1002
 5454SOL     OW27820   4.309   0.324   7.656  0.0329  0.1285 -0.4522
 5454SOL    HW127821   4.300   0.236   7.693  1.4376  1.2389  2.6070
 5454SOL    HW227822   4.265   0.321   7.571 -0.8817  0.3123  0.0120
 5455SOL     OW27823   0.515   4.301   1.850 -0.2185  0.2157 -0.3772
 5455SOL    HW127824   0.590   4.248   1.825 -1.0867 -1.0709 -0.2513
 5455SOL    HW227825   0.530   4.307   1.945  1.5537  0.5068 -0.6774
 5456SOL     OW27826   3.955   2.280   5.645 -0.0459  0.4510  0.1863
 5456SOL    HW127827   3.952   2.374   5.663 -2.6397  1.0309 -3.2388
 5456SOL    HW227828   4.039   2.257   5.605 -0.4068  1.1561 -0.9947
 5457SOL     OW27829   2.660   4.339   6.077  0.4622  0.2312 -0.1868
 5457SOL    HW127830   2.646   4.418   6.130  0.8111 -1.2246  2.1050
 5457SOL    HW227831   2.648   4.269   6.142  0.6878  0.1708 -0.2097
 5458SOL     OW27832   2.151   2.852   3.795  0.1437  0.1054  0.4771
 5458SOL    HW127833   2.186   2.940   3.781  1.0037 -0.0512  1.6740
 5458SOL    HW227834   2.060   2.864   3.766  0.6003  0.0061 -0.9630
 5459SOL     OW27835   3.087   0.155   8.561 -0.0032  0.9815 -0.0680
 5459SOL    HW127836   3.150   0.184   8.495 -0.1957 -1.4189 -1.3002
 5459SOL    HW227837   3.144   0.089   8.599 -1.5451 -0.0913  0.3987
 5460SOL     OW27838   2.564   1.536   7.760 -0.6189 -0.5540  0.2469
 5460SOL    HW127839   2.548   1.569   7.671 -0.2066 -0.0732  0.3533
 5460SOL    HW227840   2.626   1.466   7.735  1.5881  1.2785  0.5648
 5461SOL     OW27841   0.544   4.449   2.154  0.2111  0.2887 -0.1098
 5461SOL    HW127842   0.540   4.355   2.170 -3.3296  0.1372 -2.0833
 5461SOL    HW227843   0.458   4.460   2.113 -0.1969 -0.4309  0.5512
 5462SOL     OW27844   0.698   3.042   1.718 -0.3403 -0.0975  0.1039
 5462SOL    HW127845   0.626   3.011   1.774 -0.4377 -0.3544 -0.1639
 5462SOL    HW227846   0.648   3.103   1.665  0.0943 -0.2965 -0.5343
 5463SOL     OW27847   1.555   4.142   4.640  0.2022  0.0052  0.3165
 5463SOL    HW127848   1.597   4.129   4.556 -0.4299 -1.6290  0.2396
 5463SOL    HW227849   1.631   4.134   4.697 -0.6468 -0.3795  1.4173
 5464SOL     OW27850   4.162   1.674   5.223 -0.0992 -0.0099  0.1708
 5464SOL    HW127851   4.196   1.755   5.261 -1.3940  0.5475  0.1326
 5464SOL    HW227852   4.128   1.705   5.139 -1.3622 -2.8737 -0.3628
 5465SOL     OW27853   3.253   4.625   5.195 -0.2587 -0.2603 -0.2243
 5465SOL    HW127854   3.247   4.720   5.193  0.5683 -0.2063 -0.1027
 5465SOL    HW227855   3.170   4.602   5.153 -1.3098 -0.4867  1.9814
 5466SOL     OW27856   0.717   4.464   8.119  0.1049  0.5993  0.0015
 5466SOL    HW127857   0.776   4.532   8.152 -0.2400  1.3074 -0.8387
 5466SOL    HW227858   0.778   4.394   8.095  0.1393  0.2841  0.9758
 5467SOL     OW27859   2.135   4.409   0.137  0.7421 -0.3210 -0.9007
 5467SOL    HW127860   2.190   4.342   0.177  2.3925  1.3858 -0.2681
 5467SOL    HW227861   2.046   4.375   0.137  0.1876  1.1067 -0.5474
 5468SOL     OW27862   1.435   2.771   7.734  0.1440 -0.6448 -0.2635
 5468SOL    HW127863   1.438   2.776   7.829 -0.0852  1.1553 -0.3555
 5468SOL    HW227864   1.445   2.676   7.725 -3.3584 -1.1141  0.9601
 5469SOL     OW27865   2.894   4.456   1.565  0.2661 -0.3789  0.4457
 5469SOL    HW127866   2.920   4.374   1.524  0.7176  1.3502 -2.7569
 5469SOL    HW227867   2.943   4.517   1.510 -0.1583 -1.2710 -0.9045
 5470SOL     OW27868   3.721   2.321   7.469  0.8108  0.3432  0.1224
 5470SOL    HW127869   3.779   2.262   7.422 -1.2028 -1.7828  0.2932
 5470SOL    HW227870   3.780   2.392   7.495  0.0243  0.7771  0.7205
 5471SOL     OW27871   0.371   3.249   5.321  0.3256  0.0265 -0.2332
 5471SOL    HW127872   0.395   3.158   5.339 -4.0521 -1.2876 -1.1542
 5471SOL    HW227873   0.365   3.284   5.410  0.9179 -1.1498  0.2703
 5472SOL     OW27874   3.623   0.578   6.072  0.3657  0.1309 -0.0797
 5472SOL    HW127875   3.583   0.499   6.108  2.2111  0.2274  2.1604
 5472SOL    HW227876   3.563   0.647   6.101  2.6818  2.7332 -1.4065
 5473SOL     OW27877   3.861   4.371   7.889 -0.1708  0.0831  0.4733
 5473SOL    HW127878   3.864   4.429   7.966 -2.4843  0.8764 -0.0354
 5473SOL    HW227879   3.873   4.439   7.822 -1.6734 -0.9634 -0.8689
 5474SOL     OW27880   0.455   4.085  15.716 -0.3185  0.1448  0.7690
 5474SOL    HW127881   0.505   4.159  15.750  0.5524 -0.2148  0.2664
 5474SOL    HW227882   0.373   4.131  15.696 -1.4417 -2.9745 -1.9937
 5475SOL     OW27883   4.653   3.912   7.904  0.0974  0.0021 -0.0515
 5475SOL    HW127884   4.566   3.894   7.869 -0.1893 -1.8876  1.6194
 5475SOL    HW227885   4.651   4.003   7.932  0.5654 -0.7834  2.5017
 5476SOL     OW27886   1.543   2.009   1.696  0.2596  0.7149  0.1438
 5476SOL    HW127887   1.524   1.961   1.615 -0.3452  0.8311  0.2166
 5476SOL    HW227888   1.595   2.081   1.662 -0.2821  1.2695  0.4834
 5477SOL     OW27889   1.547   0.519  13.101  0.1569  0.5731  0.0062
 5477SOL    HW127890   1.582   0.604  13.072  0.5138  0.8765  1.3136
 5477SOL    HW227891   1.542   0.526  13.197 -0.4566  1.3344 -0.0758
 5478SOL     OW27892   4.356   3.659   8.535  0.4163  0.5808  0.4237
 5478SOL    HW127893   4.334   3.750   8.513  1.5695  1.0016  1.0278
 5478SOL    HW227894   4.450   3.653   8.520  0.7158  1.3525  2.0114
 5479SOL     OW27895   0.417   1.648   6.667  0.4301 -0.3335 -0.3195
 5479SOL    HW127896   0.408   1.553   6.655  3.0956 -0.6481  0.0534
 5479SOL    HW227897   0.429   1.669   6.574 -1.2844 -0.0341 -0.4766
 5480SOL     OW27898   0.216   1.553  15.190  0.7999  0.3836 -0.3764
 5480SOL    HW127899   0.261   1.469  15.181 -1.7613 -0.7175 -2.8253
 5480SOL    HW227900   0.285   1.616  15.207  1.0403 -0.3881  1.5135
 5481SOL     OW27901   2.312   1.873   4.519 -0.1547  0.7333  0.3329
 5481SOL    HW127902   2.344   1.837   4.602  1.3226  0.1946 -0.4771
 5481SOL    HW227903   2.281   1.961   4.541  0.3251  1.0690 -0.3569
 5482SOL     OW27904   1.638   2.578   2.255 -0.3930  0.2932  0.4856
 5482SOL    HW127905   1.687   2.594   2.175 -0.0439  2.3433  1.0990
 5482SOL    HW227906   1.560   2.634   2.248 -0.8111 -0.1090  1.9261
 5483SOL     OW27907   3.720   2.986   8.526 -0.3285  0.1389 -0.1394
 5483SOL    HW127908   3.726   3.062   8.585  0.4077  0.6715 -0.9138
 5483SOL    HW227909   3.752   2.916   8.582 -0.0176 -0.0626 -0.5738
 5484SOL     OW27910   2.297   2.274   2.546  0.0630  0.2575  0.3252
 5484SOL    HW127911   2.359   2.267   2.473 -0.1409  2.2925 -0.0432
 5484SOL    HW227912   2.318   2.200   2.602 -0.9452  0.7478  1.3433
 5485SOL     OW27913   2.972   1.198   7.645  0.2789 -0.4905 -0.0014
 5485SOL    HW127914   3.029   1.160   7.712  0.4126 -0.4751 -0.1054
 5485SOL    HW227915   3.016   1.189   7.560 -1.2990 -1.9118 -0.6505
 5486SOL     OW27916   4.601   1.821  16.747  0.0727  0.0810  0.7179
 5486SOL    HW127917   4.506   1.830  16.740  0.1257 -2.0418 -3.2157
 5486SOL    HW227918   4.634   1.894  16.695 -1.9636  0.2023 -0.4214
 5487SOL     OW27919   0.883   2.801   3.162 -0.2998  0.9646 -0.1146
 5487SOL    HW127920   0.969   2.843   3.160 -1.4812  3.3923  0.6523
 5487SOL    HW227921   0.912   2.709   3.163 -0.5751  0.8737 -0.5020
 5488SOL     OW27922   0.997   3.062   8.057  0.2806 -0.0316  0.3348
 5488SOL    HW127923   0.952   3.140   8.089  1.3769  0.0881  1.5862
 5488SOL    HW227924   1.005   3.014   8.139  0.3379 -1.2273 -0.3658
 5489SOL     OW27925   0.551   2.636   5.810  0.3229  0.2984 -0.0787
 5489SOL    HW127926   0.562   2.709   5.871 -0.2059  0.7131 -0.4811
 5489SOL    HW227927   0.469   2.600   5.845 -0.8103  0.6870 -2.3544
 5490SOL     OW27928   1.719   1.085   2.838 -0.1514  0.3718 -0.0252
 5490SOL    HW127929   1.642   1.032   2.817  0.6458 -0.2387 -1.3863
 5490SOL    HW227930   1.691   1.135   2.915 -0.9229 -1.5163  0.9211
 5491SOL     OW27931   1.547   3.825   4.719  0.6448  0.4077  0.1239
 5491SOL    HW127932   1.459   3.839   4.686  0.2264  0.6639  1.3492
 5491SOL    HW227933   1.587   3.790   4.639 -0.3649 -0.5072  0.0229
 5492SOL     OW27934   4.363   4.426  11.113  0.3865  0.8155 -0.2992
 5492SOL    HW127935   4.389   4.338  11.139  0.4515  0.5716 -1.1899
 5492SOL    HW227936   4.299   4.414  11.044 -0.8367  1.7125  0.6773
 5493SOL     OW27937   4.401   0.155   6.969  0.4889 -0.2422 -0.6347
 5493SOL    HW127938   4.392   0.248   6.947 -0.0988 -0.1268  0.1040
 5493SOL    HW227939   4.313   0.120   6.983  0.7101 -0.1986  0.9338
 5494SOL     OW27940   4.406   2.523  12.531 -0.0429 -0.2951 -0.1868
 5494SOL    HW127941   4.337   2.472  12.490  0.5435  0.5043 -2.1636
 5494SOL    HW227942   4.374   2.612  12.514 -0.8571 -0.5771 -0.1016
 5495SOL     OW27943   2.045   3.960  12.992  0.2889  0.5842  0.0121
 5495SOL    HW127944   2.098   3.987  13.068  1.0152 -2.2306  0.5150
 5495SOL    HW227945   1.961   4.004  13.004 -0.6006 -0.9069 -0.7798
 5496SOL     OW27946   3.003   4.665  14.160  0.1775 -0.3363 -0.0317
 5496SOL    HW127947   2.973   0.033  14.161 -2.1172 -1.0729 -2.5870
 5496SOL    HW227948   3.028   4.653  14.068  0.4156  2.0726 -0.2802
 5497SOL     OW27949   4.025   1.992   3.881  0.2078  0.1610 -0.1374
 5497SOL    HW127950   3.963   2.022   3.814  0.3308  1.1008  0.1682
 5497SOL    HW227951   4.086   1.945   3.825  2.1229  1.3302  0.9984
 5498SOL     OW27952   2.382   0.325  17.311 -0.0764  0.2919  0.5321
 5498SOL    HW127953   2.340   0.241  17.332 -0.7767  0.3385 -0.6654
 5498SOL    HW227954   2.424   0.338  17.396 -0.8941 -0.9138  1.1180
 5499SOL     OW27955   0.076   0.332   2.967  0.0064 -0.1403 -0.4778
 5499SOL    HW127956   0.032   0.350   3.050 -0.6889 -0.4841 -0.7703
 5499SOL    HW227957   0.155   0.285   2.991 -0.0586 -0.9770 -1.8527
 5500SOL     OW27958   2.001   1.355   0.596 -0.5243  0.1465 -0.0296
 5500SOL    HW127959   2.016   1.308   0.677 -1.9167 -1.9777 -0.9950
 5500SOL    HW227960   1.906   1.346   0.595 -0.8293  3.5908 -1.1908
 5501SOL     OW27961   2.947   4.603   0.738 -0.1257  0.2217 -0.0798
 5501SOL    HW127962   3.023   4.661   0.736 -0.5910  0.8800  0.9065
 5501SOL    HW227963   2.891   4.652   0.678 -2.7553 -0.6404  1.6691
 5502SOL     OW27964   3.219   2.292   5.410 -0.0980 -0.4741  0.0829
 5502SOL    HW127965   3.234   2.197   5.407 -0.5790 -0.4771 -1.9002
 5502SOL    HW227966   3.229   2.318   5.319  1.3014 -0.8319  0.1358
 5503SOL     OW27967   1.406   0.493  15.332  0.1237  0.3065  0.2881
 5503SOL    HW127968   1.434   0.441  15.256 -1.1074  0.9716 -0.6279
 5503SOL    HW227969   1.367   0.567  15.286 -0.5695 -0.8868 -1.0521
 5504SOL     OW27970   2.617   4.304   7.671 -0.0909 -0.6530 -0.2988
 5504SOL    HW127971   2.574   4.298   7.585  1.2151 -0.4654 -0.9579
 5504SOL    HW227972   2.702   4.266   7.650  0.7329  2.2285 -2.1651
 5505SOL     OW27973   4.142   1.953  13.916  0.3208  0.8473  0.0277
 5505SOL    HW127974   4.217   1.990  13.869 -0.8283  0.0704 -2.4593
 5505SOL    HW227975   4.176   1.890  13.979 -0.3958 -0.1820 -0.6113
 5506SOL     OW27976   4.451   4.334   9.200 -0.3039  0.0035  0.0133
 5506SOL    HW127977   4.511   4.366   9.132  0.5462  0.7372  1.1153
 5506SOL    HW227978   4.479   4.395   9.267 -2.0799  0.0253  0.7271
 5507SOL     OW27979   3.249   1.330   9.413 -0.4231  0.2562 -0.4907
 5507SOL    HW127980   3.169   1.340   9.360  0.0211  1.0046 -1.0285
 5507SOL    HW227981   3.316   1.334   9.345  0.6590 -1.7378  0.4704
 5508SOL     OW27982   1.424   0.112  11.352 -0.4260  0.3375 -0.6034
 5508SOL    HW127983   1.401   0.205  11.350  0.9546  0.7025  0.7087
 5508SOL    HW227984   1.513   0.115  11.387 -0.5619 -0.3920 -0.1914
 5509SOL     OW27985   0.650   2.275  13.001 -0.2260 -0.1581 -0.2089
 5509SOL    HW127986   0.586   2.267  13.073 -1.3828  1.5563 -1.0625
 5509SOL    HW227987   0.712   2.333  13.045  0.8791  0.5047 -2.6852
 5510SOL     OW27988   0.814   2.826   1.857 -0.7192  0.3287  0.4750
 5510SOL    HW127989   0.823   2.856   1.766 -1.7354 -0.4455  0.1150
 5510SOL    HW227990   0.725   2.791   1.866  0.2595 -2.2031  0.2926
 5511SOL     OW27991   3.037   3.847   5.382  0.2895  0.5055 -0.2105
 5511SOL    HW127992   2.986   3.836   5.462 -0.3583  1.7938 -0.4466
 5511SOL    HW227993   3.086   3.765   5.373  0.6011  1.0523 -3.3965
 5512SOL     OW27994   4.394   1.660   2.618 -0.2202 -0.2257 -0.8108
 5512SOL    HW127995   4.469   1.607   2.591 -0.1756 -0.6160  0.0684
 5512SOL    HW227996   4.328   1.597   2.647  0.2573 -0.4055 -0.1088
 5513SOL     OW27997   1.910   4.148   2.830  0.3350 -0.1587  0.0782
 5513SOL    HW127998   1.856   4.073   2.806  0.1999 -0.5380  1.5567
 5513SOL    HW227999   1.994   4.126   2.790  0.5378 -0.8202  0.8628
 5514SOL     OW28000   1.271   2.803   8.310  0.3732  0.0916  0.3939
 5514SOL    HW128001   1.331   2.868   8.345 -0.1771  0.2128  1.1132
 5514SOL    HW228002   1.202   2.852   8.266  0.4467 -0.7299 -0.6528
 5515SOL     OW28003   4.655   1.903  13.944  0.2992 -0.1551  0.0350
 5515SOL    HW128004   4.677   1.819  13.984  2.0202  0.4317  0.3187
 5515SOL    HW228005   0.020   1.939  13.939  1.9242 -4.3616 -1.3867
 5516SOL     OW28006   2.592   0.160   6.308 -0.5047  0.4443 -0.3538
 5516SOL    HW128007   2.600   0.132   6.399 -2.5588  0.5345 -0.1401
 5516SOL    HW228008   2.503   0.193   6.299 -0.7779 -0.2126 -0.0322
 5517SOL     OW28009   0.273   3.188  16.705 -0.4758  0.2365 -0.4119
 5517SOL    HW128010   0.211   3.118  16.686 -1.3839  0.8173  0.4351
 5517SOL    HW228011   0.233   3.235  16.779 -0.1968  1.3993 -1.0085
 5518SOL     OW28012   4.513   0.359   3.005 -0.1627  0.0962  0.4867
 5518SOL    HW128013   4.522   0.353   3.100 -2.3434  2.1352  0.8360
 5518SOL    HW228014   4.458   0.282   2.988 -1.3912  0.8432  1.0432
 5519SOL     OW28015   3.478   2.870  17.587 -0.3464 -0.6739 -0.2257
 5519SOL    HW128016   3.492   2.881  17.681 -0.1335 -1.2135 -0.1931
 5519SOL    HW228017   3.541   2.807  17.552  0.3855  0.0576 -0.2187
 5520SOL     OW28018   1.121   1.642   1.783  0.2406  0.1040  0.2061
 5520SOL    HW128019   1.157   1.592   1.710  0.6002 -1.3765  1.4020
 5520SOL    HW228020   1.171   1.723   1.771  0.1328 -0.0406 -1.2600
 5521SOL     OW28021   2.030   2.047   6.514  0.1254 -0.3847  0.1664
 5521SOL    HW128022   1.969   2.064   6.442 -2.8449 -0.4285  2.6687
 5521SOL    HW228023   2.051   2.127   6.562  1.9251 -0.1942 -0.9361
 5522SOL     OW28024   4.415   4.381  16.465 -0.5793  0.2825 -0.2833
 5522SOL    HW128025   4.385   4.310  16.408 -0.7384 -1.0448  1.4197
 5522SOL    HW228026   4.342   4.442  16.453  0.2009  1.4247  0.7648
 5523SOL     OW28027   0.722   4.689   6.599 -0.4152 -0.3614  0.2243
 5523SOL    HW128028   0.651   4.718   6.542  1.1481 -2.5823 -2.8651
 5523SOL    HW228029   0.751   4.607   6.557 -3.0207 -0.7524 -0.8400
 5524SOL     OW28030   3.536   2.268  14.639 -0.0432 -0.1875  0.3506
 5524SOL    HW128031   3.625   2.275  14.602 -0.9031  0.4387 -1.5964
 5524SOL    HW228032   3.568   2.231  14.721  0.4192  0.2740  0.3833
 5525SOL     OW28033   1.286   3.715   3.010  0.3762 -0.2750  0.2390
 5525SOL    HW128034   1.317   3.745   3.095  2.2211 -1.6276  0.0428
 5525SOL    HW228035   1.273   3.798   2.964 -0.5655 -1.7966 -2.2672
 5526SOL     OW28036   2.663   3.444   0.499 -0.5345 -0.5982  0.2819
 5526SOL    HW128037   2.571   3.425   0.482 -1.7009  4.0151  1.5666
 5526SOL    HW228038   2.694   3.401   0.419  1.2581  0.3975  0.4492
 5527SOL     OW28039   2.903   3.793   0.307  0.1781  0.2298 -0.2488
 5527SOL    HW128040   2.940   3.881   0.300 -2.6404  1.5137  1.1977
 5527SOL    HW228041   2.941   3.751   0.229 -0.0585 -3.3141  1.5286
 5528SOL     OW28042   1.822   2.427   5.154  0.2276  0.4316 -0.2192
 5528SOL    HW128043   1.782   2.427   5.241  2.6309  0.2449  0.8733
 5528SOL    HW228044   1.824   2.521   5.134 -1.8156  0.5910  0.3612
 5529SOL     OW28045   2.521   2.105  17.353 -0.0209 -0.3943  0.4511
 5529SOL    HW128046   2.598   2.094  17.409  0.0466  1.2604  0.6701
 5529SOL    HW228047   2.470   2.027  17.372 -0.9506 -0.3757 -1.9309
 5530SOL     OW28048   4.048   0.393   9.078 -0.0416 -0.1245 -0.1000
 5530SOL    HW128049   3.991   0.317   9.071  0.6787 -0.6855  0.1115
 5530SOL    HW228050   4.041   0.433   8.992  0.2147  0.0051 -0.0630
 5531SOL     OW28051   0.317   4.063   3.495 -0.0389 -0.0493 -0.2934
 5531SOL    HW128052   0.394   4.043   3.442 -1.0718 -3.1530 -0.6721
 5531SOL    HW228053   0.359   4.078   3.580 -0.1178 -0.3099 -0.2078
 5532SOL     OW28054   0.615   2.101   2.756 -0.6029  0.2143 -0.2681
 5532SOL    HW128055   0.611   2.088   2.850 -0.2887 -0.8870 -0.4087
 5532SOL    HW228056   0.677   2.040   2.715 -2.0528 -1.2369 -0.2678
 5533SOL     OW28057   1.814   4.440  12.545  0.2982 -0.1144 -0.4557
 5533SOL    HW128058   1.891   4.383  12.545  0.9167  0.7270  2.1165
 5533SOL    HW228059   1.853   4.524  12.567 -0.7172  0.3133 -0.2756
 5534SOL     OW28060   2.083   3.082  13.208  0.1552 -0.3248 -0.3785
 5534SOL    HW128061   2.172   3.091  13.175 -0.3895 -0.3090 -1.8333
 5534SOL    HW228062   2.098   3.093  13.302  0.2544 -0.5036 -0.3751
 5535SOL     OW28063   0.467   2.994   4.122 -0.2180 -0.4011  0.2449
 5535SOL    HW128064   0.521   2.921   4.154 -2.1023 -0.3353  3.5360
 5535SOL    HW228065   0.411   2.944   4.063  1.2319 -1.3823 -0.3117
 5536SOL     OW28066   2.361   0.942  15.890 -0.1945 -0.0891 -0.2443
 5536SOL    HW128067   2.378   0.917  15.980  1.4242 -2.6675 -1.2615
 5536SOL    HW228068   2.450   0.942  15.854 -0.9671 -3.9034 -2.2546
 5537SOL     OW28069   0.667   1.078   5.047  0.0281 -0.0469  0.7874
 5537SOL    HW128070   0.693   1.168   5.066 -1.3585  0.6091 -0.4977
 5537SOL    HW228071   0.731   1.064   4.977 -0.6032  0.0794  0.1943
 5538SOL     OW28072   4.534   3.653   8.071 -0.1505  0.0398 -0.2823
 5538SOL    HW128073   4.585   3.712   8.127 -0.0384 -0.6351  0.3151
 5538SOL    HW228074   4.526   3.706   7.991  1.2240  1.9232  0.8399
 5539SOL     OW28075   1.514   3.683   2.809  0.0973 -0.6101  0.1209
 5539SOL    HW128076   1.552   3.740   2.875 -1.8522  2.0805 -1.0571
 5539SOL    HW228077   1.428   3.667   2.845 -0.4883 -0.9128 -1.3919
 5540SOL     OW28078   1.053   1.494   7.403 -0.5428 -0.3713  0.1561
 5540SOL    HW128079   1.020   1.407   7.424 -0.1387 -0.2419  1.2881
 5540SOL    HW228080   1.142   1.485   7.369  0.0576 -0.1746  1.6867
 5541SOL     OW28081   1.166   1.463   7.659 -0.2428 -0.2810  0.4464
 5541SOL    HW128082   1.072   1.453   7.643  0.2105 -1.3777 -1.5094
 5541SOL    HW228083   1.193   1.552   7.635 -2.7788  0.5510  0.6630
 5542SOL     OW28084   1.042   3.101   0.509 -0.2771 -0.1586  0.1195
 5542SOL    HW128085   0.988   3.026   0.534  1.6375 -1.1273  1.3493
 5542SOL    HW228086   0.968   3.151   0.474  0.8664  0.3493 -1.5339
 5543SOL     OW28087   1.904   0.707   1.445  0.1838 -0.0836 -0.2775
 5543SOL    HW128088   1.912   0.736   1.536 -0.2846  2.0217 -0.9030
 5543SOL    HW228089   1.840   0.773   1.418  0.1997  0.3043  0.6251
 5544SOL     OW28090   0.347   1.100  17.627 -0.0548  0.6446  0.2111
 5544SOL    HW128091   0.351   1.066   0.021 -1.5433 -0.8510 -0.2897
 5544SOL    HW228092   0.380   1.190  17.634  0.8844  0.3785 -0.7066
 5545SOL     OW28093   1.664   3.848   3.469 -0.0935  0.0391  0.1072
 5545SOL    HW128094   1.656   3.920   3.406 -0.0359  0.0090  0.0655
 5545SOL    HW228095   1.728   3.797   3.420  0.8506  1.1232  0.2037
 5546SOL     OW28096   2.653   0.625   7.031 -0.0858  0.0259  0.1046
 5546SOL    HW128097   2.647   0.536   6.997  0.3687  0.2632 -0.6026
 5546SOL    HW228098   2.744   0.611   7.059 -0.9903 -2.7788  1.5762
 5547SOL     OW28099   4.613   0.415  15.640 -0.3534  0.1899  0.2219
 5547SOL    HW128100   4.575   0.488  15.591  2.0923 -0.1645 -2.2046
 5547SOL    HW228101   4.695   0.423  15.591  0.3125 -2.1301  0.9344
 5548SOL     OW28102   3.482   3.571   4.050 -0.0472  0.3073  0.2415
 5548SOL    HW128103   3.544   3.612   4.110  1.2944 -2.8902  1.0178
 5548SOL    HW228104   3.418   3.535   4.111 -1.2263 -0.6636 -1.5886
 5549SOL     OW28105   0.958   3.433   6.365  0.4186 -0.7349 -0.1021
 5549SOL    HW128106   0.944   3.505   6.426  2.8315 -0.6259  0.3216
 5549SOL    HW228107   0.969   3.480   6.282  0.2383  0.0676  0.3309
 5550SOL     OW28108   3.100   3.928   9.490  0.1931 -0.2174  0.3345
 5550SOL    HW128109   3.135   3.956   9.574 -0.0004  1.5686 -0.1747
 5550SOL    HW228110   3.007   3.947   9.508  0.2072 -1.4045  1.6189
 5551SOL     OW28111   1.097   2.434  11.322  0.3423 -0.0426  0.0821
 5551SOL    HW128112   1.038   2.442  11.247 -0.2645 -2.0786  0.3590
 5551SOL    HW228113   1.102   2.529  11.336  2.1933 -0.1224 -0.1341
 5552SOL     OW28114   2.771   3.990  13.177  0.2600 -0.6331 -0.2753
 5552SOL    HW128115   2.766   4.033  13.262 -0.5249  1.2387 -1.2702
 5552SOL    HW228116   2.808   3.906  13.206 -0.4354 -1.0596 -0.6221
 5553SOL     OW28117   2.293   3.687  11.409  0.2822  0.3113 -0.2249
 5553SOL    HW128118   2.358   3.667  11.476  0.3678  0.6366 -0.2096
 5553SOL    HW228119   2.239   3.608  11.414  0.3787  0.3051  0.6883
 5554SOL     OW28120   2.128   3.997   4.308 -0.7277  0.5069  0.4102
 5554SOL    HW128121   2.038   3.967   4.292  0.7128 -0.8721 -4.8092
 5554SOL    HW228122   2.171   3.944   4.241 -0.7799  0.2780  0.5549
 5555SOL     OW28123   3.774   0.034   6.480 -0.4839  0.3206  0.6874
 5555SOL    HW128124   3.724   0.028   6.561 -0.5751  0.2600  0.6263
 5555SOL    HW228125   3.709   0.057   6.414 -0.6702  0.3517  0.8802
 5556SOL     OW28126   0.009   3.344   9.139  0.1540 -0.3943 -0.3372
 5556SOL    HW128127   4.637   3.354   9.140 -0.0140 -1.9814  0.3136
 5556SOL    HW228128   0.042   3.432   9.121  0.7182 -1.1736 -3.1097
 5557SOL     OW28129   4.423   1.164   6.283 -1.2782 -0.3041  0.1584
 5557SOL    HW128130   4.425   1.245   6.333 -0.5084  0.5125 -1.2024
 5557SOL    HW228131   4.513   1.149   6.256 -0.9823  2.0356 -0.0929
 5558SOL     OW28132   1.007   4.354   5.948  0.8138 -0.1800  0.0342
 5558SOL    HW128133   1.054   4.279   5.912 -0.7712 -1.2832  0.2331
 5558SOL    HW228134   1.039   4.432   5.904 -0.8815  0.2100 -0.5279
 5559SOL     OW28135   2.851   1.090   8.063  0.1204 -0.0117  0.4438
 5559SOL    HW128136   2.823   1.046   8.143 -0.0310 -0.4630  0.1370
 5559SOL    HW228137   2.785   1.064   7.999 -0.6067 -0.9225  1.5702
 5560SOL     OW28138   1.310   2.676  13.129 -0.0456 -0.5814 -0.7485
 5560SOL    HW128139   1.252   2.748  13.153 -0.9921 -1.1738 -1.2312
 5560SOL    HW228140   1.291   2.604  13.188 -1.5894  0.4145 -0.0408
 5561SOL     OW28141   4.191   1.917   4.520  0.1082 -0.1659  0.3778
 5561SOL    HW128142   4.228   1.975   4.454 -1.0252 -0.2717 -0.3523
 5561SOL    HW228143   4.233   1.833   4.499 -1.1759 -0.9915  1.0768
 5562SOL     OW28144   1.547   1.894  13.651  0.0683 -0.7616  0.1887
 5562SOL    HW128145   1.471   1.949  13.634  0.2202  0.5009  3.7545
 5562SOL    HW228146   1.508   1.846  13.723  0.6270  1.1174  1.7469
 5563SOL     OW28147   4.026   0.748   4.927 -0.0419  0.3110  0.4989
 5563SOL    HW128148   4.109   0.790   4.903  0.8745  0.3913  3.8872
 5563SOL    HW228149   4.061   0.672   4.973  0.7458  0.8602  0.8167
 5564SOL     OW28150   3.359   1.836   5.545  0.0265  0.0813  0.9234
 5564SOL    HW128151   3.409   1.912   5.577 -0.3570  0.6845  0.0848
 5564SOL    HW228152   3.430   1.802   5.491  2.3019  2.8244  2.1811
 5565SOL     OW28153   3.010   0.183   4.007 -0.5426 -0.1866 -0.4583
 5565SOL    HW128154   3.050   0.234   3.936 -0.3357 -1.4433 -1.2402
 5565SOL    HW228155   3.044   0.095   3.992 -1.9546 -0.3787 -2.5854
 5566SOL     OW28156   3.194   1.874   1.081  0.2914  0.0334 -0.3712
 5566SOL    HW128157   3.145   1.799   1.047 -0.1479  0.5817 -0.9498
 5566SOL    HW228158   3.175   1.867   1.175  1.3062  4.3775  0.1547
 5567SOL     OW28159   1.678   3.055   0.150 -0.4657 -0.1685  0.1299
 5567SOL    HW128160   1.751   3.008   0.111  2.0576  2.5497  1.5800
 5567SOL    HW228161   1.619   2.980   0.153 -2.6433  1.5108 -0.0850
 5568SOL     OW28162   0.043   4.481   7.527  0.5002 -0.0990  0.3001
 5568SOL    HW128163   0.061   4.540   7.600 -0.0584 -1.0242  1.1880
 5568SOL    HW228164   0.134   4.483   7.497  0.5488  0.9229  0.5258
 5569SOL     OW28165   0.707   3.095  13.822  0.2149 -0.4439 -0.1005
 5569SOL    HW128166   0.731   3.175  13.870  0.7391 -0.3535 -0.5152
 5569SOL    HW228167   0.613   3.098  13.804  0.2649 -0.7731 -0.4017
 5570SOL     OW28168   1.789   3.574   2.294  0.5430  0.3814  0.1467
 5570SOL    HW128169   1.788   3.657   2.341 -0.2833  0.9385 -0.8693
 5570SOL    HW228170   1.883   3.558   2.295  0.1639 -1.8728  1.5423
 5571SOL     OW28171   4.265   1.654   4.001  0.1445  0.3691 -0.7610
 5571SOL    HW128172   4.302   1.726   3.950  2.1085  1.7011  2.5748
 5571SOL    HW228173   4.183   1.629   3.958 -1.2166 -2.0660  3.2698
 5572SOL     OW28174   0.073   0.499   8.706 -0.0891 -0.4017 -0.0850
 5572SOL    HW128175   0.124   0.578   8.689  1.3208 -1.2222  0.3317
 5572SOL    HW228176   0.088   0.488   8.800  1.4154  1.5626 -0.0828
 5573SOL     OW28177   3.398   2.711   0.719  0.6657  0.1232 -0.0736
 5573SOL    HW128178   3.364   2.799   0.733  2.7061  0.6732  1.3903
 5573SOL    HW228179   3.478   2.715   0.772  1.1040 -1.1997 -0.6327
 5574SOL     OW28180   4.146   4.692   3.996  0.2385 -0.0711 -0.1263
 5574SOL    HW128181   4.083   4.621   3.989  0.2284 -0.0422 -0.3367
 5574SOL    HW228182   4.107   0.013   4.071  0.8676 -0.3899  0.3907
 5575SOL     OW28183   1.771   3.561   3.994 -0.2194  0.1083 -0.3020
 5575SOL    HW128184   1.723   3.485   4.029  0.3743  0.3759  1.1210
 5575SOL    HW228185   1.807   3.602   4.072 -0.6659  0.7440 -0.4367
 5576SOL     OW28186   3.026   3.094   6.043 -0.1169 -0.3370 -0.1474
 5576SOL    HW128187   2.996   3.097   6.133 -0.4896  2.6889 -0.3612
 5576SOL    HW228188   3.101   3.038   6.063 -0.4886 -0.5526  0.6194
 5577SOL     OW28189   4.716   3.264   8.531  0.3935 -0.1803  0.5511
 5577SOL    HW128190   0.040   3.284   8.611 -1.9883  0.6796  1.7596
 5577SOL    HW228191   0.063   3.268   8.466 -0.1489 -2.4122 -0.1723
 5578SOL     OW28192   1.615   1.005  14.639 -0.3075  0.1374  0.3747
 5578SOL    HW128193   1.570   1.069  14.585 -0.0967  0.6549  0.8110
 5578SOL    HW228194   1.618   0.945  14.565  1.9941  0.4571  0.2108
 5579SOL     OW28195   0.599   2.982   5.271 -0.7650  0.4576  0.2274
 5579SOL    HW128196   0.538   3.000   5.342  1.8537 -2.4959  3.2124
 5579SOL    HW228197   0.652   3.060   5.285  0.5188 -0.4362  0.2762
 5580SOL     OW28198   3.275   0.917   2.248 -0.1528 -0.9529 -0.0091
 5580SOL    HW128199   3.199   0.937   2.192 -2.7558 -1.4714  3.3337
 5580SOL    HW228200   3.241   0.851   2.308 -0.9089 -0.6385 -0.0917
 5581SOL     OW28201   2.844   1.826  11.079  0.5992  0.5811 -0.1348
 5581SOL    HW128202   2.920   1.768  11.087  0.0135 -0.0299  0.9877
 5581SOL    HW228203   2.887   1.910  11.099  0.6964 -0.2319  3.0895
 5582SOL     OW28204   3.580   1.803   8.743  0.1320 -0.8235 -1.0064
 5582SOL    HW128205   3.514   1.872   8.733 -1.7728 -2.6303 -0.9426
 5582SOL    HW228206   3.560   1.762   8.827  0.2643 -1.9443 -1.5200
 5583SOL     OW28207   4.469   4.377  15.935 -0.3146 -0.1058 -0.6097
 5583SOL    HW128208   4.522   4.433  15.992 -0.9125  1.8838 -1.9920
 5583SOL    HW228209   4.415   4.448  15.899 -1.3941 -1.2197 -1.2002
 5584SOL     OW28210   1.174   1.020   8.875 -0.2268  0.0275  0.6762
 5584SOL    HW128211   1.155   0.933   8.911 -1.7523 -0.8147 -2.1204
 5584SOL    HW228212   1.214   1.002   8.790 -0.8370  0.7160  0.2474
 5585SOL     OW28213   3.371   3.661  12.624  0.3836  0.1773  0.7580
 5585SOL    HW128214   3.338   3.587  12.675 -1.4476 -0.0434 -0.7762
 5585SOL    HW228215   3.296   3.720  12.622  0.6452  0.4296 -2.1136
 5586SOL     OW28216   2.266   1.556   3.246  0.2766  0.3292  0.6709
 5586SOL    HW128217   2.203   1.582   3.180  1.8756 -1.3753 -1.5385
 5586SOL    HW228218   2.234   1.471   3.276 -1.6490  0.4643 -1.0365
 5587SOL     OW28219   3.116   2.566   6.760  0.4118 -0.0288  0.1738
 5587SOL    HW128220   3.081   2.517   6.835  0.1354  1.0681  0.7596
 5587SOL    HW228221   3.065   2.647   6.761 -1.4388 -1.1673 -0.9667
 5588SOL     OW28222   1.790   1.446   6.053  0.4423  0.1031 -0.0085
 5588SOL    HW128223   1.739   1.454   5.973  2.0818  0.6825 -0.9921
 5588SOL    HW228224   1.777   1.535   6.086  0.8644 -0.4226  1.6198
 5589SOL     OW28225   4.679   0.117   8.712 -0.9096 -0.5692  0.2244
 5589SOL    HW128226   4.694   0.205   8.678  0.6924 -0.9597 -0.0558
 5589SOL    HW228227   0.003   0.061   8.650  0.4807  0.8986 -0.0289
 5590SOL     OW28228   2.578   3.567   7.082  0.7325 -0.6042 -0.3350
 5590SOL    HW128229   2.590   3.549   7.175 -3.8800  0.8974  0.5395
 5590SOL    HW228230   2.626   3.650   7.079 -1.3668  0.5540 -1.7783
 5591SOL     OW28231   0.673   0.276   3.460 -0.2889  0.4830  0.5338
 5591SOL    HW128232   0.593   0.229   3.485  0.4100 -0.2889  1.3166
 5591SOL    HW228233   0.688   0.215   3.387  0.7735  0.8051  0.4814
 5592SOL     OW28234   0.210   1.352   6.175 -0.3626 -0.6474 -0.2052
 5592SOL    HW128235   0.282   1.372   6.234 -0.4116  0.5602 -0.5533
 5592SOL    HW228236   0.239   1.394   6.094 -1.2306 -1.6426 -1.0316
 5593SOL     OW28237   2.503   1.514   4.136  0.4046 -0.0599  0.2620
 5593SOL    HW128238   2.550   1.597   4.141  0.6124 -0.0333 -2.3754
 5593SOL    HW228239   2.568   1.447   4.159  1.5721  1.3473  1.1112
 5594SOL     OW28240   2.742   4.291   8.581  0.3748 -0.2822  0.2028
 5594SOL    HW128241   2.813   4.249   8.532 -0.1093 -1.1438  0.2624
 5594SOL    HW228242   2.785   4.363   8.628  4.5511 -0.6724 -3.0552
 5595SOL     OW28243   3.278   4.166   3.017 -0.0252 -0.2639  0.2099
 5595SOL    HW128244   3.196   4.116   3.019 -0.7315  0.8760 -0.1095
 5595SOL    HW228245   3.303   4.140   2.928  0.4910 -1.4612  0.7007
 5596SOL     OW28246   3.655   0.577   3.871 -0.0208 -0.2749  0.0184
 5596SOL    HW128247   3.680   0.486   3.884  0.7338 -0.3008 -1.5550
 5596SOL    HW228248   3.692   0.613   3.951 -0.4163  0.4310 -0.1176
 5597SOL     OW28249   4.483   2.442  14.837 -0.2130  0.2724  0.0653
 5597SOL    HW128250   4.420   2.483  14.896 -0.9202 -0.7070 -0.0235
 5597SOL    HW228251   4.544   2.400  14.897  0.2031  2.1979  1.0049
 5598SOL     OW28252   0.816   3.698  12.187  0.2068  0.6346  0.3852
 5598SOL    HW128253   0.897   3.647  12.178 -0.0512  0.2788  0.0795
 5598SOL    HW228254   0.770   3.621  12.222  2.0145  0.2965  2.1024
 5599SOL     OW28255   1.105   3.086  17.053 -0.0255 -0.7180 -0.0230
 5599SOL    HW128256   1.020   3.105  17.014  0.3352 -0.7125 -0.8159
 5599SOL    HW228257   1.156   3.103  16.973  1.3297  1.2419  1.2660
 5600SOL     OW28258   2.166   1.474   2.954 -0.9074 -0.1127  0.4018
 5600SOL    HW128259   2.081   1.440   2.926 -0.3694 -0.0397 -1.2754
 5600SOL    HW228260   2.204   1.498   2.870 -0.3649 -0.8477  0.4378
 5601SOL     OW28261   1.872   1.369   3.180 -0.3842  0.0474  0.3637
 5601SOL    HW128262   1.964   1.344   3.187 -0.6117 -1.3623 -2.0054
 5601SOL    HW228263   1.865   1.427   3.256  1.3157  1.4986 -0.5788
 5602SOL     OW28264   3.233   1.817  11.819  0.2753  0.4569 -0.3706
 5602SOL    HW128265   3.215   1.843  11.910  1.8371  1.0084 -0.2250
 5602SOL    HW228266   3.271   1.729  11.830  0.3413  0.5092 -0.1713
 5603SOL     OW28267   1.508   0.946   4.484 -0.0183 -0.6882 -0.1471
 5603SOL    HW128268   1.417   0.934   4.458  0.4236 -1.4419 -1.3209
 5603SOL    HW228269   1.501   0.936   4.579 -1.4140 -0.8997 -0.2701
 5604SOL     OW28270   3.182   2.636  17.496  0.3819  0.0352 -0.5538
 5604SOL    HW128271   3.090   2.640  17.525 -0.5037  0.8421 -3.4770
 5604SOL    HW228272   3.211   2.589  17.575 -0.4205  0.2076 -0.1529
 5605SOL     OW28273   3.474   0.354  11.168  0.0769 -0.6595  0.3891
 5605SOL    HW128274   3.466   0.319  11.256 -1.0570  2.3108  1.4742
 5605SOL    HW228275   3.429   0.297  11.105  2.0465  1.7214 -3.1916
 5606SOL     OW28276   4.527   0.461   7.585 -0.3768  0.3084  0.5105
 5606SOL    HW128277   4.568   0.444   7.670  0.2798 -0.3364  0.0605
 5606SOL    HW228278   4.456   0.397   7.590 -0.0218 -0.2514 -1.6775
 5607SOL     OW28279   3.576   4.645   2.659  0.4605 -0.6531  0.3552
 5607SOL    HW128280   3.493   4.598   2.666 -0.1877  0.6797  1.6590
 5607SOL    HW228281   3.577   4.672   2.750  0.0736 -0.4412  0.2971
 5608SOL     OW28282   2.378   0.586   4.027 -0.4602  0.2222 -0.3057
 5608SOL    HW128283   2.359   0.666   3.978 -0.3747 -0.1600 -0.9567
 5608SOL    HW228284   2.374   0.511   3.967 -0.3085  0.7301 -0.9466
 5609SOL     OW28285   3.469   3.832   2.540  0.0679 -0.1453  0.0848
 5609SOL    HW128286   3.433   3.753   2.580  0.8999 -0.6663 -0.2045
 5609SOL    HW228287   3.563   3.816   2.550 -0.2048 -1.4531  0.6028
 5610SOL     OW28288   1.134   0.781   7.674 -0.2154  0.0322  0.4430
 5610SOL    HW128289   1.223   0.780   7.709 -0.5002 -2.4008  1.0976
 5610SOL    HW228290   1.154   0.737   7.592  1.9905  0.6354  0.6575
 5611SOL     OW28291   4.012   2.124   2.459 -0.5525  0.2072  0.0175
 5611SOL    HW128292   4.058   2.207   2.473  1.0773 -0.8819  1.1425
 5611SOL    HW228293   3.958   2.146   2.383 -0.5541 -1.6606 -0.5320
 5612SOL     OW28294   2.908   2.804   6.772  0.7651  0.4522  0.0914
 5612SOL    HW128295   2.951   2.845   6.847  2.8697 -1.0552 -0.3007
 5612SOL    HW228296   2.859   2.881   6.742 -0.0203  0.1399  0.5656
 5613SOL     OW28297   3.290   4.589   1.289 -0.0612  0.3814 -0.7422
 5613SOL    HW128298   3.319   4.531   1.219  0.2659 -0.6028  0.2056
 5613SOL    HW228299   3.362   4.644   1.321  1.6267 -1.3331 -1.6080
 5614SOL     OW28300   0.036   2.221  16.209  0.4160 -0.1241 -0.6106
 5614SOL    HW128301   0.115   2.207  16.158  0.4291  0.3909 -0.7340
 5614SOL    HW228302   0.006   2.131  16.223 -0.4952  0.6549  2.5127
 5615SOL     OW28303   4.305   1.449   3.510 -0.1936  0.0471  0.3875
 5615SOL    HW128304   4.230   1.415   3.462  1.4492 -3.2690  0.2160
 5615SOL    HW228305   4.269   1.523   3.559 -2.1881 -0.8747  0.2805
 5616SOL     OW28306   4.469   2.900  16.364 -0.3642 -0.3830 -0.4480
 5616SOL    HW128307   4.422   2.949  16.431  1.4277  1.1816 -0.3149
 5616SOL    HW228308   4.468   2.958  16.287  1.7420  0.4520  0.1581
 5617SOL     OW28309   3.422   0.110   8.381  0.1628  0.2911  0.7262
 5617SOL    HW128310   3.507   0.138   8.415  0.9723 -0.3313 -0.7816
 5617SOL    HW228311   3.408   0.021   8.415  0.7661  0.6267  1.8205
 5618SOL     OW28312   1.568   4.684  13.023 -0.1223 -0.5295 -0.3923
 5618SOL    HW128313   1.485   4.640  13.005  0.0997 -1.9064  2.0496
 5618SOL    HW228314   1.626   4.608  13.020  1.6193  0.7804 -0.1893
 5619SOL     OW28315   2.973   2.599   8.193  0.3187  0.3892 -0.1627
 5619SOL    HW128316   2.908   2.656   8.235 -2.5038 -0.6073 -3.1932
 5619SOL    HW228317   3.018   2.655   8.130 -2.6448  2.8017 -0.1604
 5620SOL     OW28318   1.257   4.259   3.032  0.1220 -0.7185 -0.2682
 5620SOL    HW128319   1.222   4.265   2.943 -0.5220 -1.4922 -0.0634
 5620SOL    HW228320   1.247   4.350   3.059 -2.0748 -1.1048  0.2548
 5621SOL     OW28321   3.923   1.999   5.993  0.1550  0.7031  0.2879
 5621SOL    HW128322   3.890   2.054   5.922  0.8294  2.9249  1.6957
 5621SOL    HW228323   3.901   2.060   6.064 -1.6845 -1.8240  1.8986
 5622SOL     OW28324   4.366   1.833   6.003  0.2866 -0.2156  0.0212
 5622SOL    HW128325   4.451   1.829   6.046  0.5307  0.8004 -0.3559
 5622SOL    HW228326   4.312   1.761   6.034 -0.4145 -0.0158 -0.7235
 5623SOL     OW28327   0.367   1.972   4.234 -0.1180 -0.0864  0.1568
 5623SOL    HW128328   0.334   1.883   4.245 -2.7217  0.8741  0.2122
 5623SOL    HW228329   0.371   1.985   4.140  0.6562 -0.1971  0.1729
 5624SOL     OW28330   1.022   2.837  10.384 -0.1909 -0.2021  0.5006
 5624SOL    HW128331   1.086   2.803  10.447  0.6450  0.1092 -0.1753
 5624SOL    HW228332   0.987   2.911  10.433 -0.1438  1.0227 -1.2838
 5625SOL     OW28333   0.653   3.086   2.876  0.3000  0.5610  0.8215
 5625SOL    HW128334   0.681   3.111   2.964  0.0966 -0.1564  1.0903
 5625SOL    HW228335   0.688   2.996   2.878  0.9545  0.8010 -0.2929
 5626SOL     OW28336   3.531   3.827   6.019 -0.1811 -0.2991  0.2690
 5626SOL    HW128337   3.598   3.836   6.087 -0.0331  0.3845  0.0276
 5626SOL    HW228338   3.546   3.894   5.953  1.0532 -0.2656  0.5772
 5627SOL     OW28339   2.005   4.214  11.519 -0.1180  0.1805 -0.0091
 5627SOL    HW128340   2.044   4.225  11.606  0.8433  1.0725 -0.5625
 5627SOL    HW228341   1.930   4.272  11.535  1.2449  1.6617  1.0863
 5628SOL     OW28342   4.263   3.219   2.623 -0.0513  0.2779  0.3215
 5628SOL    HW128343   4.296   3.143   2.575  3.4641  3.0644 -1.6550
 5628SOL    HW228344   4.337   3.231   2.683 -1.3113  0.3065  1.8636
 5629SOL     OW28345   3.363   4.072  10.618 -0.0720  0.2169  0.1665
 5629SOL    HW128346   3.324   4.116  10.543 -0.6816  1.3978  1.1658
 5629SOL    HW228347   3.393   4.143  10.675  0.1934  1.2105 -1.2306
 5630SOL     OW28348   1.154   1.993   8.199  0.2224  0.3181  0.7199
 5630SOL    HW128349   1.247   1.972   8.193  0.2938  0.8601 -0.0848
 5630SOL    HW228350   1.128   1.934   8.270  0.5599 -1.4778 -0.6461
 5631SOL     OW28351   2.840   4.554   5.312  0.3865  0.7788  0.4251
 5631SOL    HW128352   2.847   4.649   5.312  0.1676  0.7951 -0.4965
 5631SOL    HW228353   2.817   4.537   5.403 -1.1450 -0.1598 -0.1317
 5632SOL     OW28354   1.467   0.672  15.546 -0.5389  0.2066  0.6736
 5632SOL    HW128355   1.443   0.611  15.477  3.4413 -2.3082  1.5086
 5632SOL    HW228356   1.527   0.620  15.598  1.2241  1.1895 -0.3606
 5633SOL     OW28357   0.223   3.568   7.588 -0.0370 -0.1272 -0.1516
 5633SOL    HW128358   0.230   3.589   7.495  1.0681 -3.3471 -0.8058
 5633SOL    HW228359   0.141   3.519   7.579 -0.7450  1.3381 -1.8387
 5634SOL     OW28360   4.229   0.532   0.448 -0.6296  0.0091  0.3513
 5634SOL    HW128361   4.206   0.532   0.355  0.8510  0.7332 -0.0229
 5634SOL    HW228362   4.181   0.610   0.475 -0.3335  0.5683 -0.7517
 5635SOL     OW28363   0.868   0.749   5.145 -0.1608  0.5422 -0.3350
 5635SOL    HW128364   0.858   0.802   5.224  0.3746 -4.0249  2.7891
 5635SOL    HW228365   0.963   0.739   5.144 -0.5451 -3.0123  0.8373
 5636SOL     OW28366   4.235   4.325   6.500 -0.0093 -0.2956 -0.0596
 5636SOL    HW128367   4.232   4.389   6.572  1.6708 -0.4088  0.0927
 5636SOL    HW228368   4.306   4.276   6.540  0.5241 -1.8987 -3.0842
 5637SOL     OW28369   4.016   1.079   2.813 -0.3808 -0.3238 -1.2424
 5637SOL    HW128370   4.076   1.121   2.751 -1.4656 -0.4190 -2.3589
 5637SOL    HW228371   4.023   0.985   2.792  3.9137  0.2934 -2.5816
 5638SOL     OW28372   2.615   3.975   4.758 -0.7454  0.3950  0.4232
 5638SOL    HW128373   2.575   4.014   4.836 -0.3145  2.2724 -0.2907
 5638SOL    HW228374   2.572   4.025   4.688  1.3338  0.3955 -0.8321
 5639SOL     OW28375   0.398   4.265   7.232 -0.3226 -0.5617  0.3187
 5639SOL    HW128376   0.378   4.259   7.326 -0.7824  1.4801  0.3568
 5639SOL    HW228377   0.386   4.177   7.198 -1.9444 -0.7953  1.4639
 5640SOL     OW28378   2.106   3.009   2.991  0.6576 -0.4903  0.1027
 5640SOL    HW128379   2.082   2.974   3.076  0.5224  2.0882  1.1338
 5640SOL    HW228380   2.033   2.964   2.948 -1.1479  2.2605  0.2301
 5641SOL     OW28381   2.568   3.996   8.244 -0.2617 -0.1599  0.4447
 5641SOL    HW128382   2.639   4.042   8.198 -0.1845 -0.9733 -0.2447
 5641SOL    HW228383   2.582   3.902   8.240 -1.4735 -0.2289 -1.9115
 5642SOL     OW28384   4.070   1.473   1.850  0.1263  0.2128  0.2330
 5642SOL    HW128385   3.988   1.438   1.886  0.3754 -1.2326 -0.6522
 5642SOL    HW228386   4.106   1.507   1.933  0.7207  0.4733 -0.1337
 5643SOL     OW28387   3.582   2.006   6.130  0.4340  0.4339 -0.4417
 5643SOL    HW128388   3.648   2.068   6.098  0.3428  0.7463 -0.0291
 5643SOL    HW228389   3.628   1.944   6.187  0.8295  1.4254  0.3245
 5644SOL     OW28390   2.060   0.225   7.078  0.1960 -0.2286 -0.4527
 5644SOL    HW128391   2.111   0.147   7.101 -1.6297 -1.2174  0.2359
 5644SOL    HW228392   2.121   0.290   7.044  0.0637  0.1332  0.0022
 5645SOL     OW28393   4.311   1.112  13.497  0.5397 -0.1114  0.3660
 5645SOL    HW128394   4.299   1.155  13.581 -0.5734  2.4642 -1.1143
 5645SOL    HW228395   4.354   1.183  13.450  1.1838 -2.2689 -2.3323
 5646SOL     OW28396   0.462   0.146   3.523 -0.1074 -0.7187 -0.2420
 5646SOL    HW128397   0.395   0.091   3.482 -0.3524 -0.8330  0.3133
 5646SOL    HW228398   0.442   0.147   3.617 -1.4532  2.0647 -0.5484
 5647SOL     OW28399   4.647   1.581  11.164 -0.2165 -0.2451  0.4580
 5647SOL    HW128400   4.626   1.499  11.120  2.8551 -0.4083 -0.7285
 5647SOL    HW228401   0.006   1.616  11.129 -1.2636  0.6884 -1.0670
 5648SOL     OW28402   1.329   0.969   3.191 -0.4979  0.0920 -0.3384
 5648SOL    HW128403   1.240   0.935   3.182 -0.6658  0.5390 -0.3637
 5648SOL    HW228404   1.365   0.881   3.186 -1.1789 -0.3127  2.2965
 5649SOL     OW28405   3.503   3.259   4.835 -0.5040  0.3859  0.1786
 5649SOL    HW128406   3.446   3.319   4.787  0.7372  0.4825 -1.1905
 5649SOL    HW228407   3.442   3.192   4.865  1.1142 -0.9935  0.4054
 5650SOL     OW28408   2.052   2.114   1.974  0.3701  0.3114 -0.4634
 5650SOL    HW128409   2.065   2.208   1.988  0.0319  0.2655  0.1700
 5650SOL    HW228410   1.965   2.107   1.937  0.8239 -1.1787 -1.2547
 5651SOL     OW28411   1.550   3.876   8.493 -0.4113 -0.0777 -0.0335
 5651SOL    HW128412   1.544   3.971   8.493 -0.4170 -0.1026 -3.5660
 5651SOL    HW228413   1.541   3.853   8.401  0.5933 -2.0784  0.3678
 5652SOL     OW28414   1.981   3.286  16.667 -0.1835 -0.1183  0.1149
 5652SOL    HW128415   1.975   3.335  16.585  0.3349 -0.7138 -0.2841
 5652SOL    HW228416   1.962   3.197  16.636 -2.4071  0.1694  0.6033
 5653SOL     OW28417   4.672   1.521  17.053 -0.1787  0.2392 -0.1698
 5653SOL    HW128418   4.686   1.510  16.959 -1.8944 -0.2954 -0.3561
 5653SOL    HW228419   4.692   1.614  17.064  1.1946  0.2402 -2.6109
 5654SOL     OW28420   2.854   3.788   2.538  0.2884 -0.1071 -0.6261
 5654SOL    HW128421   2.931   3.761   2.487  1.2802 -1.0367  1.3848
 5654SOL    HW228422   2.842   3.871   2.491 -1.7759 -0.0603 -0.0041
 5655SOL     OW28423   4.342   1.291   3.152  0.3626  0.5733 -0.4529
 5655SOL    HW128424   4.264   1.272   3.099  0.2656 -0.5237  0.0819
 5655SOL    HW228425   4.299   1.334   3.225  0.7993 -0.0626  0.1761
 5656SOL     OW28426   4.493   3.564   4.420 -0.0475  0.4686 -0.4519
 5656SOL    HW128427   4.401   3.590   4.418 -0.7996 -2.1144 -0.1213
 5656SOL    HW228428   4.492   3.555   4.515  0.1610  1.9486 -0.3208
 5657SOL     OW28429   4.499   4.115   7.704  0.3627 -0.2588 -0.4473
 5657SOL    HW128430   4.470   4.115   7.795 -1.8726 -1.4247 -1.1431
 5657SOL    HW228431   4.577   4.169   7.711  1.2892 -1.5335 -1.0227
 5658SOL     OW28432   0.519   4.243   6.183  0.2515  0.1460  0.1185
 5658SOL    HW128433   0.567   4.308   6.132  0.3303 -1.4108 -1.7630
 5658SOL    HW228434   0.496   4.293   6.261 -1.0445  0.0178 -0.1799
 5659SOL     OW28435   3.396   4.674  15.182 -0.2506 -0.0736 -0.1144
 5659SOL    HW128436   3.369   0.041  15.198 -1.0483 -0.3230 -0.0672
 5659SOL    HW228437   3.390   4.661  15.088 -1.7552  1.0959 -0.1805
 5660SOL     OW28438   1.593   4.221  16.063 -0.7594  0.5859 -0.3757
 5660SOL    HW128439   1.582   4.227  15.968  2.4036  1.1165 -0.7118
 5660SOL    HW228440   1.652   4.150  16.085 -1.9956  0.0025  0.9939
 5661SOL     OW28441   1.201   0.707   3.872  0.6490 -0.6768 -0.5964
 5661SOL    HW128442   1.131   0.684   3.811  1.1733 -1.4760 -0.8934
 5661SOL    HW228443   1.160   0.709   3.958 -0.3182 -2.5109 -0.9979
 5662SOL     OW28444   2.053   2.677   7.246 -0.0835  0.4511 -0.3661
 5662SOL    HW128445   2.020   2.692   7.158 -1.9182  0.4656  0.3157
 5662SOL    HW228446   2.138   2.634   7.233  0.5812  0.8987  2.4359
 5663SOL     OW28447   3.184   3.418   6.612 -0.5631 -0.6342  0.1623
 5663SOL    HW128448   3.160   3.345   6.554  0.6730 -1.0863  0.2323
 5663SOL    HW228449   3.112   3.480   6.597  0.1506 -0.1813 -1.4707
 5664SOL     OW28450   1.501   1.865   6.085  0.8242  0.1244 -0.3369
 5664SOL    HW128451   1.487   1.844   6.177  0.2716  0.0120 -0.4456
 5664SOL    HW228452   1.554   1.788   6.063  2.4900  1.5357 -1.1997
 5665SOL     OW28453   1.646   0.209   0.278  0.2461 -0.1344 -0.5596
 5665SOL    HW128454   1.642   0.210   0.374 -1.0251 -0.1631 -0.6091
 5665SOL    HW228455   1.741   0.199   0.269  0.3858  1.2656 -0.5850
 5666SOL     OW28456   4.165   2.783   7.935  0.4830  0.0719 -0.2425
 5666SOL    HW128457   4.111   2.859   7.951  1.5104  0.5651  0.8931
 5666SOL    HW228458   4.142   2.720   8.003  0.2162  0.8059  0.3324
 5667SOL     OW28459   1.709   2.756  11.163 -0.3264  0.0365  0.3636
 5667SOL    HW128460   1.651   2.825  11.196 -1.8509  0.7030 -3.7260
 5667SOL    HW228461   1.652   2.682  11.181 -1.5865  1.3567  1.8339
 5668SOL     OW28462   2.199   0.310   2.381 -0.0963  0.0670 -0.3518
 5668SOL    HW128463   2.292   0.294   2.394 -0.1757 -0.2609 -0.2086
 5668SOL    HW228464   2.197   0.337   2.289 -1.8716 -0.7090 -0.5320
 5669SOL     OW28465   3.144   4.262   6.847 -0.1628  0.3730 -0.3339
 5669SOL    HW128466   3.228   4.300   6.822  0.1768 -1.2040 -1.5851
 5669SOL    HW228467   3.164   4.176   6.884 -0.7432  1.6432  2.9144
 5670SOL     OW28468   3.311   3.657   9.393  0.3891  0.3040 -0.2864
 5670SOL    HW128469   3.383   3.719   9.403  0.4640  0.0984  0.4659
 5670SOL    HW228470   3.349   3.569   9.390 -2.8111 -1.1140  0.8130
 5671SOL     OW28471   0.840   4.314  13.121 -0.0330 -0.5453 -0.8170
 5671SOL    HW128472   0.926   4.272  13.126 -0.1131 -0.7428 -1.0505
 5671SOL    HW228473   0.859   4.395  13.073  0.4488  0.1379  0.5344
 5672SOL     OW28474   1.018   0.877   8.021 -0.2837 -0.1780 -0.4114
 5672SOL    HW128475   1.027   0.870   8.116  3.0754 -1.0628 -0.7886
 5672SOL    HW228476   1.096   0.929   8.002 -1.4725  1.8827  0.3631
 5673SOL     OW28477   0.470   2.142   4.421  0.4034  0.4147 -0.2989
 5673SOL    HW128478   0.506   2.075   4.478 -0.2021  0.0762 -0.3159
 5673SOL    HW228479   0.434   2.092   4.348  3.2057  0.6617 -1.8524
 5674SOL     OW28480   4.563   0.679  14.703  0.2639 -0.4944 -0.0062
 5674SOL    HW128481   4.615   0.608  14.741  1.9882  1.9837  2.2490
 5674SOL    HW228482   4.488   0.666  14.761  1.1909 -1.7890  0.9164
 5675SOL     OW28483   1.604   1.281   4.090 -0.5847  0.0104  0.5278
 5675SOL    HW128484   1.653   1.353   4.129  0.2502 -0.0384 -0.4311
 5675SOL    HW228485   1.511   1.304   4.081 -0.3198  0.2657 -1.4811
 5676SOL     OW28486   2.265   0.747   2.397 -0.3956 -0.2490 -0.2385
 5676SOL    HW128487   2.309   0.664   2.419 -0.2213  0.5541  2.4997
 5676SOL    HW228488   2.185   0.737   2.449 -0.4175  1.5677  0.0727
 5677SOL     OW28489   1.494   2.702   6.757  0.6668 -0.1030  0.2673
 5677SOL    HW128490   1.495   2.614   6.793  1.0170  0.9422  2.7822
 5677SOL    HW228491   1.559   2.693   6.687  1.4796  0.3459  0.9685
 5678SOL     OW28492   0.222   3.431  10.409  0.2797 -0.2155 -0.0044
 5678SOL    HW128493   0.265   3.347  10.392  0.3138 -0.4379  1.2117
 5678SOL    HW228494   0.142   3.396  10.449  0.8613 -0.1483  1.1941
 5679SOL     OW28495   1.422   0.090   8.817 -0.4513  0.0288 -0.1443
 5679SOL    HW128496   1.483   0.041   8.762 -2.0897  1.2570 -3.0578
 5679SOL    HW228497   1.349   0.029   8.832  0.2994 -0.9120 -0.3713
 5680SOL     OW28498   3.940   1.437  16.006  0.1606 -0.1396 -0.1798
 5680SOL    HW128499   4.031   1.466  16.001  0.4268 -0.8165  0.6464
 5680SOL    HW228500   3.945   1.346  16.035 -0.7692 -0.6644 -1.6938
 5681SOL     OW28501   3.177   0.684   8.428 -0.2606 -0.1908 -0.6904
 5681SOL    HW128502   3.199   0.667   8.519 -1.9816 -0.6378 -0.3523
 5681SOL    HW228503   3.085   0.659   8.434 -0.4526  0.9151  0.9361
 5682SOL     OW28504   1.573   2.910  16.529  0.5458 -0.1395 -0.3328
 5682SOL    HW128505   1.618   2.829  16.509 -1.7656 -1.9850  1.9480
 5682SOL    HW228506   1.549   2.889  16.619 -1.7509  0.3101 -0.8321
 5683SOL     OW28507   0.215   0.591   3.889  0.1370  0.3060  0.5484
 5683SOL    HW128508   0.287   0.590   3.952 -1.6402  2.4357  2.6268
 5683SOL    HW228509   0.247   0.538   3.817  0.5211  0.0900  0.8790
 5684SOL     OW28510   1.644   3.547   8.966  0.1404 -0.0902  0.5524
 5684SOL    HW128511   1.617   3.597   8.889 -1.0134  0.9644  1.6280
 5684SOL    HW228512   1.658   3.616   9.032 -0.9003  0.7544 -0.1163
 5685SOL     OW28513   4.355   2.547   6.131  0.2480  0.1156 -0.0438
 5685SOL    HW128514   4.314   2.633   6.130 -1.0691 -0.4911  1.8642
 5685SOL    HW228515   4.446   2.577   6.134  0.2701  0.0303  0.1880
 5686SOL     OW28516   1.444   3.175  16.504 -0.3262  0.1489 -0.1994
 5686SOL    HW128517   1.458   3.105  16.567 -0.1143 -0.4651 -0.9378
 5686SOL    HW228518   1.526   3.220  16.524 -1.0886  0.9344  1.1649
 5687SOL     OW28519   2.368   1.788   2.139  0.4552 -0.2451  0.1809
 5687SOL    HW128520   2.297   1.743   2.184  0.8074  1.2808  2.2611
 5687SOL    HW228521   2.388   1.858   2.202 -0.4057 -0.8173  1.0748
 5688SOL     OW28522   1.097   0.540   9.105 -0.3214 -1.0146  0.4002
 5688SOL    HW128523   1.132   0.461   9.147  0.6419 -1.3287 -0.9628
 5688SOL    HW228524   1.011   0.510   9.075 -0.0933 -0.5041 -0.7748
 5689SOL     OW28525   3.184   2.555  14.918 -0.5346  0.0049 -0.5940
 5689SOL    HW128526   3.239   2.550  14.840  0.6537 -2.2322  0.3725
 5689SOL    HW228527   3.176   2.464  14.948  1.7913 -0.6743 -2.0193
 5690SOL     OW28528   0.123   0.780   7.322  0.1445 -0.3233 -0.3581
 5690SOL    HW128529   0.181   0.832   7.377  0.1129 -0.9884  0.3091
 5690SOL    HW228530   0.163   0.802   7.238  1.8939  1.0892  0.8327
 5691SOL     OW28531   3.048   2.380  17.252 -0.0277  0.0157 -0.2399
 5691SOL    HW128532   3.000   2.461  17.267  1.3186  0.6956  0.4136
 5691SOL    HW228533   2.976   2.324  17.224 -1.9787  2.8027 -0.7900
 5692SOL     OW28534   3.383   1.884  12.074  0.5241  0.0071 -0.9215
 5692SOL    HW128535   3.462   1.909  12.122 -0.7136  0.1135  1.1000
 5692SOL    HW228536   3.402   1.792  12.056  2.4916  0.1071  0.6305
 5693SOL     OW28537   1.433   4.624  12.113 -0.1516  1.1002  0.1401
 5693SOL    HW128538   1.477   4.707  12.135  1.8179 -0.3096  1.4906
 5693SOL    HW228539   1.341   4.647  12.129 -0.3153  1.2181 -0.9930
 5694SOL     OW28540   0.530   2.650   8.564  0.1301 -0.1347 -0.2934
 5694SOL    HW128541   0.586   2.584   8.604 -0.4052 -0.8160 -0.6685
 5694SOL    HW228542   0.451   2.618   8.606  1.4040  0.3384  2.4758
 5695SOL     OW28543   3.188   3.902   7.562 -0.0726  0.1354  0.2626
 5695SOL    HW128544   3.165   3.809   7.552  1.4043 -0.1470 -0.4765
 5695SOL    HW228545   3.282   3.899   7.578 -0.0780  0.4722  0.3484
 5696SOL     OW28546   4.101   2.061  15.387 -0.6168  0.5973  0.0176
 5696SOL    HW128547   4.192   2.081  15.408  0.1236 -0.0492 -2.4894
 5696SOL    HW228548   4.095   1.969  15.413  3.5325 -0.1409 -1.6890
 5697SOL     OW28549   2.709   4.387   3.622  0.0176  0.4532 -0.1434
 5697SOL    HW128550   2.748   4.474   3.614 -0.7579  0.6050 -2.3424
 5697SOL    HW228551   2.628   4.415   3.665 -0.5772  2.5977 -2.5940
 5698SOL     OW28552   2.348   2.585   4.011  0.2484 -0.2655 -0.1854
 5698SOL    HW128553   2.436   2.564   3.982 -0.2349 -3.1344  0.4050
 5698SOL    HW228554   2.341   2.520   4.081 -1.5922 -1.4613 -1.4679
 5699SOL     OW28555   2.293   1.577   8.259 -0.6478 -0.3993  0.4916
 5699SOL    HW128556   2.206   1.582   8.219 -0.3295 -1.8821 -0.3753
 5699SOL    HW228557   2.325   1.667   8.246 -2.4455  0.4484  1.7861
 5700SOL     OW28558   3.754   0.736   6.552 -0.1223  0.5645  0.2260
 5700SOL    HW128559   3.706   0.819   6.554  0.5562  0.9445  0.7748
 5700SOL    HW228560   3.800   0.749   6.469  1.4616  2.4573  1.4115
 5701SOL     OW28561   2.201   2.041   2.842  0.3758  0.5747  0.1654
 5701SOL    HW128562   2.280   2.025   2.894 -0.3111  0.8267  1.2894
 5701SOL    HW228563   2.234   2.038   2.752 -1.0546 -0.2230 -0.3198
 5702SOL     OW28564   0.583   1.671   3.165 -0.3438 -0.2903  0.4161
 5702SOL    HW128565   0.595   1.577   3.157 -2.1873 -0.3325 -1.8935
 5702SOL    HW228566   0.490   1.676   3.143 -0.3028  0.2890  0.3587
 5703SOL     OW28567   0.381   2.226  17.432  0.1519 -0.0895  0.0618
 5703SOL    HW128568   0.388   2.315  17.464  0.8921  0.5743 -1.9349
 5703SOL    HW228569   0.436   2.228  17.354 -2.4552 -1.3061 -1.8307
 5704SOL     OW28570   3.251   4.026   6.672 -0.0707  0.1702 -0.1334
 5704SOL    HW128571   3.213   3.951   6.627 -1.6554  1.8086 -1.5270
 5704SOL    HW228572   3.260   4.100   6.612  0.2260 -0.4003 -0.7933
 5705SOL     OW28573   1.388   0.941  14.877  0.1221 -0.1242 -0.1909
 5705SOL    HW128574   1.306   0.989  14.868 -0.8983 -1.7151  0.4120
 5705SOL    HW228575   1.371   0.864  14.822 -0.5084 -0.3347  0.2903
 5706SOL     OW28576   1.511   1.934   7.579  0.7053 -0.0620 -0.3973
 5706SOL    HW128577   1.423   1.968   7.568  0.2949 -0.4810  1.6808
 5706SOL    HW228578   1.504   1.838   7.585 -0.5365  0.0747  0.1456
 5707SOL     OW28579   2.445   4.371  12.287 -0.1117 -0.1141  0.9342
 5707SOL    HW128580   2.467   4.406  12.201 -3.3728 -2.4297 -0.8219
 5707SOL    HW228581   2.484   4.286  12.271 -0.3638  0.5368 -3.1010
 5708SOL     OW28582   0.589   2.598   8.314 -1.0642 -0.0067 -0.1050
 5708SOL    HW128583   0.555   2.649   8.387 -0.9960  0.8028 -0.6426
 5708SOL    HW228584   0.580   2.508   8.347 -1.0433  0.5741  1.4772
 5709SOL     OW28585   4.668   2.190   1.603 -0.2602  0.3929 -0.1339
 5709SOL    HW128586   4.696   2.100   1.589  1.7330  1.2136 -1.3267
 5709SOL    HW228587   4.717   2.239   1.538 -1.3923 -0.7932 -1.8736
 5710SOL     OW28588   2.397   0.692   2.761  0.5028  0.0995 -0.0235
 5710SOL    HW128589   2.364   0.620   2.708 -2.5510  1.0912  0.5326
 5710SOL    HW228590   2.482   0.710   2.720 -0.0931  1.3761 -0.6954
 5711SOL     OW28591   3.081   0.793   7.229  0.1940  0.0964  0.1748
 5711SOL    HW128592   3.102   0.795   7.323  0.9580 -3.7427  0.0801
 5711SOL    HW228593   3.114   0.880   7.205  1.2931  0.2774  2.3859
 5712SOL     OW28594   2.352   2.213   8.843  0.3672 -0.4788  0.7640
 5712SOL    HW128595   2.428   2.264   8.870  1.1941 -0.8650 -0.8020
 5712SOL    HW228596   2.388   2.124   8.840 -1.3431 -1.1221 -0.8266
 5713SOL     OW28597   4.423   3.336   3.317  0.2788 -0.9175 -0.3320
 5713SOL    HW128598   4.444   3.430   3.313  0.4547 -0.9756 -0.8274
 5713SOL    HW228599   4.423   3.313   3.224  1.1995  0.1716 -0.6010
 5714SOL     OW28600   4.542   1.860   2.877  0.6191 -0.0998 -0.2869
 5714SOL    HW128601   4.505   1.937   2.834  1.0536  0.7435  0.8304
 5714SOL    HW228602   4.628   1.893   2.906 -0.4467  1.0845  1.5285
 5715SOL     OW28603   4.152   0.554   3.931  0.2450 -0.0253  0.1416
 5715SOL    HW128604   4.174   0.646   3.946 -1.2730 -0.1503  3.2596
 5715SOL    HW228605   4.168   0.550   3.837  0.6185  2.6133  0.1026
 5716SOL     OW28606   0.507   0.130   4.214  0.2560 -0.0752  0.0869
 5716SOL    HW128607   0.495   0.208   4.159  1.8689 -1.3999 -2.1251
 5716SOL    HW228608   0.571   0.080   4.163  1.2246 -1.1351  2.3600
 5717SOL     OW28609   1.403   2.087   1.903 -0.4744  0.7769 -0.7991
 5717SOL    HW128610   1.412   2.015   1.965  2.5342  1.4931 -0.4010
 5717SOL    HW228611   1.430   2.051   1.819  1.4137  2.7766 -1.0406
 5718SOL     OW28612   0.261   4.098  11.519 -0.0243 -0.1087  0.1032
 5718SOL    HW128613   0.297   4.084  11.432  0.7632 -0.8432  0.5426
 5718SOL    HW228614   0.170   4.077  11.498 -0.5511 -0.1696  2.3527
 5719SOL     OW28615   0.456   2.032   7.063  0.4746 -0.4866 -0.0659
 5719SOL    HW128616   0.467   1.960   7.001  0.9101 -2.2654  2.1067
 5719SOL    HW228617   0.364   2.055   7.050  0.7737  1.1482  0.7014
 5720SOL     OW28618   0.145   0.240  12.094 -0.6521 -0.6594 -0.0739
 5720SOL    HW128619   0.166   0.333  12.088  0.0436 -0.8119  0.0322
 5720SOL    HW228620   0.213   0.213  12.155  0.7372 -0.3382 -1.4727
 5721SOL     OW28621   3.540   3.586   9.614  0.8693  0.0629 -0.0475
 5721SOL    HW128622   3.484   3.559   9.687 -0.3765  0.8463 -0.7161
 5721SOL    HW228623   3.508   3.525   9.547  0.3997  0.9647 -0.6388
 5722SOL     OW28624   3.250   4.387   7.765 -0.2936 -0.1235 -0.5956
 5722SOL    HW128625   3.295   4.341   7.694 -0.4588  0.9431 -1.3893
 5722SOL    HW228626   3.160   4.366   7.740  0.1075  0.0285 -2.1953
 5723SOL     OW28627   0.090   3.069   4.666 -0.3662  0.0744  0.1909
 5723SOL    HW128628   0.011   3.124   4.665  0.3823  1.1474 -0.9101
 5723SOL    HW228629   0.143   3.113   4.599 -2.5744 -1.1236 -2.3900
 5724SOL     OW28630   2.175   4.342   5.353 -0.0662 -0.1606  0.6707
 5724SOL    HW128631   2.215   4.382   5.430  1.2117  0.8069 -0.4967
 5724SOL    HW228632   2.171   4.410   5.285 -1.8221 -0.7761  0.1686
 5725SOL     OW28633   2.250   2.411   9.017 -0.5892 -0.5075  0.5960
 5725SOL    HW128634   2.267   2.409   9.111 -1.3651 -0.5588  0.7340
 5725SOL    HW228635   2.154   2.408   9.012 -0.5442 -1.3768  0.2213
 5726SOL     OW28636   3.303   2.549   5.647  0.2699  0.4058 -0.1030
 5726SOL    HW128637   3.295   2.463   5.690 -0.1546  0.8123  0.6367
 5726SOL    HW228638   3.359   2.527   5.572 -0.2373  0.8342 -0.6044
 5727SOL     OW28639   1.471   4.243   6.644  0.7202  0.1100 -0.3689
 5727SOL    HW128640   1.458   4.148   6.652 -0.6831  0.3582  0.2067
 5727SOL    HW228641   1.459   4.246   6.549  0.4255 -0.7550 -0.3646
 5728SOL     OW28642   1.608   3.741   5.766  0.0829  0.2101  0.1842
 5728SOL    HW128643   1.652   3.766   5.685 -2.5458 -0.3369 -1.4154
 5728SOL    HW228644   1.653   3.657   5.777 -0.1573 -0.2457 -2.2041
 5729SOL     OW28645   2.142   3.243  16.964  0.2364  0.6931 -0.1085
 5729SOL    HW128646   2.179   3.303  16.899  2.2388 -3.0902 -2.4480
 5729SOL    HW228647   2.113   3.303  17.033 -1.3213 -1.0984  0.8032
 5730SOL     OW28648   2.633   2.099  15.661  0.2764  0.4818  0.4222
 5730SOL    HW128649   2.572   2.037  15.701 -0.4896 -0.6820 -2.5651
 5730SOL    HW228650   2.579   2.171  15.630  1.2715  1.2716  0.5251
 5731SOL     OW28651   3.299   2.078  11.696  0.0747  0.4639  0.0214
 5731SOL    HW128652   3.291   1.983  11.685 -0.0070  0.5686 -0.8478
 5731SOL    HW228653   3.336   2.076  11.784  1.0757  1.8931 -0.3603
 5732SOL     OW28654   4.138   0.097   6.236 -0.5752 -0.3900 -0.1973
 5732SOL    HW128655   4.199   0.075   6.166 -1.3575 -0.7714 -0.7614
 5732SOL    HW228656   4.178   0.177   6.272  1.4680 -0.4785 -2.2794
 5733SOL     OW28657   2.233   3.411  10.988  0.5143 -0.8188  0.3968
 5733SOL    HW128658   2.298   3.481  10.981  0.6489 -1.1103 -1.2050
 5733SOL    HW228659   2.277   3.342  10.939 -0.1959 -2.1373  1.5973
 5734SOL     OW28660   4.219   1.220   2.685 -0.6825  0.3938 -0.4591
 5734SOL    HW128661   4.272   1.206   2.607  1.3961  0.1884  0.9820
 5734SOL    HW228662   4.270   1.281   2.739 -1.1801  1.5867 -1.3343
 5735SOL     OW28663   0.143   4.544  15.217  0.2610 -0.3716  0.1062
 5735SOL    HW128664   0.114   4.469  15.165  2.3924 -1.2320  0.1371
 5735SOL    HW228665   0.203   4.499  15.276  3.4146  2.5947 -0.7820
 5736SOL     OW28666   0.705   3.885   2.765 -0.5361  0.0535  0.1562
 5736SOL    HW128667   0.765   3.855   2.697 -1.4069 -0.2287 -0.4962
 5736SOL    HW228668   0.627   3.902   2.711 -1.0111  1.3068  1.2302
 5737SOL     OW28669   3.609   0.962  13.623  0.2736  0.0586  0.2107
 5737SOL    HW128670   3.516   0.974  13.641  0.4110  0.2613  0.7703
 5737SOL    HW228671   3.639   0.901  13.691 -1.9812  0.2142  1.3369
 5738SOL     OW28672   0.052   0.896  17.093  0.0324  0.0764 -0.2410
 5738SOL    HW128673   4.697   0.848  17.065  1.1129 -1.7943 -0.0984
 5738SOL    HW228674   0.129   0.845  17.067 -2.2037 -1.9299 -2.8940
 5739SOL     OW28675   3.253   3.370   3.779  0.4198 -0.2685 -0.4352
 5739SOL    HW128676   3.163   3.354   3.809  0.5762  0.1362  0.2483
 5739SOL    HW228677   3.230   3.392   3.689  3.8715  1.2379 -0.9290
 5740SOL     OW28678   0.607   1.463   4.546  0.2373  0.2902  0.3312
 5740SOL    HW128679   0.643   1.528   4.608 -0.8063 -0.3954  1.6561
 5740SOL    HW228680   0.589   1.391   4.606  2.2402 -1.3458 -1.0157
 5741SOL     OW28681   2.545   3.001   4.935  0.4297  0.0083  0.3190
 5741SOL    HW128682   2.607   3.041   4.996  1.6455 -1.1509 -0.1555
 5741SOL    HW228683   2.508   3.080   4.895 -0.6094 -0.8565 -0.4307
 5742SOL     OW28684   1.546   3.007   4.370  0.1607  0.2230  0.5955
 5742SOL    HW128685   1.472   2.987   4.427  0.4717 -0.5426  0.7313
 5742SOL    HW228686   1.607   2.940   4.401 -1.1530 -2.5737 -2.7159
 5743SOL     OW28687   3.943   2.576   7.854 -0.1093 -0.1709 -0.1222
 5743SOL    HW128688   3.986   2.536   7.930 -0.5376  0.9724  0.7305
 5743SOL    HW228689   3.972   2.667   7.864 -0.6932  0.0237 -0.2252
 5744SOL     OW28690   1.481   2.397   0.414 -0.7706 -0.0244  0.0268
 5744SOL    HW128691   1.510   2.308   0.435 -0.5472  0.1958  0.6593
 5744SOL    HW228692   1.540   2.417   0.341 -0.0355  1.2850  0.9960
 5745SOL     OW28693   2.775   3.768  16.886 -0.6467  0.7863 -0.4181
 5745SOL    HW128694   2.847   3.734  16.833 -1.1317  1.4792 -1.5345
 5745SOL    HW228695   2.727   3.809  16.814 -1.1184  2.4834  0.8778
 5746SOL     OW28696   0.709   1.801   2.945  0.2851  0.0882  0.3785
 5746SOL    HW128697   0.693   1.896   2.951 -1.7364 -0.1594 -1.2386
 5746SOL    HW228698   0.715   1.784   3.039  0.3531 -0.7328  0.2181
 5747SOL     OW28699   2.209   1.403   4.549 -0.5354 -0.5785  0.3842
 5747SOL    HW128700   2.150   1.347   4.599 -0.6398  0.5827  1.5678
 5747SOL    HW228701   2.161   1.485   4.538 -1.1911 -0.8588  1.1340
 5748SOL     OW28702   0.297   1.349   1.702 -0.6253  0.1211 -0.2776
 5748SOL    HW128703   0.213   1.395   1.712 -0.4320  0.6923 -1.2386
 5748SOL    HW228704   0.274   1.264   1.738 -0.7070  0.3665  0.2586
 5749SOL     OW28705   0.899   1.506   2.995  0.2261  0.0704  0.4454
 5749SOL    HW128706   0.984   1.464   3.005  0.1560 -0.2899 -0.4830
 5749SOL    HW228707   0.865   1.448   2.927  1.1035 -0.6379  0.6121
 5750SOL     OW28708   4.141   3.416  13.734 -0.8504  0.1271 -0.6273
 5750SOL    HW128709   4.091   3.493  13.705 -0.3753  1.3197  1.7570
 5750SOL    HW228710   4.084   3.356  13.780 -0.3116  1.4864  1.7996
 5751SOL     OW28711   0.103   3.918   8.984  0.1450  0.8938 -0.5904
 5751SOL    HW128712   0.199   3.912   8.981  0.1566  1.0842 -0.5967
 5751SOL    HW228713   0.084   3.830   9.016 -1.5636  1.2794 -0.5638
 5752SOL     OW28714   4.689   2.570   2.066  0.4897 -0.2064  0.2547
 5752SOL    HW128715   0.011   2.556   2.149  1.9374 -0.9764 -0.6628
 5752SOL    HW228716   0.043   2.556   2.012 -1.0369  0.1813 -2.0271
 5753SOL     OW28717   3.227   1.463  11.183  0.2828 -0.1649 -0.4206
 5753SOL    HW128718   3.195   1.481  11.271  0.1678 -0.8568 -0.3225
 5753SOL    HW228719   3.167   1.392  11.161 -1.1378  0.7262  0.5896
 5754SOL     OW28720   2.435   0.720  16.490 -0.6069 -0.3587 -0.5303
 5754SOL    HW128721   2.385   0.796  16.460  0.8921  0.6865 -0.3948
 5754SOL    HW228722   2.494   0.705  16.416 -1.8335 -1.5086 -1.2706
 5755SOL     OW28723   2.568   0.952   8.218  0.3090  0.3796  0.4498
 5755SOL    HW128724   2.542   0.939   8.127 -1.5499 -0.1335  1.0711
 5755SOL    HW228725   2.558   0.860   8.242 -2.6076 -0.0702 -2.5526
 5756SOL     OW28726   2.195   2.335  12.401 -0.1205  0.4618 -0.3012
 5756SOL    HW128727   2.155   2.296  12.479  0.9421 -1.6517 -0.8357
 5756SOL    HW228728   2.273   2.280  12.393 -0.7138 -0.4046 -0.1250
 5757SOL     OW28729   2.096   1.650   4.535 -0.1142  0.3674 -0.3407
 5757SOL    HW128730   2.050   1.716   4.483 -1.0725  0.1047  0.1760
 5757SOL    HW228731   2.169   1.707   4.561  0.7636 -0.9768  0.1124
 5758SOL     OW28732   2.425   4.674   4.447  0.1890  0.0121 -0.3881
 5758SOL    HW128733   2.370   0.015   4.491 -0.8969 -2.6177  2.0904
 5758SOL    HW228734   2.435   4.713   4.360  0.2455  0.4856 -0.1658
 5759SOL     OW28735   2.202   2.462   9.660 -0.3447 -0.1899 -0.3224
 5759SOL    HW128736   2.223   2.369   9.674  1.9193  0.3557 -0.1874
 5759SOL    HW228737   2.166   2.476   9.747 -0.8822 -3.3178 -0.0221
 5760SOL     OW28738   2.106   3.595   3.794 -0.5097  0.1647  0.1105
 5760SOL    HW128739   2.106   3.673   3.849  0.5617  0.3799 -0.1932
 5760SOL    HW228740   2.023   3.604   3.748 -0.2099  0.2008 -0.4241
 5761SOL     OW28741   0.841   0.228  15.428  0.1312 -0.2654 -0.3045
 5761SOL    HW128742   0.783   0.254  15.356 -0.4899  2.2054  1.0928
 5761SOL    HW228743   0.927   0.267  15.411 -0.4967  1.2497 -0.0144
 5762SOL     OW28744   4.453   3.353   6.474  0.3872  0.0050  0.4842
 5762SOL    HW128745   4.544   3.373   6.495  0.3944  2.5895 -2.0106
 5762SOL    HW228746   4.409   3.366   6.558 -0.9875 -1.3528 -0.0171
 5763SOL     OW28747   0.894   0.011  10.406 -0.2750  0.1070  0.0693
 5763SOL    HW128748   0.889   0.046  10.495  2.2790 -2.5427  1.2515
 5763SOL    HW228749   0.915   0.095  10.364  0.6346 -1.3867 -2.4903
 5764SOL     OW28750   1.993   1.257  16.188 -0.0706  0.1985  0.1536
 5764SOL    HW128751   1.899   1.237  16.189 -0.4912  2.3171  1.5438
 5764SOL    HW228752   1.988   1.338  16.239  2.0727 -0.8470  1.9817
 5765SOL     OW28753   0.962   2.177   7.408  0.3368  0.3383  0.7002
 5765SOL    HW128754   0.881   2.156   7.455  0.6330 -2.4119 -0.0647
 5765SOL    HW228755   1.006   2.236   7.470  0.1416  1.1037  0.1145
 5766SOL     OW28756   1.824   0.644   5.283  0.1209  0.2958  0.1077
 5766SOL    HW128757   1.898   0.655   5.341 -0.4159  0.5704  0.7427
 5766SOL    HW228758   1.855   0.693   5.207 -0.0107 -0.5394 -0.4884
 5767SOL     OW28759   2.773   4.452   2.676  0.3791 -0.1003 -0.2479
 5767SOL    HW128760   2.706   4.516   2.698  1.6746  1.4205 -0.7304
 5767SOL    HW228761   2.850   4.494   2.714  0.4422 -0.2679 -0.1923
 5768SOL     OW28762   4.197   0.579   5.053 -0.2900 -0.9058 -0.2973
 5768SOL    HW128763   4.191   0.507   5.116  0.7634  0.6993  1.6527
 5768SOL    HW228764   4.280   0.549   5.017 -0.0092 -0.7136  0.1897
 5769SOL     OW28765   0.223   3.629   4.337  0.4300 -0.1458 -0.7428
 5769SOL    HW128766   0.129   3.646   4.341  0.5228 -0.5151  3.1660
 5769SOL    HW228767   0.219   3.539   4.303 -1.8566 -0.3378  0.0196
 5770SOL     OW28768   2.931   0.082   5.155  0.2365  0.6629 -0.6228
 5770SOL    HW128769   2.899   0.138   5.226  1.1726  0.5303 -0.0892
 5770SOL    HW228770   3.023   0.111   5.148  0.6697 -0.7598 -0.8413
 5771SOL     OW28771   3.305   1.351   4.348 -0.2356  0.3742  0.2108
 5771SOL    HW128772   3.215   1.376   4.328 -0.7181 -0.9249  0.7863
 5771SOL    HW228773   3.344   1.437   4.364  1.0587  0.1065 -1.4680
 5772SOL     OW28774   4.434   2.123   8.446  0.2108  0.6694  0.2062
 5772SOL    HW128775   4.346   2.120   8.408 -0.4542  0.0926  1.8074
 5772SOL    HW228776   4.444   2.039   8.491  1.0754  1.5941  1.7110
 5773SOL     OW28777   0.739   1.322   2.830  0.5062 -0.3194 -0.3282
 5773SOL    HW128778   0.687   1.269   2.891 -1.5729 -2.3311 -3.8435
 5773SOL    HW228779   0.704   1.296   2.745  0.4293  1.1594 -0.7380
 5774SOL     OW28780   4.450   1.405   8.211  1.0395 -0.1240  0.4700
 5774SOL    HW128781   4.512   1.476   8.197  0.4211  0.4628  0.7111
 5774SOL    HW228782   4.390   1.449   8.271 -0.1678 -1.8496  0.5514
 5775SOL     OW28783   3.675   0.110  14.690 -0.2963 -0.0760 -0.2418
 5775SOL    HW128784   3.701   0.031  14.642  1.0486  0.4484 -0.3678
 5775SOL    HW228785   3.693   0.079  14.779 -0.7099 -2.4946 -0.9827
 5776SOL     OW28786   4.465   1.477   5.990  0.0693 -0.5037 -0.1145
 5776SOL    HW128787   4.400   1.508   6.052  0.0061 -1.1324  0.1372
 5776SOL    HW228788   4.533   1.439   6.046 -0.6563 -1.1965  0.2939
 5777SOL     OW28789   0.141   2.899   2.244  0.3450  0.2401  0.8147
 5777SOL    HW128790   0.203   2.827   2.239  2.1029  1.7139  1.0451
 5777SOL    HW228791   0.169   2.957   2.173  0.5955 -1.6231 -0.5814
 5778SOL     OW28792   1.059   2.263  13.568 -0.8459 -0.0559  0.3037
 5778SOL    HW128793   1.055   2.262  13.664 -1.0519 -2.2508  0.2714
 5778SOL    HW228794   0.967   2.256  13.546 -0.3948  1.1905 -1.9400
 5779SOL     OW28795   2.586   1.551   5.172 -0.4361  0.5091  0.7675
 5779SOL    HW128796   2.555   1.609   5.242  0.1960  2.7444 -0.8066
 5779SOL    HW228797   2.508   1.495   5.166 -2.0155  2.5896  1.6956
 5780SOL     OW28798   4.128   0.065   2.478  0.3577 -0.2726  0.3596
 5780SOL    HW128799   4.099   4.712   2.429  1.0709 -0.5392  0.3522
 5780SOL    HW228800   4.089   0.134   2.424 -1.0528 -2.1745 -1.0679
 5781SOL     OW28801   3.901   2.130  16.103 -0.2705 -0.0476 -0.5928
 5781SOL    HW128802   3.922   2.070  16.031  1.1947  0.6464 -0.7334
 5781SOL    HW228803   3.944   2.211  16.075 -0.5487  0.1008 -0.5901
 5782SOL     OW28804   1.279   4.706  11.871  0.7488 -0.2343  0.1706
 5782SOL    HW128805   1.188   4.697  11.842  0.9265  0.1884 -0.5245
 5782SOL    HW228806   1.304   4.621  11.906 -1.8591 -0.5831  1.1798
 5783SOL     OW28807   2.505   4.115  10.465 -0.2062 -0.0257  0.2554
 5783SOL    HW128808   2.476   4.162  10.543 -0.0539  0.2599  0.1405
 5783SOL    HW228809   2.557   4.043  10.501  0.6796 -0.1551 -1.3078
 5784SOL     OW28810   2.119   0.810   2.776 -0.3067  0.1700  0.2173
 5784SOL    HW128811   2.213   0.798   2.785 -0.3444 -0.4655 -0.2787
 5784SOL    HW228812   2.110   0.888   2.721  1.1977 -0.0533 -0.3416
 5785SOL     OW28813   3.584   1.167   6.852  0.0283 -0.0789 -1.1805
 5785SOL    HW128814   3.671   1.196   6.879  0.3928  0.4395 -2.8913
 5785SOL    HW228815   3.587   1.082   6.894  0.8724  1.1221  1.1724
 5786SOL     OW28816   2.792   2.825   3.888  0.6665 -0.4638 -0.2536
 5786SOL    HW128817   2.780   2.766   3.963  2.5740 -0.4409  0.0717
 5786SOL    HW228818   2.860   2.880   3.927  1.2359  0.5462 -2.6852
 5787SOL     OW28819   2.952   1.459  12.268 -0.1489  0.1815  0.4153
 5787SOL    HW128820   3.003   1.439  12.190 -0.1460  0.7103  0.2822
 5787SOL    HW228821   2.938   1.369  12.299  0.7454 -0.4232 -0.9686
 5788SOL     OW28822   1.380   1.217   3.129  0.2302 -0.4138  0.2445
 5788SOL    HW128823   1.352   1.128   3.154 -1.3068 -0.3171 -1.1176
 5788SOL    HW228824   1.353   1.213   3.037  2.7356 -1.1166 -0.4404
 5789SOL     OW28825   1.238   3.396   8.632 -0.0736  0.0472 -0.4600
 5789SOL    HW128826   1.213   3.306   8.614 -1.1314  0.1710  0.4132
 5789SOL    HW228827   1.309   3.385   8.695  0.3191 -0.0789 -0.9254
 5790SOL     OW28828   4.414   2.003  10.375  0.1383 -0.2512  0.1080
 5790SOL    HW128829   4.322   2.003  10.349 -0.3465 -2.3686  1.8472
 5790SOL    HW228830   4.395   2.034  10.464  1.3231  0.4505  0.1180
 5791SOL     OW28831   0.616   2.339   3.272  0.5003  0.4002 -0.2825
 5791SOL    HW128832   0.582   2.394   3.201 -1.5250 -0.0781  0.3219
 5791SOL    HW228833   0.698   2.380   3.297  0.8198 -0.9597  0.8768
 5792SOL     OW28834   3.599   4.421  12.634 -0.5195  0.0138  0.3093
 5792SOL    HW128835   3.681   4.375  12.652  0.0031  0.5012 -0.8260
 5792SOL    HW228836   3.578   4.463  12.717  1.2622  0.6563  0.4405
 5793SOL     OW28837   4.719   2.489  10.931 -0.2902  0.3060  0.2701
 5793SOL    HW128838   0.029   2.399  10.938 -0.5738  0.1430 -0.4967
 5793SOL    HW228839   0.012   2.520  11.020 -1.8274 -0.8214  0.9537
 5794SOL     OW28840   3.316   1.886   3.571  0.2884 -0.3155 -0.3506
 5794SOL    HW128841   3.258   1.950   3.614  2.8939  1.6977  0.1275
 5794SOL    HW228842   3.399   1.919   3.604  1.3833 -0.4873 -2.8873
 5795SOL     OW28843   3.928   3.788   6.793  0.5786  0.7664 -0.4842
 5795SOL    HW128844   3.989   3.807   6.723  1.6417  1.0372  0.5079
 5795SOL    HW228845   3.852   3.759   6.742  0.3496 -1.8982  1.3849
 5796SOL     OW28846   0.146   4.626   0.820  0.0778 -0.0495  0.6199
 5796SOL    HW128847   0.093   4.547   0.808  0.1482  0.0789 -0.5967
 5796SOL    HW228848   0.164   4.639   0.727 -0.2760 -0.6106  0.4732
 5797SOL     OW28849   3.515   4.353  13.637  0.3090 -0.1126  0.0936
 5797SOL    HW128850   3.496   4.392  13.722  4.0458  1.0582  0.4004
 5797SOL    HW228851   3.452   4.281  13.645 -0.5992  0.5839 -0.7910
 5798SOL     OW28852   1.924   1.896  12.134 -0.2643 -0.4379 -0.6070
 5798SOL    HW128853   1.923   1.985  12.169 -0.4555 -0.7568  0.1891
 5798SOL    HW228854   1.876   1.849  12.203  1.7557  0.5079  1.4281
 5799SOL     OW28855   4.695   0.774  16.500 -0.2816  0.1145 -0.1053
 5799SOL    HW128856   4.639   0.844  16.533 -0.3471 -1.1285  2.3863
 5799SOL    HW228857   4.651   0.694  16.530 -0.7582  0.4568  0.1010
 5800SOL     OW28858   2.564   3.077   1.876 -0.5764  0.0269  0.3141
 5800SOL    HW128859   2.626   3.028   1.931 -1.7835 -1.7463  0.1056
 5800SOL    HW228860   2.484   3.029   1.899 -1.9199  1.5176 -1.3406
 5801SOL     OW28861   0.655   4.196   3.944 -0.2877  0.0622  0.9881
 5801SOL    HW128862   0.583   4.167   4.000  0.3257 -1.4977  0.9698
 5801SOL    HW228863   0.711   4.119   3.946 -1.3834 -0.7062  1.9544
 5802SOL     OW28864   2.674   2.495   0.564 -0.2815 -0.0859 -0.3506
 5802SOL    HW128865   2.680   2.535   0.477 -1.0734 -1.6649 -1.1259
 5802SOL    HW228866   2.708   2.562   0.624 -0.9936 -0.2055  0.1876
 5803SOL     OW28867   0.649   2.739  13.348  0.2915 -0.1340 -0.1282
 5803SOL    HW128868   0.578   2.787  13.392 -0.7706 -1.3543 -0.5228
 5803SOL    HW228869   0.608   2.708  13.267  1.3873 -0.7112 -0.4590
 5804SOL     OW28870   1.922   0.697   5.036 -0.6190 -0.3536  0.0049
 5804SOL    HW128871   2.002   0.646   5.050 -0.1967  0.2937 -0.0644
 5804SOL    HW228872   1.906   0.679   4.944 -0.3255 -0.0480 -0.1082
 5805SOL     OW28873   1.674   2.986  15.887 -0.4633 -0.0241  0.3722
 5805SOL    HW128874   1.627   3.025  15.813 -1.6033 -2.0362  0.0342
 5805SOL    HW228875   1.608   2.973  15.955 -2.3769 -1.3114 -1.7494
 5806SOL     OW28876   2.001   0.761  15.225  0.5915  0.3359  0.2307
 5806SOL    HW128877   1.965   0.746  15.312 -0.2473  1.9479  0.1712
 5806SOL    HW228878   1.924   0.789  15.175  1.2391 -0.1928 -1.0586
 5807SOL     OW28879   2.601   0.430   3.427  0.3505  0.3995 -0.1164
 5807SOL    HW128880   2.532   0.377   3.387  0.5202 -0.1818  0.3662
 5807SOL    HW228881   2.644   0.356   3.471 -0.0799 -0.0102 -0.3916
 5808SOL     OW28882   3.895   4.533   3.659 -0.1557 -0.4276  0.2521
 5808SOL    HW128883   3.894   4.490   3.574 -1.3302 -1.7548  0.9405
 5808SOL    HW228884   3.933   4.618   3.637  3.3707 -2.5820 -2.1127
 5809SOL     OW28885   3.791   0.916   6.750  0.3278 -0.4792  0.5658
 5809SOL    HW128886   3.783   0.833   6.796 -1.5234  0.5500  2.1231
 5809SOL    HW228887   3.711   0.915   6.696  1.7891 -0.4407 -1.6108
 5810SOL     OW28888   1.978   3.486   7.076 -0.2493 -0.0745 -0.0021
 5810SOL    HW128889   1.931   3.467   7.157 -1.2014  0.2253 -0.4850
 5810SOL    HW228890   2.003   3.401   7.040  0.8625  0.7407 -1.1383
 5811SOL     OW28891   4.632   0.540  11.342 -0.3188  0.1872 -0.0545
 5811SOL    HW128892   4.657   0.594  11.267  0.0690  1.6907  1.1485
 5811SOL    HW228893   4.563   0.482  11.311 -0.3402 -0.8925  2.0060
 5812SOL     OW28894   3.144   3.204   6.407  0.1190 -0.0006 -0.2247
 5812SOL    HW128895   3.208   3.189   6.338 -0.7560 -1.4102 -0.7238
 5812SOL    HW228896   3.062   3.167   6.375 -1.5964  2.2103  1.5804
 5813SOL     OW28897   3.859   3.628   4.489  0.5299 -0.2180  0.3169
 5813SOL    HW128898   3.845   3.652   4.580  0.8895 -0.1015  0.3414
 5813SOL    HW228899   3.889   3.710   4.450 -2.0873  0.1885 -0.8516
 5814SOL     OW28900   1.657   1.778   4.403 -0.0578 -0.0597  0.1533
 5814SOL    HW128901   1.717   1.744   4.470 -1.1051  0.2454  1.2387
 5814SOL    HW228902   1.575   1.749   4.444  1.0146  1.3397  3.2785
 5815SOL     OW28903   3.517   1.339   7.497  0.1023  0.4232  0.2629
 5815SOL    HW128904   3.607   1.363   7.518  0.8332 -0.9648 -1.2920
 5815SOL    HW228905   3.525   1.280   7.422  1.5944  1.0627 -0.0872
 5816SOL     OW28906   1.637   3.068   9.055  0.3363  0.0650  0.7103
 5816SOL    HW128907   1.659   3.156   9.024  0.3460 -0.2121 -0.0905
 5816SOL    HW228908   1.624   3.025   8.970  1.1218 -0.4410  0.8493
 5817SOL     OW28909   3.820   3.121   3.862 -0.0089 -0.3290  0.1387
 5817SOL    HW128910   3.869   3.158   3.789 -0.9991 -1.5053 -1.1366
 5817SOL    HW228911   3.763   3.064   3.810  1.3662 -1.0282 -0.6125
 5818SOL     OW28912   0.674   1.421   5.716 -0.2817  0.2112  0.2412
 5818SOL    HW128913   0.606   1.398   5.653 -1.2187 -0.6046  1.5498
 5818SOL    HW228914   0.689   1.515   5.705 -2.8142  0.2907 -2.5335
 5819SOL     OW28915   0.349   0.320   1.558 -0.2903 -0.2257  0.4646
 5819SOL    HW128916   0.286   0.334   1.629 -0.5771  0.4166  0.0827
 5819SOL    HW228917   0.335   0.397   1.503 -1.2887 -0.3841  0.5031
 5820SOL     OW28918   2.825   4.637   3.287  0.0557 -0.2327  0.6806
 5820SOL    HW128919   2.816   4.635   3.382 -3.4923  2.1710  0.3706
 5820SOL    HW228920   2.749   4.685   3.255  0.2647  0.1480  0.7485
 5821SOL     OW28921   2.150   1.929  15.455 -0.3030 -0.0421  0.1557
 5821SOL    HW128922   2.184   1.883  15.379 -0.1127  0.2076  0.0916
 5821SOL    HW228923   2.178   2.018  15.432  0.0587 -0.5945 -1.5128
 5822SOL     OW28924   3.110   0.118   2.037 -0.4886 -0.3164 -0.2675
 5822SOL    HW128925   3.140   0.124   2.128  2.0533  0.1016 -1.1253
 5822SOL    HW228926   3.059   0.037   2.039 -1.3901  0.2158 -2.2649
 5823SOL     OW28927   2.252   2.138   8.227  0.5367  0.1245 -0.2577
 5823SOL    HW128928   2.193   2.136   8.153  0.6847  0.4134 -0.3847
 5823SOL    HW228929   2.225   2.200   8.296 -0.4427 -1.7581  1.0549
 5824SOL     OW28930   1.343   3.015   9.109  0.0893  0.0964 -0.0223
 5824SOL    HW128931   1.438   3.026   9.111  0.0490  0.0084  2.5570
 5824SOL    HW228932   1.325   3.100   9.149  0.3537 -0.1986  0.7219
 5825SOL     OW28933   3.023   2.030  11.054  0.1341 -0.2207  0.1867
 5825SOL    HW128934   3.106   2.020  11.100  0.2886  2.6968  0.5532
 5825SOL    HW228935   3.052   2.032  10.963 -4.8852  0.0668 -1.4164
 5826SOL     OW28936   2.175   2.674   3.002  0.1899  0.3155  0.0045
 5826SOL    HW128937   2.091   2.680   2.957 -1.0922 -4.3634  1.7709
 5826SOL    HW228938   2.225   2.626   2.936 -1.6114 -1.6261  0.0885
 5827SOL     OW28939   2.768   1.358   8.915  0.2856 -0.1873 -0.1629
 5827SOL    HW128940   2.805   1.443   8.939  1.3057 -0.0667 -2.1878
 5827SOL    HW228941   2.723   1.379   8.833 -2.8291  0.6639  1.7635
 5828SOL     OW28942   2.618   1.258  10.154 -0.1710  0.1976 -1.1831
 5828SOL    HW128943   2.564   1.180  10.161  0.8222 -0.4955 -1.2773
 5828SOL    HW228944   2.703   1.215  10.139  0.2726  0.6618 -0.0092
 5829SOL     OW28945   3.424   1.984   7.139 -0.6942 -0.7735  0.0237
 5829SOL    HW128946   3.455   1.986   7.049 -2.4781  2.0361 -0.5252
 5829SOL    HW228947   3.329   1.994   7.132 -0.3621  2.2982 -0.2947
 5830SOL     OW28948   1.649   1.989   8.359 -0.5300  0.2234  0.0644
 5830SOL    HW128949   1.720   1.996   8.296 -1.8036  0.9483 -1.2986
 5830SOL    HW228950   1.705   2.016   8.432 -0.8703  0.8999  0.0726
 5831SOL     OW28951   1.089   0.559   2.282  0.0436  0.3597  0.0416
 5831SOL    HW128952   1.035   0.480   2.276 -1.4920  1.5802 -2.1071
 5831SOL    HW228953   1.040   0.613   2.344  3.0518  3.9497 -0.7173
 5832SOL     OW28954   4.443   4.722   6.443  0.4664  0.4900  0.5593
 5832SOL    HW128955   4.482   0.024   6.527 -1.0735 -0.4415  1.5542
 5832SOL    HW228956   4.350   0.005   6.467 -0.3753  0.3729 -2.6950
 5833SOL     OW28957   1.463   0.154  12.163 -0.1864 -0.7134 -0.1054
 5833SOL    HW128958   1.428   0.225  12.110  3.6865  1.3163  0.0765
 5833SOL    HW228959   1.480   0.197  12.247 -2.0155 -0.7253  0.2700
 5834SOL     OW28960   3.203   2.385  15.382 -1.1462 -0.7844  0.0527
 5834SOL    HW128961   3.264   2.321  15.418 -0.4794 -1.2000 -1.8512
 5834SOL    HW228962   3.122   2.342  15.408 -1.8348  0.1945 -0.4523
 5835SOL     OW28963   2.799   3.495   4.087 -0.3197  0.0167 -0.1499
 5835SOL    HW128964   2.752   3.442   4.151  0.5657  0.5273  0.9386
 5835SOL    HW228965   2.792   3.579   4.132  2.8518 -0.2131  0.8314
 5836SOL     OW28966   0.055   2.366  16.446  0.3766  0.3302  0.1584
 5836SOL    HW128967   0.056   2.306  16.372 -0.2383  0.3223  0.1552
 5836SOL    HW228968   0.125   2.426  16.422 -0.8974 -0.0582 -4.4071
 5837SOL     OW28969   1.129   4.311   3.968 -0.2442 -0.3905 -0.1796
 5837SOL    HW128970   1.073   4.277   3.898 -0.2994  0.5220 -0.5828
 5837SOL    HW228971   1.088   4.277   4.048  0.5952  0.2844  0.5376
 5838SOL     OW28972   0.196   0.680  12.694 -0.4066 -0.2674 -0.4480
 5838SOL    HW128973   0.270   0.637  12.650  0.0645 -1.9235  1.9450
 5838SOL    HW228974   0.239   0.761  12.722 -0.1781 -0.4172 -0.3631
 5839SOL     OW28975   1.637   2.103  12.175 -0.5482 -0.4482  0.2234
 5839SOL    HW128976   1.696   2.037  12.138  0.6211 -0.4323  2.0799
 5839SOL    HW228977   1.605   2.153  12.100  1.1486  0.7344  0.2964
 5840SOL     OW28978   0.831   3.877   1.199  0.5504 -0.0377  0.4046
 5840SOL    HW128979   0.799   3.829   1.276  0.9048  1.0194  1.2060
 5840SOL    HW228980   0.817   3.812   1.131  0.3688  2.1803 -1.6714
 5841SOL     OW28981   0.101   1.397   3.706  0.5110  0.7019 -0.0409
 5841SOL    HW128982   0.074   1.459   3.638  0.5732  0.0715 -0.6322
 5841SOL    HW228983   0.015   1.364   3.733  1.0257  0.9637  1.8737
 5842SOL     OW28984   0.513   3.254   6.704  0.7675  0.2217 -0.3670
 5842SOL    HW128985   0.418   3.256   6.718  0.8657 -0.7083  0.3667
 5842SOL    HW228986   0.519   3.327   6.642  3.2693  0.2661 -0.0717
 5843SOL     OW28987   3.012   0.169   6.314 -0.3659  0.0237 -0.1357
 5843SOL    HW128988   3.083   0.131   6.367  0.7544  2.5524  0.2076
 5843SOL    HW228989   2.999   0.249   6.365 -0.7209  1.0689 -1.8851
 5844SOL     OW28990   2.798   2.762   4.449  0.2024 -0.8083 -0.9503
 5844SOL    HW128991   2.723   2.771   4.391 -0.6546  1.9099  0.6273
 5844SOL    HW228992   2.805   2.667   4.466 -0.5436 -0.3274  2.1072
 5845SOL     OW28993   3.621   4.436   7.261  0.6080 -0.5601  0.3141
 5845SOL    HW128994   3.577   4.501   7.316  0.2673 -0.2447 -0.3306
 5845SOL    HW228995   3.601   4.461   7.171 -2.1146 -2.9206  0.2822
 5846SOL     OW28996   0.560   0.468   3.310  0.4313  0.1206  0.6304
 5846SOL    HW128997   0.606   0.416   3.376 -0.1422 -0.2045  0.7707
 5846SOL    HW228998   0.620   0.539   3.286  1.2007 -0.5256  0.6336
 5847SOL     OW28999   1.077   2.757  11.383 -0.6665  0.1525  0.1076
 5847SOL    HW129000   1.169   2.757  11.408 -0.8007  1.3738  0.5948
 5847SOL    HW229001   1.076   2.834  11.325  0.2500 -1.8954 -2.6436
 5848SOL     OW29002   3.204   3.787  13.710  0.9306 -0.6280  0.5493
 5848SOL    HW129003   3.181   3.789  13.803  1.1941  0.7586  0.5849
 5848SOL    HW229004   3.298   3.797  13.723  0.5240  2.3907  1.1085
 5849SOL     OW29005   4.160   0.247  17.121  0.4476  0.0324  0.1918
 5849SOL    HW129006   4.195   0.327  17.160  2.8463 -0.2924 -1.2998
 5849SOL    HW229007   4.177   0.262  17.028 -0.9573 -4.9291 -0.8515
 5850SOL     OW29008   1.556   0.832   6.726  0.0319  0.0523 -0.3889
 5850SOL    HW129009   1.531   0.789   6.809 -0.6978  1.0915 -0.0689
 5850SOL    HW229010   1.474   0.865   6.689  1.0244  0.0449 -2.5980
 5851SOL     OW29011   3.009   2.974  13.017 -0.2446 -0.3826 -0.0028
 5851SOL    HW129012   2.968   2.912  13.077  0.1881  0.0435  0.7439
 5851SOL    HW229013   3.019   2.914  12.944 -0.8786 -0.5061  0.0133
 5852SOL     OW29014   2.989   2.218  12.514  0.3508 -0.7334  0.7232
 5852SOL    HW129015   3.008   2.231  12.421 -0.7561  0.0090  0.6018
 5852SOL    HW229016   2.969   2.307  12.543  0.0826 -0.5202 -0.1079
 5853SOL     OW29017   0.847   3.119  11.106 -0.6090 -0.2699 -0.1158
 5853SOL    HW129018   0.849   3.176  11.182  1.4181 -1.2782  0.5669
 5853SOL    HW229019   0.753   3.097  11.104 -0.6107 -0.2383 -0.3776
 5854SOL     OW29020   0.121   0.705  16.834 -0.0691 -0.0146  0.2476
 5854SOL    HW129021   0.138   0.713  16.928 -2.0783 -3.3933  0.9025
 5854SOL    HW229022   0.135   0.797  16.813  1.9219 -0.8479 -2.0844
 5855SOL     OW29023   2.814   3.421   8.709 -0.1883 -0.4972 -0.2164
 5855SOL    HW129024   2.728   3.433   8.750 -0.0363  0.6498 -0.2283
 5855SOL    HW229025   2.826   3.330   8.736  0.8659  0.1002  1.3582
 5856SOL     OW29026   1.183   3.937   6.106  0.4425 -0.2868  0.0558
 5856SOL    HW129027   1.253   3.890   6.061  0.0964 -1.7912  1.0913
 5856SOL    HW229028   1.195   3.911   6.197 -1.3923  1.3197  0.7362
 5857SOL     OW29029   2.288   0.827   8.400 -0.0269  0.2256  0.0446
 5857SOL    HW129030   2.227   0.783   8.341  0.0214  0.0630  0.1157
 5857SOL    HW229031   2.367   0.774   8.401  0.6887  1.3455  4.0085
 5858SOL     OW29032   3.861   0.907   5.081  0.4500  0.3279  0.2737
 5858SOL    HW129033   3.940   0.879   5.035  0.6471 -1.3424  1.6379
 5858SOL    HW229034   3.803   0.953   5.021 -0.5830  0.1945  1.1559
 5859SOL     OW29035   1.026   1.117   4.482  0.7696  0.3091 -0.0166
 5859SOL    HW129036   1.022   1.024   4.462 -0.9199  0.4715 -0.4099
 5859SOL    HW229037   1.110   1.140   4.442  1.0974  1.1862  1.1745
 5860SOL     OW29038   1.243   2.616   5.056 -0.4996  0.4606 -0.0069
 5860SOL    HW129039   1.255   2.693   5.000 -0.3514  0.1510 -0.4034
 5860SOL    HW229040   1.331   2.590   5.080 -1.3587 -1.4297  1.1211
 5861SOL     OW29041   0.071   2.940  13.976  0.1594  0.3881  0.0454
 5861SOL    HW129042   4.720   2.968  13.923  1.3058  1.2068 -1.1251
 5861SOL    HW229043   0.026   2.900  14.051 -0.0165 -1.9325 -1.2918
 5862SOL     OW29044   1.033   3.363  14.984 -0.1273  0.2027 -0.5559
 5862SOL    HW129045   0.968   3.341  15.050  0.2998  1.7433  0.3901
 5862SOL    HW229046   1.113   3.332  15.026 -0.5631 -1.4812 -0.9762
 5863SOL     OW29047   4.424   3.109   3.585  0.3452  0.2610  1.0633
 5863SOL    HW129048   4.443   3.159   3.505  0.8493  0.7803  1.5096
 5863SOL    HW229049   4.391   3.029   3.544  0.8680  0.4091  0.3538
 5864SOL     OW29050   3.638   2.921  14.528  0.0302  0.2525  0.8047
 5864SOL    HW129051   3.666   2.995  14.474 -2.7177  0.7467  0.0787
 5864SOL    HW229052   3.637   2.970  14.611 -1.5110 -0.5599  1.2540
 5865SOL     OW29053   1.589   2.115   7.188  0.0795 -0.2434 -0.3935
 5865SOL    HW129054   1.611   2.156   7.105  0.4546  2.7981  1.2103
 5865SOL    HW229055   1.581   2.021   7.168  2.4772  0.1337 -3.0770
 5866SOL     OW29056   4.374   0.202  10.732  0.2049 -1.3029  0.5184
 5866SOL    HW129057   4.301   0.259  10.707  1.5205 -1.1649 -2.9808
 5866SOL    HW229058   4.431   0.261  10.780  1.3026 -1.9846  0.0609
 5867SOL     OW29059   4.103   1.839  10.867  0.3576 -0.0146  0.8304
 5867SOL    HW129060   4.046   1.870  10.797 -0.1510 -2.8046  0.0190
 5867SOL    HW229061   4.092   1.745  10.853  2.0615  0.1403 -1.4880
 5868SOL     OW29062   0.451   0.019   1.014 -0.3067  0.6748  0.1487
 5868SOL    HW129063   0.462   0.058   0.927  2.1747  0.8576  0.5434
 5868SOL    HW229064   0.380   0.075   1.046 -0.6289  0.7471 -0.6698
 5869SOL     OW29065   3.567   1.267   4.537  0.3298  0.1694  0.1233
 5869SOL    HW129066   3.482   1.277   4.493 -0.5510  2.4584  2.3690
 5869SOL    HW229067   3.631   1.297   4.473  2.1396 -1.2459  1.2780
 5870SOL     OW29068   0.510   1.543   5.909  0.4688  0.6993 -0.4139
 5870SOL    HW129069   0.566   1.595   5.851  0.8280  1.5889  0.7258
 5870SOL    HW229070   0.551   1.457   5.905  2.1202  1.3933  1.2523
 5871SOL     OW29071   2.108   0.699   8.236 -0.1687 -0.1597  0.2590
 5871SOL    HW129072   2.016   0.725   8.233  0.1356  0.7460 -1.0779
 5871SOL    HW229073   2.100   0.604   8.248  2.7614 -0.1830  2.0552
 5872SOL     OW29074   4.313   4.596   7.258 -0.1902 -0.2508 -0.2530
 5872SOL    HW129075   4.314   4.680   7.303 -0.4675 -0.3799 -0.0062
 5872SOL    HW229076   4.380   4.549   7.307  0.2714  0.6519 -0.0215
 5873SOL     OW29077   0.931   0.975  15.867  0.0409 -0.3399  0.6619
 5873SOL    HW129078   0.880   0.902  15.902 -1.4501  0.7131  0.7027
 5873SOL    HW229079   1.008   0.919  15.853  0.2570  0.5358 -1.6001
 5874SOL     OW29080   2.902   3.787   5.619 -0.1479 -0.3461 -0.2389
 5874SOL    HW129081   2.822   3.838   5.636  1.9310  2.9265 -0.1207
 5874SOL    HW229082   2.959   3.797   5.696 -1.1865  0.8406  0.3732
 5875SOL     OW29083   0.922   4.631   5.729 -0.4675  0.3894  0.1653
 5875SOL    HW129084   1.014   4.658   5.724 -0.1742 -0.6939 -0.2416
 5875SOL    HW229085   0.889   4.688   5.798  0.7902  2.1988 -0.7088
 5876SOL     OW29086   2.526   2.420   9.694  0.2219  0.3444 -0.2204
 5876SOL    HW129087   2.472   2.345   9.670  1.8148 -1.3414  1.4582
 5876SOL    HW229088   2.475   2.448   9.769 -0.1549  1.2597 -0.8105
 5877SOL     OW29089   0.151   1.574   6.472 -0.2328  0.2012  0.5361
 5877SOL    HW129090   0.116   1.630   6.541  0.1921  1.3212 -0.1672
 5877SOL    HW229091   0.239   1.564   6.508  0.3256  1.8520 -0.3471
 5878SOL     OW29092   0.585   2.819   3.127 -0.4634  0.0230 -0.3567
 5878SOL    HW129093   0.579   2.895   3.185  0.2344  0.4122 -0.7885
 5878SOL    HW229094   0.675   2.808   3.098  0.0791 -0.0509  1.3894
 5879SOL     OW29095   2.844   0.562  14.416 -0.3952  0.1126 -0.0688
 5879SOL    HW129096   2.886   0.519  14.489 -0.9216  0.2675  0.3252
 5879SOL    HW229097   2.906   0.550  14.344  0.2276 -0.6996  0.6190
 5880SOL     OW29098   0.749   4.509  13.834 -0.6415 -0.2204 -0.4248
 5880SOL    HW129099   0.789   4.437  13.883  0.2295  0.9252  0.5391
 5880SOL    HW229100   0.823   4.567  13.818  1.8771 -3.3545 -0.2779
 5881SOL     OW29101   2.745   1.930   4.780  0.5332  0.2805 -0.0926
 5881SOL    HW129102   2.683   1.863   4.807  1.2370 -0.0823  0.6269
 5881SOL    HW229103   2.833   1.895   4.795  0.7007  0.6149 -0.2795
 5882SOL     OW29104   2.565   3.268   7.821 -0.1818 -0.3232 -0.1282
 5882SOL    HW129105   2.498   3.200   7.811  0.5970 -1.2238  0.7619
 5882SOL    HW229106   2.649   3.225   7.840 -1.1534 -2.3539 -0.3681
 5883SOL     OW29107   3.904   1.385   7.214 -0.5698 -0.1414 -0.5380
 5883SOL    HW129108   3.956   1.359   7.290  1.3938  0.7780 -1.5785
 5883SOL    HW229109   3.871   1.303   7.178  2.9205 -1.8925  0.1910
 5884SOL     OW29110   2.154   0.852   2.180 -0.1490  0.0011  0.2844
 5884SOL    HW129111   2.211   0.838   2.256 -1.2345  0.4152  1.1842
 5884SOL    HW229112   2.101   0.772   2.181  4.0512 -2.8373 -1.6327
 5885SOL     OW29113   2.208   4.087   1.958 -0.1808  0.0541  0.1792
 5885SOL    HW129114   2.178   4.167   1.999 -0.7706  0.1053 -0.3544
 5885SOL    HW229115   2.133   4.078   1.899  0.2591 -3.8744  0.2175
 5886SOL     OW29116   3.242   1.049   7.208 -0.0477  0.4961 -0.2641
 5886SOL    HW129117   3.233   1.062   7.114 -0.0728 -2.2768 -0.6422
 5886SOL    HW229118   3.326   1.002   7.216  0.0101  0.2433 -2.4858
 5887SOL     OW29119   2.279   4.349  11.993  0.1129  0.1281  0.1507
 5887SOL    HW129120   2.236   4.314  12.071  1.2101  2.9869  2.0351
 5887SOL    HW229121   2.328   4.419  12.036  3.7648 -0.5722 -2.9131
 5888SOL     OW29122   2.925   0.609  12.241 -0.6552 -0.5024  0.2852
 5888SOL    HW129123   2.889   0.522  12.262 -1.3038 -0.6001 -1.1983
 5888SOL    HW229124   2.909   0.658  12.321  0.2428  1.9300 -1.0240
 5889SOL     OW29125   2.704   0.094  12.078 -0.0003  0.1476 -0.0546
 5889SOL    HW129126   2.762   0.092  12.154  0.6177  3.8142 -0.4285
 5889SOL    HW229127   2.620   0.116  12.120  0.8168  2.2891  0.4135
 5890SOL     OW29128   1.899   3.531  13.093 -0.5979 -0.2331 -0.1937
 5890SOL    HW129129   1.899   3.436  13.084  0.9653 -0.0770 -1.9150
 5890SOL    HW229130   1.853   3.541  13.176 -1.7536  0.6305 -0.9520
 5891SOL     OW29131   3.475   1.835   2.983 -0.6403  0.2285 -0.0897
 5891SOL    HW129132   3.568   1.854   2.996 -0.6680  0.4818 -0.2717
 5891SOL    HW229133   3.435   1.920   2.998  0.1460  0.5624  0.1115
 5892SOL     OW29134   1.577   3.353   2.903 -0.3248  0.1117  0.5252
 5892SOL    HW129135   1.593   3.390   2.816  0.3659  1.8500  1.3778
 5892SOL    HW229136   1.521   3.422   2.939  1.0428  0.7021  1.5226
 5893SOL     OW29137   1.543   0.935  16.723 -0.2644 -0.1784  0.4094
 5893SOL    HW129138   1.473   0.971  16.778  1.8120  1.6402  1.8631
 5893SOL    HW229139   1.495   0.860  16.687 -2.7562  2.1286 -1.0942
 5894SOL     OW29140   2.231   4.396  11.286  0.6548 -0.4942  0.1258
 5894SOL    HW129141   2.189   4.368  11.368 -1.0533  0.3602 -0.4521
 5894SOL    HW229142   2.282   4.319  11.260  4.6279  2.6277 -1.2202
 5895SOL     OW29143   1.008   0.285  10.397 -0.5645  0.4474 -0.0446
 5895SOL    HW129144   0.993   0.357  10.459 -2.2078 -0.6863  0.8500
 5895SOL    HW229145   1.094   0.254  10.425 -1.9057 -0.8486  2.5578
 5896SOL     OW29146   2.357   0.824  11.486 -0.0241 -0.0899 -0.1566
 5896SOL    HW129147   2.339   0.918  11.484 -1.1302 -0.3099 -0.6300
 5896SOL    HW229148   2.403   0.822  11.569 -2.2904 -0.4953  1.1069
 5897SOL     OW29149   1.273   1.997   2.862 -0.0111  0.2471 -0.1185
 5897SOL    HW129150   1.286   2.065   2.928 -2.8431 -0.8304  1.5332
 5897SOL    HW229151   1.330   1.930   2.899 -0.1533  0.6065  0.7486
 5898SOL     OW29152   3.844   4.304   0.485 -0.4346 -0.5218 -0.2517
 5898SOL    HW129153   3.865   4.395   0.464  2.5994 -0.9133  1.1480
 5898SOL    HW229154   3.842   4.300   0.581 -0.1775  1.2820 -0.1819
 5899SOL     OW29155   3.110   0.230   8.094 -0.0099  0.3046  0.3867
 5899SOL    HW129156   3.136   0.261   8.180 -2.2392  0.1720  1.1238
 5899SOL    HW229157   3.046   0.298   8.071 -1.7812 -1.4152  0.2552
 5900SOL     OW29158   1.637   1.626   1.773  0.1884 -0.2870 -0.2136
 5900SOL    HW129159   1.609   1.561   1.708 -0.3002 -0.6190  0.3306
 5900SOL    HW229160   1.707   1.673   1.728  0.3257  1.0579  1.4036
 5901SOL     OW29161   2.020   2.898  17.260  0.7561 -0.1033  0.6109
 5901SOL    HW129162   2.011   2.804  17.241 -0.4353 -0.0658  1.0034
 5901SOL    HW229163   2.087   2.926  17.197  0.1699 -1.8379 -0.7945
 5902SOL     OW29164   2.321   2.447   4.258  0.4845 -0.3249 -0.6904
 5902SOL    HW129165   2.269   2.366   4.254 -1.1669  0.6625  0.6921
 5902SOL    HW229166   2.327   2.444   4.354  0.2438  2.1222 -0.6001
 5903SOL     OW29167   1.879   2.671   8.271 -0.7626  0.3059  0.4631
 5903SOL    HW129168   1.821   2.695   8.199  0.4794  0.1557 -0.5918
 5903SOL    HW229169   1.863   2.577   8.276 -0.7652  0.3729  1.6836
 5904SOL     OW29170   2.625   4.388  11.812 -0.2696  0.4986  0.3170
 5904SOL    HW129171   2.602   4.418  11.725  0.8278  1.1511  0.2538
 5904SOL    HW229172   2.602   4.459  11.872 -1.6055 -0.4201  0.8889
 5905SOL     OW29173   3.369   1.319   2.572  1.1468  0.2019 -0.4038
 5905SOL    HW129174   3.353   1.337   2.480  2.2359  0.1162 -0.6127
 5905SOL    HW229175   3.459   1.286   2.570  1.1034  0.2728 -3.2369
 5906SOL     OW29176   2.775   4.329  15.411 -0.3052  0.1964 -0.0659
 5906SOL    HW129177   2.725   4.248  15.409  0.8528 -0.5622  2.1699
 5906SOL    HW229178   2.851   4.317  15.467  0.5952  0.8081 -1.1534
 5907SOL     OW29179   4.462   4.028   6.324 -0.0927  0.0281  0.0800
 5907SOL    HW129180   4.542   3.994   6.364  0.7028 -1.4613 -2.7334
 5907SOL    HW229181   4.430   4.096   6.384  1.9455  0.0860  1.0873
 5908SOL     OW29182   0.757   4.606   9.654  0.3201 -0.1867  0.0458
 5908SOL    HW129183   0.738   4.544   9.584 -1.5633 -1.0531  1.3327
 5908SOL    HW229184   0.672   4.635   9.686 -0.6521 -1.7689 -1.1553
 5909SOL     OW29185   1.125   4.323   7.423 -0.1608  0.2402 -0.0231
 5909SOL    HW129186   1.053   4.329   7.360  0.6814  1.3055 -0.8778
 5909SOL    HW229187   1.184   4.391   7.391 -0.4896  1.1170  1.2422
 5910SOL     OW29188   0.668   0.636   4.960  0.0519  0.4412 -0.5421
 5910SOL    HW129189   0.594   0.696   4.966 -1.4154 -1.2954 -1.3148
 5910SOL    HW229190   0.729   0.676   5.022 -1.0932 -0.1916  0.9958
 5911SOL     OW29191   1.036   4.142   5.130 -0.4308 -0.0052  0.5604
 5911SOL    HW129192   1.072   4.186   5.207  2.0140 -1.4286  0.2711
 5911SOL    HW229193   1.024   4.053   5.164  1.2650 -0.2900  0.4609
 5912SOL     OW29194   2.638   1.701  17.647  0.4222 -0.1348 -0.1417
 5912SOL    HW129195   2.599   1.659  17.571 -0.5420 -1.3331  1.0134
 5912SOL    HW229196   2.559   1.720   0.003  1.0800  1.9561  0.1061
 5913SOL     OW29197   0.561   0.506   2.889  0.0937  0.1660  0.3723
 5913SOL    HW129198   0.502   0.579   2.908 -0.4101 -0.0038 -0.5762
 5913SOL    HW229199   0.652   0.536   2.895  0.4687 -1.3152  2.2018
 5914SOL     OW29200   1.143   2.456   4.379 -0.3123  0.8582 -0.0759
 5914SOL    HW129201   1.124   2.505   4.299 -0.1188 -0.7637 -1.1074
 5914SOL    HW229202   1.218   2.501   4.418  0.0184  1.1170 -1.0086
 5915SOL     OW29203   2.237   4.014   6.463  0.3101 -0.8216  0.5664
 5915SOL    HW129204   2.214   3.974   6.546 -1.1919 -0.9352  0.0943
 5915SOL    HW229205   2.172   3.970   6.408 -1.4512  0.6504  1.4865
 5916SOL     OW29206   3.205   2.756   6.107 -0.1862 -0.5638  0.1097
 5916SOL    HW129207   3.130   2.711   6.145 -0.3288 -2.2401 -2.1461
 5916SOL    HW229208   3.241   2.800   6.184 -2.2008  0.0275  0.7140
 5917SOL     OW29209   2.717   4.268   6.519  0.2000 -0.4690 -0.0356
 5917SOL    HW129210   2.672   4.349   6.495  0.3118 -0.5571 -0.5473
 5917SOL    HW229211   2.636   4.218   6.532 -1.2302  1.8098 -0.1871
 5918SOL     OW29212   3.171   1.460  13.223 -0.0336  0.4520  0.2791
 5918SOL    HW129213   3.242   1.404  13.253 -0.3815 -0.3210 -0.3348
 5918SOL    HW229214   3.152   1.424  13.136 -0.9198  0.2635  0.5556
 5919SOL     OW29215   1.398   1.706   5.159 -0.2685  0.1672 -0.6213
 5919SOL    HW129216   1.318   1.755   5.140 -0.7165 -0.2749  0.1548
 5919SOL    HW229217   1.443   1.774   5.209 -1.9571  0.6173  0.2815
 5920SOL     OW29218   3.468   1.385   8.668  0.1740 -0.2356 -0.2361
 5920SOL    HW129219   3.452   1.429   8.752 -0.6199 -2.4367  0.7499
 5920SOL    HW229220   3.486   1.462   8.614  0.8201  1.6453  2.6532
 5921SOL     OW29221   0.554   1.076   3.208  0.2969 -0.6620 -0.6839
 5921SOL    HW129222   0.601   1.052   3.128 -1.6289  0.2549 -2.0872
 5921SOL    HW229223   0.487   1.134   3.173 -0.6284  0.1729  2.4196
 5922SOL     OW29224   4.420   2.192   1.493 -0.1626  0.4518 -0.0207
 5922SOL    HW129225   4.431   2.282   1.462  0.5645  0.6758  0.8768
 5922SOL    HW229226   4.503   2.191   1.542 -0.5548 -0.2044  0.6308
 5923SOL     OW29227   1.398   2.749   9.241 -0.9074 -0.3752  0.1628
 5923SOL    HW129228   1.333   2.682   9.220 -0.7357 -0.8240  1.0438
 5923SOL    HW229229   1.347   2.830   9.243 -0.8379 -0.3262 -0.1728
 5924SOL     OW29230   2.153   3.753   5.741  0.0939 -0.1680  0.2061
 5924SOL    HW129231   2.137   3.721   5.830  0.3279 -0.9324 -0.0251
 5924SOL    HW229232   2.202   3.834   5.752 -0.5918  0.2816 -0.0619
 5925SOL     OW29233   2.247   1.562   6.694  0.2935 -0.0320 -0.7724
 5925SOL    HW129234   2.228   1.653   6.673 -0.8733 -0.0426  0.1999
 5925SOL    HW229235   2.294   1.539   6.614  0.9906  0.2018 -0.4304
 5926SOL     OW29236   4.557   2.195  14.699 -0.2809  0.2608  0.1822
 5926SOL    HW129237   4.632   2.252  14.717 -0.6582  1.8555 -3.3602
 5926SOL    HW229238   4.510   2.277  14.686 -0.6569 -0.1878 -1.2074
 5927SOL     OW29239   4.555   0.294   6.571  0.4275 -0.0619 -0.4509
 5927SOL    HW129240   4.525   0.214   6.613 -0.2422  0.4083 -0.0369
 5927SOL    HW229241   4.617   0.272   6.502 -0.1049  1.8832 -1.5506
 5928SOL     OW29242   2.004   2.238   8.553 -0.3218  0.0686 -0.0335
 5928SOL    HW129243   2.054   2.265   8.631  0.7927  4.0215 -2.1224
 5928SOL    HW229244   2.037   2.309   8.497  1.9505 -2.3818 -1.8218
 5929SOL     OW29245   3.071   1.927   5.919  0.3527  0.1688 -0.0686
 5929SOL    HW129246   3.102   1.862   5.856  0.7957 -0.1999  0.5192
 5929SOL    HW229247   2.977   1.917   5.903  0.0686  0.1900  1.5881
 5930SOL     OW29248   1.543   3.247  14.948 -0.2004  0.7706  0.5407
 5930SOL    HW129249   1.551   3.152  14.944 -1.0692  0.7513 -0.6920
 5930SOL    HW229250   1.564   3.267  14.857 -1.8055  0.8417  0.1845
 5931SOL     OW29251   2.216   1.809  11.361 -0.1774  0.3294  0.6484
 5931SOL    HW129252   2.167   1.757  11.424  0.5006 -1.9072 -0.6744
 5931SOL    HW229253   2.293   1.757  11.340 -2.0078 -1.5132 -1.5937
 5932SOL     OW29254   1.483   2.644   8.189 -0.1188 -0.5186  0.7043
 5932SOL    HW129255   1.561   2.618   8.237 -1.1066 -0.0583  2.5774
 5932SOL    HW229256   1.423   2.663   8.261  0.2784 -1.7948  1.3709
 5933SOL     OW29257   3.322   3.487   1.994 -0.1550  0.3709  0.1543
 5933SOL    HW129258   3.288   3.562   2.043 -0.0848 -0.5461  1.6092
 5933SOL    HW229259   3.335   3.530   1.909 -2.4057  2.1300  0.7261
 5934SOL     OW29260   0.836   1.667  11.708  0.1839 -0.0825 -0.3466
 5934SOL    HW129261   0.921   1.663  11.666  1.6023  0.1834  2.5237
 5934SOL    HW229262   0.782   1.671  11.629  1.0299  2.1310 -0.8019
 5935SOL     OW29263   3.417   4.565   8.472 -0.3589 -0.3938  0.2021
 5935SOL    HW129264   3.510   4.549   8.453 -0.8222 -1.2167 -1.3459
 5935SOL    HW229265   3.372   4.500   8.418 -0.8998  1.0931 -1.1439
 5936SOL     OW29266   3.640   1.650   5.905  0.2799  0.1516  0.4885
 5936SOL    HW129267   3.567   1.593   5.881  0.3354  0.5709 -0.6987
 5936SOL    HW229268   3.602   1.728   5.866  0.2703  0.3108  0.8264
 5937SOL     OW29269   3.344   4.610  14.924 -0.4573 -0.1488 -0.2075
 5937SOL    HW129270   3.317   4.684  14.870 -1.0347  2.0429  3.0602
 5937SOL    HW229271   3.306   4.539  14.874 -0.5159  0.6084 -1.2500
 5938SOL     OW29272   3.414   0.715   0.932 -0.0327 -0.0685  0.2269
 5938SOL    HW129273   3.480   0.733   0.865  0.7973 -1.1811  0.7389
 5938SOL    HW229274   3.332   0.739   0.888  1.2546  1.3598 -1.3611
 5939SOL     OW29275   4.240   2.101  13.603  0.2764  0.1928 -0.5276
 5939SOL    HW129276   4.252   2.191  13.635  1.2356  0.5469 -1.8607
 5939SOL    HW229277   4.315   2.065  13.649  0.8643  0.4967 -1.2489
 5940SOL     OW29278   4.498   2.326   2.339 -0.1534  0.2417 -0.1222
 5940SOL    HW129279   4.587   2.295   2.359 -0.1175  0.2839 -0.2214
 5940SOL    HW229280   4.456   2.240   2.337  1.3592 -0.5330  1.0793
 5941SOL     OW29281   2.007   4.606   2.860  0.5533  0.2449  0.3396
 5941SOL    HW129282   1.923   4.650   2.846  1.0034  0.6200 -1.1387
 5941SOL    HW229283   1.980   4.535   2.918 -0.1266  0.2485  0.0238
 5942SOL     OW29284   3.395   1.521  10.022  0.0286  0.0507  0.5328
 5942SOL    HW129285   3.379   1.605  10.064 -2.1271  0.6898 -1.6092
 5942SOL    HW229286   3.451   1.549   9.950 -0.3802  0.7220  0.4783
 5943SOL     OW29287   2.200   2.790  10.732 -0.5030  0.3912 -0.2472
 5943SOL    HW129288   2.151   2.798  10.814 -1.5695  2.4425 -1.1209
 5943SOL    HW229289   2.288   2.771  10.767 -1.1086  1.0983  1.6807
 5944SOL     OW29290   4.334   0.468   4.283  0.4076 -0.1144 -0.0816
 5944SOL    HW129291   4.321   0.494   4.375 -0.5772  2.6928 -1.0129
 5944SOL    HW229292   4.398   0.532   4.252  0.1696 -0.2466 -0.8372
 5945SOL     OW29293   4.040   1.310   5.687 -0.2871 -0.5926 -1.2360
 5945SOL    HW129294   4.108   1.362   5.732 -0.7590  1.7402 -3.2143
 5945SOL    HW229295   3.962   1.365   5.703  1.8963  1.8069  1.3364
 5946SOL     OW29296   1.044   3.167   2.752  0.3262  0.1344 -0.5748
 5946SOL    HW129297   1.039   3.138   2.660  1.3966  1.6368 -1.0930
 5946SOL    HW229298   0.953   3.179   2.779  0.6885  0.5855  0.4095
 5947SOL     OW29299   0.971   3.584  10.425 -0.0481  0.5706 -0.1950
 5947SOL    HW129300   1.066   3.577  10.414 -0.1423 -0.3846 -0.4633
 5947SOL    HW229301   0.950   3.521  10.356  0.4573  0.4132 -0.2002
 5948SOL     OW29302   3.497   4.081   5.024  0.7750 -0.0073  0.1467
 5948SOL    HW129303   3.536   4.168   5.020 -1.1303  0.7448 -1.9720
 5948SOL    HW229304   3.419   4.089   5.080  1.0138  1.2873  0.3008
 5949SOL     OW29305   4.408   0.501   4.857 -0.1578  0.1804  0.3011
 5949SOL    HW129306   4.467   0.429   4.879 -1.5858 -0.7750  0.9093
 5949SOL    HW229307   4.454   0.548   4.787  0.4074 -0.9476 -0.0806
 5950SOL     OW29308   3.393   0.435   4.163  0.3242 -0.4305 -0.1004
 5950SOL    HW129309   3.459   0.470   4.104 -0.0705 -2.5426 -1.7726
 5950SOL    HW229310   3.400   0.341   4.145 -0.5030  0.2940 -4.2224
 5951SOL     OW29311   4.110   1.219  14.265  0.6601  0.1384  0.3395
 5951SOL    HW129312   4.044   1.152  14.285  0.2792  0.1860 -0.7718
 5951SOL    HW229313   4.120   1.259  14.351 -0.0879 -2.3503  1.5798
 5952SOL     OW29314   0.023   2.711   5.771  0.1738 -0.1181 -0.4007
 5952SOL    HW129315   0.054   2.800   5.788  2.1854 -0.9512  0.3510
 5952SOL    HW229316   0.034   2.695   5.678 -2.9278 -1.2521 -0.5665
 5953SOL     OW29317   4.085   2.336  10.468 -0.4186  0.5096  0.1716
 5953SOL    HW129318   4.030   2.381  10.404 -0.0127  0.8658  0.0772
 5953SOL    HW229319   4.055   2.371  10.552 -1.0213  0.7108 -0.1255
 5954SOL     OW29320   3.077   4.196  13.657 -0.6311 -0.3932  0.1818
 5954SOL    HW129321   3.012   4.149  13.604  0.8744 -1.4502 -0.7412
 5954SOL    HW229322   3.053   4.289  13.654  2.4788  0.4523  0.6870
 5955SOL     OW29323   3.177   0.390   7.711  0.5462  0.8082 -0.2840
 5955SOL    HW129324   3.106   0.429   7.761  0.2939 -0.5679  0.4403
 5955SOL    HW229325   3.175   0.432   7.626 -1.6554  2.1892  0.4616
 5956SOL     OW29326   1.435   3.213   7.904  0.5270 -0.0224 -0.1490
 5956SOL    HW129327   1.520   3.257   7.907  0.1067  0.9358 -2.7788
 5956SOL    HW229328   1.454   3.132   7.856 -0.8000 -0.2653 -0.2604
 5957SOL     OW29329   2.556   4.506   6.453  0.1956 -0.0268 -0.0779
 5957SOL    HW129330   2.603   4.570   6.507 -3.7705  1.9005  1.1086
 5957SOL    HW229331   2.562   4.547   6.366 -1.3680  0.0567 -0.1450
 5958SOL     OW29332   2.533   2.024   3.004 -0.0722 -0.5646 -0.0637
 5958SOL    HW129333   2.462   2.072   3.047 -0.1955 -1.9708  1.2993
 5958SOL    HW229334   2.611   2.048   3.054 -0.8431  2.8948 -0.4976
 5959SOL     OW29335   4.445   3.289   6.041  0.3366  0.4100 -0.2405
 5959SOL    HW129336   4.435   3.283   5.946 -0.2030  0.0505 -0.1551
 5959SOL    HW229337   4.419   3.377   6.069  0.1165 -0.3629  1.9171
 5960SOL     OW29338   0.775   4.380  12.279  0.4018  0.0393 -0.1162
 5960SOL    HW129339   0.731   4.452  12.235  2.9748  1.7202  0.0212
 5960SOL    HW229340   0.696   4.334  12.307 -0.9051  2.2625 -0.1978
 5961SOL     OW29341   4.109   3.180   8.828  0.6470 -0.0566  0.0659
 5961SOL    HW129342   4.170   3.225   8.886 -0.4742  2.7951 -0.9583
 5961SOL    HW229343   4.034   3.181   8.888  1.4965  1.7344  1.1003
 5962SOL     OW29344   2.511   3.547  11.531 -0.0298  0.0094  0.8577
 5962SOL    HW129345   2.481   3.458  11.549 -0.5402 -0.0975 -0.4881
 5962SOL    HW229346   2.602   3.533  11.505  0.6661  1.1417  2.6682
 5963SOL     OW29347   2.471   2.747   3.726 -0.3087  0.0230  0.3142
 5963SOL    HW129348   2.381   2.728   3.755  0.0628 -0.1200  1.3660
 5963SOL    HW229349   2.457   2.736   3.632 -0.6160  2.3088  0.0897
 5964SOL     OW29350   1.518   2.637   6.231 -0.6030  0.0844  0.0694
 5964SOL    HW129351   1.445   2.697   6.214  1.0125  1.3599 -2.3190
 5964SOL    HW229352   1.477   2.584   6.299  0.2192  0.2699  0.7011
 5965SOL     OW29353   4.571   1.829   8.186 -0.8385  0.1178  0.3031
 5965SOL    HW129354   4.652   1.867   8.220 -1.0933  0.4186  0.5691
 5965SOL    HW229355   4.584   1.739   8.216  1.0336  0.3292  0.1476
 5966SOL     OW29356   2.881   2.266  13.306 -0.5245 -0.4927 -0.0386
 5966SOL    HW129357   2.803   2.294  13.354 -0.4667  1.5142 -1.1226
 5966SOL    HW229358   2.900   2.344  13.254 -0.0347  0.7905  2.0599
 5967SOL     OW29359   0.618   4.645   9.300 -0.3274 -0.0059  0.2937
 5967SOL    HW129360   0.658   4.586   9.364  1.5900  0.3446 -0.6126
 5967SOL    HW229361   0.688   4.665   9.239 -2.1886 -1.1542 -2.2387
 5968SOL     OW29362   4.283   1.358  11.237  0.1598  0.4030  0.0078
 5968SOL    HW129363   4.277   1.376  11.330 -0.8408  0.6261 -0.1024
 5968SOL    HW229364   4.212   1.294  11.228 -0.6015  1.4009 -1.1422
 5969SOL     OW29365   4.402   3.282   5.771  0.1303 -0.5605 -0.2901
 5969SOL    HW129366   4.312   3.300   5.800  0.0897  0.7549 -1.2069
 5969SOL    HW229367   4.377   3.290   5.679 -0.1683  1.8041  0.0017
 5970SOL     OW29368   3.211   2.129   2.841  0.2615 -0.0365 -0.1413
 5970SOL    HW129369   3.220   2.053   2.785  0.1970  0.0996 -0.3346
 5970SOL    HW229370   3.284   2.113   2.901  0.6800 -0.6184 -0.8111
 5971SOL     OW29371   1.744   2.191   4.745  0.2074 -0.5373  0.3827
 5971SOL    HW129372   1.737   2.106   4.789 -1.2064  0.2895  1.7876
 5971SOL    HW229373   1.730   2.152   4.659  0.9786 -2.9067  1.3330
 5972SOL     OW29374   3.976   4.208   3.758 -0.0566  0.0680  0.8040
 5972SOL    HW129375   3.977   4.191   3.664 -1.5909  0.8539  0.6372
 5972SOL    HW229376   3.906   4.150   3.788 -0.6624  0.7031  0.6402
 5973SOL     OW29377   3.260   2.001  12.792 -0.1865  0.4579 -0.2632
 5973SOL    HW129378   3.177   1.982  12.837  1.0357 -1.7055  1.0805
 5973SOL    HW229379   3.312   1.925  12.818  1.0836  1.0242 -1.1538
 5974SOL     OW29380   1.604   0.283   8.515 -0.4029  0.0184  0.2158
 5974SOL    HW129381   1.677   0.247   8.565  1.3927  0.8950 -1.7599
 5974SOL    HW229382   1.535   0.253   8.574 -0.1087 -1.3593 -0.1532
 5975SOL     OW29383   2.171   1.688   2.294 -0.6423 -0.3836  0.1329
 5975SOL    HW129384   2.099   1.733   2.337 -0.4886 -0.8863  0.9182
 5975SOL    HW229385   2.187   1.610   2.347 -0.9644 -0.1382  0.5787
 5976SOL     OW29386   0.042   3.953   8.405 -0.2161 -0.4461  0.3009
 5976SOL    HW129387   4.710   4.030   8.418 -0.4642 -0.3661 -1.3202
 5976SOL    HW229388   0.128   3.988   8.382 -0.6680 -0.5205 -1.4886
 5977SOL     OW29389   1.364   4.563   6.139 -0.3632  0.3198  0.0450
 5977SOL    HW129390   1.337   4.602   6.222  0.7143  0.5262  0.2941
 5977SOL    HW229391   1.417   4.490   6.173 -0.5527  0.3501  0.4113
 5978SOL     OW29392   1.489   1.296   3.617 -0.3382  0.2287 -0.4379
 5978SOL    HW129393   1.539   1.229   3.664 -1.0845  0.8100  1.1714
 5978SOL    HW229394   1.454   1.245   3.544  2.0250 -1.8527 -0.1108
 5979SOL     OW29395   4.476   0.531   5.198  0.6105  0.1209 -0.1277
 5979SOL    HW129396   4.395   0.488   5.222  0.4425  1.5096  1.8339
 5979SOL    HW229397   4.526   0.462   5.155 -0.2993 -1.0222  0.6666
 5980SOL     OW29398   0.665   1.965   5.901 -0.3444 -0.2990 -0.4921
 5980SOL    HW129399   0.695   2.055   5.891 -0.4172 -0.1966  0.2179
 5980SOL    HW229400   0.735   1.918   5.855  2.9324  3.6453  0.4852
 5981SOL     OW29401   2.721   2.110   7.502  0.2231 -0.0419 -0.0559
 5981SOL    HW129402   2.715   2.197   7.542  0.1523  0.5828 -1.4098
 5981SOL    HW229403   2.629   2.086   7.517 -0.0803  2.1831  1.7083
 5982SOL     OW29404   3.906   3.216   8.297  0.4704 -0.1275 -0.2497
 5982SOL    HW129405   3.905   3.120   8.299  1.7580 -0.1976 -3.0751
 5982SOL    HW229406   3.943   3.237   8.383 -1.8288  1.6621  0.2908
 5983SOL     OW29407   1.230   4.514   2.202  0.1552  0.0908 -0.0923
 5983SOL    HW129408   1.248   4.598   2.159 -1.3975 -1.0562 -2.9793
 5983SOL    HW229409   1.146   4.496   2.159  1.4003 -2.0549 -1.6179
 5984SOL     OW29410   1.560   4.323   4.223  0.5950 -0.4493  0.8258
 5984SOL    HW129411   1.578   4.265   4.149 -0.8409  0.2872 -0.0985
 5984SOL    HW229412   1.479   4.360   4.189  0.3017 -0.4058  1.5563
 5985SOL     OW29413   2.530   4.258  12.998 -0.2328  0.0963  0.1337
 5985SOL    HW129414   2.620   4.269  12.967  0.8467 -2.9659  2.1846
 5985SOL    HW229415   2.538   4.282  13.090  0.6131  0.3448  0.0004
 5986SOL     OW29416   4.673   4.651   2.302  0.5942 -0.2107  0.4017
 5986SOL    HW129417   4.605   4.687   2.246 -0.5942  1.3791  2.8522
 5986SOL    HW229418   4.661   4.713   2.374  0.5643 -0.0799  0.2852
 5987SOL     OW29419   4.068   3.879   1.241  0.5994 -0.1838 -0.1022
 5987SOL    HW129420   4.051   3.805   1.183  1.8132  0.3270 -1.1153
 5987SOL    HW229421   4.040   3.948   1.181 -0.6070 -0.3704  0.2587
 5988SOL     OW29422   4.686   0.737   3.921 -0.0361 -0.3387  0.2452
 5988SOL    HW129423   4.692   0.827   3.890 -0.3605 -1.2148 -2.3877
 5988SOL    HW229424   0.001   0.680   3.855 -0.7739 -0.4304 -0.1076
 5989SOL     OW29425   0.281   2.256  12.467  0.2063 -0.4368 -0.0908
 5989SOL    HW129426   0.347   2.284  12.404 -0.2982  0.0010 -0.4230
 5989SOL    HW229427   0.319   2.174  12.499  1.3252  0.5239  1.0342
 5990SOL     OW29428   3.664   0.173   2.521 -0.0257  0.1252  0.2837
 5990SOL    HW129429   3.755   0.169   2.491  0.4529 -0.7956  1.8491
 5990SOL    HW229430   3.643   0.086   2.554 -1.8677 -0.3839 -2.2620
 5991SOL     OW29431   3.906   3.492   6.810  0.2578  0.1379 -0.2142
 5991SOL    HW129432   3.938   3.412   6.768  0.1062 -0.6911  1.2349
 5991SOL    HW229433   3.949   3.565   6.765 -0.5566  0.9830  0.3853
 5992SOL     OW29434   1.357   1.746  11.628  0.3890  0.2409 -0.3442
 5992SOL    HW129435   1.410   1.812  11.583 -0.9773  1.2327 -0.5015
 5992SOL    HW229436   1.413   1.669  11.634  0.8280  0.6291  0.5242
 5993SOL     OW29437   0.130   2.598  11.168 -0.0976  0.4526  0.9717
 5993SOL    HW129438   0.114   2.508  11.198 -0.4189  0.2749  0.2966
 5993SOL    HW229439   0.128   2.649  11.248 -0.0902  2.0281 -0.0437
 5994SOL     OW29440   3.554   3.653   7.067  0.3545  0.3666  0.0376
 5994SOL    HW129441   3.563   3.592   6.993 -1.4185  0.7415 -0.4882
 5994SOL    HW229442   3.461   3.672   7.053 -0.4733 -3.8882 -0.4552
 5995SOL     OW29443   2.504   1.766   6.949  0.2204 -0.0998  0.6923
 5995SOL    HW129444   2.508   1.828   7.021 -2.5775  0.5253  0.3111
 5995SOL    HW229445   2.422   1.786   6.903 -1.4436 -0.0479  3.7164
 5996SOL     OW29446   4.118   1.039   5.626 -0.4393 -0.0660  0.2333
 5996SOL    HW129447   4.101   1.126   5.662 -0.0953  0.5012 -0.9865
 5996SOL    HW229448   4.213   1.045   5.620 -0.5633 -1.1556 -2.7168
 5997SOL     OW29449   2.016   2.371   1.890  0.3662 -0.0012  0.4995
 5997SOL    HW129450   1.963   2.319   1.829 -1.2550  0.6408  1.3537
 5997SOL    HW229451   2.081   2.409   1.832 -0.3399 -0.0817 -0.3480
 5998SOL     OW29452   4.292   2.526   2.402 -0.4635 -0.6228 -0.6132
 5998SOL    HW129453   4.371   2.480   2.372 -1.4704 -0.7816 -3.0308
 5998SOL    HW229454   4.316   2.559   2.489 -0.1559 -0.2640 -0.8355
 5999SOL     OW29455   2.219   0.295   3.172 -0.0155  0.4833 -0.4251
 5999SOL    HW129456   2.248   0.365   3.231 -1.3072  2.0103 -1.5636
 5999SOL    HW229457   2.126   0.276   3.187  1.1959 -2.1740  3.4722
 6000SOL     OW29458   3.153   1.312   1.486 -0.2349  0.1397  0.4507
 6000SOL    HW129459   3.246   1.297   1.497 -0.2028 -0.8205 -1.2237
 6000SOL    HW229460   3.138   1.379   1.553 -0.1967 -1.1721  1.7712
 6001SOL     OW29461   3.917   2.524   7.587 -0.1055  0.3691 -0.1765
 6001SOL    HW129462   4.011   2.514   7.573 -0.2339 -2.0559  0.6750
 6001SOL    HW229463   3.923   2.557   7.677 -2.3226 -2.8343  1.1420
 6002SOL     OW29464   0.149   2.196   6.791  0.3963 -0.8998  0.4489
 6002SOL    HW129465   0.093   2.267   6.761 -0.2463 -1.6747 -0.2252
 6002SOL    HW229466   0.170   2.211   6.883 -2.7732  0.8005  0.8912
 6003SOL     OW29467   3.314   2.887  10.202  0.2738 -0.2361  0.0971
 6003SOL    HW129468   3.364   2.816  10.240  0.7518  0.4878  0.8295
 6003SOL    HW229469   3.228   2.867  10.239 -0.8339  0.8801 -1.8357
 6004SOL     OW29470   2.345   3.434   5.102 -0.6202  0.5573  0.3705
 6004SOL    HW129471   2.275   3.459   5.163 -0.0477 -0.9302  1.6630
 6004SOL    HW229472   2.418   3.405   5.157 -0.5124  0.3461  0.1140
 6005SOL     OW29473   2.500   2.433   0.948  0.1192  0.0104  0.3457
 6005SOL    HW129474   2.415   2.397   0.921 -1.3825  2.1397  2.2473
 6005SOL    HW229475   2.480   2.513   0.997  0.2759  0.7115 -0.7450
 6006SOL     OW29476   0.974   1.769   8.314 -0.2085 -0.7451  0.0730
 6006SOL    HW129477   1.031   1.724   8.252 -2.1777  0.6826 -2.7725
 6006SOL    HW229478   0.941   1.703   8.376 -0.5544 -0.7428 -0.1111
 6007SOL     OW29479   2.610   1.264   3.557 -0.0447  0.6949  0.4246
 6007SOL    HW129480   2.540   1.309   3.602 -0.4799  0.2489  0.1987
 6007SOL    HW229481   2.568   1.250   3.472 -0.6724  1.1433  0.6611
 6008SOL     OW29482   0.509   1.016  15.730 -0.4986  0.0048 -0.0063
 6008SOL    HW129483   0.599   1.044  15.741 -0.4534  0.3441 -1.2380
 6008SOL    HW229484   0.491   1.018  15.824 -0.7871  0.0793 -0.0612
 6009SOL     OW29485   3.523   2.557   3.844 -0.0931  0.0332  0.1728
 6009SOL    HW129486   3.480   2.510   3.916  0.4129 -0.0984  0.3895
 6009SOL    HW229487   3.592   2.603   3.891  0.3262  1.3674 -1.7532
 6010SOL     OW29488   2.032   0.918   0.767 -0.2554 -0.1497 -0.6311
 6010SOL    HW129489   1.948   0.875   0.757  0.2789 -1.3510  0.0113
 6010SOL    HW229490   2.073   0.842   0.809 -0.9550  0.9483  2.0452
 6011SOL     OW29491   3.181   0.736   8.880  0.0326  0.5830  0.0740
 6011SOL    HW129492   3.111   0.671   8.889  0.0356  0.7426  1.2296
 6011SOL    HW229493   3.154   0.795   8.951 -2.1868 -3.7494  2.7841
 6012SOL     OW29494   2.665   0.316   4.192 -0.4185  0.2590 -0.1649
 6012SOL    HW129495   2.752   0.325   4.230  0.2349  1.4828 -1.9406
 6012SOL    HW229496   2.686   0.289   4.102 -0.7229 -1.7650  0.3660
 6013SOL     OW29497   1.776   2.279   8.119 -0.8307  0.3220 -0.5862
 6013SOL    HW129498   1.750   2.326   8.198 -2.3961 -0.7610 -0.4593
 6013SOL    HW229499   1.691   2.267   8.076 -1.1922  2.0194 -0.3439
 6014SOL     OW29500   4.454   4.001   4.912  0.7679 -0.2326 -0.1892
 6014SOL    HW129501   4.445   3.985   5.006 -0.9581 -1.8351 -0.6321
 6014SOL    HW229502   4.400   4.080   4.903 -0.7619 -1.3659 -0.8839
 6015SOL     OW29503   0.508   3.865  16.559  0.0392  0.2469 -0.3921
 6015SOL    HW129504   0.567   3.802  16.517 -1.0631 -0.7096 -0.4961
 6015SOL    HW229505   0.535   3.854  16.650 -0.0494 -1.5436 -0.5937
 6016SOL     OW29506   4.081   1.225   0.549 -0.4807 -0.0213 -0.0696
 6016SOL    HW129507   4.029   1.145   0.557  0.8291 -0.8923 -0.1140
 6016SOL    HW229508   4.113   1.220   0.458 -0.4505 -0.8340 -0.0119
 6017SOL     OW29509   2.880   4.426   4.897 -0.0140  0.4527  0.3444
 6017SOL    HW129510   2.823   4.502   4.881  1.4764  1.5025  0.0089
 6017SOL    HW229511   2.848   4.368   4.828 -0.2822  1.6766 -0.5687
 6018SOL     OW29512   1.616   0.486   6.838  0.1073 -0.2955 -0.5797
 6018SOL    HW129513   1.686   0.460   6.779 -0.0860  2.2565 -1.9619
 6018SOL    HW229514   1.589   0.401   6.871 -0.5357  0.3719  0.6032
 6019SOL     OW29515   3.135   1.000   7.806 -0.1835  0.4455  0.5620
 6019SOL    HW129516   3.045   0.970   7.815 -0.8812  1.8827 -1.6544
 6019SOL    HW229517   3.192   0.927   7.781  0.0480  0.5161  0.8735
 6020SOL     OW29518   0.871   0.286   0.981 -0.1096  0.1958  0.0325
 6020SOL    HW129519   0.921   0.333   0.914 -0.8992  2.3057  0.9209
 6020SOL    HW229520   0.838   0.360   1.033  2.8033  0.4158  1.5534
 6021SOL     OW29521   0.704   1.489   7.265  0.6320  0.1841 -0.3702
 6021SOL    HW129522   0.798   1.488   7.280  0.4839  1.1534  0.5658
 6021SOL    HW229523   0.696   1.572   7.219  2.8794  0.4133 -0.3239
 6022SOL     OW29524   4.279   4.663   5.413 -0.1291  0.7647  0.3486
 6022SOL    HW129525   4.231   4.702   5.340  0.0187  1.0439  0.4007
 6022SOL    HW229526   4.334   4.598   5.370 -1.5975  0.1154 -0.5356
 6023SOL     OW29527   2.227   2.653  13.493 -0.5846  0.2366 -0.0332
 6023SOL    HW129528   2.186   2.715  13.432 -2.5214 -1.1483 -0.1188
 6023SOL    HW229529   2.150   2.608  13.527  1.1864 -2.5278  0.3580
 6024SOL     OW29530   0.250   0.084   0.462 -0.4643 -0.0381  0.0111
 6024SOL    HW129531   0.239   4.712   0.454 -1.4950  0.2156 -1.4114
 6024SOL    HW229532   0.276   0.108   0.373 -0.7208  0.9132  0.1934
 6025SOL     OW29533   2.686   0.275   8.722 -0.4821 -0.2012 -0.1460
 6025SOL    HW129534   2.672   0.309   8.810  0.4903  1.4372 -0.6306
 6025SOL    HW229535   2.632   0.196   8.726 -0.4118 -0.2767 -0.6800
 6026SOL     OW29536   4.023   3.462   3.370  0.7013 -0.2542 -0.3530
 6026SOL    HW129537   3.935   3.434   3.396  0.3171  2.0716  0.8076
 6026SOL    HW229538   4.007   3.485   3.278 -2.3216 -1.4362 -0.1419
 6027SOL     OW29539   1.043   2.233  10.961 -0.1324 -0.0631 -0.3060
 6027SOL    HW129540   1.037   2.144  10.927 -1.0332 -0.3253  0.5443
 6027SOL    HW229541   0.965   2.237  11.017 -2.2871 -0.4698 -3.2618
 6028SOL     OW29542   0.641   2.150   6.261  0.1734  0.0708 -0.5177
 6028SOL    HW129543   0.720   2.204   6.270  0.6281 -0.1147 -3.4722
 6028SOL    HW229544   0.579   2.208   6.216 -2.8292 -3.2876 -0.7159
 6029SOL     OW29545   4.451   0.271   2.345  0.0901 -0.0678  0.0911
 6029SOL    HW129546   4.519   0.243   2.407 -1.8558  1.0074  2.7062
 6029SOL    HW229547   4.448   0.188   2.297 -1.5545  1.9659 -3.3301
 6030SOL     OW29548   1.004   3.269   3.740 -0.1190 -0.6565 -0.4565
 6030SOL    HW129549   1.017   3.204   3.671  4.1433  0.1121 -0.3712
 6030SOL    HW229550   1.059   3.342   3.713 -0.2820  0.0155  1.0273
 6031SOL     OW29551   1.872   2.080   5.066  0.9815 -0.0301 -0.1636
 6031SOL    HW129552   1.963   2.071   5.040  0.9532  4.0313 -1.5913
 6031SOL    HW229553   1.885   2.101   5.159  1.1277  2.1631 -0.6848
 6032SOL     OW29554   0.924   3.819   3.707  0.2150 -0.3861  0.0196
 6032SOL    HW129555   0.967   3.901   3.730  2.2014 -1.1152 -1.1026
 6032SOL    HW229556   0.995   3.759   3.730 -0.4700 -0.6926  1.3506
 6033SOL     OW29557   2.575   3.368   4.267  0.6828 -0.3036 -0.2677
 6033SOL    HW129558   2.589   3.441   4.327  0.1393  0.8041 -1.5033
 6033SOL    HW229559   2.484   3.342   4.275  0.9991 -0.8854  1.4631
 6034SOL     OW29560   3.430   3.532  10.893  0.3923 -0.1397 -0.2440
 6034SOL    HW129561   3.367   3.479  10.942  1.3655  0.9431  2.1769
 6034SOL    HW229562   3.394   3.545  10.806  0.3767 -1.4289 -0.4395
 6035SOL     OW29563   2.415   3.917   0.027 -0.0542  0.0854 -0.6515
 6035SOL    HW129564   2.502   3.890   0.056  0.0070  0.1766 -0.7467
 6035SOL    HW229565   2.402   3.844  17.662  0.1038  2.3450 -3.4523
 6036SOL     OW29566   0.880   0.258   7.597 -0.0813  0.0141 -0.1270
 6036SOL    HW129567   0.961   0.309   7.604  0.4952 -0.6853 -1.6883
 6036SOL    HW229568   0.900   0.194   7.665 -0.4400  0.5428  0.4734
 6037SOL     OW29569   4.227   4.619  16.457 -0.7878 -0.3382  0.4685
 6037SOL    HW129570   4.215   4.686  16.389  2.4864  0.6793  0.8809
 6037SOL    HW229571   4.170   4.546  16.433 -0.8424 -1.4383  3.9317
 6038SOL     OW29572   4.399   3.685   4.984 -0.2485 -0.1429 -0.4741
 6038SOL    HW129573   4.326   3.673   4.923 -0.5277 -2.8174  0.3872
 6038SOL    HW229574   4.445   3.758   4.941 -0.0338  0.5516  0.9367
 6039SOL     OW29575   1.299   3.394  14.310 -0.7472  0.0220  0.0176
 6039SOL    HW129576   1.360   3.331  14.273 -0.1595 -0.6342  2.0854
 6039SOL    HW229577   1.259   3.337  14.375  0.6868 -0.6449  0.3138
 6040SOL     OW29578   0.425   4.369   2.884 -0.4323 -0.8801  0.1819
 6040SOL    HW129579   0.482   4.378   2.808  2.0397  2.6158  2.4770
 6040SOL    HW229580   0.389   4.283   2.864 -2.5757 -0.0605  0.4875
 6041SOL     OW29581   1.655   4.122   3.371  0.0930  0.2093 -0.2517
 6041SOL    HW129582   1.561   4.112   3.386  0.2122 -0.0986  0.2684
 6041SOL    HW229583   1.683   4.153   3.457 -3.9858 -1.4710  1.7030
 6042SOL     OW29584   0.379   4.656   4.414 -0.3795 -0.0548  0.4129
 6042SOL    HW129585   0.306   4.696   4.367 -1.8523 -3.0888  0.1133
 6042SOL    HW229586   0.438   0.008   4.412  0.0750 -0.3821  1.3934
 6043SOL     OW29587   0.364   1.936  13.875 -0.1050  0.6782 -0.5796
 6043SOL    HW129588   0.302   1.992  13.922 -0.3322 -1.3043  1.4819
 6043SOL    HW229589   0.345   1.850  13.912  0.8249  0.4190 -0.6891
 6044SOL     OW29590   3.801   0.292   9.769  0.3113 -0.8076 -0.4314
 6044SOL    HW129591   3.799   0.365   9.707 -0.3907 -0.9507 -0.5734
 6044SOL    HW229592   3.812   0.222   9.705  1.1915  0.4510 -1.6791
 6045SOL     OW29593   4.675   3.859   7.218 -0.0222 -0.2666  0.6619
 6045SOL    HW129594   4.658   3.937   7.164 -0.0115  0.3243  1.5165
 6045SOL    HW229595   4.723   3.900   7.290  0.0279 -0.0403  0.5010
 6046SOL     OW29596   1.083   3.848   4.177 -0.4294 -0.5335  0.6920
 6046SOL    HW129597   1.018   3.881   4.116  0.9428 -0.6006 -0.8084
 6046SOL    HW229598   1.026   3.831   4.252  0.4050  0.2008  1.5010
 6047SOL     OW29599   1.347   4.648   1.754  0.1628 -0.0331 -0.1476
 6047SOL    HW129600   1.277   4.586   1.735 -0.2281  0.1988  0.5210
 6047SOL    HW229601   1.418   4.607   1.704 -0.2073  2.2132 -2.4766
 6048SOL     OW29602   1.897   0.578   1.936 -0.0517  0.5230  0.3261
 6048SOL    HW129603   1.831   0.566   2.003 -0.2506  1.9454  0.3782
 6048SOL    HW229604   1.979   0.557   1.982 -0.6625  0.6006  1.4421
 6049SOL     OW29605   2.520   2.576   2.505  0.2093  0.3604  0.4122
 6049SOL    HW129606   2.508   2.505   2.442 -1.2325 -0.2762  1.4073
 6049SOL    HW229607   2.607   2.605   2.479 -0.3257  1.0294 -0.6439
 6050SOL     OW29608   1.717   3.682   4.911  0.4018 -0.1341  0.0769
 6050SOL    HW129609   1.633   3.708   4.874 -0.6248 -3.3570  0.1471
 6050SOL    HW229610   1.771   3.666   4.834  0.1269  0.1363 -0.1708
 6051SOL     OW29611   3.021   0.126  15.564  0.2071 -0.2961 -0.3646
 6051SOL    HW129612   3.029   0.031  15.552  1.5547 -0.0328 -1.5232
 6051SOL    HW229613   3.003   0.145  15.472 -2.8216  0.6535  0.4183
 6052SOL     OW29614   0.743   1.815   2.200 -0.0985 -0.1795  0.3147
 6052SOL    HW129615   0.758   1.779   2.113  2.6534 -2.9034  1.9354
 6052SOL    HW229616   0.702   1.745   2.251 -0.6066 -1.3328 -1.7039
 6053SOL     OW29617   0.365   2.275   8.149 -0.3117  0.1987  0.5850
 6053SOL    HW129618   0.403   2.291   8.235 -1.5997  0.3286  1.1274
 6053SOL    HW229619   0.285   2.326   8.161 -1.4745 -1.0932 -1.6987
 6054SOL     OW29620   3.039   1.692   1.006 -0.5747  0.3057 -0.2034
 6054SOL    HW129621   2.994   1.613   1.035 -0.2406 -0.2141 -1.0943
 6054SOL    HW229622   3.019   1.689   0.912 -0.2463 -0.0872 -0.2598
 6055SOL     OW29623   1.539   2.259   3.762  0.0433 -0.2305  0.4586
 6055SOL    HW129624   1.480   2.189   3.735 -0.0295 -0.9790  2.5446
 6055SOL    HW229625   1.516   2.249   3.855  0.2689 -1.4212  0.3864
 6056SOL     OW29626   4.189   0.612   7.344 -0.0138 -0.0822 -0.7980
 6056SOL    HW129627   4.179   0.705   7.365  0.6068 -0.2100  0.0352
 6056SOL    HW229628   4.111   0.606   7.289  0.5788 -2.8458 -1.3320
 6057SOL     OW29629   1.541   4.565   3.365  0.1815 -0.4311 -0.2724
 6057SOL    HW129630   1.599   4.532   3.296 -2.0754  1.0844 -2.9076
 6057SOL    HW229631   1.520   4.655   3.340 -2.1088 -0.4870  1.4561
 6058SOL     OW29632   0.895   2.285   1.303  0.0981  0.2091  0.1048
 6058SOL    HW129633   0.806   2.283   1.268 -0.7991  1.8864  2.2819
 6058SOL    HW229634   0.907   2.191   1.320  0.5786  0.0466 -1.1619
 6059SOL     OW29635   1.246   0.724   2.649  0.4502 -0.2096 -0.2029
 6059SOL    HW129636   1.306   0.699   2.578 -0.6734 -0.0481 -1.2134
 6059SOL    HW229637   1.156   0.725   2.616  0.1692  1.1053  0.6256
 6060SOL     OW29638   2.721   1.669   1.759 -0.1085 -0.4381 -0.3693
 6060SOL    HW129639   2.656   1.730   1.793  0.5775  1.0323 -1.7327
 6060SOL    HW229640   2.735   1.698   1.669  1.1859  1.0063  0.2993
 6061SOL     OW29641   4.351   2.800   8.543  0.2936 -0.5986 -0.0940
 6061SOL    HW129642   4.446   2.791   8.541  0.3317 -0.1965 -0.0613
 6061SOL    HW229643   4.345   2.878   8.599 -0.8016 -1.8694  1.5636
 6062SOL     OW29644   0.258   3.400  14.605 -0.0427 -0.3965  0.1023
 6062SOL    HW129645   0.266   3.370  14.515 -0.7696 -0.0438 -0.0831
 6062SOL    HW229646   0.175   3.447  14.598  0.0511 -0.0002  1.4932
 6063SOL     OW29647   3.907   4.236  10.329 -0.3012  0.5249 -0.2861
 6063SOL    HW129648   3.995   4.200  10.341 -0.1306  0.8858 -0.4641
 6063SOL    HW229649   3.921   4.312  10.385  0.2251 -0.0788  0.4130
 6064SOL     OW29650   0.770   0.153   5.812 -0.5465 -0.3454 -0.3182
 6064SOL    HW129651   0.715   0.232   5.814  0.8569  0.6324 -0.0453
 6064SOL    HW229652   0.745   0.120   5.898 -1.4388 -0.4122 -0.6050
 6065SOL     OW29653   2.469   3.211   4.811  0.4597  0.0662 -0.2397
 6065SOL    HW129654   2.375   3.228   4.807  0.3107 -0.3466  1.2692
 6065SOL    HW229655   2.483   3.221   4.717 -0.4037  0.1576 -0.3515
 6066SOL     OW29656   3.919   3.126   7.745  0.0908 -0.0695  0.2205
 6066SOL    HW129657   4.014   3.119   7.753  0.0188  1.1503  2.0711
 6066SOL    HW229658   3.909   3.127   7.650 -1.4973  1.8379  0.4126
 6067SOL     OW29659   0.095   0.156   7.383  0.3539  0.7266  0.1045
 6067SOL    HW129660   0.122   0.200   7.464  1.8175 -2.3854  1.2942
 6067SOL    HW229661   0.009   0.123   7.407  1.1259 -0.8979  0.6112
 6068SOL     OW29662   4.488   3.805   0.336  0.1058 -0.5907  0.1521
 6068SOL    HW129663   4.394   3.786   0.338 -0.1027  0.6444  1.4913
 6068SOL    HW229664   4.493   3.875   0.272 -0.3173 -2.8189 -2.3230
 6069SOL     OW29665   1.167   4.690   8.846  0.2350  0.0316  0.2429
 6069SOL    HW129666   1.170   4.595   8.848 -0.3988  0.0223  0.9570
 6069SOL    HW229667   1.137   4.708   8.935  0.7940 -2.1590  0.8644
 6070SOL     OW29668   2.186   1.929  12.558  0.1423 -0.4578  0.0457
 6070SOL    HW129669   2.170   1.870  12.632 -1.0431  0.8738  0.8496
 6070SOL    HW229670   2.157   1.874  12.485 -1.1758 -1.5158  1.3671
 6071SOL     OW29671   0.786   3.416   5.405  0.3822 -0.2889  0.4102
 6071SOL    HW129672   0.709   3.399   5.459 -1.0730  0.4508 -1.4488
 6071SOL    HW229673   0.805   3.510   5.410  1.1803 -0.4697  0.7771
 6072SOL     OW29674   2.098   0.754   7.580  0.3685  0.0562 -0.0602
 6072SOL    HW129675   2.026   0.725   7.524 -0.6916  0.2647  1.1751
 6072SOL    HW229676   2.132   0.673   7.618  0.6314 -0.0824 -0.5971
 6073SOL     OW29677   4.215   0.992   8.399  0.5250 -0.0223 -0.4496
 6073SOL    HW129678   4.231   1.045   8.478 -0.9794 -0.3238  0.0591
 6073SOL    HW229679   4.272   1.042   8.340 -0.8991  2.2320  0.0623
 6074SOL     OW29680   2.839   1.441   5.733  0.0923 -0.0898  0.1191
 6074SOL    HW129681   2.776   1.441   5.804  0.9432 -1.1852  0.8834
 6074SOL    HW229682   2.872   1.354   5.757 -1.8336 -0.3815  1.6553
 6075SOL     OW29683   2.835   2.929   8.134 -0.4013  0.5436  0.0519
 6075SOL    HW129684   2.844   3.022   8.113 -0.9750  0.5358 -0.2299
 6075SOL    HW229685   2.906   2.892   8.082 -0.1711  1.2719 -0.1497
 6076SOL     OW29686   1.994   2.493   2.139 -0.9137  0.1539 -0.0244
 6076SOL    HW129687   1.993   2.459   2.049  2.3823  1.2617 -0.4724
 6076SOL    HW229688   2.009   2.583   2.111  0.8638  0.3317  1.5403
 6077SOL     OW29689   1.659   0.329   0.836  0.6050 -0.7320 -0.1341
 6077SOL    HW129690   1.752   0.347   0.824 -0.2859  1.4521 -3.7670
 6077SOL    HW229691   1.619   0.413   0.861  2.4263  0.2061 -0.3506
 6078SOL     OW29692   2.627   2.732  16.133  0.4496  0.2476  0.4151
 6078SOL    HW129693   2.632   2.700  16.043  1.3391  0.0282  0.5434
 6078SOL    HW229694   2.644   2.655  16.187 -2.2151 -0.8242 -0.2937
 6079SOL     OW29695   1.137   0.896  15.073 -0.2847  0.3473 -0.1891
 6079SOL    HW129696   1.138   0.981  15.116  2.5427 -0.2981  1.0080
 6079SOL    HW229697   1.142   0.925  14.982  1.4196 -1.2146 -0.5971
 6080SOL     OW29698   2.857   3.165   0.508 -0.0124  0.2264 -0.2584
 6080SOL    HW129699   2.885   3.257   0.511 -2.6520  0.9941  1.3875
 6080SOL    HW229700   2.785   3.164   0.446 -1.5705 -1.6377  1.5842
 6081SOL     OW29701   1.598   1.192   7.708 -0.9659 -0.2517 -0.0896
 6081SOL    HW129702   1.589   1.260   7.643 -0.6583  2.0502  2.2800
 6081SOL    HW229703   1.686   1.216   7.738 -1.7684  2.3012  0.1317
 6082SOL     OW29704   0.315   4.133   2.807 -0.2188 -0.3935 -0.7320
 6082SOL    HW129705   0.269   4.095   2.732 -1.6579 -0.2809  0.1026
 6082SOL    HW229706   0.314   4.054   2.861 -2.3595  0.1073 -0.0289
 6083SOL     OW29707   0.367   3.898   8.962  0.3222  0.5164  0.2133
 6083SOL    HW129708   0.445   3.902   9.017  1.6480  0.8476 -1.6732
 6083SOL    HW229709   0.409   3.886   8.876 -0.1919  0.2829 -0.0023
 6084SOL     OW29710   0.700   2.452   8.631  0.0429 -0.2985  0.1864
 6084SOL    HW129711   0.749   2.378   8.595  0.6218 -1.0587  2.4968
 6084SOL    HW229712   0.704   2.437   8.726  0.4601  2.2251  0.5809
 6085SOL     OW29713   2.978   2.276   9.227 -0.0470  0.6912  0.1008
 6085SOL    HW129714   3.073   2.279   9.240 -0.1335  0.3089  0.8176
 6085SOL    HW229715   2.978   2.202   9.166 -0.0915 -1.4599  2.7103
 6086SOL     OW29716   0.866   1.257   8.756 -0.1962 -0.1875  0.0727
 6086SOL    HW129717   0.813   1.285   8.682 -0.6092  0.5069  0.6312
 6086SOL    HW229718   0.953   1.289   8.734  0.9629 -3.0605  0.5184
 6087SOL     OW29719   4.598   0.727   7.596 -0.4055  0.5389  0.2583
 6087SOL    HW129720   4.557   0.807   7.564 -0.3678  0.6282  0.4315
 6087SOL    HW229721   4.533   0.657   7.591 -0.6001  0.7321  0.1225
 6088SOL     OW29722   3.492   1.410  13.046  0.3026  0.1981  0.8788
 6088SOL    HW129723   3.535   1.495  13.056  1.3017 -0.3531  1.2285
 6088SOL    HW229724   3.415   1.438  12.997  0.4135 -0.0669  0.5476
 6089SOL     OW29725   0.163   2.362   8.296 -0.3055 -0.0366 -0.1122
 6089SOL    HW129726   0.079   2.356   8.342 -0.0911  1.8661  0.5235
 6089SOL    HW229727   0.175   2.457   8.306 -0.2725 -0.2686  2.1165
 6090SOL     OW29728   1.908   2.668  10.813  0.3734 -0.2914  0.1359
 6090SOL    HW129729   1.857   2.741  10.848  2.4018  1.0714  0.2081
 6090SOL    HW229730   1.850   2.592  10.826  1.8350 -1.2023  1.3454
 6091SOL     OW29731   2.254   2.720   5.907 -0.0755  0.4033  0.0262
 6091SOL    HW129732   2.274   2.813   5.921 -2.7147  0.5631  2.6733
 6091SOL    HW229733   2.168   2.721   5.949 -0.8656  0.9698 -1.6042
 6092SOL     OW29734   0.044   0.446   5.468  0.5382 -0.2440 -0.4915
 6092SOL    HW129735   4.691   0.401   5.504  2.3777 -2.5300  0.5608
 6092SOL    HW229736   0.055   0.521   5.527 -2.2091 -0.8590  0.8123
 6093SOL     OW29737   1.118   0.407   7.538  0.7128  0.2873  0.5260
 6093SOL    HW129738   1.090   0.421   7.447 -2.5162 -1.7974  1.1875
 6093SOL    HW229739   1.119   0.496   7.571 -2.2278  0.7252 -0.5867
 6094SOL     OW29740   1.805   2.092   2.788  0.1458 -0.0556  0.6305
 6094SOL    HW129741   1.851   2.030   2.845 -0.0456  1.0295  1.9771
 6094SOL    HW229742   1.837   2.054   2.707  1.3726  1.0897  0.5810
 6095SOL     OW29743   0.292   0.308   7.883 -0.1337  0.3234  0.1596
 6095SOL    HW129744   0.242   0.385   7.855 -1.2352 -0.2189  0.6291
 6095SOL    HW229745   0.381   0.338   7.899  0.2448  0.5835 -2.4078
 6096SOL     OW29746   4.195   1.748   3.309  0.2921 -0.2804 -0.2915
 6096SOL    HW129747   4.134   1.738   3.382 -0.0676  0.1664 -0.5348
 6096SOL    HW229748   4.276   1.777   3.351 -0.0581  0.0440  0.1638
 6097SOL     OW29749   4.232   2.328   4.570 -0.2060  0.7289  0.3379
 6097SOL    HW129750   4.321   2.293   4.577  1.0559  4.3421  1.9403
 6097SOL    HW229751   4.194   2.286   4.492 -0.4890  1.2085  0.2142
 6098SOL     OW29752   0.111   4.454  14.277 -0.3371 -0.1362  0.5472
 6098SOL    HW129753   0.144   4.469  14.189  0.1660 -2.0149  0.4092
 6098SOL    HW229754   0.166   4.507  14.335  0.1111  1.2464 -1.1388
 6099SOL     OW29755   4.187   1.969   3.176  1.0480 -0.3235  0.0331
 6099SOL    HW129756   4.187   1.893   3.234  1.1445  0.1164  0.6072
 6099SOL    HW229757   4.270   1.948   3.134  1.6280  1.2272  0.4213
 6100SOL     OW29758   3.666   3.546   5.339 -0.3673  0.1249 -0.8480
 6100SOL    HW129759   3.591   3.507   5.384 -1.8775  1.7658 -1.9533
 6100SOL    HW229760   3.680   3.478   5.273 -1.1738  0.1414 -1.0372
 6101SOL     OW29761   0.116   0.173   8.145 -0.4995  0.6442 -0.2256
 6101SOL    HW129762   0.053   0.239   8.174 -0.7833 -0.6915  2.1614
 6101SOL    HW229763   0.161   0.210   8.069 -0.3832  2.4542  0.7395
 6102SOL     OW29764   0.867   2.166   5.132 -0.1612 -0.8294  0.5131
 6102SOL    HW129765   0.798   2.125   5.080  0.5324 -0.3784 -0.7634
 6102SOL    HW229766   0.935   2.111   5.091  2.5743  1.7657  1.6180
 6103SOL     OW29767   3.602   1.160   2.579  0.1943  0.1306  0.0147
 6103SOL    HW129768   3.563   1.081   2.615 -0.2467 -0.5619 -1.9808
 6103SOL    HW229769   3.673   1.165   2.643  0.3063  0.1653 -0.1128
 6104SOL     OW29770   0.596   3.670   5.715  0.1152 -0.2128 -0.0639
 6104SOL    HW129771   0.605   3.750   5.664 -1.7051 -0.7210 -1.1748
 6104SOL    HW229772   0.650   3.701   5.788 -0.7333 -2.1964  1.4298
 6105SOL     OW29773   0.121   1.319   4.537 -0.2786 -0.7077 -0.4460
 6105SOL    HW129774   0.046   1.345   4.484  0.1674  2.1197  0.3067
 6105SOL    HW229775   0.148   1.406   4.568 -1.1151 -0.9884  1.0211
 6106SOL     OW29776   2.045   2.149   3.023  0.2320 -0.3683  0.5774
 6106SOL    HW129777   2.103   2.108   2.959 -0.7782 -1.4613  0.3709
 6106SOL    HW229778   2.033   2.230   2.973  3.0410 -1.4443 -1.8236
 6107SOL     OW29779   3.765   3.635   8.438  0.3513  0.3686 -0.0293
 6107SOL    HW129780   3.703   3.680   8.495  0.5859  0.8499 -0.1441
 6107SOL    HW229781   3.835   3.699   8.420 -1.9998  3.3314  1.4661
 6108SOL     OW29782   0.032   0.022   1.476  0.1006  0.0877  0.1858
 6108SOL    HW129783   0.036   4.653   1.454 -2.8354 -0.4349  1.9991
 6108SOL    HW229784   0.111   0.061   1.438  2.1442 -2.1537  2.1510
 6109SOL     OW29785   1.413   2.540   6.452 -0.5001  0.1459 -0.2952
 6109SOL    HW129786   1.428   2.467   6.513 -0.9233  1.6079  1.5703
 6109SOL    HW229787   1.488   2.591   6.484 -1.1100 -1.3093  3.4842
 6110SOL     OW29788   2.315   2.113   3.152 -0.3235 -0.0985 -0.2326
 6110SOL    HW129789   2.223   2.111   3.128 -0.3765  0.4224 -0.0710
 6110SOL    HW229790   2.309   2.077   3.240  2.3751  0.5504  0.2391
 6111SOL     OW29791   1.273   4.361   9.577 -0.9140  0.1395  0.5663
 6111SOL    HW129792   1.288   4.407   9.659 -0.9841  0.2908  0.4942
 6111SOL    HW229793   1.246   4.277   9.615  0.3603 -0.4501  0.2005
 6112SOL     OW29794   0.663   2.582   2.474 -0.6336 -0.2473  0.1021
 6112SOL    HW129795   0.673   2.506   2.531  0.3484 -1.0505 -1.1341
 6112SOL    HW229796   0.757   2.598   2.459 -0.7588 -0.1765 -0.5854
 6113SOL     OW29797   1.187   0.247  16.075 -0.1410  0.7238  0.5097
 6113SOL    HW129798   1.159   0.203  16.155 -2.2206  2.4204  0.7132
 6113SOL    HW229799   1.282   0.238  16.080 -0.0128  1.3557 -0.6296
 6114SOL     OW29800   3.639   4.686   5.318 -0.1483 -0.0079  0.4012
 6114SOL    HW129801   3.587   4.721   5.390  0.4193  1.6402  0.0184
 6114SOL    HW229802   3.587   4.609   5.294  2.1287 -1.2825 -0.4748
 6115SOL     OW29803   1.561   4.660   7.826  0.4408  0.3002 -0.0354
 6115SOL    HW129804   1.500   4.707   7.883  1.1141 -0.5473  1.3852
 6115SOL    HW229805   1.526   4.572   7.836  0.3104  0.2111 -1.3246
 6116SOL     OW29806   0.017   3.061  11.802  0.2654 -0.3036  0.1293
 6116SOL    HW129807   0.004   3.142  11.752  2.2279  0.8162  1.4110
 6116SOL    HW229808   4.709   2.987  11.749  0.9916  1.4494 -2.7681
 6117SOL     OW29809   1.429   2.288  13.178 -0.2796 -0.3627 -0.3076
 6117SOL    HW129810   1.355   2.262  13.232  1.3103 -1.2040  1.4844
 6117SOL    HW229811   1.481   2.354  13.224 -1.8869  1.8561 -1.6795
 6118SOL     OW29812   1.838   3.989   9.796 -0.8253 -0.7529 -0.0925
 6118SOL    HW129813   1.834   4.084   9.782  0.0589 -0.6660  0.2492
 6118SOL    HW229814   1.855   3.982   9.890  0.6750 -0.1275 -0.3330
 6119SOL     OW29815   2.961   4.323   8.875 -0.2252 -0.3014 -0.1622
 6119SOL    HW129816   3.009   4.247   8.908  0.2889 -1.0705 -2.6427
 6119SOL    HW229817   2.962   4.297   8.782  2.2286  0.2038 -0.2784
 6120SOL     OW29818   3.690   1.679   1.176 -0.1301  0.0134 -0.1781
 6120SOL    HW129819   3.596   1.680   1.197  0.0900  0.3311  0.7841
 6120SOL    HW229820   3.689   1.610   1.110 -0.9109 -1.0638  0.9510
 6121SOL     OW29821   2.450   3.744   1.759 -0.1152  0.2085  0.7202
 6121SOL    HW129822   2.504   3.741   1.838  1.4680  0.8073 -0.3527
 6121SOL    HW229823   2.384   3.675   1.769 -0.7093  0.4177 -1.7707
 6122SOL     OW29824   1.328   3.168   2.744 -0.1878 -0.1285  0.4251
 6122SOL    HW129825   1.248   3.158   2.693  0.1852  1.6928 -0.5037
 6122SOL    HW229826   1.302   3.212   2.825  0.1577  0.3977  0.2483
 6123SOL     OW29827   2.150   4.435   7.738 -0.0537 -0.4529 -0.0010
 6123SOL    HW129828   2.080   4.448   7.802 -0.3505  0.7249 -0.5687
 6123SOL    HW229829   2.208   4.505   7.769  1.8479 -3.1461  2.6204
 6124SOL     OW29830   0.385   3.922   2.105  0.7846  0.4577  0.1281
 6124SOL    HW129831   0.296   3.929   2.138  0.3409  1.5497 -1.2872
 6124SOL    HW229832   0.378   3.834   2.067  0.7948 -0.1110  1.4481
 6125SOL     OW29833   0.718   0.441   7.708 -0.1312 -0.0586  0.2045
 6125SOL    HW129834   0.771   0.378   7.659 -1.3572 -1.6663  0.9892
 6125SOL    HW229835   0.786   0.506   7.727  0.6861 -0.8074 -0.1729
 6126SOL     OW29836   3.074   1.372  12.578  0.4136 -0.5729 -0.6425
 6126SOL    HW129837   3.107   1.440  12.520  0.3189  0.0199  0.0099
 6126SOL    HW229838   3.017   1.333  12.511 -2.2531 -1.5685  2.2299
 6127SOL     OW29839   2.919   3.420   0.618  0.4205 -0.3973 -0.6634
 6127SOL    HW129840   2.838   3.429   0.567  0.0175 -0.7736 -0.0784
 6127SOL    HW229841   2.910   3.455   0.706  0.8408 -1.1477 -0.3212
 6128SOL     OW29842   3.259   4.355  12.201  0.2140  0.3927 -0.1186
 6128SOL    HW129843   3.291   4.379  12.114  0.4897  3.3771  0.8043
 6128SOL    HW229844   3.335   4.361  12.258  0.6612  0.5056 -0.7326
 6129SOL     OW29845   4.407   0.202   7.345  0.2802 -0.0560 -0.5787
 6129SOL    HW129846   4.387   0.285   7.301  1.7045  0.8683  0.4730
 6129SOL    HW229847   4.327   0.180   7.393  0.8611  1.0897  0.9523
 6130SOL     OW29848   2.481   2.344   8.540  0.0399 -0.5527 -0.3728
 6130SOL    HW129849   2.564   2.297   8.534 -0.6028 -1.8092  0.6113
 6130SOL    HW229850   2.459   2.333   8.633 -2.1338 -1.3327 -0.9838
 6131SOL     OW29851   0.299   0.850   3.561  0.0219  0.5221 -0.3809
 6131SOL    HW129852   0.328   0.850   3.470  1.7645  0.4390  0.1644
 6131SOL    HW229853   0.233   0.918   3.560 -0.7319 -0.1882  1.7054
 6132SOL     OW29854   3.170   1.542  10.829  0.1676  0.0257  0.8688
 6132SOL    HW129855   3.142   1.512  10.742 -0.0953 -0.5069  1.1381
 6132SOL    HW229856   3.264   1.523  10.832  0.7128  2.2350 -1.6898
 6133SOL     OW29857   4.368   3.054   4.393  0.2005 -0.2255  0.1671
 6133SOL    HW129858   4.428   3.129   4.389  0.4017 -0.3755  0.3848
 6133SOL    HW229859   4.427   2.979   4.383  0.6349 -0.0392  1.3351
 6134SOL     OW29860   1.098   3.130   5.377 -0.3104  0.6885 -0.5540
 6134SOL    HW129861   1.113   3.133   5.472  0.7015  1.0391 -0.7179
 6134SOL    HW229862   1.003   3.124   5.375 -0.2869  1.1553 -2.3039
 6135SOL     OW29863   4.040   3.144   4.525  0.1787  0.0237  0.1901
 6135SOL    HW129864   4.011   3.198   4.598  1.0079  0.3148  0.3071
 6135SOL    HW229865   4.021   3.055   4.556 -0.5658  0.0222 -0.2800
 6136SOL     OW29866   3.116   4.433   1.010 -0.1164  0.2579  0.7338
 6136SOL    HW129867   3.049   4.367   0.993  1.0498 -0.4064 -1.2757
 6136SOL    HW229868   3.050   4.502   1.022  0.7670  1.4287 -0.9599
 6137SOL     OW29869   1.317   2.362   8.181 -0.0491  0.0987  0.6151
 6137SOL    HW129870   1.376   2.330   8.249 -1.4720  1.5148  2.5268
 6137SOL    HW229871   1.261   2.426   8.225  2.1529  1.7325  1.0534
 6138SOL     OW29872   2.215   4.064   6.082  0.1043 -0.0782 -0.5639
 6138SOL    HW129873   2.135   4.013   6.071  0.0906 -0.0667 -0.5154
 6138SOL    HW229874   2.270   3.994   6.118 -1.5277 -0.2809  1.5183
 6139SOL     OW29875   0.819   0.520   3.522  0.4696 -0.5402  0.5297
 6139SOL    HW129876   0.776   0.557   3.599  1.0714  0.2374  0.4898
 6139SOL    HW229877   0.763   0.445   3.501  1.4600 -1.2358  0.3366
 6140SOL     OW29878   2.720   2.236   9.533 -0.2471 -0.1517  0.2909
 6140SOL    HW129879   2.805   2.197   9.510  0.5930  2.7502 -1.4648
 6140SOL    HW229880   2.708   2.192   9.618 -0.5107  0.3387  0.5098
 6141SOL     OW29881   0.783   1.136  13.082 -0.2614 -0.1012 -0.4926
 6141SOL    HW129882   0.824   1.109  13.164 -0.7072  0.0864 -0.2046
 6141SOL    HW229883   0.777   1.231  13.097 -1.2104 -0.4580  1.3384
 6142SOL     OW29884   0.829   4.189   2.148 -0.1172 -0.4240 -0.0966
 6142SOL    HW129885   0.898   4.191   2.082 -0.5547  0.3777 -0.5307
 6142SOL    HW229886   0.864   4.253   2.210  2.2294 -2.2769  0.5296
 6143SOL     OW29887   0.567   3.370   6.088  0.1870  0.4910  0.6276
 6143SOL    HW129888   0.543   3.281   6.114  0.8657  0.0916 -0.1315
 6143SOL    HW229889   0.649   3.385   6.136  0.6012  0.5224 -0.0970
 6144SOL     OW29890   3.823   0.674   1.297  0.3469 -0.3828  0.2291
 6144SOL    HW129891   3.893   0.740   1.298 -0.7737  0.7745  1.6956
 6144SOL    HW229892   3.825   0.661   1.392  1.6987  1.9225  0.5106
 6145SOL     OW29893   3.398   1.726  10.281 -0.2049  0.1340  0.1487
 6145SOL    HW129894   3.481   1.756  10.242 -0.1837 -2.0864 -1.5039
 6145SOL    HW229895   3.406   1.632  10.295 -1.5823 -0.3274 -2.1792
 6146SOL     OW29896   2.487   1.560  13.159  0.1057 -0.1545  0.0352
 6146SOL    HW129897   2.525   1.592  13.077 -0.4757 -1.5478 -0.7682
 6146SOL    HW229898   2.480   1.469  13.131  0.8526 -1.1111  2.9555
 6147SOL     OW29899   4.311   2.350   2.715  0.2473 -0.4462  0.4463
 6147SOL    HW129900   4.256   2.319   2.643 -0.0463 -0.2950  0.6083
 6147SOL    HW229901   4.327   2.439   2.686 -1.7773  0.2998  1.6346
 6148SOL     OW29902   0.106   3.641  15.948  0.3499 -0.4482 -0.1840
 6148SOL    HW129903   0.087   3.716  15.891  3.1471 -0.0581 -0.6146
 6148SOL    HW229904   0.169   3.672  16.013 -2.5977  4.3982  0.4282
 6149SOL     OW29905   2.381   1.156   1.828  0.4125  0.2807 -0.5103
 6149SOL    HW129906   2.383   1.062   1.809  0.3040 -0.0402  0.9885
 6149SOL    HW229907   2.306   1.173   1.884  1.7609 -1.6477  1.9142
 6150SOL     OW29908   1.360   1.155   2.437 -0.2661 -0.6244 -0.2741
 6150SOL    HW129909   1.375   1.099   2.513 -0.9381 -0.4975 -0.0512
 6150SOL    HW229910   1.295   1.103   2.389 -1.4173  2.2298 -1.8134
 6151SOL     OW29911   2.798   3.145   7.844 -0.0267 -0.1205 -0.1913
 6151SOL    HW129912   2.889   3.143   7.816  0.3467  1.5633  0.9545
 6151SOL    HW229913   2.809   3.183   7.931  0.2565  0.5069 -0.5046
 6152SOL     OW29914   1.455   1.794   2.917  0.0957 -0.5384  0.5837
 6152SOL    HW129915   1.444   1.705   2.949  1.3885 -0.6231  0.8266
 6152SOL    HW229916   1.524   1.779   2.852  0.6263  0.5766  0.8743
 6153SOL     OW29917   2.109   4.561   4.257 -0.5121 -0.3892  0.1362
 6153SOL    HW129918   2.078   4.648   4.284 -3.9470 -1.6655  0.2393
 6153SOL    HW229919   2.182   4.574   4.196  0.5177 -0.9733  1.2558
 6154SOL     OW29920   1.959   2.384  10.445  0.1098  0.0157 -0.3262
 6154SOL    HW129921   1.979   2.466  10.491  1.8760  0.1608 -1.3701
 6154SOL    HW229922   1.883   2.413  10.395  1.3530  0.4306 -1.9659
 6155SOL     OW29923   1.280   2.203   3.032 -0.1046  0.4496 -0.0827
 6155SOL    HW129924   1.239   2.278   3.074 -2.5416  0.2388 -2.0796
 6155SOL    HW229925   1.371   2.224   3.052  0.0581  0.6645 -1.0379
 6156SOL     OW29926   0.995   1.469   5.571 -0.3958 -0.1229 -0.6094
 6156SOL    HW129927   1.075   1.487   5.621  0.0398  1.8002 -1.9701
 6156SOL    HW229928   0.919   1.501   5.621 -1.1989 -1.9409 -0.6622
 6157SOL     OW29929   4.503   1.154   3.342  0.1849  0.3095 -0.3196
 6157SOL    HW129930   4.496   1.226   3.403 -0.6921  0.4838 -0.6307
 6157SOL    HW229931   4.455   1.180   3.263  1.0400  1.8131 -0.3416
 6158SOL     OW29932   2.296   0.654   3.725  0.3634 -0.0685 -0.2935
 6158SOL    HW129933   2.229   0.699   3.778  0.2449  0.3306 -0.7792
 6158SOL    HW229934   2.262   0.645   3.636 -0.0618  1.7041 -0.3298
 6159SOL     OW29935   0.182   3.699   5.196  0.0356 -0.1075  0.2016
 6159SOL    HW129936   0.163   3.693   5.289  1.2221 -1.1826  0.3684
 6159SOL    HW229937   0.266   3.654   5.194 -0.0497 -0.0979 -3.8008
 6160SOL     OW29938   3.873   2.740   2.675 -0.5856  0.1741  0.4275
 6160SOL    HW129939   3.797   2.689   2.648 -0.3553 -0.0231  0.1497
 6160SOL    HW229940   3.916   2.766   2.594 -3.7425 -1.8743 -1.8745
 6161SOL     OW29941   4.615   0.501   2.770 -0.1534 -0.0758  0.1948
 6161SOL    HW129942   4.621   0.430   2.834  3.4062  0.3183  0.2513
 6161SOL    HW229943   4.677   0.563   2.807  2.2731 -2.3309 -0.0984
 6162SOL     OW29944   3.758   2.938   4.068 -0.3120  0.5421 -0.1892
 6162SOL    HW129945   3.800   2.997   4.004  0.9277 -1.0143 -0.8095
 6162SOL    HW229946   3.757   2.994   4.145 -2.2805 -1.2354  1.0480
 6163SOL     OW29947   0.019   3.536   6.263  0.2646  0.1599 -0.9019
 6163SOL    HW129948   4.722   3.525   6.170  0.1904  2.2444 -1.1244
 6163SOL    HW229949   0.041   3.447   6.292  1.3134  0.8567  0.4056
 6164SOL     OW29950   2.448   0.207   3.338 -0.0699 -0.5561  0.2151
 6164SOL    HW129951   2.395   0.234   3.262  0.8946 -1.8590 -0.9295
 6164SOL    HW229952   2.397   0.143   3.387  0.3976 -1.0673  0.0318
 6165SOL     OW29953   1.052   0.398  14.511 -0.4043  0.3522  0.4547
 6165SOL    HW129954   1.130   0.362  14.468  1.7311  0.2760  4.3394
 6165SOL    HW229955   1.004   0.319  14.536  1.7571 -1.4757 -1.1709
 6166SOL     OW29956   4.580   3.800  17.260 -0.3357 -0.1287 -0.0081
 6166SOL    HW129957   4.603   3.826  17.171 -0.5344 -0.2922 -0.1073
 6166SOL    HW229958   4.487   3.821  17.259  0.3670  2.9730 -0.2832
 6167SOL     OW29959   3.819   2.044   1.592 -0.1039  0.6375 -0.1853
 6167SOL    HW129960   3.740   2.012   1.634  0.4226  0.8375  0.9526
 6167SOL    HW229961   3.800   2.034   1.499  1.3728 -2.8679 -0.1204
 6168SOL     OW29962   1.094   2.452   2.876 -1.0089 -0.2444  0.2239
 6168SOL    HW129963   1.087   2.546   2.897 -2.0144 -0.4340  0.7707
 6168SOL    HW229964   1.188   2.439   2.879 -1.0930 -0.7447  0.5670
 6169SOL     OW29965   2.735   4.208  10.976  0.1912  0.3594 -0.3858
 6169SOL    HW129966   2.676   4.263  11.028  1.3330 -0.6183  1.9606
 6169SOL    HW229967   2.711   4.122  11.010  0.4498  1.2009  1.9969
 6170SOL     OW29968   1.991   4.405   7.235 -0.2319  0.0128  0.4752
 6170SOL    HW129969   1.955   4.465   7.300 -0.5991 -0.3160  0.5729
 6170SOL    HW229970   2.060   4.364   7.288 -1.4789 -0.4346  1.7498
 6171SOL     OW29971   0.202   3.010   6.417 -0.0631  0.5748  0.6799
 6171SOL    HW129972   0.188   3.003   6.323  0.3645  0.4378  0.6235
 6171SOL    HW229973   0.274   2.949   6.438  0.7899  1.2456 -0.3014
 6172SOL     OW29974   2.309   1.322   1.590 -0.1423  0.5160 -0.1756
 6172SOL    HW129975   2.318   1.271   1.670  0.7529 -0.0987 -0.6681
 6172SOL    HW229976   2.353   1.260   1.532 -2.3533 -0.5825 -0.6627
 6173SOL     OW29977   3.444   4.018   8.883  0.1306  0.2195  0.0452
 6173SOL    HW129978   3.538   3.999   8.886  0.2545  0.7481 -0.7519
 6173SOL    HW229979   3.424   4.060   8.966  1.5286 -2.3382  1.6986
 6174SOL     OW29980   3.368   1.585  11.908 -0.2447  0.5919  0.0259
 6174SOL    HW129981   3.418   1.538  11.841 -0.8498 -1.8005  1.2693
 6174SOL    HW229982   3.419   1.582  11.989  1.2316  2.3981 -0.8326
 6175SOL     OW29983   4.437   2.832   8.007  0.0508  0.2519  0.2584
 6175SOL    HW129984   4.363   2.779   7.976  1.4527 -0.8438 -1.2333
 6175SOL    HW229985   4.431   2.912   7.955  3.1924  0.0777 -0.3682
 6176SOL     OW29986   3.056   4.199   2.555 -0.6224 -0.2553 -0.4014
 6176SOL    HW129987   3.075   4.124   2.499  0.3319 -0.2341 -0.1075
 6176SOL    HW229988   3.024   4.164   2.639  0.6855  1.1965  0.7064
 6177SOL     OW29989   4.467   3.129   1.742 -0.5186 -0.5944  0.2907
 6177SOL    HW129990   4.460   3.036   1.764  0.1115 -0.7577 -0.2150
 6177SOL    HW229991   4.400   3.146   1.676  1.7627 -1.0270 -2.0956
 6178SOL     OW29992   3.108   4.151  16.575 -0.4710 -0.1327 -0.3184
 6178SOL    HW129993   3.089   4.154  16.669 -2.8551  1.4530 -0.8472
 6178SOL    HW229994   3.199   4.182  16.573 -0.9986  1.2454 -3.3178
 6179SOL     OW29995   3.950   4.101   9.822  0.5721 -0.2338  0.0694
 6179SOL    HW129996   3.996   4.032   9.869  0.7728 -1.0746 -1.3642
 6179SOL    HW229997   4.021   4.135   9.768 -0.4841 -0.6749 -1.5863
 6180SOL     OW29998   2.646   2.364   7.608  0.1056 -0.0646  0.0112
 6180SOL    HW129999   2.671   2.452   7.636  1.3217 -0.6380  0.7236
 6180SOL    HW230000   2.566   2.348   7.660 -0.2318 -0.6487 -0.6857
 6181SOL     OW30001   0.163   3.198   9.311  0.4380 -0.1547 -0.1613
 6181SOL    HW130002   0.201   3.276   9.350 -0.8992  0.9005 -0.9922
 6181SOL    HW230003   0.107   3.234   9.242  1.3415  1.6477  0.0447
 6182SOL     OW30004   0.218   4.165   1.913 -0.0343 -0.1373 -0.6058
 6182SOL    HW130005   0.231   4.130   1.825 -0.0077 -0.8633 -0.3118
 6182SOL    HW230006   0.293   4.127   1.960  0.8083  1.0992 -0.9679
 6183SOL     OW30007   2.541   2.516   2.151  0.2552 -0.2883 -0.1185
 6183SOL    HW130008   2.489   2.473   2.083 -0.5849 -0.5734  0.7049
 6183SOL    HW230009   2.561   2.594   2.100  0.3620 -1.8722 -2.4963
 6184SOL     OW30010   4.201   0.762   8.556 -0.3640  0.2879  0.1947
 6184SOL    HW130011   4.190   0.822   8.482 -1.6282 -1.1286 -0.7562
 6184SOL    HW230012   4.285   0.788   8.595  0.8800 -1.5953 -1.2652
 6185SOL     OW30013   1.866   2.461  17.151  0.1775 -0.1190 -0.2143
 6185SOL    HW130014   1.914   2.379  17.150  1.8409  0.8551  0.4181
 6185SOL    HW230015   1.921   2.507  17.214 -0.1297 -0.0321 -0.0101
 6186SOL     OW30016   2.651   4.436  11.391  0.2059 -0.2643 -0.4338
 6186SOL    HW130017   2.679   4.350  11.421  0.6197  0.4765  1.3163
 6186SOL    HW230018   2.737   4.473  11.368  1.4434 -1.2820  2.4906
 6187SOL     OW30019   3.057   0.891  10.018 -0.2856  0.2037  0.1558
 6187SOL    HW130020   3.127   0.833  10.049 -0.7471 -0.1845  0.4761
 6187SOL    HW230021   3.008   0.905  10.099 -1.5823  2.2838 -0.9790
 6188SOL     OW30022   2.390   3.613   9.012 -0.1264 -0.1251 -0.0737
 6188SOL    HW130023   2.320   3.547   9.010  0.4415 -0.7242 -0.3982
 6188SOL    HW230024   2.346   3.689   9.050  0.8340  0.4936 -0.2144
 6189SOL     OW30025   2.938   3.083   6.306  0.0076  0.5371 -0.4223
 6189SOL    HW130026   2.875   3.139   6.351 -0.5596  1.4058 -2.2657
 6189SOL    HW230027   2.888   3.002   6.296 -0.0778  0.6571 -1.0160
 6190SOL     OW30028   3.502   0.557   8.158 -0.2478  0.5546 -0.4041
 6190SOL    HW130029   3.473   0.536   8.247 -1.7966  0.9930 -0.7968
 6190SOL    HW230030   3.546   0.642   8.161  3.5708 -1.4291 -0.3933
 6191SOL     OW30031   0.551   2.108  12.528  0.1056  0.8415  0.1896
 6191SOL    HW130032   0.545   2.085  12.621 -4.7863 -1.3855 -0.7357
 6191SOL    HW230033   0.641   2.141  12.523 -0.2601  1.6757 -0.8004
 6192SOL     OW30034   0.159   1.812   4.480 -0.2526 -0.5306 -0.4892
 6192SOL    HW130035   0.162   1.827   4.575  1.2536 -1.7103 -0.3421
 6192SOL    HW230036   0.117   1.893   4.450 -0.1467 -0.4386 -0.3912
 6193SOL     OW30037   3.655   2.804  10.401  0.2041  0.6086  0.7211
 6193SOL    HW130038   3.580   2.783  10.345  0.9817  2.0160 -0.8635
 6193SOL    HW230039   3.618   2.817  10.487  1.8102 -0.9154  1.6604
 6194SOL     OW30040   0.742   2.474  13.452  0.0976  0.2271  0.3522
 6194SOL    HW130041   0.764   2.506  13.540  1.8859 -0.7616  0.2604
 6194SOL    HW230042   0.700   2.556  13.427 -0.0135 -0.5719 -2.0463
 6195SOL     OW30043   0.728   3.694   7.716  0.2480 -0.2506 -0.7171
 6195SOL    HW130044   0.737   3.737   7.801  2.2738 -2.4118  0.1376
 6195SOL    HW230045   0.645   3.647   7.716  0.0888  0.0321 -0.5556
 6196SOL     OW30046   2.219   1.720   4.097 -0.0274  0.0876  0.4355
 6196SOL    HW130047   2.258   1.794   4.144 -3.6823  1.7152  0.9071
 6196SOL    HW230048   2.189   1.764   4.018 -1.2636  2.3800  2.1714
 6197SOL     OW30049   1.935   2.827   6.475 -0.1674 -0.2823 -0.1530
 6197SOL    HW130050   2.013   2.835   6.421  0.5676  2.0866  1.2186
 6197SOL    HW230051   1.868   2.830   6.407  0.1144 -2.0245 -0.5043
 6198SOL     OW30052   0.472   4.506  14.234  0.8155 -0.0036  0.2803
 6198SOL    HW130053   0.423   4.569  14.286 -0.0617 -3.1680  3.3413
 6198SOL    HW230054   0.491   4.556  14.155 -1.9610 -2.7672 -2.0987
 6199SOL     OW30055   1.861   2.748   3.684 -0.1716 -0.2592 -0.1636
 6199SOL    HW130056   1.870   2.842   3.698  4.7011 -0.8306  0.6208
 6199SOL    HW230057   1.857   2.746   3.589  0.1349 -1.3034 -0.1601
 6200SOL     OW30058   3.923   2.322   6.588 -0.8642  0.4724 -0.1382
 6200SOL    HW130059   3.934   2.414   6.565 -1.6939  0.2755 -1.3467
 6200SOL    HW230060   3.828   2.314   6.592 -0.8805  1.1826  0.8562
 6201SOL     OW30061   4.465   4.586   4.120 -0.7812 -0.1498 -0.1368
 6201SOL    HW130062   4.478   4.493   4.134 -1.5480 -0.0275  1.3763
 6201SOL    HW230063   4.451   4.597   4.026  2.4429  2.2587 -0.3635
 6202SOL     OW30064   3.022   2.655   7.695 -0.1372 -0.1373 -0.0524
 6202SOL    HW130065   3.091   2.674   7.631 -1.0638  1.0976 -0.7063
 6202SOL    HW230066   3.021   2.560   7.704  0.2751  0.1496  2.8939
 6203SOL     OW30067   2.661   3.021   2.274  0.4363 -0.3447  0.2239
 6203SOL    HW130068   2.685   2.995   2.186  0.2314  1.7448 -0.4478
 6203SOL    HW230069   2.580   3.070   2.258  0.9517  0.3420 -0.2477
 6204SOL     OW30070   4.100   4.109   1.979 -0.1062  1.2145  0.4896
 6204SOL    HW130071   4.017   4.074   2.011  1.3811 -1.6682  1.2323
 6204SOL    HW230072   4.161   4.042   2.008  0.8823  0.3154 -3.6985
 6205SOL     OW30073   0.229   1.074   2.473  0.1504  0.3346 -0.5778
 6205SOL    HW130074   0.312   1.121   2.482 -0.1820  0.7858  0.1277
 6205SOL    HW230075   0.252   0.984   2.450 -1.8136  0.0242 -1.3571
 6206SOL     OW30076   0.076   3.983   0.287 -0.4110 -0.3125 -0.2669
 6206SOL    HW130077   4.709   4.015   0.295 -0.1807  0.3845 -0.4604
 6206SOL    HW230078   0.073   3.892   0.259  0.7040 -0.0895 -1.0892
 6207SOL     OW30079   0.417   1.360   2.793 -0.3255  0.2584  0.4622
 6207SOL    HW130080   0.462   1.445   2.797 -0.8601  0.5381  0.4752
 6207SOL    HW230081   0.329   1.394   2.778  0.4351  2.5566  1.1887
 6208SOL     OW30082   1.522   0.099  14.046 -0.0205 -0.0822 -0.1581
 6208SOL    HW130083   1.503   0.063  14.133 -1.8412 -1.5839 -1.1758
 6208SOL    HW230084   1.608   0.140  14.058  0.4174 -1.1101  0.2230
 6209SOL     OW30085   4.546   4.487   5.028  0.1221  0.5472  0.2170
 6209SOL    HW130086   4.636   4.521   5.025  0.4185 -0.3236 -1.2582
 6209SOL    HW230087   4.551   4.417   4.962  0.1060 -0.2233  1.0279
 6210SOL     OW30088   1.140   0.010   9.118  0.4623 -0.0927  0.2313
 6210SOL    HW130089   1.195   0.068   9.172  0.0469  0.3965  0.1356
 6210SOL    HW230090   1.077   4.691   9.176  0.7123 -2.3710 -1.1654
 6211SOL     OW30091   1.035   2.871   4.323 -0.0030 -0.0808 -0.0496
 6211SOL    HW130092   0.977   2.920   4.265 -1.7329 -1.0202  0.8888
 6211SOL    HW230093   1.017   2.785   4.286  0.6356  0.9403 -2.7492
 6212SOL     OW30094   3.795   3.396   4.305  0.6724  0.1546  0.5330
 6212SOL    HW130095   3.730   3.455   4.269  1.1347  0.5702  0.3834
 6212SOL    HW230096   3.850   3.449   4.363  1.7621 -0.5226  0.1103
 6213SOL     OW30097   0.343   1.606   5.095  0.0572 -0.0864 -0.6823
 6213SOL    HW130098   0.305   1.528   5.136  0.4147  0.3231  0.4507
 6213SOL    HW230099   0.336   1.584   5.003  0.3027  0.4470 -0.8264
 6214SOL     OW30100   2.738   0.998   8.742 -0.2477 -0.4020  0.0699
 6214SOL    HW130101   2.682   0.958   8.675  0.0453 -1.6144  0.5434
 6214SOL    HW230102   2.704   0.974   8.828  0.9154 -0.2335  0.5710
 6215SOL     OW30103   1.657   3.486   5.458 -0.4457 -0.2110  0.4586
 6215SOL    HW130104   1.617   3.556   5.509 -0.8888  1.0945 -1.6667
 6215SOL    HW230105   1.578   3.450   5.418  0.3918 -1.5576 -0.0020
 6216SOL     OW30106   1.645   2.430  12.122  0.0975 -0.1048 -0.1527
 6216SOL    HW130107   1.621   2.347  12.083 -1.0916 -0.5987  1.5904
 6216SOL    HW230108   1.657   2.410  12.215  1.8185  0.7099 -0.2007
 6217SOL     OW30109   2.355   3.590   9.406 -0.0448 -0.0525  0.0738
 6217SOL    HW130110   2.291   3.546   9.351 -0.3358 -0.1559  0.4972
 6217SOL    HW230111   2.304   3.668   9.429  1.8634  1.1442  0.2468
 6218SOL     OW30112   4.676   1.771  16.992  0.4782  0.2359  0.0989
 6218SOL    HW130113   0.025   1.832  16.981  1.6683 -1.6303 -2.4464
 6218SOL    HW230114   4.634   1.767  16.906 -0.3857  1.4108  0.4532
 6219SOL     OW30115   3.801   0.266   4.487 -0.0939 -0.1717 -0.1231
 6219SOL    HW130116   3.849   0.279   4.569  1.4903 -0.5645 -1.0022
 6219SOL    HW230117   3.821   0.174   4.473 -0.3789 -0.3313  0.4925
 6220SOL     OW30118   3.882   2.809   5.476  0.5102 -0.4200  0.4795
 6220SOL    HW130119   3.818   2.738   5.467  0.1384 -0.4752  3.5257
 6220SOL    HW230120   3.904   2.825   5.384  0.9349  2.0136  1.0240
 6221SOL     OW30121   2.664   1.799   5.715  0.1107 -0.0407  0.3634
 6221SOL    HW130122   2.577   1.759   5.712  1.1334 -2.2481 -0.1246
 6221SOL    HW230123   2.644   1.855   5.789 -0.6415  1.1505 -0.7313
 6222SOL     OW30124   0.473   1.080   5.957  0.3007 -0.4175  0.1784
 6222SOL    HW130125   0.555   1.129   5.968  0.0751 -0.4497  1.8882
 6222SOL    HW230126   0.444   1.067   6.047  0.3908 -1.6753  0.0278
 6223SOL     OW30127   3.427   4.437  12.440 -0.2616 -0.4821  0.7022
 6223SOL    HW130128   3.486   4.427  12.514 -0.4946 -1.3488  0.7698
 6223SOL    HW230129   3.343   4.395  12.461 -1.7239  2.9045  1.6119
 6224SOL     OW30130   3.367   1.425   2.335  0.2056  0.1501  0.0348
 6224SOL    HW130131   3.354   1.520   2.344  0.5806  0.0906  1.2905
 6224SOL    HW230132   3.360   1.410   2.241 -2.2130  1.1161  0.0489
 6225SOL     OW30133   4.689   0.732  12.578  0.5536  0.0268  0.7835
 6225SOL    HW130134   0.051   0.714  12.617  0.0210  0.1528  2.0024
 6225SOL    HW230135   4.660   0.646  12.546  0.7481 -0.0992  0.9406
 6226SOL     OW30136   1.648   2.874   3.960 -0.2438  0.3583  0.1098
 6226SOL    HW130137   1.725   2.929   3.977 -0.0079  0.6056 -1.7628
 6226SOL    HW230138   1.581   2.933   3.994 -0.3068  0.3903 -0.0713
 6227SOL     OW30139   2.047   0.724  12.145  0.3669 -0.4399  0.0647
 6227SOL    HW130140   2.075   0.644  12.189 -0.2596 -0.6914 -0.0028
 6227SOL    HW230141   2.009   0.685  12.066  2.9156 -0.3341 -1.2364
 6228SOL     OW30142   3.086   2.065   3.395 -0.5341 -0.0276  0.2937
 6228SOL    HW130143   3.030   1.991   3.419 -1.0338  0.6642  1.2065
 6228SOL    HW230144   3.064   2.126   3.465  0.5872 -1.1528  1.6241
 6229SOL     OW30145   1.625   0.452  16.942  1.2632 -0.2285  0.2086
 6229SOL    HW130146   1.609   0.358  16.938  1.6815 -0.2937  0.0270
 6229SOL    HW230147   1.562   0.479  17.008 -0.7150 -0.1470 -1.7192
 6230SOL     OW30148   2.614   2.338   8.264 -0.5220 -0.3494  0.5776
 6230SOL    HW130149   2.663   2.300   8.337  0.0959  1.2075  0.9844
 6230SOL    HW230150   2.609   2.431   8.288  0.3470  0.2244 -1.4622
 6231SOL     OW30151   1.619   1.856   9.556  0.1193  0.0437 -0.2091
 6231SOL    HW130152   1.665   1.902   9.487 -0.8063  1.9747  0.4574
 6231SOL    HW230153   1.683   1.867   9.626  0.4866 -1.8412 -0.2419
 6232SOL     OW30154   2.050   0.903   7.829  0.1036 -0.7195  0.6710
 6232SOL    HW130155   2.097   0.827   7.864  1.1439 -0.5271 -0.3008
 6232SOL    HW230156   2.044   0.860   7.743  0.7586 -0.4292  0.4794
 6233SOL     OW30157   0.593   1.873  17.100  0.2547 -0.1092 -0.0426
 6233SOL    HW130158   0.518   1.822  17.067  0.0494  0.2878 -0.1841
 6233SOL    HW230159   0.552   1.900  17.182  1.8875  1.9760  0.0842
 6234SOL     OW30160   2.931   2.302   8.824 -0.0989 -0.2386  0.0438
 6234SOL    HW130161   2.986   2.363   8.874  0.3570 -0.5672 -0.0589
 6234SOL    HW230162   2.936   2.345   8.739 -0.3171 -0.9946 -0.3507
 6235SOL     OW30163   0.739   1.334   7.951  0.3338 -0.1079  0.0998
 6235SOL    HW130164   0.791   1.276   8.006  0.8026 -2.1888 -2.5711
 6235SOL    HW230165   0.808   1.363   7.891  0.3287  0.3637  0.3163
 6236SOL     OW30166   4.399   1.364   7.509 -0.6774  0.1508  0.5274
 6236SOL    HW130167   4.314   1.329   7.482 -0.6690  1.5057 -1.1968
 6236SOL    HW230168   4.383   1.458   7.506 -0.6428  0.1207 -0.3684
 6237SOL     OW30169   2.274   2.847   4.048  0.0488 -0.3911 -0.1131
 6237SOL    HW130170   2.224   2.869   3.969  0.8817 -1.7626 -1.0424
 6237SOL    HW230171   2.299   2.760   4.017 -0.3745 -0.7599  0.5912
 6238SOL     OW30172   3.243   0.388  14.586 -0.6847  0.2750 -0.6076
 6238SOL    HW130173   3.315   0.338  14.624 -1.4240  0.1329  0.5849
 6238SOL    HW230174   3.276   0.425  14.504  0.2028  1.1566  0.1605
 6239SOL     OW30175   3.188   0.856   3.040 -0.4112 -0.4073  0.1580
 6239SOL    HW130176   3.224   0.944   3.046 -2.0565  0.4707 -3.0911
 6239SOL    HW230177   3.098   0.871   3.069  0.2500  2.9957  0.4404
 6240SOL     OW30178   1.823   2.531  11.377 -0.2524  0.1185 -0.0214
 6240SOL    HW130179   1.843   2.622  11.352  1.2447 -0.7330 -1.9476
 6240SOL    HW230180   1.801   2.561  11.465 -1.4887  0.7189 -0.5230
 6241SOL     OW30181   3.232   1.059  17.537 -0.6750 -0.6247 -0.3265
 6241SOL    HW130182   3.285   1.137  17.520  1.9800 -1.9394  2.0440
 6241SOL    HW230183   3.298   0.991  17.545 -0.5591 -0.5536 -0.6642
 6242SOL     OW30184   2.644   3.126   8.762 -0.1115 -0.3879 -0.3915
 6242SOL    HW130185   2.738   3.112   8.776 -0.0629  2.0106  1.6259
 6242SOL    HW230186   2.622   3.085   8.678 -0.0739 -0.8197 -0.1934
 6243SOL     OW30187   2.483   4.720   8.544  0.1048 -0.0049 -0.2996
 6243SOL    HW130188   2.403   4.678   8.576  0.0472  1.2639  1.1834
 6243SOL    HW230189   2.499   0.038   8.628  0.6875 -3.0991  1.1176
 6244SOL     OW30190   4.030   0.510   2.167 -0.0105  0.1140  0.5488
 6244SOL    HW130191   4.040   0.606   2.170 -2.2772  0.3553  0.1362
 6244SOL    HW230192   4.096   0.492   2.099 -1.8233 -1.1907 -0.8446
 6245SOL     OW30193   0.510   1.103   6.863 -0.0209 -0.3719 -0.1701
 6245SOL    HW130194   0.456   1.080   6.939  1.5387 -2.4495  0.3093
 6245SOL    HW230195   0.515   1.195   6.888 -1.2124 -0.5803  0.8522
 6246SOL     OW30196   0.856   0.450   8.091  0.9748  0.1511 -0.1891
 6246SOL    HW130197   0.767   0.479   8.111  0.7449 -0.4735 -0.3347
 6246SOL    HW230198   0.897   0.535   8.074  1.5652 -0.5908 -2.4236
 6247SOL     OW30199   3.961   3.267   2.017  0.2480  0.1543  0.0228
 6247SOL    HW130200   3.885   3.209   2.024 -0.0469  0.4550 -0.6659
 6247SOL    HW230201   3.934   3.345   2.065 -1.2420 -0.3007 -0.0874
 6248SOL     OW30202   1.697   1.138  12.399  0.2443 -0.3516  0.4101
 6248SOL    HW130203   1.738   1.217  12.434 -0.7531  0.2025  0.3140
 6248SOL    HW230204   1.620   1.124  12.454 -0.0958  0.0232  0.0268
 6249SOL     OW30205   3.823   1.762   8.467 -0.3958 -0.1282  0.2027
 6249SOL    HW130206   3.807   1.809   8.549  0.2475 -0.5959  0.5950
 6249SOL    HW230207   3.917   1.777   8.452 -0.6957  0.3653 -1.1423
 6250SOL     OW30208   2.212   0.467   1.351  0.2888  0.1757  0.7720
 6250SOL    HW130209   2.160   0.400   1.395  4.3464 -2.8687  0.9027
 6250SOL    HW230210   2.263   0.427   1.281 -1.6962  0.7958 -1.0396
 6251SOL     OW30211   0.951   4.390  11.796  0.1287  0.4621  0.6656
 6251SOL    HW130212   0.926   4.301  11.821 -0.4118  0.7108  1.0114
 6251SOL    HW230213   0.983   4.375  11.707 -1.9107  3.8476 -0.6155
 6252SOL     OW30214   3.820   1.898   1.956  0.3263  0.4409 -0.1824
 6252SOL    HW130215   3.887   1.878   2.021 -0.3196  2.1769  1.0215
 6252SOL    HW230216   3.872   1.900   1.875  0.4004  0.4878 -0.1336
 6253SOL     OW30217   3.897   2.091   7.965 -0.9606  0.4573 -0.4252
 6253SOL    HW130218   3.990   2.114   7.974 -0.6762 -1.2921  0.9944
 6253SOL    HW230219   3.859   2.154   7.903  0.4673  0.9854 -0.7771
 6254SOL     OW30220   4.007   2.136  17.242  0.6717  0.2169  0.5824
 6254SOL    HW130221   4.062   2.200  17.196 -0.3889  1.4250  1.0064
 6254SOL    HW230222   3.953   2.190  17.299  1.4646  2.3294 -0.6432
 6255SOL     OW30223   2.668   1.840   2.425 -0.0638 -0.4494 -0.0679
 6255SOL    HW130224   2.605   1.814   2.492  0.0846 -0.5129  0.0482
 6255SOL    HW230225   2.756   1.844   2.464  0.4863  0.1039 -1.3911
 6256SOL     OW30226   0.639   1.392   4.973  0.1343  0.6592  0.5363
 6256SOL    HW130227   0.629   1.370   5.066  2.6862  1.0285  0.9172
 6256SOL    HW230228   0.693   1.470   4.983  0.0092  0.4440  2.8695
 6257SOL     OW30229   4.526   4.563   1.067 -0.5166 -0.1251 -0.4321
 6257SOL    HW130230   4.513   4.608   0.983  0.2386 -1.5037 -1.2982
 6257SOL    HW230231   4.617   4.585   1.086 -0.4005 -0.5457 -0.4946
 6258SOL     OW30232   1.563   3.096   7.076  0.6060 -0.5687 -0.2674
 6258SOL    HW130233   1.502   3.030   7.046  3.4498 -3.3263 -0.0051
 6258SOL    HW230234   1.611   3.102   6.993 -0.0654  1.3127 -0.5239
 6259SOL     OW30235   3.869   0.420   5.198 -0.1236  0.4555  0.1831
 6259SOL    HW130236   3.864   0.500   5.251  1.3726  1.0051 -0.5071
 6259SOL    HW230237   3.916   0.357   5.252 -1.6017 -0.3645  0.4975
 6260SOL     OW30238   2.174   2.556   5.096 -0.2151 -0.6998  0.5161
 6260SOL    HW130239   2.174   2.470   5.055 -0.4376 -0.4420 -0.0235
 6260SOL    HW230240   2.189   2.611   5.019 -0.9981 -0.2499  0.6854
 6261SOL     OW30241   4.000   0.186  14.353 -0.0502  0.3376  0.0154
 6261SOL    HW130242   4.044   0.163  14.435 -0.5623 -0.2498  0.1255
 6261SOL    HW230243   3.929   0.242  14.385  1.3201  1.8879  0.3677
 6262SOL     OW30244   3.457   2.124   9.369  0.2750  0.0735  0.2276
 6262SOL    HW130245   3.524   2.061   9.397  0.8340  0.1994 -0.8651
 6262SOL    HW230246   3.382   2.069   9.392  0.3734  0.4493  1.4443
 6263SOL     OW30247   1.456   2.240  12.633  0.0080  0.0071  0.6922
 6263SOL    HW130248   1.463   2.251  12.728  1.4082  3.0205  0.2665
 6263SOL    HW230249   1.466   2.146  12.621 -2.0995 -0.5267  3.0512
 6264SOL     OW30250   0.797   0.393   0.208  0.6406 -0.1588 -0.3206
 6264SOL    HW130251   0.707   0.421   0.190  0.5247  0.9918  2.0725
 6264SOL    HW230252   0.786   0.299   0.219  2.6778 -0.5489 -1.5488
 6265SOL     OW30253   4.723   1.985   4.351 -0.1262  0.0621 -0.1335
 6265SOL    HW130254   0.026   2.022   4.267 -1.1929  1.3340  0.0826
 6265SOL    HW230255   4.629   2.004   4.349 -0.1332  0.4068  4.0246
 6266SOL     OW30256   2.765   3.587   5.418  0.3611 -0.1028  0.0274
 6266SOL    HW130257   2.726   3.670   5.446 -2.3419 -1.0368 -0.9866
 6266SOL    HW230258   2.746   3.598   5.325 -0.8463  0.0540  0.2951
 6267SOL     OW30259   1.016   3.120  12.853  0.8699  0.1209 -0.4273
 6267SOL    HW130260   1.094   3.122  12.797  1.7627  0.5723  0.8370
 6267SOL    HW230261   0.993   3.213  12.845 -1.0217 -0.3609 -0.4568
 6268SOL     OW30262   2.345   0.364  16.375  0.0966  0.0642 -0.3035
 6268SOL    HW130263   2.339   0.460  16.380  0.7505  0.2119 -2.3569
 6268SOL    HW230264   2.302   0.351  16.460 -0.9188  1.5632 -0.5693
 6269SOL     OW30265   1.240   1.537   5.687  0.1645  0.2871 -0.0005
 6269SOL    HW130266   1.316   1.529   5.628 -2.6324  3.3713 -4.0366
 6269SOL    HW230267   1.287   1.546   5.770  0.6138 -1.0426 -0.1028
 6270SOL     OW30268   2.139   0.572   4.571 -0.6960  0.2239  0.5260
 6270SOL    HW130269   2.175   0.507   4.631  0.3270 -1.2537 -1.6824
 6270SOL    HW230270   2.100   0.507   4.512 -3.5603  1.0645  1.4647
 6271SOL     OW30271   1.268   3.945   0.080  0.3897 -0.0972  0.1852
 6271SOL    HW130272   1.278   3.862   0.033  2.0524  0.7711 -0.9950
 6271SOL    HW230273   1.336   3.991   0.031  1.3200 -1.3217  0.3224
 6272SOL     OW30274   1.281   1.918   4.340 -0.4312  0.3196  0.2512
 6272SOL    HW130275   1.225   1.847   4.370  0.5340 -0.6577 -0.2675
 6272SOL    HW230276   1.351   1.907   4.404  0.9522 -0.8773 -1.4598
 6273SOL     OW30277   0.814   2.718   8.277  0.4032 -0.1660  0.1461
 6273SOL    HW130278   0.728   2.677   8.289 -0.3991  1.1053 -1.2404
 6273SOL    HW230279   0.870   2.648   8.310 -0.7983 -1.9081 -1.5398
 6274SOL     OW30280   4.420   0.495  15.010  0.0044 -0.1239 -0.2431
 6274SOL    HW130281   4.368   0.574  14.995 -1.9818 -1.4398 -0.3348
 6274SOL    HW230282   4.467   0.511  15.092 -1.9855 -0.8059  1.0364
 6275SOL     OW30283   1.262   1.725   7.515  0.7198 -0.1931 -0.4380
 6275SOL    HW130284   1.298   1.726   7.426  1.5770  0.2317 -0.0760
 6275SOL    HW230285   1.332   1.699   7.575 -1.1858 -1.1528  1.3561
 6276SOL     OW30286   2.210   3.397   8.147  0.0956 -0.3436 -0.0802
 6276SOL    HW130287   2.206   3.454   8.223  0.4555 -2.5227  1.5993
 6276SOL    HW230288   2.301   3.370   8.161  0.4376 -0.5384 -2.5756
 6277SOL     OW30289   4.498   3.169  10.769  0.0334 -0.7013  0.6982
 6277SOL    HW130290   4.471   3.145  10.681  1.1897  0.0680  0.1252
 6277SOL    HW230291   4.569   3.105  10.776  1.0668  0.4623  1.1006
 6278SOL     OW30292   1.716   1.691   6.107  0.2019 -0.5577 -0.0504
 6278SOL    HW130293   1.786   1.711   6.044 -0.2000 -1.4116 -0.7726
 6278SOL    HW230294   1.756   1.728   6.186 -1.1803  1.1373 -0.1522
 6279SOL     OW30295   1.850   4.420  10.139  0.4534  0.0966  0.4289
 6279SOL    HW130296   1.858   4.362  10.063  1.5615 -2.0496  2.1624
 6279SOL    HW230297   1.804   4.490  10.093 -0.1549 -1.3106 -1.1133
 6280SOL     OW30298   3.841   4.607   9.202 -0.1392 -0.3543 -0.3789
 6280SOL    HW130299   3.931   4.620   9.232 -0.4005  0.3601  0.0837
 6280SOL    HW230300   3.798   4.611   9.287  0.9990  0.5090  0.1593
 6281SOL     OW30301   2.819   0.933   5.935 -0.2154  0.4139 -0.7205
 6281SOL    HW130302   2.789   0.930   6.026  0.5473  1.0081 -0.4489
 6281SOL    HW230303   2.761   0.860   5.912 -1.1459  1.1651 -0.7410
 6282SOL     OW30304   3.023   4.150   5.758 -0.0117 -0.2539 -1.0028
 6282SOL    HW130305   3.015   4.081   5.824 -0.1042 -0.1314 -0.8885
 6282SOL    HW230306   2.930   4.166   5.746 -0.4853  0.1283  3.2027
 6283SOL     OW30307   0.443   4.276  13.767 -0.5490 -0.1574  0.1717
 6283SOL    HW130308   0.407   4.362  13.743 -0.6923 -0.3139 -0.1697
 6283SOL    HW230309   0.522   4.266  13.714 -0.7350  2.6833 -0.6646
 6284SOL     OW30310   4.325   2.855   6.094 -0.5379  0.1081 -0.1285
 6284SOL    HW130311   4.415   2.848   6.062  0.1760 -1.3122  2.1739
 6284SOL    HW230312   4.307   2.945   6.070  0.3162  0.4389  0.4615
 6285SOL     OW30313   3.105   2.234   1.627  0.3180 -0.5576  0.2994
 6285SOL    HW130314   3.096   2.152   1.674 -0.7692 -2.5596 -3.3691
 6285SOL    HW230315   3.023   2.277   1.649  1.0276  0.2307  1.4033
 6286SOL     OW30316   3.458   0.690   1.391 -0.2708  0.0693 -0.2053
 6286SOL    HW130317   3.449   0.759   1.457 -1.6065 -0.4352  0.1553
 6286SOL    HW230318   3.473   0.613   1.445 -0.1264 -0.3343 -0.8203
 6287SOL     OW30319   4.315   1.800   9.603  0.1575  0.2736  0.1888
 6287SOL    HW130320   4.410   1.801   9.613  0.2267  1.7781 -0.5485
 6287SOL    HW230321   4.304   1.756   9.519 -0.8988  0.6512  0.1224
 6288SOL     OW30322   3.098   1.245   4.062  0.4824  0.2761  0.4747
 6288SOL    HW130323   3.026   1.185   4.042  0.3607  0.6155 -0.0777
 6288SOL    HW230324   3.076   1.290   4.144 -1.2303 -0.6581  0.5375
 6289SOL     OW30325   2.852   2.502  16.801  0.2258 -0.1039 -0.5829
 6289SOL    HW130326   2.777   2.530  16.854  0.4406 -0.6285  0.0070
 6289SOL    HW230327   2.877   2.585  16.761 -0.4931  0.8671  0.9639
 6290SOL     OW30328   3.627   0.712  17.343 -0.2235  0.0742 -0.2878
 6290SOL    HW130329   3.709   0.734  17.300 -0.9462 -0.2590 -1.8472
 6290SOL    HW230330   3.682   0.680  17.415 -2.0240 -3.0732 -0.3028
 6291SOL     OW30331   1.601   2.883  14.118 -0.0640 -0.0278  0.2456
 6291SOL    HW130332   1.577   2.792  14.107  0.5070 -0.5006  2.8471
 6291SOL    HW230333   1.554   2.926  14.047  1.7035  2.8745  0.8164
 6292SOL     OW30334   3.573   3.530   6.799 -0.4939 -0.6585  0.0303
 6292SOL    HW130335   3.643   3.542   6.735 -2.2847  0.2413 -1.7839
 6292SOL    HW230336   3.511   3.596   6.766 -0.1160 -0.6969 -0.7621
 6293SOL     OW30337   2.783   2.225   2.106  0.3063  0.1549 -0.2232
 6293SOL    HW130338   2.764   2.311   2.143  1.0692 -0.0244  0.5719
 6293SOL    HW230339   2.709   2.202   2.049  0.4982  2.9024 -1.5960
 6294SOL     OW30340   0.169   0.461  13.687  0.3719  0.4383 -0.1118
 6294SOL    HW130341   0.159   0.446  13.781  2.9266  0.7982  0.2178
 6294SOL    HW230342   0.163   0.368  13.664 -0.5070  0.6993 -0.9539
 6295SOL     OW30343   3.758   0.603   3.622 -0.3940  0.2255  0.1909
 6295SOL    HW130344   3.789   0.693   3.621 -2.6079  1.0045  0.6115
 6295SOL    HW230345   3.736   0.592   3.715  1.4231  0.8848  0.6881
 6296SOL     OW30346   4.233   1.245  15.078 -0.4032  0.7684  0.1437
 6296SOL    HW130347   4.244   1.238  15.173  0.9048  0.7947 -0.0086
 6296SOL    HW230348   4.292   1.317  15.057 -0.1206  0.5432  0.1625
 6297SOL     OW30349   0.953   2.914   5.223  0.0591  0.3126 -0.4319
 6297SOL    HW130350   1.015   2.841   5.211  2.0508  1.9081  0.0870
 6297SOL    HW230351   0.919   2.941   5.138 -0.3648 -0.8428 -0.6348
 6298SOL     OW30352   3.352   1.980  14.117  0.2625  0.0002 -0.4276
 6298SOL    HW130353   3.261   1.994  14.093  0.5714 -0.5768 -1.9833
 6298SOL    HW230354   3.382   1.919  14.049  0.8657  0.6449 -0.7425
 6299SOL     OW30355   0.065   0.398  11.836  0.3520  0.2335  0.2455
 6299SOL    HW130356   4.704   0.399  11.791  0.0367 -4.2643  0.7592
 6299SOL    HW230357   0.121   0.441  11.771 -0.3810 -0.1085 -0.6201
 6300SOL     OW30358   1.286   3.064   0.680  0.0715  0.4952  0.1971
 6300SOL    HW130359   1.193   3.051   0.660  0.6372 -1.3901 -1.2530
 6300SOL    HW230360   1.328   3.017   0.607  1.9390  3.2611 -0.5024
 6301SOL     OW30361   1.965   1.421   4.956 -0.1931  0.2523  0.8120
 6301SOL    HW130362   1.894   1.366   4.987  0.2450  0.3173  1.9470
 6301SOL    HW230363   2.029   1.358   4.921 -1.1337  0.0784 -0.5820
 6302SOL     OW30364   0.271   3.213   2.574 -0.2901 -0.0954  0.2218
 6302SOL    HW130365   0.277   3.243   2.483  2.4860 -1.2200  0.0148
 6302SOL    HW230366   0.301   3.122   2.575 -0.3520 -0.1146  0.2770
 6303SOL     OW30367   2.664   0.134   6.011 -0.0535  0.5576  0.2447
 6303SOL    HW130368   2.650   0.183   6.093  2.0906 -2.0100  2.1600
 6303SOL    HW230369   2.755   0.110   6.026 -0.6120 -1.1429  0.9015
 6304SOL     OW30370   3.817   4.633   7.669 -0.1306 -0.2307 -0.0852
 6304SOL    HW130371   3.843   4.704   7.611  0.5817 -0.4602 -0.0469
 6304SOL    HW230372   3.842   4.676   7.751 -0.5906 -0.4588  0.1733
 6305SOL     OW30373   0.903   3.932  12.352  0.2612 -0.2634  0.6665
 6305SOL    HW130374   0.986   3.980  12.350  0.3744 -0.4937 -0.0320
 6305SOL    HW230375   0.929   3.844  12.380 -0.5754  0.5350  4.0147
 6306SOL     OW30376   0.141   4.553   0.439 -0.7472 -0.0892  0.4408
 6306SOL    HW130377   0.054   4.589   0.455 -1.2858 -1.9652  1.7130
 6306SOL    HW230378   0.128   4.520   0.350 -2.2727 -1.0433  1.0224
 6307SOL     OW30379   0.430   2.010  11.492 -0.1566  0.0531  0.0615
 6307SOL    HW130380   0.522   1.986  11.479 -0.0442  0.4364  0.1417
 6307SOL    HW230381   0.406   1.945  11.558 -1.6586 -2.9999 -3.5142
 6308SOL     OW30382   2.994   2.603  12.098  0.4319  0.6515  0.3704
 6308SOL    HW130383   2.970   2.516  12.067  2.8099  0.2759 -0.4528
 6308SOL    HW230384   3.073   2.586  12.149 -0.4115  0.1494  1.4972
 6309SOL     OW30385   0.651   4.482   8.534 -0.5784  0.3396 -0.6710
 6309SOL    HW130386   0.633   4.469   8.627  0.5016 -2.7143 -0.8969
 6309SOL    HW230387   0.730   4.534   8.552 -0.8307  0.3673  0.3748
 6310SOL     OW30388   1.155   1.767  13.001  0.1636 -0.0957 -0.2438
 6310SOL    HW130389   1.198   1.816  13.071  1.2975  0.1559 -1.1064
 6310SOL    HW230390   1.113   1.698  13.053  1.3177 -0.0335  0.7824
 6311SOL     OW30391   4.055   4.546   6.237 -0.5137  0.7405 -0.3179
 6311SOL    HW130392   4.087   4.635   6.253  1.4689  0.3335 -1.9427
 6311SOL    HW230393   4.003   4.534   6.316  1.1110  0.1133  0.6670
 6312SOL     OW30394   2.171   3.532   5.325 -0.1903 -0.0807  0.5909
 6312SOL    HW130395   2.077   3.518   5.339  0.0449 -0.7158  1.5357
 6312SOL    HW230396   2.191   3.617   5.365 -0.6355 -0.0161  0.6790
 6313SOL     OW30397   2.495   2.834   6.817  0.1758 -0.6249  0.7657
 6313SOL    HW130398   2.437   2.897   6.776 -0.0509 -0.8459  0.7451
 6313SOL    HW230399   2.504   2.773   6.743 -1.8679  1.1464 -0.9370
 6314SOL     OW30400   1.132   2.537   6.367  0.1244  0.2587 -0.1104
 6314SOL    HW130401   1.154   2.540   6.273  1.7784  3.3532  0.4067
 6314SOL    HW230402   1.217   2.538   6.409 -0.1757  1.3444  0.4568
 6315SOL     OW30403   3.983   2.344  11.800 -0.0312  0.0174 -0.1219
 6315SOL    HW130404   4.032   2.270  11.766  0.1699  0.5727 -1.0316
 6315SOL    HW230405   3.901   2.304  11.829 -0.5882  0.6152 -0.8846
 6316SOL     OW30406   0.990   2.567   2.657 -0.2978  0.1310  0.3619
 6316SOL    HW130407   1.012   2.630   2.726  0.1127  0.5509 -0.1571
 6316SOL    HW230408   1.013   2.492   2.712 -0.2154  0.6531  1.0402
 6317SOL     OW30409   3.323   3.130   6.610  0.1543 -0.0639  0.4081
 6317SOL    HW130410   3.264   3.144   6.536 -1.1178 -2.7615  0.8844
 6317SOL    HW230411   3.261   3.113   6.681 -1.0258  0.3503 -0.5357
 6318SOL     OW30412   0.003   3.890   6.704  0.9474 -0.1689 -0.3601
 6318SOL    HW130413   0.068   3.958   6.719  0.4477  0.2579 -0.1012
 6318SOL    HW230414   4.721   3.855   6.793  1.0428  0.2785 -0.1781
 6319SOL     OW30415   2.660   3.319   8.296  0.1297 -0.3029 -0.0181
 6319SOL    HW130416   2.616   3.237   8.320  1.0235 -0.6937  0.3062
 6319SOL    HW230417   2.598   3.340   8.226 -1.4700 -1.8335  0.9306
 6320SOL     OW30418   1.032   0.554   8.336 -0.4366 -0.3367 -0.4197
 6320SOL    HW130419   1.121   0.560   8.369 -0.6430  3.0339 -0.5097
 6320SOL    HW230420   0.992   0.499   8.404  0.7300 -2.3633 -1.3835
 6321SOL     OW30421   0.484   3.452  16.695  0.1376  0.4052 -0.2419
 6321SOL    HW130422   0.454   3.540  16.714  1.8558  1.2473 -1.4172
 6321SOL    HW230423   0.455   3.417  16.779  0.0644  1.1128  0.0193
 6322SOL     OW30424   0.773   3.332   1.627 -0.0617 -0.2949 -0.1628
 6322SOL    HW130425   0.821   3.412   1.607  1.4481 -0.7126  1.8086
 6322SOL    HW230426   0.692   3.367   1.665  0.4620 -0.2151  0.8688
 6323SOL     OW30427   3.010   1.140   3.241  0.0586  0.6076 -0.3630
 6323SOL    HW130428   3.047   1.054   3.259  1.0159  0.5563 -2.6209
 6323SOL    HW230429   3.072   1.207   3.272  0.0330 -0.2460  1.5316
 6324SOL     OW30430   2.772   4.212   4.241  0.3630  0.4864  0.5109
 6324SOL    HW130431   2.821   4.155   4.300 -0.5807 -0.5720  0.2569
 6324SOL    HW230432   2.765   4.154   4.166  2.4353  0.6001  0.2360
 6325SOL     OW30433   0.638   4.022  13.625  0.2508 -0.2512  0.2901
 6325SOL    HW130434   0.626   4.015  13.720 -0.8945 -0.5239  0.1212
 6325SOL    HW230435   0.719   3.972  13.619  0.7186 -0.0709  4.6062
 6326SOL     OW30436   4.558   2.458  17.599 -0.4546 -0.6921  0.1734
 6326SOL    HW130437   4.507   2.394  17.549 -1.2781 -0.4328  0.6698
 6326SOL    HW230438   4.637   2.460  17.545 -1.8200  2.9461 -1.6330
 6327SOL     OW30439   3.048   0.052   4.630  0.1373  0.6772  0.6759
 6327SOL    HW130440   3.018   0.142   4.613 -0.7445 -0.0586 -1.6472
 6327SOL    HW230441   3.129   0.069   4.582 -0.0921  0.6514  0.2777
 6328SOL     OW30442   1.731   0.449   3.212  0.6557 -0.1814  0.1998
 6328SOL    HW130443   1.740   0.539   3.182 -0.1483  0.1905  1.0497
 6328SOL    HW230444   1.650   0.417   3.173  1.6162 -0.5401 -1.4699
 6329SOL     OW30445   1.561   0.025   2.653 -0.5342 -0.0076 -0.2925
 6329SOL    HW130446   1.488   4.719   2.598  1.2298  0.7562 -3.0298
 6329SOL    HW230447   1.560   4.699   2.735 -0.9413  0.2366 -0.1502
 6330SOL     OW30448   2.787   0.445   5.508 -0.9392  0.7069 -0.0736
 6330SOL    HW130449   2.710   0.502   5.507 -1.5797 -0.1548  0.4960
 6330SOL    HW230450   2.804   0.456   5.602  1.8134  0.7083 -0.5816
 6331SOL     OW30451   1.690   1.483   5.095  0.4804 -0.2384  0.3449
 6331SOL    HW130452   1.608   1.484   5.145 -1.0146 -0.1858 -2.1224
 6331SOL    HW230453   1.749   1.449   5.162  3.0947  1.9015 -0.8936
 6332SOL     OW30454   3.871   3.494   3.919 -0.0192 -0.1856  0.8117
 6332SOL    HW130455   3.949   3.512   3.971  0.9097  0.4102 -0.7737
 6332SOL    HW230456   3.824   3.576   3.931  0.6644  0.4256 -0.7286
 6333SOL     OW30457   3.798   2.503   8.502  0.9260  0.3325  0.4017
 6333SOL    HW130458   3.790   2.598   8.508 -0.0358  0.1587  1.8457
 6333SOL    HW230459   3.877   2.494   8.555  0.6187 -1.6763  0.5037
 6334SOL     OW30460   2.531   4.117  12.578 -0.3538  0.0444 -0.4675
 6334SOL    HW130461   2.600   4.053  12.560 -0.7949 -0.3478 -0.7655
 6334SOL    HW230462   2.586   4.192  12.600  1.2366 -1.0522 -0.7214
 6335SOL     OW30463   2.300   3.102  10.894 -0.0706  0.3430 -0.2268
 6335SOL    HW130464   2.304   3.092  10.989 -0.0708 -2.0217 -0.4803
 6335SOL    HW230465   2.235   3.033  10.881 -0.3323  0.7987 -1.2924
 6336SOL     OW30466   2.354   0.680   1.195 -0.0929 -0.1446  0.7134
 6336SOL    HW130467   2.421   0.732   1.238  1.2348 -1.0400 -0.2727
 6336SOL    HW230468   2.272   0.670   1.244 -0.4067  2.3851  0.6917
 6337SOL     OW30469   0.790   3.717   5.886  0.0300  0.5680 -0.2518
 6337SOL    HW130470   0.856   3.777   5.923 -0.7581 -0.9718  3.5883
 6337SOL    HW230471   0.838   3.680   5.812 -0.0089 -0.5466  0.2798
 6338SOL     OW30472   3.953   3.478   8.718  0.2662 -0.1096 -0.0590
 6338SOL    HW130473   3.905   3.440   8.644  1.0771  0.6783 -0.9754
 6338SOL    HW230474   4.047   3.477   8.700  0.4512 -0.6191  0.9419
 6339SOL     OW30475   2.376   3.341   8.437  0.0418  0.1724  0.4861
 6339SOL    HW130476   2.404   3.329   8.528 -0.7272 -3.3432  0.2505
 6339SOL    HW230477   2.414   3.263   8.397  0.1360  1.5652 -2.1403
 6340SOL     OW30478   0.836   2.150   6.539 -0.4204 -0.1226 -1.0080
 6340SOL    HW130479   0.753   2.111   6.511 -1.0347  0.5047 -0.0499
 6340SOL    HW230480   0.808   2.182   6.624  1.9761 -0.2722 -0.1649
 6341SOL     OW30481   0.504   0.075   5.195 -0.3825 -0.9698 -0.0096
 6341SOL    HW130482   0.444   0.013   5.236 -0.5285  0.0512  1.3063
 6341SOL    HW230483   0.560   0.080   5.273 -0.3480 -2.1469  0.0376
 6342SOL     OW30484   2.608   2.580   4.276 -0.0239 -0.3802  0.4603
 6342SOL    HW130485   2.520   2.568   4.240  1.5296 -0.5441 -3.2662
 6342SOL    HW230486   2.593   2.544   4.364 -1.2322  0.6764  0.6961
 6343SOL     OW30487   2.760   1.829  16.790 -0.0456 -0.0294 -0.4821
 6343SOL    HW130488   2.669   1.804  16.807 -0.4662  3.1031  1.7900
 6343SOL    HW230489   2.776   1.786  16.705  2.0522  0.6402 -0.4430
 6344SOL     OW30490   2.272   3.545  15.673  0.4597  0.4663 -0.1983
 6344SOL    HW130491   2.324   3.578  15.600 -2.0789 -0.1782 -2.3348
 6344SOL    HW230492   2.331   3.487  15.722  2.3859  0.9195 -2.0041
 6345SOL     OW30493   3.516   0.021   3.950 -0.4196 -0.6416  0.4314
 6345SOL    HW130494   3.448   4.685   3.917  0.9981 -1.1536 -1.5171
 6345SOL    HW230495   3.579   4.722   3.882  0.6949 -2.2458  1.9985
 6346SOL     OW30496   3.079   2.895   5.713  0.2194  0.0095 -0.3230
 6346SOL    HW130497   3.162   2.848   5.723  2.7562  4.3432 -1.1012
 6346SOL    HW230498   3.051   2.851   5.633 -1.8110  0.4957  0.1178
 6347SOL     OW30499   0.426   4.324   9.432 -1.0689 -0.3293  0.0421
 6347SOL    HW130500   0.380   4.244   9.458 -0.9461 -1.0688 -2.0164
 6347SOL    HW230501   0.358   4.387   9.456  0.4515  0.9632  0.9647
 6348SOL     OW30502   1.291   3.936   2.819  0.1082 -0.0830  0.3476
 6348SOL    HW130503   1.349   3.916   2.745  1.4917 -0.3969  1.5154
 6348SOL    HW230504   1.216   3.975   2.774 -0.8285 -1.5797  0.5978
 6349SOL     OW30505   0.188   2.371   7.192  0.4654  0.2339 -0.0161
 6349SOL    HW130506   0.246   2.413   7.255  1.8966 -2.3970  0.4200
 6349SOL    HW230507   0.249   2.324   7.134  0.4824  0.6108 -0.3016
 6350SOL     OW30508   0.612   4.507   3.453 -0.3104 -0.2949 -0.4639
 6350SOL    HW130509   0.622   4.507   3.358 -0.7880  2.4211 -0.4937
 6350SOL    HW230510   0.682   4.566   3.482  0.2253 -0.8447 -0.6145
 6351SOL     OW30511   3.142   3.590   3.930 -0.1809 -0.4202  0.3157
 6351SOL    HW130512   3.051   3.559   3.934 -0.4537  0.0290 -2.1367
 6351SOL    HW230513   3.191   3.509   3.914 -0.6252 -0.4619 -0.8779
 6352SOL     OW30514   1.739   0.499   4.416  0.3175 -0.2120 -0.3222
 6352SOL    HW130515   1.808   0.565   4.422 -0.8485  1.0077 -0.3683
 6352SOL    HW230516   1.662   0.537   4.373 -0.3621 -2.0299 -0.6934
 6353SOL     OW30517   3.175   2.508   2.349  0.5806 -0.5129  0.0193
 6353SOL    HW130518   3.127   2.495   2.431 -1.6467  0.0531 -1.1919
 6353SOL    HW230519   3.258   2.483   2.388 -0.6647  0.7501  3.4543
 6354SOL     OW30520   2.007   3.997   1.016  0.2600 -0.5793 -0.0957
 6354SOL    HW130521   2.059   3.917   1.003 -0.1357 -1.1796  2.0331
 6354SOL    HW230522   2.066   4.045   1.075 -1.0789  1.3189 -0.3037
 6355SOL     OW30523   3.767   1.506   0.643  0.4098  0.0279  0.5955
 6355SOL    HW130524   3.768   1.587   0.694 -2.8429 -0.4290  1.3812
 6355SOL    HW230525   3.675   1.480   0.655  0.7823 -1.1980  0.7142
 6356SOL     OW30526   2.481   3.313   4.004 -0.8086 -0.0817 -0.2519
 6356SOL    HW130527   2.436   3.241   4.048  0.4318  0.3449  1.6739
 6356SOL    HW230528   2.542   3.336   4.074  0.1006  0.2384 -1.1566
 6357SOL     OW30529   2.062   2.621   5.528  0.1688  0.3670  0.5576
 6357SOL    HW130530   2.125   2.603   5.459 -1.8238 -0.7994 -0.9781
 6357SOL    HW230531   2.110   2.584   5.602 -1.4644 -0.1650  1.3702
 6358SOL     OW30532   0.262   0.990   8.619 -0.0831 -0.3745 -0.0815
 6358SOL    HW130533   0.183   1.040   8.598  1.0611  1.0309 -0.9866
 6358SOL    HW230534   0.296   0.969   8.532  0.9474  1.5022 -0.1139
 6359SOL     OW30535   1.934   3.377   8.647 -0.7041 -0.0341 -0.0812
 6359SOL    HW130536   1.990   3.300   8.637  0.8601  0.9254  1.3380
 6359SOL    HW230537   1.873   3.386   8.574 -0.1128 -0.8471 -0.6782
 6360SOL     OW30538   1.933   4.396   2.997  0.6626  0.2979 -0.0575
 6360SOL    HW130539   1.925   4.322   2.937 -1.4692  1.0610 -0.7287
 6360SOL    HW230540   1.862   4.368   3.055  1.3256  1.5182  1.3327
 6361SOL     OW30541   2.399   0.374   8.527 -0.0387  0.3440  0.4358
 6361SOL    HW130542   2.428   0.415   8.609 -1.2154  2.4405 -0.1959
 6361SOL    HW230543   2.366   0.298   8.575  1.8947  0.2070  1.5793
 6362SOL     OW30544   2.168   1.802  13.953  0.2773  0.1109  0.2488
 6362SOL    HW130545   2.190   1.888  13.990 -0.1007  0.8288 -1.2300
 6362SOL    HW230546   2.252   1.759  13.973 -0.7802 -1.5692  1.0266
 6363SOL     OW30547   1.728   1.252  14.707 -0.7391 -0.2872  0.2740
 6363SOL    HW130548   1.793   1.235  14.775  0.6347  1.5155 -0.5779
 6363SOL    HW230549   1.723   1.165  14.667 -1.6009 -0.6562  1.1788
 6364SOL     OW30550   4.490   1.736  13.748 -0.3128 -0.2984 -0.0288
 6364SOL    HW130551   4.580   1.704  13.739 -0.6546 -1.5759  1.2190
 6364SOL    HW230552   4.484   1.727  13.843  0.5273  2.7439  0.3384
 6365SOL     OW30553   4.337   0.286  11.038 -0.0340  0.3111  0.0608
 6365SOL    HW130554   4.293   0.367  11.062 -0.2788  0.6451 -1.5161
 6365SOL    HW230555   4.428   0.312  11.056  0.1516 -1.2373  1.4057
 6366SOL     OW30556   1.537   4.105   3.788  0.3055  0.4331  0.4127
 6366SOL    HW130557   1.491   4.184   3.814 -3.4077 -1.5649 -0.0541
 6366SOL    HW230558   1.591   4.136   3.716  1.3818 -2.8866 -0.2249
 6367SOL     OW30559   4.241   1.103   1.446 -0.1504 -0.7846 -0.0930
 6367SOL    HW130560   4.170   1.040   1.454 -1.2416  0.4765  0.1061
 6367SOL    HW230561   4.198   1.161   1.382  0.0257 -0.5184  0.0277
 6368SOL     OW30562   3.809   0.633   7.839 -0.0715  0.2071  0.1226
 6368SOL    HW130563   3.731   0.678   7.805 -0.4599  0.0580  0.8133
 6368SOL    HW230564   3.771   0.550   7.867  0.4930  0.3045  1.1630
 6369SOL     OW30565   0.959   2.353  15.270  0.2422 -0.3158 -0.0629
 6369SOL    HW130566   0.979   2.399  15.188 -2.1779  2.0844  0.6872
 6369SOL    HW230567   0.896   2.287  15.239 -0.5559  0.1786  0.4864
 6370SOL     OW30568   2.919   2.346   8.251  0.0348 -0.0489 -0.2965
 6370SOL    HW130569   2.927   2.436   8.221 -1.0205 -0.3011 -1.3079
 6370SOL    HW230570   2.824   2.345   8.261  0.0069 -2.0219 -0.7349
 6371SOL     OW30571   0.714   4.320   4.564 -0.4450  0.1484 -0.1781
 6371SOL    HW130572   0.715   4.225   4.569 -0.9946  0.0923 -1.0833
 6371SOL    HW230573   0.720   4.350   4.654 -0.6039 -1.3330  0.3110
 6372SOL     OW30574   1.128   4.610   4.635 -0.2029  0.2115  0.2568
 6372SOL    HW130575   1.223   4.605   4.627 -0.3005 -1.6043  0.2486
 6372SOL    HW230576   1.116   4.683   4.574  1.3421 -0.3803 -0.7462
 6373SOL     OW30577   2.793   3.353   9.098  0.3114  0.1332 -0.2523
 6373SOL    HW130578   2.816   3.307   9.179  1.8697  1.8159  0.2575
 6373SOL    HW230579   2.762   3.441   9.121  1.9703  0.4209  0.8266
 6374SOL     OW30580   1.604   0.159   9.874  0.0773 -0.4428 -0.1042
 6374SOL    HW130581   1.653   0.234   9.842 -0.8852 -0.0259 -0.6230
 6374SOL    HW230582   1.631   0.142   9.964  0.3504  1.7762  0.2240
 6375SOL     OW30583   0.918   1.323  11.948 -0.0036  0.4380 -0.6404
 6375SOL    HW130584   0.990   1.370  11.906 -0.4163  1.3934 -0.2657
 6375SOL    HW230585   0.866   1.301  11.871 -0.8028 -2.2931  0.6745
 6376SOL     OW30586   3.819   1.373   3.175  0.0084 -0.2631 -0.4795
 6376SOL    HW130587   3.774   1.378   3.259  0.6092 -0.1498 -0.1634
 6376SOL    HW230588   3.803   1.284   3.144  0.0969  0.0982 -1.5410
 6377SOL     OW30589   2.328   0.118   1.556 -0.5297 -0.8126  0.0762
 6377SOL    HW130590   2.252   0.162   1.518  0.1565 -1.0093 -1.4986
 6377SOL    HW230591   2.389   0.115   1.483  0.2524 -1.7403  0.7633
 6378SOL     OW30592   0.114   2.761   1.469  0.6280  0.4500 -0.4400
 6378SOL    HW130593   0.118   2.724   1.381 -0.3996 -0.3927 -0.1406
 6378SOL    HW230594   0.089   2.683   1.519  1.5223 -0.2491 -1.0772
 6379SOL     OW30595   1.154   0.673   4.442 -0.5735  0.0765  0.2355
 6379SOL    HW130596   1.190   0.733   4.507 -0.5991  1.2174 -0.8129
 6379SOL    HW230597   1.108   0.607   4.493  2.2354 -1.9885  0.1504
 6380SOL     OW30598   2.616   4.655  11.878 -0.4234 -0.1324  0.1130
 6380SOL    HW130599   2.681   4.674  11.811  2.2230  0.6226  2.9076
 6380SOL    HW230600   2.650   4.711  11.948  1.0658  0.9927 -1.5184
 6381SOL     OW30601   3.228   0.049  11.248  0.5028  0.1455 -0.0776
 6381SOL    HW130602   3.285   0.081  11.178 -0.2600  2.7705  0.4805
 6381SOL    HW230603   3.145   0.094  11.228  0.2805  0.5818  1.7943
 6382SOL     OW30604   2.730   0.138   6.931 -0.2052 -0.2462  0.4522
 6382SOL    HW130605   2.697   0.063   6.882 -0.4676 -0.3180  0.7406
 6382SOL    HW230606   2.770   0.090   7.003 -0.4229  0.8267  1.2876
 6383SOL     OW30607   2.710   3.301  13.782 -0.5454 -0.2724  0.3887
 6383SOL    HW130608   2.642   3.303  13.715 -0.0831 -0.7564 -0.0905
 6383SOL    HW230609   2.647   3.276  13.851  0.7174 -1.0481  1.2614
 6384SOL     OW30610   0.238   1.156   9.126  0.4612  0.2255  0.4065
 6384SOL    HW130611   0.169   1.222   9.124 -1.4071 -1.8461 -2.9994
 6384SOL    HW230612   0.302   1.193   9.065  0.8787 -1.2838 -0.0623
 6385SOL     OW30613   3.558   2.012  17.553  0.3178  0.1928 -0.0098
 6385SOL    HW130614   3.513   2.079  17.502  1.3660  0.4767 -0.5709
 6385SOL    HW230615   3.538   2.034  17.644 -2.0730  1.4108 -0.8387
 6386SOL     OW30616   1.915   3.372   2.846 -0.1232 -0.3744 -0.5271
 6386SOL    HW130617   1.981   3.309   2.817  1.7143  1.4006 -0.2254
 6386SOL    HW230618   1.847   3.307   2.861  0.4124 -1.0210 -0.8927
 6387SOL     OW30619   1.215   1.910  12.790 -0.0462 -0.2672 -0.0268
 6387SOL    HW130620   1.178   1.849  12.853 -1.3382 -0.1237 -0.6239
 6387SOL    HW230621   1.305   1.925  12.818  0.1444 -1.0884 -0.2147
 6388SOL     OW30622   0.794   0.090   7.387 -0.4174  0.5683 -0.5538
 6388SOL    HW130623   0.799   0.021   7.454 -1.7535  0.3879 -0.6415
 6388SOL    HW230624   0.796   0.163   7.449  2.6344 -0.3794  0.4500
 6389SOL     OW30625   3.316   1.990   2.482 -0.8140 -0.0153  0.2917
 6389SOL    HW130626   3.326   1.942   2.564  2.9704  0.4541  0.1190
 6389SOL    HW230627   3.248   2.055   2.499 -1.2804 -0.3773 -0.1889
 6390SOL     OW30628   0.229   4.098  16.985  1.3087 -0.5343  0.0086
 6390SOL    HW130629   0.172   4.152  17.039  2.0315  0.2816 -0.0312
 6390SOL    HW230630   0.201   4.128  16.899  3.1234  0.0985 -0.3623
 6391SOL     OW30631   0.213   4.258   3.896 -0.4698 -0.0660  0.1226
 6391SOL    HW130632   0.222   4.351   3.872 -0.7411 -0.8615 -3.0865
 6391SOL    HW230633   0.132   4.235   3.851 -0.1874  0.7450 -0.8092
 6392SOL     OW30634   1.209   0.669   7.428 -0.2498  0.2666 -0.0160
 6392SOL    HW130635   1.209   0.753   7.382 -0.1922  0.4245  0.2726
 6392SOL    HW230636   1.155   0.617   7.368  1.1391  2.7478 -3.4101
 6393SOL     OW30637   3.107   1.481   8.471 -0.1500 -0.3316 -0.0166
 6393SOL    HW130638   3.020   1.449   8.493  0.4683 -0.3321  2.3644
 6393SOL    HW230639   3.110   1.467   8.376 -0.0595 -1.0916  0.0998
 6394SOL     OW30640   2.601   3.087   7.359  0.0965 -0.4307  0.3647
 6394SOL    HW130641   2.596   2.997   7.391  1.3333 -1.1584 -1.5070
 6394SOL    HW230642   2.609   3.067   7.266 -0.7324 -0.6047  0.3285
 6395SOL     OW30643   3.960   1.673   7.776 -0.2473 -0.4496 -0.0918
 6395SOL    HW130644   4.014   1.609   7.730 -0.5882 -1.1851  0.5261
 6395SOL    HW230645   3.892   1.617   7.815 -0.7358 -0.8142 -1.4689
 6396SOL     OW30646   1.032   3.745   7.044  0.1401  0.0460 -0.0166
 6396SOL    HW130647   1.035   3.696   7.126  2.8558 -0.4322 -0.4164
 6396SOL    HW230648   1.030   3.669   6.987 -1.0156 -0.8082  1.1511
 6397SOL     OW30649   4.170   0.477   8.473  0.2579  0.0111  0.1336
 6397SOL    HW130650   4.146   0.530   8.397  2.1838  0.2222 -0.3475
 6397SOL    HW230651   4.163   0.552   8.532 -0.1921 -0.4389  0.6470
 6398SOL     OW30652   1.191   3.538  15.634 -0.3655 -0.1240 -0.1452
 6398SOL    HW130653   1.103   3.556  15.600 -0.1319  1.5488  0.1711
 6398SOL    HW230654   1.204   3.481  15.558  2.5209 -0.4553  0.6102
 6399SOL     OW30655   0.358   1.217  10.773 -0.7117 -0.1746 -0.2089
 6399SOL    HW130656   0.398   1.171  10.847  3.5332  0.5597 -2.0159
 6399SOL    HW230657   0.429   1.276  10.747  0.0758 -1.8303 -1.8006
 6400SOL     OW30658   1.843   2.881   9.200  0.3216  0.6503  0.3583
 6400SOL    HW130659   1.858   2.838   9.284  1.3965 -0.2218 -0.2725
 6400SOL    HW230660   1.767   2.828   9.175  1.7017 -1.6630  1.0747
 6401SOL     OW30661   2.289   4.231  12.846  0.1008 -0.2808 -0.2608
 6401SOL    HW130662   2.370   4.198  12.884  0.8921  0.0049 -1.7407
 6401SOL    HW230663   2.264   4.294  12.914  2.0359  0.0063  0.1578
 6402SOL     OW30664   4.179   3.322   5.908  0.1917 -0.1991 -0.2007
 6402SOL    HW130665   4.207   3.399   5.957 -1.2112 -0.2155  0.6127
 6402SOL    HW230666   4.105   3.356   5.858  0.9381 -1.9213 -2.5188
 6403SOL     OW30667   0.604   3.409   5.615  0.0027  0.1244  0.4040
 6403SOL    HW130668   0.604   3.504   5.626  3.7870  0.2001 -0.1033
 6403SOL    HW230669   0.515   3.379   5.633 -0.7081  1.6380 -0.6252
 6404SOL     OW30670   0.713   1.712  11.959  0.2848 -0.2223 -0.6439
 6404SOL    HW130671   0.734   1.668  11.877 -0.1417 -0.9083 -0.3906
 6404SOL    HW230672   0.634   1.756  11.929  0.2858  1.1857  1.3795
 6405SOL     OW30673   3.839   1.767   0.734  0.2329 -0.4094  0.0670
 6405SOL    HW130674   3.880   1.785   0.819  0.5943  0.6252 -0.3188
 6405SOL    HW230675   3.748   1.771   0.764 -0.0647  1.0233 -1.0123
 6406SOL     OW30676   1.779   4.238   5.271  0.0276 -0.3785 -0.0169
 6406SOL    HW130677   1.759   4.321   5.315 -0.7519  1.4198 -3.8013
 6406SOL    HW230678   1.832   4.266   5.197  0.8365  0.1192  0.7542
 6407SOL     OW30679   3.255   2.269   9.201 -0.1204  0.2996 -0.1452
 6407SOL    HW130680   3.316   2.222   9.258 -1.3642 -0.3818  0.6296
 6407SOL    HW230681   3.282   2.356   9.231  1.5366 -0.4674  0.6368
 6408SOL     OW30682   2.679   2.172   2.340  0.3396 -0.4730 -0.4251
 6408SOL    HW130683   2.738   2.135   2.274 -0.8555 -2.8566 -0.1455
 6408SOL    HW230684   2.737   2.212   2.406 -0.1151  1.3383 -1.1228
 6409SOL     OW30685   2.839   2.939   9.050  0.5787  0.1659  0.4226
 6409SOL    HW130686   2.905   2.965   8.986  1.0118 -3.1981 -0.4704
 6409SOL    HW230687   2.852   2.845   9.039  0.2275  0.4507 -2.3671
 6410SOL     OW30688   3.990   4.186   9.160  0.4631 -0.3790  0.4753
 6410SOL    HW130689   4.064   4.232   9.199 -1.3502  2.9072  0.0417
 6410SOL    HW230690   3.954   4.132   9.230 -1.4797 -0.1664 -0.3518
 6411SOL     OW30691   3.530   1.595   3.292  0.0812  0.5881  0.4259
 6411SOL    HW130692   3.568   1.682   3.305  0.3340  0.5788 -0.2239
 6411SOL    HW230693   3.463   1.617   3.227 -0.0703  0.3255  0.4968
 6412SOL     OW30694   2.495   3.597   6.448  0.0827  0.1835 -0.2390
 6412SOL    HW130695   2.427   3.648   6.493 -0.3378  0.3279 -1.0418
 6412SOL    HW230696   2.573   3.633   6.490 -1.4170  2.2756  0.7642
 6413SOL     OW30697   1.918   3.180  17.589  0.2724  0.0706 -0.3045
 6413SOL    HW130698   1.856   3.250  17.570 -0.9995 -1.3784 -1.4724
 6413SOL    HW230699   1.876   3.137  17.664  0.5825 -2.5445 -1.6279
 6414SOL     OW30700   3.746   3.554   3.335 -0.0967 -0.5862 -0.0436
 6414SOL    HW130701   3.693   3.566   3.414  0.5651  0.9733  0.1440
 6414SOL    HW230702   3.788   3.639   3.321  0.4233 -0.8995 -0.4098
 6415SOL     OW30703   2.943   4.684   8.073  0.2727 -0.4307  0.2393
 6415SOL    HW130704   3.003   0.028   8.106 -2.1800  1.7097  0.3219
 6415SOL    HW230705   3.001   4.621   8.031  2.0003  1.3158 -0.0120
 6416SOL     OW30706   4.297   2.830   9.578  0.4220  0.0974 -0.8753
 6416SOL    HW130707   4.356   2.860   9.646 -0.7163 -1.3684  0.7621
 6416SOL    HW230708   4.258   2.750   9.614  2.6762 -0.6246 -0.0537
 6417SOL     OW30709   3.348   4.280   6.050 -0.1118 -0.2930  0.4055
 6417SOL    HW130710   3.337   4.220   6.124 -0.6772 -2.4266 -1.3877
 6417SOL    HW230711   3.382   4.213   5.990 -1.2768  0.6862 -1.3430
 6418SOL     OW30712   4.565   2.690   3.313  0.3319 -0.2223 -0.4584
 6418SOL    HW130713   4.632   2.731   3.259  0.4277 -1.3013 -1.1693
 6418SOL    HW230714   4.527   2.623   3.256  3.5058 -1.5364 -1.0094
 6419SOL     OW30715   2.947   2.135  10.714  0.2027  0.4380 -0.4611
 6419SOL    HW130716   2.908   2.222  10.725 -1.9783 -0.8828  2.0713
 6419SOL    HW230717   3.028   2.146  10.764 -0.6478  0.6499  0.8558
 6420SOL     OW30718   4.128   3.130  12.283  0.1376 -0.1553 -0.1246
 6420SOL    HW130719   4.111   3.124  12.377 -0.4582 -1.2816 -0.3003
 6420SOL    HW230720   4.192   3.199  12.299  1.6586 -1.6468  0.2672
 6421SOL     OW30721   4.005   2.805   7.628  0.3233  0.8496  0.1971
 6421SOL    HW130722   3.952   2.789   7.550  0.6608  2.8360 -0.4274
 6421SOL    HW230723   3.952   2.792   7.707  0.3737 -0.7114 -0.0258
 6422SOL     OW30724   0.771   0.173   9.595  0.2814  0.4127 -0.4455
 6422SOL    HW130725   0.697   0.143   9.541  0.4825 -0.9664  0.0495
 6422SOL    HW230726   0.751   0.129   9.678  0.8894  0.5970 -0.2065
 6423SOL     OW30727   1.645   1.249  17.367 -0.1037  0.1040  0.1212
 6423SOL    HW130728   1.702   1.219  17.438  0.4667 -1.7428 -1.0828
 6423SOL    HW230729   1.701   1.232  17.291  1.8164  1.5328  1.2014
 6424SOL     OW30730   3.379   0.626  17.303 -0.1019  0.1323  0.3653
 6424SOL    HW130731   3.472   0.649  17.297 -0.3196  1.1509  0.9303
 6424SOL    HW230732   3.378   0.607  17.397  1.1374  1.5203  0.6588
 6425SOL     OW30733   4.030   2.137   2.160  0.2150 -0.1516  0.5098
 6425SOL    HW130734   3.965   2.147   2.090 -0.1809 -0.4144  0.8371
 6425SOL    HW230735   4.067   2.222   2.183  0.6203 -0.1075 -0.3040
 6426SOL     OW30736   4.168   1.784   4.215 -0.3101  0.1804  0.4361
 6426SOL    HW130737   4.247   1.781   4.269  0.0187 -0.2951 -0.0683
 6426SOL    HW230738   4.189   1.733   4.137 -0.2413  1.1906 -0.1919
 6427SOL     OW30739   1.450   3.097   5.806  0.3703 -0.7083 -0.1500
 6427SOL    HW130740   1.455   3.015   5.856 -0.5714 -0.6846 -0.0316
 6427SOL    HW230741   1.532   3.094   5.756  0.7574  4.1204  0.2321
 6428SOL     OW30742   1.662   0.926   6.220  0.4108 -0.4878  0.5425
 6428SOL    HW130743   1.671   1.014   6.182  0.7638 -0.3725  0.9000
 6428SOL    HW230744   1.751   0.894   6.205  0.6657 -1.1096  3.3913
 6429SOL     OW30745   1.918   0.872   2.942 -0.2566 -0.0178  0.2270
 6429SOL    HW130746   1.982   0.845   2.876 -1.4834  0.5833 -1.1993
 6429SOL    HW230747   1.876   0.940   2.890 -1.0086  0.5443  1.5575
 6430SOL     OW30748   4.566   2.314  16.595 -0.0339  0.2069  0.1674
 6430SOL    HW130749   4.646   2.311  16.542  0.1235 -1.4195  0.4863
 6430SOL    HW230750   4.522   2.234  16.566  0.6071 -0.7134  1.7459
 6431SOL     OW30751   3.988   4.697  10.326  0.3752 -0.5540 -0.5417
 6431SOL    HW130752   3.964   0.024  10.404  0.9525 -2.6146  0.9375
 6431SOL    HW230753   3.961   0.040  10.262  0.3998  1.9840  2.0744
 6432SOL     OW30754   1.767   0.075   5.855  0.4596  0.0184 -0.2442
 6432SOL    HW130755   1.786   0.046   5.944  0.2633 -1.3995 -0.6718
 6432SOL    HW230756   1.671   0.070   5.859  0.5412 -0.8366  0.6446
 6433SOL     OW30757   2.116   4.637   4.754  0.3962 -0.3061  0.0240
 6433SOL    HW130758   2.155   4.567   4.702 -0.7912 -0.1473 -1.0626
 6433SOL    HW230759   2.037   4.601   4.794  0.1862  1.0011  0.7970
 6434SOL     OW30760   2.055   0.300   2.636 -0.0838 -0.2441  0.4250
 6434SOL    HW130761   2.096   0.333   2.556 -2.4729  2.4165  0.2810
 6434SOL    HW230762   2.128   0.254   2.676  0.7641  0.5264 -0.2314
 6435SOL     OW30763   1.142   3.401   1.196 -0.1428 -0.2320 -0.0852
 6435SOL    HW130764   1.083   3.459   1.244 -0.7585  0.3215 -1.4955
 6435SOL    HW230765   1.074   3.359   1.142 -0.3989  0.9739 -0.7147
 6436SOL     OW30766   4.223   2.952   1.761  0.0382  0.5152  0.1000
 6436SOL    HW130767   4.294   2.907   1.714 -0.1100  1.1793 -0.7699
 6436SOL    HW230768   4.169   2.879   1.790  1.7562 -0.7268  0.2342
 6437SOL     OW30769   4.654   1.440   4.374  0.1531  0.1291 -0.1562
 6437SOL    HW130770   4.678   1.431   4.282  1.2932  0.8082  0.0794
 6437SOL    HW230771   4.585   1.375   4.391 -1.1276  1.1856 -1.2998
 6438SOL     OW30772   0.449   0.368   0.679 -0.1703 -0.9056 -0.1849
 6438SOL    HW130773   0.413   0.419   0.606 -0.5323  1.5033  1.6727
 6438SOL    HW230774   0.491   0.306   0.620  1.6701  0.2835 -0.0985
 6439SOL     OW30775   3.873   3.924   9.609  0.2749 -0.1326 -0.1128
 6439SOL    HW130776   3.929   3.950   9.683 -0.3246 -0.9773  0.6316
 6439SOL    HW230777   3.844   3.836   9.632  0.2290 -0.2311 -0.5499
 6440SOL     OW30778   3.325   0.957   1.152  0.4850 -0.4023 -0.0090
 6440SOL    HW130779   3.407   0.906   1.148  0.5336 -0.2448 -0.9476
 6440SOL    HW230780   3.286   0.941   1.066 -2.5993 -0.7329  1.4565
 6441SOL     OW30781   0.833   0.509   2.559 -0.5331  0.4692  0.2698
 6441SOL    HW130782   0.772   0.457   2.506  2.3113 -0.0576 -2.4727
 6441SOL    HW230783   0.878   0.440   2.608  2.2878  1.7125 -0.5516
 6442SOL     OW30784   3.459   2.484   5.413 -0.0489 -0.0499  0.6068
 6442SOL    HW130785   3.447   2.401   5.367 -1.4185  2.3064 -3.2668
 6442SOL    HW230786   3.532   2.454   5.467 -0.2956 -1.3468  0.2108
 6443SOL     OW30787   2.891   0.793   3.017  0.2043 -0.4509 -0.0048
 6443SOL    HW130788   2.908   0.703   3.045 -0.6133 -0.4518  0.4848
 6443SOL    HW230789   2.796   0.804   3.011  0.4344  2.1038  1.1775
 6444SOL     OW30790   0.924   3.642  15.138 -0.4281  0.0816  0.2348
 6444SOL    HW130791   1.002   3.617  15.188 -0.2779  2.0666  0.9844
 6444SOL    HW230792   0.870   3.663  15.213 -1.2188  2.4439 -0.9820
 6445SOL     OW30793   3.001   1.707   1.743 -0.3472  0.1688  0.4585
 6445SOL    HW130794   3.011   1.802   1.734  0.6570  0.0472  0.2793
 6445SOL    HW230795   2.906   1.702   1.751 -0.3656 -0.5473 -0.2596
 6446SOL     OW30796   0.477   4.305   3.753 -0.1605 -0.1051  0.4335
 6446SOL    HW130797   0.543   4.276   3.816  1.0729 -0.0943 -0.8555
 6446SOL    HW230798   0.412   4.347   3.810 -2.3048 -0.4304 -1.7794
 6447SOL     OW30799   1.612   4.434   6.293  0.2312 -0.3419  0.0024
 6447SOL    HW130800   1.640   4.442   6.385 -0.6878  1.8646  0.1072
 6447SOL    HW230801   1.684   4.476   6.245  1.4851 -3.4314 -0.7679
 6448SOL     OW30802   0.744   4.549   1.969  0.0198  0.0466  0.0146
 6448SOL    HW130803   0.719   4.503   2.049  2.6955 -0.3965  0.5955
 6448SOL    HW230804   0.673   4.611   1.952 -0.7080 -0.9777 -0.7139
 6449SOL     OW30805   3.190   1.085  10.706  0.3946  0.1914  0.3553
 6449SOL    HW130806   3.233   1.091  10.621 -1.4112 -2.3456 -0.7170
 6449SOL    HW230807   3.261   1.124  10.759 -0.0818  1.7514 -0.1550
 6450SOL     OW30808   1.570   2.048   6.463 -0.3559  0.3498  0.0078
 6450SOL    HW130809   1.633   2.096   6.517  1.2069 -0.3288 -1.2049
 6450SOL    HW230810   1.509   2.118   6.442  1.7542  2.1603  0.0063
 6451SOL     OW30811   4.590   1.491   5.195 -1.0962 -0.3053  0.3700
 6451SOL    HW130812   4.535   1.508   5.118  0.4634 -0.8971 -0.8609
 6451SOL    HW230813   4.514   1.505   5.252 -0.3001 -3.0647  2.1043
 6452SOL     OW30814   1.310   1.298   5.890 -0.2422  0.3597  0.1730
 6452SOL    HW130815   1.230   1.345   5.865  1.1543  2.4519 -0.3601
 6452SOL    HW230816   1.319   1.310   5.985  0.5277  1.6934 -0.0713
 6453SOL     OW30817   3.902   4.378   4.729 -0.3571 -0.1978 -0.3315
 6453SOL    HW130818   3.906   4.464   4.772 -1.1564  0.3329 -1.3312
 6453SOL    HW230819   3.810   4.357   4.747 -0.4212  0.5808  0.2980
 6454SOL     OW30820   4.684   3.124   1.954 -0.6485 -0.2847 -0.8266
 6454SOL    HW130821   4.669   3.036   1.988  0.9431 -0.0554  0.4854
 6454SOL    HW230822   4.630   3.142   1.877  0.3614  0.7241 -1.2949
 6455SOL     OW30823   4.246   1.188  12.360 -0.2690 -0.4514  0.2952
 6455SOL    HW130824   4.160   1.209  12.324 -0.6012 -0.9548  0.7896
 6455SOL    HW230825   4.293   1.270  12.353  0.2275 -0.7940 -0.4031
 6456SOL     OW30826   4.153   0.076  14.187  0.8248  0.1480 -0.1339
 6456SOL    HW130827   4.074   0.070  14.134 -0.5011  1.8387  1.6373
 6456SOL    HW230828   4.116   0.110  14.269 -1.6814 -1.2678 -0.6937
 6457SOL     OW30829   1.467   0.397   4.036 -0.2183  0.0746  0.4784
 6457SOL    HW130830   1.490   0.422   3.947 -2.1181  1.9030  0.4963
 6457SOL    HW230831   1.517   0.318   4.054 -1.6516 -0.9365  0.0819
 6458SOL     OW30832   1.088   0.851   3.310 -0.3701  0.2224 -0.4319
 6458SOL    HW130833   1.014   0.837   3.369 -1.7313 -1.8351 -2.6091
 6458SOL    HW230834   1.115   0.760   3.294  1.1206  0.9257 -1.8897
 6459SOL     OW30835   0.653   2.883   7.696  0.8056  0.1907  1.0651
 6459SOL    HW130836   0.648   2.931   7.613 -0.8899  0.6103  1.4055
 6459SOL    HW230837   0.706   2.804   7.684 -1.5525 -1.1113 -0.5783
 6460SOL     OW30838   0.049   0.562   5.104 -0.1753 -0.6029 -0.2312
 6460SOL    HW130839   0.018   0.483   5.147  1.8643  0.0923  2.5291
 6460SOL    HW230840   0.063   0.625   5.176  2.7116 -1.1836 -0.2984
 6461SOL     OW30841   1.032   1.006  17.607  0.2817  0.0845 -0.0634
 6461SOL    HW130842   1.114   0.969  17.573 -0.8349 -1.0880 -1.4979
 6461SOL    HW230843   1.049   1.099  17.594 -1.6641  0.3683 -0.6323
 6462SOL     OW30844   4.538   0.140   5.766 -0.6027  0.4205  0.2537
 6462SOL    HW130845   4.527   0.177   5.853  2.9905  0.1411  0.8202
 6462SOL    HW230846   4.575   0.053   5.777 -0.5886  0.1466 -1.9369
 6463SOL     OW30847   0.716   1.638  10.777  0.4835  0.4458 -0.0200
 6463SOL    HW130848   0.749   1.703  10.714  1.6401  0.6661  0.7973
 6463SOL    HW230849   0.633   1.677  10.803 -1.1837 -3.2468  0.1182
 6464SOL     OW30850   4.526   0.005   2.866 -0.0044 -0.2432  0.5107
 6464SOL    HW130851   4.452   0.062   2.888  0.4239  0.0807  1.1192
 6464SOL    HW230852   4.547   4.683   2.948 -0.0533 -0.4055  0.4321
 6465SOL     OW30853   3.198   3.409   5.256 -0.6961  0.1505  0.2540
 6465SOL    HW130854   3.239   3.496   5.263 -0.8618  0.3072 -0.6720
 6465SOL    HW230855   3.172   3.410   5.163 -1.6930  1.0239  0.5462
 6466SOL     OW30856   4.330   3.871  12.052 -0.2298 -0.3382  0.2078
 6466SOL    HW130857   4.382   3.938  12.097  0.9651 -0.7387 -0.5808
 6466SOL    HW230858   4.361   3.895  11.965 -0.6532  1.1877  0.4729
 6467SOL     OW30859   3.792   0.590   2.397 -0.2728 -0.0339  0.0087
 6467SOL    HW130860   3.882   0.622   2.390  1.2255 -3.8925  1.2507
 6467SOL    HW230861   3.797   0.528   2.471 -1.0444 -1.2040 -0.9250
 6468SOL     OW30862   0.670   0.914   3.558 -0.3563  0.0029 -0.2206
 6468SOL    HW130863   0.737   0.935   3.493  0.9957 -2.1806  0.4527
 6468SOL    HW230864   0.652   0.999   3.597  2.5277 -0.0477  1.2179
 6469SOL     OW30865   3.979   4.656   5.333 -0.0696  0.0087  0.9282
 6469SOL    HW130866   3.896   4.654   5.381 -1.1594  1.3449 -0.9209
 6469SOL    HW230867   3.982   4.571   5.288 -0.5832  0.7452 -0.4770
 6470SOL     OW30868   1.723   0.895   1.752  0.4516 -0.2942 -0.6258
 6470SOL    HW130869   1.739   0.977   1.705 -3.7275  0.3559 -0.8466
 6470SOL    HW230870   1.813   0.862   1.760  1.3367  1.8990 -1.5631
 6471SOL     OW30871   1.069   4.095  10.446 -0.1881  0.8209  0.1721
 6471SOL    HW130872   1.106   4.029  10.504  1.3956  1.0794 -0.5287
 6471SOL    HW230873   0.977   4.096  10.470  0.0432  0.7118  1.0497
 6472SOL     OW30874   2.358   1.704   1.617  0.0723 -0.3297  0.1493
 6472SOL    HW130875   2.293   1.761   1.576  0.8670  0.4012 -0.0994
 6472SOL    HW230876   2.401   1.668   1.540  0.7735  2.1472 -0.6444
 6473SOL     OW30877   1.635   0.703  16.499 -0.4499 -0.1998  0.9474
 6473SOL    HW130878   1.543   0.721  16.519 -0.4133  0.2353  0.7256
 6473SOL    HW230879   1.666   0.666  16.581  1.2289  1.2266  0.9530
 6474SOL     OW30880   4.423   1.387   2.787  0.0410 -0.1744  0.0090
 6474SOL    HW130881   4.499   1.365   2.733  0.5540 -0.7235  0.9511
 6474SOL    HW230882   4.468   1.386   2.871  1.3123  0.8291 -0.6612
 6475SOL     OW30883   2.291   3.296   6.843  0.3216 -0.3532 -0.2813
 6475SOL    HW130884   2.232   3.316   6.771 -0.1823 -0.6679  0.0411
 6475SOL    HW230885   2.366   3.353   6.823  1.4050 -2.4444 -2.2681
 6476SOL     OW30886   1.319   3.893   6.815 -0.1134  0.1685  0.6082
 6476SOL    HW130887   1.332   3.816   6.759  0.6156  1.3355 -0.8394
 6476SOL    HW230888   1.391   3.880   6.876  1.4753 -0.6630 -1.4230
 6477SOL     OW30889   3.929   2.002   5.353  0.2046 -0.0946  0.4509
 6477SOL    HW130890   3.857   2.037   5.406  0.3283  1.0535 -0.1581
 6477SOL    HW230891   3.918   2.052   5.273  0.4575 -1.2315 -0.2949
 6478SOL     OW30892   2.600   3.407   1.631  0.3109  0.2055  0.0280
 6478SOL    HW130893   2.542   3.362   1.691  0.2880 -0.6833 -0.6690
 6478SOL    HW230894   2.566   3.373   1.549 -1.7574  0.5010  0.7707
 6479SOL     OW30895   3.932   4.317   0.776 -0.3718 -0.0329 -0.4015
 6479SOL    HW130896   3.974   4.302   0.861  2.1689  0.0985 -1.6383
 6479SOL    HW230897   3.884   4.400   0.785  2.8155  1.9480 -1.8905
 6480SOL     OW30898   1.234   1.913   5.074 -0.0738 -0.3595 -0.1256
 6480SOL    HW130899   1.163   1.959   5.030 -0.9653 -1.1572  0.4886
 6480SOL    HW230900   1.231   1.949   5.162 -1.4359  1.9383 -1.1086
 6481SOL     OW30901   4.227   0.869   7.459  0.1108  0.3899 -0.1251
 6481SOL    HW130902   4.321   0.884   7.446 -0.3777  0.7003 -3.1504
 6481SOL    HW230903   4.198   0.958   7.477 -1.7257  0.0988 -1.7896
 6482SOL     OW30904   3.378   1.730   2.133 -0.4399 -0.1844  0.1497
 6482SOL    HW130905   3.346   1.720   2.223  0.0735 -0.7907  0.2601
 6482SOL    HW230906   3.465   1.769   2.143 -0.2689 -0.8422  1.2282
 6483SOL     OW30907   3.867   2.729   3.749  0.2593  0.2264 -0.3032
 6483SOL    HW130908   3.831   2.785   3.680  1.3082  0.4744 -0.6614
 6483SOL    HW230909   3.949   2.769   3.777  0.7417 -0.1954 -1.1078
 6484SOL     OW30910   0.868   4.622   8.462  0.5733  0.0264  0.2598
 6484SOL    HW130911   0.882   4.638   8.369  0.6038 -0.9182  0.0951
 6484SOL    HW230912   0.817   4.699   8.485  1.1013  0.0264  1.4511
 6485SOL     OW30913   0.081   1.955   8.270 -0.5211 -0.2304  0.3517
 6485SOL    HW130914   0.097   1.957   8.364 -0.9432  1.5000  0.3863
 6485SOL    HW230915   0.041   2.040   8.251  0.5689  0.3736  0.7962
 6486SOL     OW30916   4.541   1.842   5.041  0.2722 -0.4797  0.3219
 6486SOL    HW130917   4.521   1.749   5.044 -5.1317  0.6093 -2.0499
 6486SOL    HW230918   4.541   1.874   5.131 -1.3985 -1.0184  0.5111
 6487SOL     OW30919   3.895   4.676   2.944 -0.6146  0.7897  0.5387
 6487SOL    HW130920   3.946   0.000   2.879 -0.5898  1.5804  1.1329
 6487SOL    HW230921   3.880   0.024   3.006 -0.0659  1.1221  0.2838
 6488SOL     OW30922   2.205   2.192   4.268 -0.3021 -0.1853 -0.0033
 6488SOL    HW130923   2.199   2.153   4.356 -2.1784 -0.3827 -0.2169
 6488SOL    HW230924   2.118   2.172   4.235  0.0119  0.4952 -1.2437
 6489SOL     OW30925   0.406   1.921   2.102 -0.3099  0.1037 -0.3811
 6489SOL    HW130926   0.338   1.856   2.119  1.4973 -1.7228 -0.2503
 6489SOL    HW230927   0.469   1.878   2.046  0.8632  1.9652 -0.4828
 6490SOL     OW30928   3.607   3.651   3.541  0.2428  0.1332  0.0003
 6490SOL    HW130929   3.543   3.629   3.609  0.6898 -1.1794 -0.0001
 6490SOL    HW230930   3.555   3.703   3.480 -0.9477 -0.4802  0.4816
 6491SOL     OW30931   3.618   1.078   3.300 -0.6343  0.4252 -0.6039
 6491SOL    HW130932   3.550   1.033   3.350 -0.1929  0.9818  0.5013
 6491SOL    HW230933   3.616   1.150   3.363  2.6457 -1.4513  1.7116
 6492SOL     OW30934   0.284   0.641   2.337 -0.1685  0.1844  0.4847
 6492SOL    HW130935   0.214   0.701   2.363  0.0124 -0.9550  3.5437
 6492SOL    HW230936   0.281   0.587   2.416  0.4872 -0.9760 -0.3045
 6493SOL     OW30937   3.377   0.673   4.893  0.0632 -0.1067 -0.1710
 6493SOL    HW130938   3.410   0.668   4.983 -1.5244 -1.5842  0.3313
 6493SOL    HW230939   3.316   0.747   4.887 -0.3616 -0.3448  1.1873
 6494SOL     OW30940   1.240   2.180   0.805  0.5152 -0.3294 -0.3026
 6494SOL    HW130941   1.267   2.270   0.785  3.5537 -1.2655 -0.4052
 6494SOL    HW230942   1.303   2.127   0.757 -1.2906 -0.5760 -2.4098
 6495SOL     OW30943   4.480   2.065  16.470 -0.5128  0.4230  0.0404
 6495SOL    HW130944   4.445   1.982  16.503  1.3841  0.2687  1.6455
 6495SOL    HW230945   4.479   2.070  16.375  1.2181  1.1699  0.0631
 6496SOL     OW30946   2.657   0.029  12.597  0.0918  0.0397 -0.0871
 6496SOL    HW130947   2.688   4.682  12.540 -0.5939  0.1754 -0.6252
 6496SOL    HW230948   2.609   0.081  12.532 -0.2322  1.8393  1.5816
 6497SOL     OW30949   3.077   1.897   4.451 -0.1451  1.1034  0.6320
 6497SOL    HW130950   3.009   1.893   4.519 -0.7319 -1.0317 -0.0757
 6497SOL    HW230951   3.075   1.985   4.415  2.3173  1.5161  1.5416
 6498SOL     OW30952   0.397   1.790   6.131 -0.4126 -0.0010 -0.0299
 6498SOL    HW130953   0.395   1.780   6.036 -0.5436  1.0332 -0.1339
 6498SOL    HW230954   0.471   1.849   6.145 -0.8759  0.6879 -0.4964
 6499SOL     OW30955   1.120   1.334   4.864 -0.7701 -0.2665 -0.0344
 6499SOL    HW130956   1.102   1.312   4.772  0.6996  1.6386 -0.7754
 6499SOL    HW230957   1.115   1.430   4.857  2.6832 -0.0035  1.3647
 6500SOL     OW30958   2.537   2.431   4.950  0.2631 -0.7202 -0.5948
 6500SOL    HW130959   2.522   2.358   5.010 -0.2132  0.3948  0.6464
 6500SOL    HW230960   2.459   2.486   4.962  0.2918 -0.8181  0.0489
 6501SOL     OW30961   3.580   0.302   1.986  0.3703  0.8589  0.1812
 6501SOL    HW130962   3.493   0.323   2.021  0.5880  0.3707  1.0049
 6501SOL    HW230963   3.620   0.240   2.047 -1.6300 -0.3274  0.2958
 6502SOL     OW30964   2.248   2.653   2.386 -0.8254 -1.0084  0.1152
 6502SOL    HW130965   2.320   2.706   2.420 -1.0076 -0.5847 -0.1603
 6502SOL    HW230966   2.250   2.668   2.291  4.1736  0.1718  0.4281
 6503SOL     OW30967   3.605   1.030   1.417  0.3807 -0.6012  0.0393
 6503SOL    HW130968   3.553   0.992   1.488 -1.8561 -0.4277 -1.5080
 6503SOL    HW230969   3.559   1.113   1.407  0.3723 -0.8447 -2.0395
 6504SOL     OW30970   3.317   4.419   0.225  0.0587  0.3065 -0.2530
 6504SOL    HW130971   3.341   4.469   0.146  0.0533  1.7594  0.6616
 6504SOL    HW230972   3.401   4.432   0.269  0.1741 -1.1857 -0.0484
 6505SOL     OW30973   4.351   1.541   5.344  0.3880  0.4416  0.1571
 6505SOL    HW130974   4.306   1.468   5.386 -0.3059  0.8098  0.0442
 6505SOL    HW230975   4.285   1.593   5.299 -0.0441  0.9348  1.3610
 6506SOL     OW30976   1.174   1.397   9.537  0.5792  0.0067 -0.0664
 6506SOL    HW130977   1.184   1.483   9.578 -2.4118  0.1189  0.4139
 6506SOL    HW230978   1.221   1.413   9.455  0.4142  3.9645  0.6015
 6507SOL     OW30979   3.448   0.105   5.826  0.2165  0.2282 -0.3487
 6507SOL    HW130980   3.486   0.026   5.864 -1.5812 -1.3336 -1.8374
 6507SOL    HW230981   3.356   0.078   5.828  0.2427  0.2524  0.7767
 6508SOL     OW30982   2.716   1.405   6.562  0.3850 -0.2714  0.1110
 6508SOL    HW130983   2.632   1.361   6.547  1.4819 -2.2934 -0.1090
 6508SOL    HW230984   2.684   1.463   6.631  1.6170 -0.5024  0.8800
 6509SOL     OW30985   2.665   0.065  14.059 -0.1155  0.1872  0.1932
 6509SOL    HW130986   2.733   0.132  14.064  0.0610  0.0856 -0.7951
 6509SOL    HW230987   2.659   0.039  13.967 -2.5259 -0.0031  0.3890
 6510SOL     OW30988   2.100   1.710   8.602  0.3338  0.4669 -0.5730
 6510SOL    HW130989   2.106   1.763   8.522 -0.0644 -0.4166 -1.1974
 6510SOL    HW230990   2.149   1.634   8.570  2.7309  0.7769  2.4618
 6511SOL     OW30991   0.180   4.432   9.086  0.3516  0.0829 -0.1171
 6511SOL    HW130992   0.086   4.443   9.072  0.5283  0.6358 -0.9012
 6511SOL    HW230993   0.185   4.336   9.079 -0.7164 -0.0726  1.3188
 6512SOL     OW30994   0.622   3.525   1.761 -0.4675  0.0067 -0.4681
 6512SOL    HW130995   0.647   3.605   1.808  3.0991 -1.7736  0.6765
 6512SOL    HW230996   0.547   3.484   1.804  1.4934 -1.3012  1.6927
 6513SOL     OW30997   4.303   0.932  13.301  0.4093  0.0347  0.1245
 6513SOL    HW130998   4.381   0.898  13.344  0.4700  1.2788  0.9849
 6513SOL    HW230999   4.287   0.989  13.376 -0.0529 -2.0519  1.6023
 6514SOL     OW31000   2.793   4.292   4.671 -0.1396  0.6328 -0.2934
 6514SOL    HW131001   2.709   4.292   4.626 -0.2090 -2.1249 -0.1658
 6514SOL    HW231002   2.852   4.343   4.616  1.0233  0.4121  0.7315
 6515SOL     OW31003   2.767   0.754  16.781  0.0680 -0.0870 -0.1570
 6515SOL    HW131004   2.831   0.683  16.777  0.5663  0.3763 -0.4761
 6515SOL    HW231005   2.836   0.820  16.790 -0.1956  0.1958 -0.1648
 6516SOL     OW31006   3.907   0.990   0.517 -0.4019  0.1182  0.2050
 6516SOL    HW131007   3.845   1.039   0.571 -1.0396 -0.6920  0.2099
 6516SOL    HW231008   3.900   1.037   0.434  1.1706  1.3844  0.7878
 6517SOL     OW31009   2.902   1.499   7.484  0.1825 -0.3095 -0.1534
 6517SOL    HW131010   2.827   1.478   7.540  0.8615 -0.1071  0.8173
 6517SOL    HW231011   2.951   1.555   7.544  0.2611 -0.0264 -0.4826
 6518SOL     OW31012   2.722   1.518  12.048 -0.5864  0.0736  0.3186
 6518SOL    HW131013   2.692   1.428  12.035  0.3338 -0.2852  0.6414
 6518SOL    HW231014   2.647   1.546  12.100 -0.2594 -0.9464  1.3230
 6519SOL     OW31015   2.168   1.294   3.237  0.3638  0.0833  0.3579
 6519SOL    HW131016   2.198   1.243   3.162 -3.1553  0.8963 -1.6164
 6519SOL    HW231017   2.225   1.257   3.305 -2.0520 -2.7276  0.8677
 6520SOL     OW31018   4.519   0.334  16.979 -0.1876  0.6442 -0.2089
 6520SOL    HW131019   4.521   0.287  16.896 -0.9591 -1.1575  0.7783
 6520SOL    HW231020   4.434   0.379  16.969 -0.9578 -0.9106 -0.6478
 6521SOL     OW31021   2.764   2.853   7.168 -0.4826 -0.5449 -0.5693
 6521SOL    HW131022   2.711   2.852   7.247  0.7270  0.6322  0.2516
 6521SOL    HW231023   2.844   2.874   7.215 -1.1093  2.2142 -0.7062
 6522SOL     OW31024   2.682   2.922   7.691 -0.5679 -0.0312  0.6720
 6522SOL    HW131025   2.600   2.917   7.741  0.2682 -0.9740  1.9677
 6522SOL    HW231026   2.691   3.017   7.694 -2.2379  0.1188  1.1148
 6523SOL     OW31027   2.135   4.243  14.044 -0.4901  0.1427 -0.2907
 6523SOL    HW131028   2.068   4.274  14.104 -0.0366 -0.8187  0.7167
 6523SOL    HW231029   2.178   4.184  14.106 -1.9170  0.2515  0.7741
 6524SOL     OW31030   3.799   0.027   3.960 -0.2471 -1.2153  0.4451
 6524SOL    HW131031   3.756   0.015   4.045 -3.4813 -1.0290 -1.1694
 6524SOL    HW231032   3.815   4.662   3.927  0.5354 -0.1837 -1.9284
 6525SOL     OW31033   4.681   0.314  10.916  0.0244 -0.3403  0.3602
 6525SOL    HW131034   4.711   0.248  10.853 -0.1867 -0.5150  0.4419
 6525SOL    HW231035   0.008   0.387  10.881 -0.2672  0.1849  1.0566
 6526SOL     OW31036   3.060   1.160   7.400  0.3736  0.2242 -0.4355
 6526SOL    HW131037   2.979   1.130   7.359 -0.1402  1.3209 -0.2197
 6526SOL    HW231038   3.126   1.123   7.341 -0.7449 -0.2548 -1.3735
 6527SOL     OW31039   1.345   3.857  10.315 -0.2612  0.2731  0.6986
 6527SOL    HW131040   1.365   3.950  10.315  0.0578  0.2083 -0.9607
 6527SOL    HW231041   1.426   3.825  10.276 -0.1905 -0.0471  1.1042
 6528SOL     OW31042   3.260   0.621   6.719  0.7554 -0.5647  0.2853
 6528SOL    HW131043   3.346   0.580   6.707  1.1317  0.7592 -1.5255
 6528SOL    HW231044   3.228   0.587   6.636 -1.8292  0.0167  1.0432
 6529SOL     OW31045   3.486   0.733   3.762  0.0839  0.4567  0.2715
 6529SOL    HW131046   3.408   0.684   3.789  0.6077 -0.8948 -0.6642
 6529SOL    HW231047   3.550   0.667   3.790  1.2674  1.0389 -1.0500
 6530SOL     OW31048   4.302   1.972  11.435  0.1888  0.0683  0.1563
 6530SOL    HW131049   4.220   1.953  11.388 -0.4886 -1.8714  2.0944
 6530SOL    HW231050   4.363   1.908  11.397  1.0074  1.0502 -0.1612
 6531SOL     OW31051   4.338   2.841   4.163 -0.3342 -0.2935  0.6387
 6531SOL    HW131052   4.345   2.789   4.083 -1.5564 -1.2953  1.1841
 6531SOL    HW231053   4.325   2.925   4.118  2.0528 -0.1522  0.2282
 6532SOL     OW31054   0.195   1.091   6.077  0.2705 -0.2641 -0.4353
 6532SOL    HW131055   0.204   1.061   6.167  1.0792  0.4038 -0.2926
 6532SOL    HW231056   0.190   1.186   6.083 -1.2067 -0.5297  2.1091
 6533SOL     OW31057   1.526   3.317  14.684  0.0293 -0.0597  0.0702
 6533SOL    HW131058   1.480   3.401  14.691  1.1388  0.5277  0.2330
 6533SOL    HW231059   1.472   3.278  14.615 -1.0949 -1.1504  1.5625
 6534SOL     OW31060   3.883   4.513   8.760  0.0428 -0.3811 -0.0592
 6534SOL    HW131061   3.794   4.481   8.775  0.3416 -1.1312  0.1177
 6534SOL    HW231062   3.899   4.491   8.668 -1.0415  1.6992 -0.7386
 6535SOL     OW31063   0.773   0.382   4.659  0.3619  0.0452  0.6764
 6535SOL    HW131064   0.801   0.391   4.750  0.1429  4.5618  0.3231
 6535SOL    HW231065   0.753   0.474   4.640  0.8985  0.2310  1.0219
 6536SOL     OW31066   3.083   3.594   6.235 -0.2863 -0.4903 -0.3236
 6536SOL    HW131067   3.078   3.505   6.200  1.8743 -1.0393  0.7404
 6536SOL    HW231068   3.015   3.628   6.178  0.9320  1.0816 -0.8227
 6537SOL     OW31069   0.124   3.637  17.649 -0.3805  0.7442  0.6804
 6537SOL    HW131070   0.043   3.586  17.638  0.3841 -0.4199  0.5107
 6537SOL    HW231071   0.122   3.654   0.048  1.7644 -1.1238  1.0277
 6538SOL     OW31072   2.668   4.524  12.415  0.0985 -0.0425 -0.0509
 6538SOL    HW131073   2.579   4.497  12.394 -0.5630  1.1845  1.1960
 6538SOL    HW231074   2.700   4.554  12.331  1.0426  0.6036  0.5357
 6539SOL     OW31075   3.001   0.917  16.782 -0.1713 -0.3025 -0.2268
 6539SOL    HW131076   3.051   0.998  16.772  0.7707 -0.6283  1.8310
 6539SOL    HW231077   3.047   0.883  16.858 -0.2313 -3.0443 -1.4236
 6540SOL     OW31078   2.054   2.192   8.050 -0.3450  0.6759 -0.1531
 6540SOL    HW131079   2.025   2.197   7.959 -1.9271 -0.6273  0.2815
 6540SOL    HW231080   1.968   2.178   8.090  0.4349  0.8460  1.6038
 6541SOL     OW31081   3.980   2.161   4.087  0.2662 -0.3105 -0.1283
 6541SOL    HW131082   4.000   2.110   4.008 -0.5775 -0.6742 -0.1010
 6541SOL    HW231083   3.939   2.238   4.050  0.0661 -0.6150 -0.5412
 6542SOL     OW31084   2.076   3.979  16.952 -0.4341 -0.2741  0.4085
 6542SOL    HW131085   2.038   3.893  16.936 -0.9247 -0.1254  0.7813
 6542SOL    HW231086   2.018   4.025  16.890 -2.7125  0.9183  3.3993
 6543SOL     OW31087   4.698   2.167   3.243  0.3131  0.2004  0.1346
 6543SOL    HW131088   4.677   2.156   3.336  0.3664  1.4155  0.2828
 6543SOL    HW231089   4.613   2.169   3.198  0.2997  3.1030  0.2850
 6544SOL     OW31090   1.078   0.022   0.372  0.1420  0.7462 -0.5741
 6544SOL    HW131091   1.167   0.015   0.337  0.9973  1.0125  1.5602
 6544SOL    HW231092   1.034   4.696   0.303 -2.5445  2.7289 -0.2875
 6545SOL     OW31093   1.244   0.707  17.163 -0.5698 -0.3414 -0.0041
 6545SOL    HW131094   1.249   0.781  17.102  0.4372 -0.2447  0.1959
 6545SOL    HW231095   1.166   0.669  17.122 -0.6746 -0.1922  0.0609
 6546SOL     OW31096   3.837   1.507   4.103 -0.7519  0.4042 -0.1733
 6546SOL    HW131097   3.874   1.559   4.174 -1.0397 -0.7142  0.7836
 6546SOL    HW231098   3.760   1.562   4.088 -0.2036  1.2714  0.1654
 6547SOL     OW31099   0.450   1.314   8.269  0.3686  0.3278  0.3337
 6547SOL    HW131100   0.475   1.380   8.204  1.3371 -0.1960  0.1772
 6547SOL    HW231101   0.456   1.231   8.222 -1.5408 -0.2302  1.0733
 6548SOL     OW31102   0.131   3.919   0.822 -0.7117  0.5312 -0.5448
 6548SOL    HW131103   0.197   3.949   0.885 -0.3219 -0.7067 -0.3621
 6548SOL    HW231104   0.182   3.897   0.745 -0.2529 -1.1360  0.2403
 6549SOL     OW31105   0.896   1.028   7.803 -1.2672 -0.2597 -0.0772
 6549SOL    HW131106   0.945   0.955   7.841 -0.5635  0.1720 -0.1446
 6549SOL    HW231107   0.959   1.064   7.740 -1.1962  2.4935  1.5578
 6550SOL     OW31108   1.406   1.098   7.001 -0.0525 -0.2877  0.2443
 6550SOL    HW131109   1.366   1.017   6.971  0.8823 -0.1291 -1.4519
 6550SOL    HW231110   1.478   1.100   6.938  0.4647  1.0530  0.8673
 6551SOL     OW31111   4.091   3.689   8.406  0.5529  0.6244 -0.1053
 6551SOL    HW131112   4.159   3.674   8.341 -1.2116  1.2917 -2.0856
 6551SOL    HW231113   4.127   3.645   8.483  0.1512  4.3949  2.2357
 6552SOL     OW31114   2.895   3.519   7.236 -0.9652  0.3500  0.4731
 6552SOL    HW131115   2.965   3.491   7.295  1.3355  1.5719 -1.6985
 6552SOL    HW231116   2.946   3.522   7.155 -3.3420  1.2803 -1.0108
 6553SOL     OW31117   0.430   2.384   2.303 -0.7933 -0.3619 -0.2725
 6553SOL    HW131118   0.526   2.384   2.300 -0.7377 -2.0553  1.6969
 6553SOL    HW231119   0.414   2.291   2.288 -0.1090 -0.6217  0.5811
 6554SOL     OW31120   2.657   0.979   7.891 -0.3218 -0.2086  0.1528
 6554SOL    HW131121   2.625   1.015   7.808  1.7171 -0.2385 -0.6494
 6554SOL    HW231122   2.585   0.917   7.905  0.1855 -1.7289 -3.7885
 6555SOL     OW31123   3.665   4.028  11.090  0.3201 -0.3089 -0.7096
 6555SOL    HW131124   3.580   4.023  11.133  1.1952 -3.6902  0.6794
 6555SOL    HW231125   3.702   3.943  11.116  3.6043  1.9884  2.0729
 6556SOL     OW31126   2.661   2.704  16.495 -0.4143  0.1324 -0.0858
 6556SOL    HW131127   2.735   2.675  16.548 -1.3023 -0.4775  0.8117
 6556SOL    HW231128   2.663   2.646  16.419  0.7051  0.6149 -0.4280
 6557SOL     OW31129   1.520   2.569   4.583 -0.2222 -0.3801 -0.8617
 6557SOL    HW131130   1.603   2.616   4.580  0.3584 -1.5567 -2.8447
 6557SOL    HW231131   1.526   2.522   4.501  1.3332 -0.5021 -0.6660
 6558SOL     OW31132   0.877   3.603  16.669  0.2295 -0.0504  0.0878
 6558SOL    HW131133   0.823   3.576  16.743 -1.4184 -0.9521 -1.4473
 6558SOL    HW231134   0.881   3.698  16.686 -1.0957 -0.1818  1.0662
 6559SOL     OW31135   4.535   4.331  11.354 -0.1757  0.0621  0.2431
 6559SOL    HW131136   4.514   4.387  11.279 -0.3904 -0.3133  0.0204
 6559SOL    HW231137   4.459   4.345  11.410 -1.1344 -0.6270 -0.8814
 6560SOL     OW31138   3.567   3.041   5.285  0.2449 -0.0027 -0.6528
 6560SOL    HW131139   3.549   3.027   5.192  0.9802 -0.2933 -0.7506
 6560SOL    HW231140   3.552   2.951   5.312  1.9215 -1.1665 -3.5332
 6561SOL     OW31141   0.929   3.592   2.935 -0.7515  0.5826 -0.6536
 6561SOL    HW131142   0.949   3.577   3.027  0.1480  2.2706 -0.5675
 6561SOL    HW231143   1.010   3.552   2.905 -0.9127  0.2096 -0.5851
 6562SOL     OW31144   3.159   0.432   0.888 -0.6128 -0.1218 -0.1716
 6562SOL    HW131145   3.219   0.467   0.953  3.0622 -1.5228 -2.7680
 6562SOL    HW231146   3.224   0.415   0.819  0.4305 -0.6259  0.9501
 6563SOL     OW31147   0.303   4.013   3.800 -0.3275  0.1126 -0.0500
 6563SOL    HW131148   0.272   4.103   3.810  0.4530  0.3514  0.2419
 6563SOL    HW231149   0.236   3.960   3.844  0.9325 -1.0044  0.5158
 6564SOL     OW31150   3.421   1.244  10.792 -0.0513 -0.2284 -0.2269
 6564SOL    HW131151   3.471   1.311  10.839 -0.1603  0.8226 -1.6015
 6564SOL    HW231152   3.364   1.303  10.743  0.8682 -0.6011 -1.7391
 6565SOL     OW31153   4.102   0.737   9.526 -0.1462 -0.6018 -0.2732
 6565SOL    HW131154   4.169   0.804   9.537 -0.8042  0.2564 -1.4733
 6565SOL    HW231155   4.057   0.753   9.609  0.8970 -0.8337  0.3375
 6566SOL     OW31156   4.643   1.538   4.801 -0.3897  0.0968  0.1355
 6566SOL    HW131157   0.011   1.539   4.775 -0.7592  1.8845 -1.0948
 6566SOL    HW231158   4.639   1.448   4.833  1.1684  0.4225  1.2569
 6567SOL     OW31159   1.298   1.998   3.973 -0.2057 -0.0105  0.0229
 6567SOL    HW131160   1.287   1.932   3.903 -0.6274 -0.4313  0.4870
 6567SOL    HW231161   1.341   1.942   4.038  0.4951 -0.4577 -0.8105
 6568SOL     OW31162   1.034   0.028   4.012 -0.7361 -0.1689  0.6089
 6568SOL    HW131163   1.127   0.023   4.033 -0.6390  1.8204  0.7380
 6568SOL    HW231164   0.998   4.687   4.072  0.8457  0.7150  2.5212
 6569SOL     OW31165   4.293   4.338  11.498 -0.7496  0.0717 -0.5036
 6569SOL    HW131166   4.233   4.347  11.424 -1.7174 -0.8237  0.1797
 6569SOL    HW231167   4.277   4.422  11.543  0.2103  0.3620 -0.7183
 6570SOL     OW31168   0.389   0.212   2.334 -0.4162 -0.2133 -0.1674
 6570SOL    HW131169   0.321   0.279   2.322  0.9160  1.0266 -0.8139
 6570SOL    HW231170   0.355   0.168   2.411 -0.2343 -0.3833 -0.1853
 6571SOL     OW31171   0.833   2.778   2.606 -0.4103  0.3725 -0.6298
 6571SOL    HW131172   0.815   2.823   2.524 -2.7572 -0.7846 -0.7439
 6571SOL    HW231173   0.914   2.727   2.598  0.6727  2.2486 -1.6811
 6572SOL     OW31174   4.294   3.695   2.207 -0.1585  0.0845 -0.0218
 6572SOL    HW131175   4.233   3.636   2.252  1.3808 -0.2758  1.5837
 6572SOL    HW231176   4.371   3.642   2.186 -0.2718  0.6669 -1.9665
 6573SOL     OW31177   2.161   2.346  15.899 -0.1135 -0.4630  0.1602
 6573SOL    HW131178   2.155   2.338  15.804  1.8877  1.4697 -0.1199
 6573SOL    HW231179   2.249   2.310  15.912  1.2790  2.6877 -0.5394
 6574SOL     OW31180   3.093   1.886   6.209 -0.1295 -0.0792  0.2917
 6574SOL    HW131181   3.051   1.847   6.132  0.8313 -1.6552  0.5807
 6574SOL    HW231182   3.172   1.923   6.169  0.5625 -1.4354  0.4154
 6575SOL     OW31183   3.555   2.242   8.361 -0.4482 -0.0107  0.3582
 6575SOL    HW131184   3.494   2.306   8.398 -0.5805 -0.8221  1.5482
 6575SOL    HW231185   3.534   2.158   8.403 -0.5509 -0.3495 -0.3712
 6576SOL     OW31186   2.227   2.669   7.858 -0.7551  0.1075  0.8757
 6576SOL    HW131187   2.140   2.692   7.889 -1.3332  0.5273 -1.0697
 6576SOL    HW231188   2.201   2.597   7.801  1.3053  0.5790 -0.6741
 6577SOL     OW31189   4.482   3.301   2.028  0.2215 -0.4821  0.2846
 6577SOL    HW131190   4.546   3.234   2.052  0.3918 -0.3983  0.0655
 6577SOL    HW231191   4.406   3.245   2.011 -0.4371  0.3257  0.5544
 6578SOL     OW31192   1.421   4.498   9.384  0.0320 -0.0812 -0.4285
 6578SOL    HW131193   1.454   4.552   9.456 -1.4237  0.3670 -0.0796
 6578SOL    HW231194   1.382   4.421   9.425  1.3186  0.0325  0.9836
 6579SOL     OW31195   3.606   3.306   6.178  0.4125  0.1624 -0.1319
 6579SOL    HW131196   3.557   3.387   6.166 -1.0934 -0.6225  0.7430
 6579SOL    HW231197   3.642   3.292   6.090  0.3913  0.8732 -0.2563
 6580SOL     OW31198   0.490   1.098   7.293  0.1269 -0.2432 -0.0753
 6580SOL    HW131199   0.449   1.146   7.365  0.7886  0.9856 -0.5344
 6580SOL    HW231200   0.482   1.006   7.319 -1.1359  0.3592  1.6998
 6581SOL     OW31201   0.918   2.144  11.885 -0.3409  0.3696  0.0150
 6581SOL    HW131202   0.927   2.087  11.961  0.8780  1.1002  0.4111
 6581SOL    HW231203   0.843   2.198  11.913 -1.0518 -0.5015 -0.1914
 6582SOL     OW31204   2.152   2.520   7.028  0.0329 -0.1889 -0.0337
 6582SOL    HW131205   2.186   2.432   7.044 -0.9468 -0.7643 -1.1713
 6582SOL    HW231206   2.230   2.567   7.000 -1.4334  0.1840 -3.4938
 6583SOL     OW31207   0.089   4.221  16.783  0.2502  0.1900 -0.4394
 6583SOL    HW131208   0.039   4.246  16.706 -2.1387 -0.8231  0.8017
 6583SOL    HW231209   0.149   4.294  16.798 -1.3202  0.7435  3.1103
 6584SOL     OW31210   3.701   2.329  12.572  0.0902  0.4309 -0.1248
 6584SOL    HW131211   3.646   2.331  12.651 -0.5457  1.2060 -0.5845
 6584SOL    HW231212   3.786   2.294  12.597 -1.2124 -3.9987 -1.9624
 6585SOL     OW31213   2.336   3.580   7.429  0.1448  0.1691  0.1403
 6585SOL    HW131214   2.369   3.665   7.459  2.9115 -0.3271 -1.5299
 6585SOL    HW231215   2.356   3.521   7.502 -1.2842 -1.9725 -1.2049
 6586SOL     OW31216   3.276   3.668   5.287 -0.3919 -0.6431 -0.4183
 6586SOL    HW131217   3.325   3.720   5.351  0.5559 -1.9689 -0.0798
 6586SOL    HW231218   3.279   3.726   5.211 -0.4616  0.9125  0.7508
 6587SOL     OW31219   3.703   4.675  16.748 -0.6492 -0.3062  0.1144
 6587SOL    HW131220   3.626   4.662  16.804 -0.4842  2.8827  1.1150
 6587SOL    HW231221   3.769   4.713  16.807 -0.1251  2.8429 -2.5140
 6588SOL     OW31222   2.050   3.831   8.083 -0.1892 -0.3522  0.0360
 6588SOL    HW131223   2.121   3.893   8.066  0.7127 -1.0562  1.1726
 6588SOL    HW231224   2.063   3.804   8.174  0.1242 -1.2969 -0.2849
 6589SOL     OW31225   0.944   4.179   4.774  0.4540  0.5089 -0.7655
 6589SOL    HW131226   0.997   4.101   4.793 -2.7141 -1.3963  0.1197
 6589SOL    HW231227   0.919   4.165   4.682  0.8690 -0.4379 -0.7416
 6590SOL     OW31228   0.528   3.461   2.364  1.1391 -0.3884 -1.0451
 6590SOL    HW131229   0.570   3.547   2.367 -1.0080  0.6175  0.5748
 6590SOL    HW231230   0.528   3.434   2.456  1.2738 -2.0431 -1.5438
 6591SOL     OW31231   0.943   1.752   4.075 -0.1753 -0.0461  0.4333
 6591SOL    HW131232   0.967   1.818   4.139 -0.2886  1.7916 -1.4168
 6591SOL    HW231233   0.899   1.695   4.137  0.2365 -0.8426 -0.0056
 6592SOL     OW31234   0.024   0.389  14.478 -0.4462 -0.3150  0.3475
 6592SOL    HW131235   0.079   0.434  14.414 -0.9199 -1.3813 -0.8201
 6592SOL    HW231236   4.660   0.401  14.442 -0.0410  2.3403  0.2973
 6593SOL     OW31237   2.994   0.996   5.603 -0.1299 -0.0891  0.5125
 6593SOL    HW131238   3.057   0.968   5.537 -0.7613  1.1730 -0.6048
 6593SOL    HW231239   3.013   0.915   5.651  1.3188 -0.0347  0.0438
 6594SOL     OW31240   2.272   4.071  16.203 -0.5052  0.2696  0.0654
 6594SOL    HW131241   2.220   4.151  16.211  0.8837  1.1244  0.4254
 6594SOL    HW231242   2.336   4.076  16.273 -0.4520  0.9616 -0.0349
 6595SOL     OW31243   0.237   0.118  14.786 -0.2827 -0.3516 -0.1200
 6595SOL    HW131244   0.232   0.070  14.868 -1.4351  3.0626  1.8319
 6595SOL    HW231245   0.313   0.080  14.742 -0.6598 -0.0363 -1.0477
 6596SOL     OW31246   0.139   1.450   9.654 -0.6539  0.0481  0.1057
 6596SOL    HW131247   0.046   1.473   9.654  0.0616  2.9914  3.4236
 6596SOL    HW231248   0.134   1.367   9.606 -1.6341  1.0873 -1.5637
 6597SOL     OW31249   0.951   4.406   3.296  0.1458 -0.0079 -0.5062
 6597SOL    HW131250   0.941   4.485   3.348 -0.1748 -1.5564  1.8036
 6597SOL    HW231251   0.935   4.332   3.355  2.8836 -1.2450 -1.2755
 6598SOL     OW31252   1.229   2.189  11.432 -0.0626 -0.4241 -0.0133
 6598SOL    HW131253   1.198   2.139  11.507  1.8410  0.5946  1.4578
 6598SOL    HW231254   1.179   2.271  11.438  2.2244  0.9430  0.3540
 6599SOL     OW31255   3.294   0.609   8.675 -0.4938  0.5724 -0.3500
 6599SOL    HW131256   3.262   0.524   8.706 -3.2516  1.6598 -0.2229
 6599SOL    HW231257   3.260   0.659   8.749 -0.0965  2.9245 -1.7627
 6600SOL     OW31258   4.641   2.432   8.689 -0.2026 -0.4131  0.0786
 6600SOL    HW131259   4.645   2.401   8.598  0.2658 -0.3360  0.0677
 6600SOL    HW231260   4.585   2.363   8.722 -2.1098  1.3872  0.6078
 6601SOL     OW31261   3.142   3.167   6.831 -0.1503 -0.1450 -0.1474
 6601SOL    HW131262   3.123   3.073   6.824 -2.5249  0.3341 -0.2643
 6601SOL    HW231263   3.069   3.201   6.780  0.3295 -1.1532 -1.5167
 6602SOL     OW31264   0.812   3.173   4.419 -0.0028  0.1704 -0.0630
 6602SOL    HW131265   0.781   3.263   4.407 -0.1292  0.1563  0.1620
 6602SOL    HW231266   0.782   3.148   4.506  0.5411 -0.5107 -0.0776
 6603SOL     OW31267   0.158   2.110   1.399 -0.4255  0.1819 -0.2650
 6603SOL    HW131268   0.252   2.107   1.413 -0.4160  1.5712  0.0442
 6603SOL    HW231269   0.153   2.040   1.334 -2.6475 -0.1751  0.2972
 6604SOL     OW31270   3.525   1.167   8.002 -0.1540 -0.5431 -0.6317
 6604SOL    HW131271   3.441   1.207   7.977  0.5553  1.5040  0.2934
 6604SOL    HW231272   3.557   1.213   8.079 -1.4449 -0.3334 -0.2253
 6605SOL     OW31273   1.030   0.753   9.744 -0.1308 -0.4685 -0.5792
 6605SOL    HW131274   1.054   0.676   9.796 -1.2571 -0.1839  0.3554
 6605SOL    HW231275   1.091   0.813   9.787  0.6736  0.2192 -2.6429
 6606SOL     OW31276   4.531   4.704   0.831  0.0848 -0.1013 -0.0946
 6606SOL    HW131277   4.604   0.004   0.773 -0.8322  0.0827 -1.1874
 6606SOL    HW231278   4.500   0.070   0.844  2.8280  0.7554  0.4040
 6607SOL     OW31279   1.262   0.197   7.716 -0.1143 -0.6287 -0.0946
 6607SOL    HW131280   1.215   0.276   7.691  0.1186 -0.0452  1.3391
 6607SOL    HW231281   1.234   0.182   7.806 -0.7546  0.1628 -0.1616
 6608SOL     OW31282   4.138   4.540   1.049  0.2008  0.3866 -0.7403
 6608SOL    HW131283   4.128   4.599   0.974 -2.1510 -0.7307 -1.3205
 6608SOL    HW231284   4.217   4.568   1.095 -0.1466  0.3047 -0.0885
 6609SOL     OW31285   4.612   1.724  10.289 -0.3209 -0.1691  0.0118
 6609SOL    HW131286   4.565   1.685  10.215  0.3777  0.0864 -0.5594
 6609SOL    HW231287   4.543   1.731  10.356  2.7719 -1.0354  3.2726
 6610SOL     OW31288   1.766   2.281   3.969 -0.4643  0.5621  0.1975
 6610SOL    HW131289   1.670   2.273   3.969 -0.1563 -2.9499  2.5940
 6610SOL    HW231290   1.779   2.368   3.930  5.4367 -0.6002 -0.4302
 6611SOL     OW31291   4.505   3.594   7.508 -0.0275 -0.1286 -0.4827
 6611SOL    HW131292   4.543   3.682   7.500 -0.2041  0.0149  0.3205
 6611SOL    HW231293   4.480   3.575   7.418 -2.2511  1.6560 -0.2343
 6612SOL     OW31294   2.940   0.518   3.073 -0.0302 -0.4620  0.0139
 6612SOL    HW131295   2.998   0.456   3.030 -0.6751  0.3984 -2.0804
 6612SOL    HW231296   2.991   0.547   3.148 -2.5355 -0.6898  1.8326
 6613SOL     OW31297   1.081   2.291   3.248  0.1458 -0.5032  0.1321
 6613SOL    HW131298   1.158   2.308   3.303 -0.1957  0.5359  0.2932
 6613SOL    HW231299   1.025   2.250   3.314  0.7371 -1.2370  0.1684
 6614SOL     OW31300   1.462   2.869   8.008  0.7113 -0.2837  0.1935
 6614SOL    HW131301   1.386   2.924   8.028  0.2319 -1.0294  0.3984
 6614SOL    HW231302   1.441   2.787   8.052  0.4345 -0.4404 -0.2342
 6615SOL     OW31303   0.046   3.027   8.277  0.1708  0.1307 -0.0020
 6615SOL    HW131304   4.702   3.095   8.278  2.0547  2.0262  0.3878
 6615SOL    HW231305   0.008   2.949   8.317  0.5554  1.1918  2.4486
 6616SOL     OW31306   0.314   1.761   2.784  0.2068 -0.0948 -0.2038
 6616SOL    HW131307   0.240   1.820   2.772 -0.6697 -0.7538  2.0834
 6616SOL    HW231308   0.295   1.678   2.740  1.6385 -1.2902  1.4484
 6617SOL     OW31309   2.842   1.841   9.060 -0.1840 -0.0202 -0.5253
 6617SOL    HW131310   2.776   1.910   9.061  0.8759  0.9278  3.0764
 6617SOL    HW231311   2.873   1.865   8.973  0.5283 -1.6900 -0.7160
 6618SOL     OW31312   1.453   3.849  14.690 -0.3533 -0.2034  0.0795
 6618SOL    HW131313   1.543   3.823  14.669  0.6192  0.8961  2.9553
 6618SOL    HW231314   1.410   3.788  14.630  1.4697 -2.4742  1.0986
 6619SOL     OW31315   0.031   1.149  16.734 -0.0670  0.5340 -0.7648
 6619SOL    HW131316   0.051   1.182  16.646  0.1423  1.4793 -0.3534
 6619SOL    HW231317   0.083   1.068  16.735 -0.2880  0.4204  0.9197
 6620SOL     OW31318   3.328   1.343  10.536 -0.0425  0.8469  0.8382
 6620SOL    HW131319   3.246   1.384  10.564  0.2363  2.3592 -0.5533
 6620SOL    HW231320   3.348   1.387  10.453 -0.3229 -1.1651 -0.2923
 6621SOL     OW31321   0.156   0.734  13.682 -0.2538  0.1200 -0.5422
 6621SOL    HW131322   0.179   0.642  13.680 -4.1548 -0.8561  0.3839
 6621SOL    HW231323   0.073   0.742  13.728 -0.5175 -1.3279 -0.7903
 6622SOL     OW31324   3.011   0.261   7.200  0.1854  0.1315 -0.9914
 6622SOL    HW131325   3.054   0.223   7.277 -1.6839  0.8065  0.3764
 6622SOL    HW231326   2.918   0.270   7.224 -0.3243  0.2213 -3.0626
 6623SOL     OW31327   2.995   0.552   8.976  0.4502 -0.1374 -0.3623
 6623SOL    HW131328   3.064   0.523   9.035  0.2844  0.7841  0.2852
 6623SOL    HW231329   2.932   0.485   9.001  0.0339  0.2194 -0.4590
 6624SOL     OW31330   2.060   0.568   2.560 -0.2302 -0.2499 -0.7805
 6624SOL    HW131331   2.033   0.566   2.652 -0.4440 -0.6533 -0.8548
 6624SOL    HW231332   1.984   0.584   2.506 -0.6552  0.4900  0.0231
 6625SOL     OW31333   0.435   3.882   3.246  0.1860 -0.6719 -0.2591
 6625SOL    HW131334   0.469   3.902   3.333  2.2334  3.6960 -2.0791
 6625SOL    HW231335   0.505   3.825   3.213  1.2976 -0.3321  1.4886
 6626SOL     OW31336   1.179   3.952  13.968 -0.3091 -0.2478 -0.3818
 6626SOL    HW131337   1.211   3.994  14.048 -0.1806 -1.5829  0.2565
 6626SOL    HW231338   1.242   3.885  13.942 -1.2045  0.2798 -3.8813
 6627SOL     OW31339   4.533   4.345   0.547  0.0529  0.4491  0.2459
 6627SOL    HW131340   4.500   4.383   0.466  1.8962  0.1092 -0.6498
 6627SOL    HW231341   4.470   4.384   0.608  0.2523  1.8214 -0.4139
 6628SOL     OW31342   1.861   0.925   4.101 -0.2143 -0.3252  0.1819
 6628SOL    HW131343   1.797   0.963   4.160  1.3150 -0.1828  1.7516
 6628SOL    HW231344   1.884   0.998   4.044 -2.9294 -1.1738 -1.9685
 6629SOL     OW31345   1.126   2.715   3.992 -0.3119  0.1063  0.4340
 6629SOL    HW131346   1.192   2.726   4.061 -0.5169  0.9643  0.5021
 6629SOL    HW231347   1.067   2.663   4.046  0.9739 -1.2093  0.5630
 6630SOL     OW31348   3.477   2.059   8.002  0.6287  0.2151 -0.5386
 6630SOL    HW131349   3.442   2.055   7.913 -0.1002  2.2071 -0.3373
 6630SOL    HW231350   3.395   2.047   8.050  0.9821 -1.0764 -0.2434
 6631SOL     OW31351   3.930   1.691   9.164 -0.1255  0.4368 -0.0081
 6631SOL    HW131352   3.884   1.622   9.117 -0.0646  0.3730  0.0265
 6631SOL    HW231353   3.871   1.703   9.238 -1.2047  0.8333 -0.9191
 6632SOL     OW31354   2.366   1.910   8.716 -0.2190 -0.5977  0.1170
 6632SOL    HW131355   2.316   1.837   8.752 -1.6610  0.3711  0.0779
 6632SOL    HW231356   2.305   1.934   8.646 -0.7023 -2.0174  0.0325
 6633SOL     OW31357   1.816   2.468   8.593  0.2506  0.0487 -0.4950
 6633SOL    HW131358   1.811   2.387   8.643 -0.8658  0.9493  0.8693
 6633SOL    HW231359   1.865   2.521   8.656 -1.1058  0.1620  0.4708
 6634SOL     OW31360   4.270   4.597   4.317  0.3011  0.3769 -0.3150
 6634SOL    HW131361   4.329   4.522   4.325 -0.3515 -0.4248 -2.8869
 6634SOL    HW231362   4.299   4.637   4.236 -1.2318  2.1264  0.0072
 6635SOL     OW31363   1.273   0.192  10.444 -0.1645 -0.2397  0.1461
 6635SOL    HW131364   1.348   0.218  10.391 -0.4085 -1.5943 -0.8817
 6635SOL    HW231365   1.299   0.106  10.477  0.3829  0.7843  2.3914
 6636SOL     OW31366   2.603   0.126   5.504 -0.1417 -0.0198  0.2186
 6636SOL    HW131367   2.549   0.070   5.561 -0.8029  0.0713 -0.3223
 6636SOL    HW231368   2.534   0.189   5.482  0.1815 -0.0127 -0.7732
 6637SOL     OW31369   0.787   0.933   0.542 -0.3390  0.0277 -0.0232
 6637SOL    HW131370   0.763   1.009   0.595  3.2213  1.3195 -0.2455
 6637SOL    HW231371   0.836   0.896   0.615 -1.3534 -0.9214  0.1838
 6638SOL     OW31372   1.143   4.417  13.994  0.6555  0.1076 -0.1953
 6638SOL    HW131373   1.062   4.373  13.969 -0.2906  2.3024 -0.9995
 6638SOL    HW231374   1.204   4.363  13.944 -0.4962 -0.5700 -0.8833
 6639SOL     OW31375   2.318   2.567   7.348 -0.9123  0.3062 -0.3620
 6639SOL    HW131376   2.333   2.609   7.433  1.5641  0.4113 -0.8704
 6639SOL    HW231377   2.403   2.570   7.306 -0.6117 -0.3542  0.1905
 6640SOL     OW31378   3.743   0.170   5.179  0.3988 -0.5073 -0.2922
 6640SOL    HW131379   3.715   0.083   5.209 -0.1663 -0.6056 -1.1167
 6640SOL    HW231380   3.816   0.191   5.236  0.2139  2.0516 -1.0299
 6641SOL     OW31381   0.927   0.220   9.023 -0.1251 -0.4874  0.3894
 6641SOL    HW131382   0.982   0.164   9.077  0.9773  2.4680  2.2755
 6641SOL    HW231383   0.909   0.300   9.072  0.5586  0.5817 -1.1384
 6642SOL     OW31384   3.951   4.162   1.137  0.2445  0.0247 -0.3384
 6642SOL    HW131385   3.952   4.253   1.168  2.4554  0.2489 -1.0518
 6642SOL    HW231386   3.895   4.127   1.205  0.6433 -0.4524 -0.2583
 6643SOL     OW31387   1.670   1.689   7.320 -0.2778 -0.5307  0.6165
 6643SOL    HW131388   1.593   1.688   7.264 -0.1246 -4.1485  0.4965
 6643SOL    HW231389   1.625   1.711   7.401 -0.1901  0.3252  0.4379
 6644SOL     OW31390   0.393   0.435   3.739 -0.4889 -0.2828 -0.1817
 6644SOL    HW131391   0.385   0.342   3.761  0.8081 -0.4069 -0.2383
 6644SOL    HW231392   0.378   0.445   3.645  0.8659  0.1411 -0.3492
 6645SOL     OW31393   4.122   2.630   2.782 -0.2378 -0.4260  0.1153
 6645SOL    HW131394   4.047   2.631   2.723 -0.7445  0.9380  0.7845
 6645SOL    HW231395   4.127   2.718   2.820  0.6272 -0.8015  0.8740
 6646SOL     OW31396   4.461   0.309   4.080 -0.5102  0.6697 -0.1924
 6646SOL    HW131397   4.543   0.358   4.076  0.0488 -0.2765 -0.2784
 6646SOL    HW231398   4.405   0.359   4.139  0.4394  1.0297  0.4191
 6647SOL     OW31399   3.445   4.068   2.676  0.1558 -0.3008 -0.4011
 6647SOL    HW131400   3.520   4.079   2.617  0.0931 -0.4322 -0.5063
 6647SOL    HW231401   3.430   3.974   2.668 -1.8974  0.0754 -1.1392
 6648SOL     OW31402   2.510   4.178  15.896 -0.3031 -0.1755  0.2766
 6648SOL    HW131403   2.546   4.255  15.852 -0.2875 -1.0216 -1.1818
 6648SOL    HW231404   2.466   4.218  15.970  1.0805  1.0604  0.4331
 6649SOL     OW31405   0.417   1.030   4.661 -0.0566  0.4881 -0.0764
 6649SOL    HW131406   0.329   1.067   4.662  0.4223  1.5612  2.4640
 6649SOL    HW231407   0.403   0.936   4.652 -1.8918  0.8974 -1.4871
 6650SOL     OW31408   0.945   4.555   0.221  0.3421 -0.3834 -0.0184
 6650SOL    HW131409   0.863   4.538   0.268 -0.5444 -0.0721 -1.4676
 6650SOL    HW231410   0.934   4.509   0.138 -0.5143 -0.8197  0.3365
 6651SOL     OW31411   3.683   2.484   7.235 -0.0055  0.1739 -0.1279
 6651SOL    HW131412   3.600   2.479   7.189 -0.6821 -2.0959  1.3857
 6651SOL    HW231413   3.695   2.405   7.287  1.1228  0.4723  0.0820
 6652SOL     OW31414   1.776   4.519  12.167 -0.1528  0.5942 -0.8095
 6652SOL    HW131415   1.705   4.481  12.115 -0.1799  0.0326 -0.3493
 6652SOL    HW231416   1.823   4.440  12.192 -0.0557  1.7371  2.5350
 6653SOL     OW31417   1.959   3.285   8.082 -0.1997 -0.0356  0.4492
 6653SOL    HW131418   2.040   3.324   8.115  1.1929 -1.3932 -1.4031
 6653SOL    HW231419   1.995   3.198   8.065 -1.7657 -0.0513 -2.6521
 6654SOL     OW31420   3.638   4.223  15.332  0.1735  0.1588 -0.1914
 6654SOL    HW131421   3.574   4.239  15.401 -0.9670  0.8538 -1.4040
 6654SOL    HW231422   3.623   4.131  15.312 -0.3880  0.0165  0.9249
 6655SOL     OW31423   4.147   1.225   1.215 -0.8822  0.1672 -0.0796
 6655SOL    HW131424   4.145   1.149   1.158  0.1677  1.0585 -1.3015
 6655SOL    HW231425   4.161   1.285   1.142 -2.3073 -1.1418 -1.4211
 6656SOL     OW31426   3.464   1.384  15.958  0.3376 -0.8742  0.1237
 6656SOL    HW131427   3.430   1.313  15.904  3.7856 -2.2890 -0.1814
 6656SOL    HW231428   3.379   1.422  15.978  1.1068  1.4265 -1.0748
 6657SOL     OW31429   2.581   2.132   4.948  0.1904 -0.2182  0.0044
 6657SOL    HW131430   2.517   2.114   5.017  2.9372 -0.9442  2.3590
 6657SOL    HW231431   2.598   2.053   4.897  1.1145 -0.4130  0.6203
 6658SOL     OW31432   2.890   2.040  16.922 -0.4590  0.0544 -0.4015
 6658SOL    HW131433   2.952   1.974  16.955 -0.9550 -0.1668  0.0930
 6658SOL    HW231434   2.844   1.971  16.873 -0.8257  0.3622 -0.4854
 6659SOL     OW31435   0.624   3.092   3.815 -0.1419 -1.1739  0.2031
 6659SOL    HW131436   0.552   3.154   3.809 -0.7858 -1.7094  2.5124
 6659SOL    HW231437   0.580   3.009   3.836 -2.8870  0.7369  1.9190
 6660SOL     OW31438   2.775   3.696   3.443 -0.2363  0.1896 -0.9635
 6660SOL    HW131439   2.693   3.693   3.492  0.3217 -2.8223 -0.2049
 6660SOL    HW231440   2.769   3.610   3.401 -2.5237  1.7342 -3.7489
 6661SOL     OW31441   3.761   0.005   0.565 -0.0688 -0.5121 -0.1767
 6661SOL    HW131442   3.822   0.040   0.630 -1.9447 -0.0702  1.3709
 6661SOL    HW231443   3.720   4.663   0.621 -2.7429  1.1763 -0.1460
 6662SOL     OW31444   0.232   2.398  14.068 -0.3808 -0.2321  0.0895
 6662SOL    HW131445   0.317   2.443  14.069  0.6124 -2.0838 -0.8217
 6662SOL    HW231446   0.179   2.468  14.029  0.1473 -0.1822 -0.5391
 6663SOL     OW31447   3.304   0.626   7.226 -0.1003  0.2550  0.4770
 6663SOL    HW131448   3.246   0.693   7.190  0.4773  1.7033  2.2715
 6663SOL    HW231449   3.256   0.598   7.304  0.8545  1.2077  1.3998
 6664SOL     OW31450   0.932   1.302   7.184  0.5780  0.1971 -0.1972
 6664SOL    HW131451   0.953   1.279   7.275  1.0617 -0.5900 -0.5107
 6664SOL    HW231452   0.860   1.251   7.147 -0.5937  2.9532 -1.7478
 6665SOL     OW31453   4.683   3.929   5.351 -0.3538  0.2236 -0.1736
 6665SOL    HW131454   4.617   3.866   5.324 -0.7258  0.6066 -0.1507
 6665SOL    HW231455   0.027   3.877   5.396  0.3075 -1.3284 -2.9930
 6666SOL     OW31456   3.311   2.873   2.583 -1.0432 -0.2291 -0.3650
 6666SOL    HW131457   3.353   2.898   2.666  0.2356  2.1706 -1.7377
 6666SOL    HW231458   3.224   2.870   2.622 -1.1010 -3.2672 -0.7624
 6667SOL     OW31459   2.016   0.068   5.395  0.6266  0.0559  0.1409
 6667SOL    HW131460   2.053   0.156   5.393 -0.3809  0.5378  1.8861
 6667SOL    HW231461   2.038   0.035   5.308 -0.7086 -0.1902 -0.0958
 6668SOL     OW31462   1.173   3.614  14.897  0.4428 -0.5453  0.0014
 6668SOL    HW131463   1.094   3.576  14.935 -0.3716 -2.4401 -3.6407
 6668SOL    HW231464   1.229   3.608  14.975 -1.5519  2.1789  1.6663
 6669SOL     OW31465   4.111   0.275   3.458  0.3336  0.0653  0.2360
 6669SOL    HW131466   4.195   0.311   3.430 -1.5755  2.2455 -2.7171
 6669SOL    HW231467   4.112   0.288   3.553 -0.8898 -1.5776  0.4705
 6670SOL     OW31468   4.530   1.746   6.913  0.0185 -0.1094 -0.7704
 6670SOL    HW131469   4.526   1.660   6.872  0.0501  0.0687 -1.1514
 6670SOL    HW231470   4.623   1.764   6.919  0.2280 -1.3719 -0.2233
 6671SOL     OW31471   2.797   0.061   9.065 -0.3101  0.3603 -0.0679
 6671SOL    HW131472   2.865   0.046   8.999 -0.1364  0.2437  0.1366
 6671SOL    HW231473   2.728   0.005   9.029 -0.1150  0.6236 -0.8432
 6672SOL     OW31474   1.617   2.756   4.189 -0.0760 -0.1604 -0.4456
 6672SOL    HW131475   1.681   2.803   4.243 -0.2286 -0.0684 -0.3443
 6672SOL    HW231476   1.625   2.788   4.099  2.6848 -1.8066 -0.8103
 6673SOL     OW31477   1.513   0.343  15.116 -0.9819 -0.1083 -0.3626
 6673SOL    HW131478   1.527   0.279  15.046 -1.3781  0.6179 -1.0897
 6673SOL    HW231479   1.509   0.411  15.049 -1.9161  0.7494  0.5753
 6674SOL     OW31480   2.135   1.713   6.386  0.7412 -0.2586 -0.5900
 6674SOL    HW131481   2.117   1.767   6.309 -0.8740  1.4319  0.9534
 6674SOL    HW231482   2.169   1.786   6.438 -0.6484  0.1448 -0.2322
 6675SOL     OW31483   3.633   4.348   4.744 -0.4421 -0.4511  0.3055
 6675SOL    HW131484   3.552   4.378   4.785  1.6626  0.5167  3.7645
 6675SOL    HW231485   3.615   4.307   4.660  1.2678 -0.4554 -0.0493
 6676SOL     OW31486   0.685   2.052   7.688  0.2612  0.0291 -0.8314
 6676SOL    HW131487   0.755   2.095   7.736  1.1310 -3.2593  0.8411
 6676SOL    HW231488   0.669   1.968   7.731  0.5593  0.0855 -0.6134
 6677SOL     OW31489   1.061   2.092   4.978  0.5048  0.0953 -0.3350
 6677SOL    HW131490   1.098   2.178   4.995 -0.0471  0.6410 -1.8446
 6677SOL    HW231491   1.072   2.095   4.883 -1.4941  1.3943 -0.5212
 6678SOL     OW31492   4.101   2.876   2.890  0.1445 -0.0217 -0.1386
 6678SOL    HW131493   4.017   2.856   2.932  0.0296 -0.4396 -0.5595
 6678SOL    HW231494   4.088   2.970   2.874  1.9723 -0.1388 -2.2010
 6679SOL     OW31495   4.624   2.316   5.339 -0.1125  0.2502  0.1064
 6679SOL    HW131496   4.620   2.290   5.247  0.8484  0.7753 -0.0856
 6679SOL    HW231497   4.661   2.403   5.326 -3.5728  1.7547  0.4170
 6680SOL     OW31498   1.609   3.257  15.284 -0.2582  0.2873 -0.5254
 6680SOL    HW131499   1.576   3.339  15.248 -0.4957  0.4175 -0.0110
 6680SOL    HW231500   1.678   3.235  15.222  0.0107 -1.7686  0.5087
 6681SOL     OW31501   2.887   0.320   9.079  0.4061  0.1738 -0.6786
 6681SOL    HW131502   2.975   0.306   9.042  0.5826  2.0354 -0.9303
 6681SOL    HW231503   2.854   0.230   9.074  1.1171 -0.0217 -1.7756
 6682SOL     OW31504   1.768   0.898   7.584 -0.1684 -0.3377 -0.9444
 6682SOL    HW131505   1.808   0.984   7.591 -1.6751  0.3316 -0.4811
 6682SOL    HW231506   1.694   0.925   7.529 -0.8034  0.1903  0.1632
 6683SOL     OW31507   4.240   1.239  10.803  0.0330 -0.3851 -0.4847
 6683SOL    HW131508   4.304   1.244  10.874 -1.5265 -0.0805  0.8878
 6683SOL    HW231509   4.275   1.197  10.725  0.6447  0.8910 -0.8987
 6684SOL     OW31510   3.747   1.207  15.775 -0.4295 -0.4692 -0.3317
 6684SOL    HW131511   3.762   1.135  15.713  2.3981 -0.4646  0.3637
 6684SOL    HW231512   3.700   1.267  15.717 -1.5878 -1.6269 -0.5915
 6685SOL     OW31513   3.194   3.108   4.101 -0.4220  0.2175  0.1437
 6685SOL    HW131514   3.241   3.029   4.126  1.2692  1.4285  0.7656
 6685SOL    HW231515   3.269   3.156   4.066 -1.9146  3.8762  1.9606
 6686SOL     OW31516   2.892   3.480   4.467  0.2453 -0.4781 -0.1537
 6686SOL    HW131517   2.869   3.572   4.458 -1.9146 -1.2105 -2.0427
 6686SOL    HW231518   2.946   3.473   4.388  0.5608 -0.9781  0.1080
 6687SOL     OW31519   3.085   0.504   5.928  0.6603 -0.2882 -0.6983
 6687SOL    HW131520   3.172   0.466   5.939  0.1479 -1.0815  0.6225
 6687SOL    HW231521   3.057   0.511   6.019 -3.2737  0.8400 -1.9767
 6688SOL     OW31522   2.421   1.430  17.237  0.4674 -0.5276  0.2488
 6688SOL    HW131523   2.358   1.434  17.165 -0.0334 -1.7499  0.6267
 6688SOL    HW231524   2.367   1.388  17.304  0.7389 -0.9226  0.2195
 6689SOL     OW31525   0.187   3.363   4.241  0.9351  0.5838  0.0855
 6689SOL    HW131526   0.104   3.325   4.214  1.0455 -0.5497  1.3142
 6689SOL    HW231527   0.237   3.341   4.163  0.4868 -0.8899  0.2101
 6690SOL     OW31528   0.772   1.489  12.118  0.9854  0.0323  0.1510
 6690SOL    HW131529   0.734   1.562  12.069  2.4336  0.0757 -0.9262
 6690SOL    HW231530   0.840   1.456  12.059  1.9438 -1.0443  1.8574
 6691SOL     OW31531   3.392   3.847   2.077 -0.1540  0.2272 -0.1759
 6691SOL    HW131532   3.382   3.921   2.137 -0.7634  0.7372 -0.9032
 6691SOL    HW231533   3.306   3.805   2.083  0.1903 -0.3144  1.0744
 6692SOL     OW31534   2.824   1.066   5.395 -0.5171 -0.6673  0.3992
 6692SOL    HW131535   2.841   1.158   5.375 -1.1203 -0.4688  0.8070
 6692SOL    HW231536   2.888   1.043   5.462 -2.0798 -0.2569  2.0232
 6693SOL     OW31537   1.964   4.346   8.111  0.1903 -0.1452 -0.4528
 6693SOL    HW131538   2.040   4.393   8.075  0.2501  0.4197  0.4209
 6693SOL    HW231539   1.895   4.408   8.091  1.5026  1.3287 -0.4301
 6694SOL     OW31540   2.801   3.467   0.242 -0.3771  0.3035  0.1102
 6694SOL    HW131541   2.869   3.532   0.259  1.7436 -1.3640 -2.0032
 6694SOL    HW231542   2.762   3.513   0.168 -0.8985  0.1659  0.3022
 6695SOL     OW31543   3.112   4.668   6.790 -0.0394  0.0601 -0.7187
 6695SOL    HW131544   3.199   4.638   6.817 -0.8291 -1.0030  0.6351
 6695SOL    HW231545   3.141   0.033   6.768 -0.5655  0.0576 -1.4235
 6696SOL     OW31546   1.561   1.229  12.167  0.1952 -0.5368  0.6065
 6696SOL    HW131547   1.525   1.144  12.143  1.1904 -0.7901 -0.0022
 6696SOL    HW231548   1.602   1.212  12.252 -2.2802 -0.5696  1.8084
 6697SOL     OW31549   2.979   2.220   9.546  0.1831 -0.1382 -0.4583
 6697SOL    HW131550   3.006   2.299   9.497 -0.8903  1.1648  1.0743
 6697SOL    HW231551   3.004   2.239   9.637  2.1664 -1.0776 -0.7953
 6698SOL     OW31552   0.375   2.368   2.570  0.1716  0.1371  0.4883
 6698SOL    HW131553   0.394   2.372   2.476  0.4171 -1.2133  0.4885
 6698SOL    HW231554   0.285   2.399   2.581  0.1393  0.0127  0.5762
 6699SOL     OW31555   2.008   0.875  12.741 -0.4174 -0.1329 -0.2973
 6699SOL    HW131556   2.018   0.786  12.707  1.3049 -0.7324  1.7847
 6699SOL    HW231557   2.056   0.923  12.675 -2.0193  1.2092 -0.4971
 6700SOL     OW31558   2.749   3.712   0.525  0.0194 -0.3177  0.0244
 6700SOL    HW131559   2.805   3.746   0.455  0.3668  0.0040  0.4537
 6700SOL    HW231560   2.721   3.629   0.485  2.7819 -0.5865 -1.3564
 6701SOL     OW31561   2.590   2.232  17.009 -0.6772  0.2612  0.1806
 6701SOL    HW131562   2.556   2.300  16.951 -1.4302 -0.5024 -0.2824
 6701SOL    HW231563   2.614   2.165  16.945 -0.3019  4.1317 -3.7655
 6702SOL     OW31564   4.709   2.259  13.868 -0.1837  0.1872 -0.6094
 6702SOL    HW131565   4.720   2.206  13.947  1.6243  2.3818  0.6156
 6702SOL    HW231566   0.010   2.196  13.800 -1.1427 -1.5926  0.6924
 6703SOL     OW31567   1.031   3.391   9.212 -0.9803  0.0358 -0.1650
 6703SOL    HW131568   1.074   3.334   9.148  2.5892  0.4927  1.8604
 6703SOL    HW231569   1.045   3.479   9.178 -1.1135  0.0419 -0.2042
 6704SOL     OW31570   3.039   2.755   7.965 -0.2480  0.5793 -0.2627
 6704SOL    HW131571   3.106   2.822   7.950  0.3959  0.4982  2.2363
 6704SOL    HW231572   3.025   2.721   7.876 -0.9718  1.2446 -0.4025
 6705SOL     OW31573   4.412   2.338  10.120  0.3892  0.1601  0.2448
 6705SOL    HW131574   4.394   2.248  10.146 -0.0834 -0.1300 -1.0793
 6705SOL    HW231575   4.337   2.378  10.165 -0.7753 -2.1136  0.3372
 6706SOL     OW31576   0.595   3.929   7.718 -0.3138  0.3815  0.5418
 6706SOL    HW131577   0.642   3.881   7.786  1.1674  3.5551  1.7545
 6706SOL    HW231578   0.604   3.870   7.643  0.9389  1.3917 -0.0989
 6707SOL     OW31579   0.221   4.339   4.962 -0.1010  0.3547 -0.1413
 6707SOL    HW131580   0.297   4.384   4.999  0.0905  0.3725 -0.5529
 6707SOL    HW231581   0.255   4.262   4.917  0.1600  0.4742 -0.1484
 6708SOL     OW31582   2.473   4.127   1.878  0.0237  0.2744  0.3519
 6708SOL    HW131583   2.385   4.103   1.904  0.3860  0.6127  1.8985
 6708SOL    HW231584   2.476   4.223   1.886 -0.2524  0.2786  0.4029
 6709SOL     OW31585   2.461   4.234   8.569  0.2667  0.1925  0.0308
 6709SOL    HW131586   2.548   4.273   8.561 -1.2160  4.0559  2.5947
 6709SOL    HW231587   2.465   4.192   8.655 -0.2228  0.4041  0.1571
 6710SOL     OW31588   1.262   2.208   4.442 -0.2062  0.2430 -0.0837
 6710SOL    HW131589   1.218   2.285   4.405 -0.1029  0.9266  1.2188
 6710SOL    HW231590   1.274   2.165   4.357  2.3407  0.7664  0.0119
 6711SOL     OW31591   4.584   0.579  16.015  0.4141  0.2576  0.0885
 6711SOL    HW131592   4.566   0.624  15.933 -2.6328 -1.1228 -0.0119
 6711SOL    HW231593   4.668   0.535  16.005  0.4944  0.0642  1.6031
 6712SOL     OW31594   0.464   1.350   3.883  0.9001 -0.1003 -0.2239
 6712SOL    HW131595   0.536   1.402   3.918  0.3442  0.5881 -0.1122
 6712SOL    HW231596   0.511   1.312   3.809  1.3656 -0.2739  0.1602
 6713SOL     OW31597   2.157   4.210   2.682 -0.4692  0.3553  0.0584
 6713SOL    HW131598   2.226   4.164   2.634 -0.0308  0.3143  0.7233
 6713SOL    HW231599   2.158   4.283   2.621  1.2232  0.1525 -0.1599
 6714SOL     OW31600   2.015   4.281   2.231  0.0221  0.2541  0.3374
 6714SOL    HW131601   2.043   4.371   2.250  0.8882  0.6824 -2.8378
 6714SOL    HW231602   1.921   4.291   2.219 -0.0933 -1.6496 -0.2625
 6715SOL     OW31603   3.394   3.048   0.854  0.8001  0.3490  0.2234
 6715SOL    HW131604   3.428   3.137   0.844 -2.0125  0.9895 -3.7029
 6715SOL    HW231605   3.406   3.034   0.948  0.2279  1.9885  0.5490
 6716SOL     OW31606   1.959   0.096  11.616  0.8575  0.0056  0.5378
 6716SOL    HW131607   1.897   0.111  11.687 -0.1647 -0.4236 -0.2773
 6716SOL    HW231608   1.979   0.187  11.593  1.6985  0.0618  1.4473
 6717SOL     OW31609   0.332   0.801   7.129  0.7627 -0.8479 -0.2620
 6717SOL    HW131610   0.321   0.706   7.136 -0.1631 -0.7903 -0.9003
 6717SOL    HW231611   0.395   0.806   7.201 -1.3529  0.8842  1.4368
 6718SOL     OW31612   3.361   3.613  13.943  0.5512  0.0196 -0.6422
 6718SOL    HW131613   3.419   3.688  13.953  1.1028 -0.5985  0.8933
 6718SOL    HW231614   3.286   3.626  14.001  2.1087  1.9053  0.9466
 6719SOL     OW31615   0.939   1.812   6.492  0.2348  0.1940 -0.0823
 6719SOL    HW131616   0.911   1.725   6.517 -0.5934  0.5710  0.3026
 6719SOL    HW231617   0.893   1.877   6.544 -0.5778 -1.0534  0.7380
 6720SOL     OW31618   2.674   1.283   5.529  0.3604 -0.1264  1.0737
 6720SOL    HW131619   2.714   1.252   5.610 -0.0832  0.2124  1.4248
 6720SOL    HW231620   2.647   1.370   5.558 -1.5799 -0.9095  1.6462
 6721SOL     OW31621   3.772   1.533  15.810  0.2927 -0.1795 -0.2732
 6721SOL    HW131622   3.832   1.498  15.877 -0.3930 -3.3801 -1.3339
 6721SOL    HW231623   3.692   1.487  15.834 -0.7780  2.0415  0.3935
 6722SOL     OW31624   2.172   0.840   6.748 -0.6268  0.1699 -0.4022
 6722SOL    HW131625   2.233   0.865   6.818  0.0164 -2.2371 -0.0670
 6722SOL    HW231626   2.090   0.855   6.795  0.2181 -0.2903  1.2187
 6723SOL     OW31627   1.465   4.023   7.559  0.0229  0.4776  0.1950
 6723SOL    HW131628   1.378   3.985   7.568  0.1993 -0.7873 -3.3070
 6723SOL    HW231629   1.508   4.017   7.644  1.2892 -1.4584 -0.5874
 6724SOL     OW31630   2.429   1.785   6.152  0.3414  0.3825  0.8729
 6724SOL    HW131631   2.429   1.845   6.077 -2.0832 -1.6820 -0.8089
 6724SOL    HW231632   2.500   1.823   6.203 -1.1745  0.3095  3.0637
 6725SOL     OW31633   0.776   1.473   0.899 -0.0835 -0.0872  0.7669
 6725SOL    HW131634   0.692   1.428   0.890 -1.4441  2.5082  0.4981
 6725SOL    HW231635   0.832   1.397   0.919  0.2303 -0.4040 -1.2969
 6726SOL     OW31636   4.261   4.223   5.553 -0.0158 -0.4650 -0.1326
 6726SOL    HW131637   4.232   4.221   5.462 -1.5623  0.0380  0.3494
 6726SOL    HW231638   4.180   4.259   5.589 -0.6730  0.0327 -2.1179
 6727SOL     OW31639   3.218   3.473  12.835 -0.3931 -0.0208  0.0457
 6727SOL    HW131640   3.131   3.505  12.857 -0.5128  0.6675 -1.3937
 6727SOL    HW231641   3.206   3.378  12.837 -3.3958  0.3290 -0.7096
 6728SOL     OW31642   4.171   0.161   1.987 -0.0949  0.2000 -0.8428
 6728SOL    HW131643   4.208   0.073   1.989 -0.8504 -0.1223 -1.0875
 6728SOL    HW231644   4.093   0.148   2.041  1.1337  1.4136  1.2170
 6729SOL     OW31645   0.727   3.180   5.080 -0.1051  0.4482  0.4106
 6729SOL    HW131646   0.750   3.102   5.030  2.0721  0.2795  1.6710
 6729SOL    HW231647   0.812   3.224   5.091 -0.5526  1.1691  0.9564
 6730SOL     OW31648   3.834   0.256   8.964  0.4406 -0.1021 -0.3650
 6730SOL    HW131649   3.848   0.162   8.954  0.7352 -0.2269  1.2370
 6730SOL    HW231650   3.757   0.249   9.021 -0.5495 -1.7632 -1.9242
 6731SOL     OW31651   1.155   0.591   3.260  0.3841  0.3075 -0.1135
 6731SOL    HW131652   1.237   0.566   3.303  1.4838  1.7825 -1.3563
 6731SOL    HW231653   1.179   0.584   3.167 -1.3210  1.1238 -0.6039
 6732SOL     OW31654   0.270   1.679  14.527 -0.0660  0.4612  0.2371
 6732SOL    HW131655   0.280   1.679  14.622  0.8739 -1.4847  0.1400
 6732SOL    HW231656   0.320   1.603  14.497 -3.7039 -1.4820 -0.9152
 6733SOL     OW31657   4.227   1.217   8.605 -0.1907  0.3573  0.4048
 6733SOL    HW131658   4.182   1.181   8.681  3.1120 -0.9609  1.7242
 6733SOL    HW231659   4.187   1.304   8.602  1.5382  1.1169 -0.8642
 6734SOL     OW31660   0.683   2.144   3.573 -0.4453  0.2278  0.1055
 6734SOL    HW131661   0.607   2.202   3.582  0.3090  1.3289 -0.6596
 6734SOL    HW231662   0.745   2.184   3.634 -0.6664 -1.0746  1.1750
 6735SOL     OW31663   0.464   3.922  11.638  0.0655  0.2005  0.3459
 6735SOL    HW131664   0.428   3.855  11.696  2.3487 -0.0415  1.4564
 6735SOL    HW231665   0.384   3.965  11.605  1.5352  1.4149 -1.6893
 6736SOL     OW31666   1.882   1.707   7.576  0.2189 -0.3576  0.2209
 6736SOL    HW131667   1.866   1.689   7.669 -1.5782 -0.9204 -0.1999
 6736SOL    HW231668   1.854   1.798   7.567  1.1411  0.1249  2.1674
 6737SOL     OW31669   2.657   2.325  13.429 -0.1622  0.5923 -0.4894
 6737SOL    HW131670   2.585   2.281  13.383  0.3263  0.6296 -1.2910
 6737SOL    HW231671   2.614   2.395  13.478 -0.4348 -0.0987  0.2612
 6738SOL     OW31672   2.751   3.779  12.740 -0.6083 -0.0496 -0.2317
 6738SOL    HW131673   2.685   3.826  12.790 -0.5899  0.5805 -0.7882
 6738SOL    HW231674   2.696   3.705  12.713  0.0642 -0.9087  0.7591
 6739SOL     OW31675   0.759   4.602  11.844 -0.3273 -0.4787  0.0777
 6739SOL    HW131676   0.684   4.569  11.893 -0.2784 -0.9763 -0.1775
 6739SOL    HW231677   0.815   4.524  11.851  2.2332  1.3230 -0.2227
 6740SOL     OW31678   3.152   0.659   2.341  0.1563  0.4521 -0.4397
 6740SOL    HW131679   3.114   0.645   2.254 -0.6430  1.4259 -0.2440
 6740SOL    HW231680   3.074   0.651   2.397 -0.4375  0.3823 -1.2792
 6741SOL     OW31681   2.443   1.976   5.944  0.6515 -0.1164 -0.3510
 6741SOL    HW131682   2.506   2.048   5.951 -1.3001  1.4985  0.6651
 6741SOL    HW231683   2.366   2.030   5.961  1.1024  0.3552  0.1942
 6742SOL     OW31684   0.990   1.914   1.975 -0.0892 -0.0307 -0.1577
 6742SOL    HW131685   0.923   1.847   1.965 -0.9139  0.6031  1.1759
 6742SOL    HW231686   0.928   1.986   1.967 -1.6096 -1.4759 -1.2130
 6743SOL     OW31687   0.108   0.135   6.683 -0.3632  0.1251  0.0152
 6743SOL    HW131688   0.143   0.086   6.608  2.0961  2.6174 -0.4894
 6743SOL    HW231689   0.083   0.065   6.744  2.0400 -1.9686 -1.3572
 6744SOL     OW31690   4.611   2.916   8.605  0.1474 -0.2244 -0.3155
 6744SOL    HW131691   4.599   2.955   8.692  0.4093  1.4986 -1.0656
 6744SOL    HW231692   4.575   2.988   8.554 -0.7330 -0.8739 -0.6285
 6745SOL     OW31693   3.040   2.631   1.298  0.1120  0.1948 -0.0692
 6745SOL    HW131694   3.027   2.537   1.311 -2.0187  0.3171 -1.2911
 6745SOL    HW231695   3.128   2.625   1.263 -1.0352 -0.8084 -2.8045
 6746SOL     OW31696   0.518   0.681  12.301  0.2133  0.7939 -0.0569
 6746SOL    HW131697   0.436   0.667  12.253  0.4791  1.3033 -0.6556
 6746SOL    HW231698   0.505   0.617  12.371  0.1140  0.0014 -0.7827
 6747SOL     OW31699   1.732   2.406   6.421 -0.6706  0.4141 -0.0284
 6747SOL    HW131700   1.689   2.387   6.337 -0.6731 -1.1441  0.3150
 6747SOL    HW231701   1.707   2.340   6.485  1.0354  0.6389  0.8813
 6748SOL     OW31702   1.729   3.192  16.521  0.3071 -0.4581 -0.3235
 6748SOL    HW131703   1.757   3.206  16.431  1.1061  1.0475  0.1686
 6748SOL    HW231704   1.762   3.102  16.525  2.1426  0.2081 -0.4094
 6749SOL     OW31705   1.012   2.048   2.773 -0.2648 -0.0626  0.2120
 6749SOL    HW131706   0.965   2.073   2.853 -1.2685  1.7425 -0.9237
 6749SOL    HW231707   1.093   2.009   2.804 -0.8279 -1.6108 -0.2788
 6750SOL     OW31708   0.166   1.541   4.705 -0.0418  0.1561  0.3387
 6750SOL    HW131709   0.206   1.610   4.651 -1.5854  0.1238 -0.8274
 6750SOL    HW231710   0.243   1.503   4.747 -0.6638  0.2189  1.5253
 6751SOL     OW31711   0.932   0.109   7.852  0.7207  0.2045 -0.1779
 6751SOL    HW131712   0.989   0.129   7.926  0.2989 -0.0996  0.2267
 6751SOL    HW231713   0.986   0.070   7.784 -0.0729 -0.9575 -0.1300
 6752SOL     OW31714   4.181   1.469   0.371 -0.1749 -0.0257  0.2230
 6752SOL    HW131715   4.200   1.375   0.373 -1.1279 -0.2602 -2.2887
 6752SOL    HW231716   4.272   1.498   0.369 -0.8184  1.9294  0.0052
 6753SOL     OW31717   2.544   4.426   3.170 -0.2816 -0.5001  0.1318
 6753SOL    HW131718   2.593   4.417   3.088 -0.9130 -0.8097 -0.2090
 6753SOL    HW231719   2.613   4.390   3.226  0.2064 -1.1756 -0.8978
 6754SOL     OW31720   2.713   2.297   0.822  0.4836  0.0813  0.1662
 6754SOL    HW131721   2.661   2.324   0.746 -0.3959 -1.7125  0.1411
 6754SOL    HW231722   2.670   2.354   0.886  1.9896  0.0189  1.2267
 6755SOL     OW31723   1.080   4.060   7.402  0.0012  0.0386  0.1176
 6755SOL    HW131724   1.118   4.148   7.400 -0.3933  0.1794 -1.0457
 6755SOL    HW231725   1.086   4.043   7.308 -1.2415  0.1022  0.0236
 6756SOL     OW31726   2.357   2.853  17.468 -0.1134 -0.1747 -0.6930
 6756SOL    HW131727   2.378   2.884  17.380  1.0339  0.0109 -0.3491
 6756SOL    HW231728   2.273   2.897  17.480  1.3415  1.8979  1.6919
 6757SOL     OW31729   3.271   3.306  10.980 -0.0302 -0.1325 -0.2123
 6757SOL    HW131730   3.318   3.224  10.992  1.4411  0.9694  1.4770
 6757SOL    HW231731   3.221   3.286  10.900  0.4632 -1.2404 -0.2391
 6758SOL     OW31732   2.841   4.186   9.943  0.2887  0.2480  0.2471
 6758SOL    HW131733   2.800   4.204   9.859  0.5015  2.3404  0.5797
 6758SOL    HW231734   2.847   4.275   9.979  1.5893 -0.3248  1.4614
 6759SOL     OW31735   0.513   4.250   6.667 -0.0104 -0.0411  0.3772
 6759SOL    HW131736   0.486   4.336   6.699  4.2656  2.2246 -2.0611
 6759SOL    HW231737   0.425   4.214   6.653  0.8056 -1.7847 -0.2746
 6760SOL     OW31738   2.399   0.240  10.260 -0.3960 -0.1464  0.3407
 6760SOL    HW131739   2.487   0.277  10.266 -0.2529 -0.4324  0.0186
 6760SOL    HW231740   2.349   0.296  10.319  2.3627  1.3733  1.2091
 6761SOL     OW31741   4.685   1.784   5.557  0.4756 -0.0408 -0.4678
 6761SOL    HW131742   4.595   1.751   5.555 -0.2549  1.5504  4.2549
 6761SOL    HW231743   4.675   1.829   5.641  0.6697  2.0077 -1.5448
 6762SOL     OW31744   4.537   1.311  12.763 -0.2554  0.0826  0.0101
 6762SOL    HW131745   4.599   1.246  12.796  3.8933  2.4924 -3.0322
 6762SOL    HW231746   4.494   1.258  12.696  0.4503  0.4545 -0.7378
 6763SOL     OW31747   4.150   0.653   3.445 -0.0866 -0.0291  0.5890
 6763SOL    HW131748   4.177   0.611   3.364 -2.4112  1.1354 -0.7741
 6763SOL    HW231749   4.166   0.741   3.411 -1.2215 -0.0219  0.0846
 6764SOL     OW31750   3.874   4.071   5.570  0.0035  0.6377 -0.0550
 6764SOL    HW131751   3.840   4.008   5.635  0.3144  0.3794 -0.1430
 6764SOL    HW231752   3.889   4.147   5.626 -1.1338  0.4213  0.5657
 6765SOL     OW31753   0.417   3.254  10.521  0.3433  0.5278 -0.3944
 6765SOL    HW131754   0.442   3.303  10.600 -2.6117  0.8072  0.3766
 6765SOL    HW231755   0.346   3.198  10.552 -0.8936  2.4444  0.2303
 6766SOL     OW31756   2.703   4.467   6.922  0.4835 -0.3976 -0.5354
 6766SOL    HW131757   2.778   4.455   6.980 -0.5740 -0.8248  0.7491
 6766SOL    HW231758   2.749   4.503   6.846  0.5291 -0.8265 -0.7098
 6767SOL     OW31759   0.816   2.074   2.247 -0.4077  0.0170  0.2230
 6767SOL    HW131760   0.769   1.990   2.238 -1.8242  1.0163 -1.9045
 6767SOL    HW231761   0.838   2.094   2.156  0.5572  0.5054  0.5646
 6768SOL     OW31762   4.679   3.512   5.676  0.1132  0.3766  0.3055
 6768SOL    HW131763   4.592   3.482   5.651  1.2294 -0.3674 -2.6838
 6768SOL    HW231764   4.693   3.587   5.619 -0.2214 -0.4081 -0.8084
 6769SOL     OW31765   2.660   1.540   2.966 -0.0847  0.0741  0.1162
 6769SOL    HW131766   2.709   1.469   3.007 -0.9764  0.4651  1.8714
 6769SOL    HW231767   2.635   1.594   3.041 -0.2811  2.4605 -1.6538
 6770SOL     OW31768   1.487   0.902   2.886 -0.0512  0.1799  0.0455
 6770SOL    HW131769   1.410   0.935   2.934 -1.6832 -0.5473 -2.0669
 6770SOL    HW231770   1.475   0.807   2.878 -1.5692  0.5776 -2.2133
 6771SOL     OW31771   1.024   3.073  13.158 -0.2415  0.1198  0.2413
 6771SOL    HW131772   1.038   3.166  13.176  1.1005 -0.0895  0.2650
 6771SOL    HW231773   1.011   3.077  13.063  0.4413  2.2202  0.2460
 6772SOL     OW31774   0.552   0.641   2.192 -0.1165  0.3208  0.0185
 6772SOL    HW131775   0.475   0.622   2.246 -0.3793 -0.9504 -0.8141
 6772SOL    HW231776   0.540   0.589   2.113  2.7275  0.5810 -0.5815
 6773SOL     OW31777   2.129   1.254   6.541 -0.1843  0.4330  0.2630
 6773SOL    HW131778   2.191   1.270   6.469 -0.9508 -0.7308 -0.6334
 6773SOL    HW231779   2.173   1.313   6.604  1.1588  1.0762 -1.2595
 6774SOL     OW31780   3.621   3.317  12.196  0.0985 -0.3305  0.0197
 6774SOL    HW131781   3.584   3.398  12.162  0.6123  0.7435  1.9859
 6774SOL    HW231782   3.556   3.254  12.166 -0.6661  1.2396 -1.6285
 6775SOL     OW31783   1.079   4.096   5.623  0.2530  0.2736 -0.1768
 6775SOL    HW131784   1.062   4.180   5.581 -0.7810  0.9025  1.5032
 6775SOL    HW231785   1.091   4.125   5.713  1.3938  1.0956 -0.5956
 6776SOL     OW31786   3.264   3.946  11.765 -0.2094  0.6454 -0.0619
 6776SOL    HW131787   3.186   4.001  11.754 -2.6465 -2.5721  1.0680
 6776SOL    HW231788   3.288   3.936  11.673 -0.3166 -0.0238 -0.0165
 6777SOL     OW31789   3.296   2.265   7.318  0.7268 -0.0583 -0.2562
 6777SOL    HW131790   3.330   2.221   7.396 -0.6469  0.7668  0.8177
 6777SOL    HW231791   3.259   2.187   7.279  1.4336 -0.5981  0.1443
 6778SOL     OW31792   4.411   1.506  15.909 -0.5236  0.5638 -0.0033
 6778SOL    HW131793   4.370   1.482  15.826  0.1938 -2.1916  0.4252
 6778SOL    HW231794   4.331   1.512  15.960  0.5110  2.8770  1.3190
 6779SOL     OW31795   4.131   0.011   3.224  0.0266  0.0330 -0.2961
 6779SOL    HW131796   4.109   0.102   3.246  2.1387  0.9259 -1.9452
 6779SOL    HW231797   4.184   0.003   3.303 -0.6379  3.2657  0.4869
 6780SOL     OW31798   2.428   0.428   6.227 -0.3434  0.2698 -0.3126
 6780SOL    HW131799   2.360   0.450   6.292  1.1516  0.8848  1.0360
 6780SOL    HW231800   2.395   0.347   6.187 -0.1197 -0.4672  0.9924
 6781SOL     OW31801   1.001   4.526   3.717 -0.5218 -0.0772  1.1726
 6781SOL    HW131802   0.945   4.599   3.689  2.0765  1.2619 -0.5078
 6781SOL    HW231803   1.068   4.571   3.769  1.2991 -1.3069 -0.1344
 6782SOL     OW31804   0.013   2.641   8.571  0.1147  0.1154 -0.3172
 6782SOL    HW131805   4.685   2.719   8.590 -0.6083 -0.1963 -1.0086
 6782SOL    HW231806   4.692   2.571   8.618  0.6327  0.1331  0.2004
 6783SOL     OW31807   4.102   2.367   2.507 -0.5485  0.0529 -0.1210
 6783SOL    HW131808   4.014   2.402   2.516 -0.6132 -0.2423  0.3662
 6783SOL    HW231809   4.120   2.417   2.427 -0.6467  2.1071  1.1649
 6784SOL     OW31810   4.651   3.782   3.247  0.8162 -0.1662 -0.1422
 6784SOL    HW131811   4.702   3.715   3.201  3.0184  1.7010 -0.4182
 6784SOL    HW231812   4.670   3.853   3.186 -2.3645 -0.1892 -1.1177
 6785SOL     OW31813   0.281   0.102   1.386 -0.6751  0.0569 -0.1891
 6785SOL    HW131814   0.313   0.134   1.301  0.0941 -2.3379 -0.7802
 6785SOL    HW231815   0.304   0.180   1.436 -0.1331 -0.4185  0.2943
 6786SOL     OW31816   2.776   3.846  17.687  0.0128  0.4916  0.0549
 6786SOL    HW131817   2.843   3.787   0.026  1.1323  2.4508  1.2792
 6786SOL    HW231818   2.695   3.812   0.031  0.0750 -2.1132 -2.1432
 6787SOL     OW31819   1.372   4.097   8.347  0.0261  0.1203 -0.5591
 6787SOL    HW131820   1.284   4.083   8.381  0.6266 -2.4419 -0.0485
 6787SOL    HW231821   1.364   4.049   8.264 -0.8463 -0.4401 -0.1486
 6788SOL     OW31822   4.151   4.707  11.325 -0.1372 -0.3387  0.4198
 6788SOL    HW131823   4.077   0.045  11.328  1.2516  1.4388 -2.1802
 6788SOL    HW231824   4.129   4.659  11.404 -1.2592 -0.0481  0.2927
 6789SOL     OW31825   2.985   0.296  15.775  0.0904  0.5881 -0.3306
 6789SOL    HW131826   2.950   0.372  15.729 -0.1551  0.2694 -0.6684
 6789SOL    HW231827   2.994   0.232  15.705 -0.1012 -1.3121  1.3664
 6790SOL     OW31828   0.886   3.913  13.564  0.5452  0.1634  0.0468
 6790SOL    HW131829   0.901   3.915  13.469  2.4213  0.0693  0.3369
 6790SOL    HW231830   0.962   3.964  13.593 -0.2806  0.4078  1.7743
 6791SOL     OW31831   2.838   0.174  17.547 -0.3641 -0.0043  0.0076
 6791SOL    HW131832   2.874   0.240  17.487  0.3406  0.2452  0.7022
 6791SOL    HW231833   2.833   0.217  17.632 -0.3663  1.5391 -0.7725
 6792SOL     OW31834   0.452   0.087   9.043  0.1287  0.0218  0.4142
 6792SOL    HW131835   0.414   0.009   9.085 -1.3738  0.6343  0.2105
 6792SOL    HW231836   0.372   0.128   9.011 -1.3595 -3.2607 -0.1355
 6793SOL     OW31837   1.456   4.269   6.137  0.5040  0.2690 -0.1478
 6793SOL    HW131838   1.439   4.253   6.044  0.9557  1.4163 -0.4299
 6793SOL    HW231839   1.543   4.304   6.156  0.4833  1.0771 -1.5216
 6794SOL     OW31840   4.498   4.250   1.546 -0.3926  0.0565  0.3971
 6794SOL    HW131841   4.577   4.200   1.564  1.1254  2.5237  0.5713
 6794SOL    HW231842   4.435   4.184   1.519  0.1022  0.7539 -2.4418
 6795SOL     OW31843   1.309   0.694   6.028  0.0316 -0.0972  0.3778
 6795SOL    HW131844   1.368   0.759   5.990  0.0748  0.0110  0.6319
 6795SOL    HW231845   1.367   0.665   6.098  1.9675 -1.2509 -1.6652
 6796SOL     OW31846   3.231   3.443   3.520 -0.4401 -0.3645  0.4437
 6796SOL    HW131847   3.326   3.431   3.517 -0.2738  0.5514  2.4932
 6796SOL    HW231848   3.204   3.420   3.431 -1.0561 -2.5275  1.1732
 6797SOL     OW31849   3.564   3.576  12.137 -0.3421 -0.3996  0.1321
 6797SOL    HW131850   3.589   3.645  12.076 -0.1192 -0.8668 -0.3030
 6797SOL    HW231851   3.543   3.630  12.214 -2.0566 -0.3968 -0.3425
 6798SOL     OW31852   0.201   2.562   1.941  0.0277  0.1841  0.2424
 6798SOL    HW131853   0.292   2.562   1.909 -0.3701  0.9686 -0.9024
 6798SOL    HW231854   0.202   2.467   1.954 -0.4773  0.1638  0.1186
 6799SOL     OW31855   3.839   0.121  16.899  0.6077 -0.1149  0.7357
 6799SOL    HW131856   3.835   0.181  16.974 -0.0605  1.7348 -0.7692
 6799SOL    HW231857   3.930   0.118  16.869  0.7346  1.9422  0.9013
 6800SOL     OW31858   3.651   1.413   6.126 -0.1860  0.3199 -0.8243
 6800SOL    HW131859   3.556   1.412   6.120 -0.2827  0.5988  0.7481
 6800SOL    HW231860   3.664   1.340   6.186 -0.8379 -0.3666 -1.5209
 6801SOL     OW31861   0.893   2.483  11.157 -0.6463  0.7205  0.3200
 6801SOL    HW131862   0.875   2.575  11.175 -0.3092  0.9436 -0.4986
 6801SOL    HW231863   0.816   2.453  11.110 -0.7474  0.8706  0.3908
 6802SOL     OW31864   0.402   1.251   3.061  0.2807 -0.1201 -0.4052
 6802SOL    HW131865   0.348   1.178   3.031  1.1707 -0.0085 -2.3094
 6802SOL    HW231866   0.415   1.296   2.977  0.3230  0.3239 -0.1606
 6803SOL     OW31867   2.028   1.907   8.277 -0.7736  0.2521 -0.1860
 6803SOL    HW131868   2.071   1.970   8.336  0.5837 -0.3985 -0.4660
 6803SOL    HW231869   1.953   1.957   8.246  0.7154  4.0389  2.2140
 6804SOL     OW31870   1.679   1.218   6.151  0.5608 -0.0176 -0.2205
 6804SOL    HW131871   1.712   1.174   6.072 -1.1438 -0.1165 -0.8803
 6804SOL    HW231872   1.703   1.307   6.123  0.7628  0.3123  1.0196
 6805SOL     OW31873   1.623   0.897  11.794  0.3746 -0.7443  0.1955
 6805SOL    HW131874   1.625   0.823  11.855  0.0465  0.0823  1.2074
 6805SOL    HW231875   1.644   0.974  11.846  0.7305  0.0771 -1.1865
 6806SOL     OW31876   2.198   2.077   2.320 -0.0711 -0.3393  0.4832
 6806SOL    HW131877   2.291   2.082   2.301 -0.2077 -0.8356 -0.3343
 6806SOL    HW231878   2.186   2.169   2.297  0.1300 -0.0737  1.4344
 6807SOL     OW31879   2.610   1.318  11.755 -0.1113 -0.3705  0.0420
 6807SOL    HW131880   2.703   1.298  11.744 -0.1333 -1.2023  1.3978
 6807SOL    HW231881   2.616   1.365  11.838 -4.1246 -0.7093  0.5153
 6808SOL     OW31882   3.777   2.300   7.781  0.7433 -0.3561 -0.3770
 6808SOL    HW131883   3.821   2.372   7.826 -1.1855 -1.7228  3.6569
 6808SOL    HW231884   3.842   2.269   7.718 -0.3026 -3.1363 -0.1018
 6809SOL     OW31885   3.014   1.569   3.042  0.8389 -0.1008 -0.4166
 6809SOL    HW131886   2.971   1.486   3.063 -0.3540  0.3809 -0.9777
 6809SOL    HW231887   2.951   1.636   3.068 -0.7743 -1.1605 -1.6172
 6810SOL     OW31888   0.393   0.655   0.466 -0.3032  0.4520  0.0169
 6810SOL    HW131889   0.378   0.747   0.444 -2.2523  0.1353 -0.0029
 6810SOL    HW231890   0.413   0.655   0.559 -0.6336 -2.2202  0.1014
 6811SOL     OW31891   2.205   4.709   8.920 -0.1246 -0.2453  0.1938
 6811SOL    HW131892   2.249   0.057   8.967  1.4485  0.9314 -3.0562
 6811SOL    HW231893   2.251   4.634   8.958 -0.8630 -0.5422  0.5073
 6812SOL     OW31894   4.425   0.543   8.150  0.1748  0.2734  0.3520
 6812SOL    HW131895   4.474   0.496   8.082  0.3064  0.4790  0.3032
 6812SOL    HW231896   4.489   0.533   8.220  0.4576  1.0971  0.2093
 6813SOL     OW31897   3.052   1.973   9.521  0.3928  0.4451  0.3416
 6813SOL    HW131898   3.035   1.931   9.437  0.9399  0.0103  0.4437
 6813SOL    HW231899   3.020   2.063   9.516 -1.6083 -0.2807  0.1333
 6814SOL     OW31900   0.516   2.183   7.514  0.0969 -0.5477 -0.1845
 6814SOL    HW131901   0.584   2.143   7.567 -0.9560 -3.7942 -1.2397
 6814SOL    HW231902   0.552   2.174   7.426  2.4129 -2.3923  0.9871
 6815SOL     OW31903   3.863   4.721   4.524 -0.3969 -0.1756  0.0421
 6815SOL    HW131904   3.864   0.028   4.615  0.0251  1.8280 -0.6436
 6815SOL    HW231905   3.892   4.630   4.525  2.4728  0.7265  0.1762
 6816SOL     OW31906   0.058   2.693   8.295 -0.8712 -0.0887  0.0494
 6816SOL    HW131907   0.006   2.770   8.272 -3.1189 -1.6226 -0.0227
 6816SOL    HW231908   0.036   2.679   8.387 -0.1892 -0.5032  0.1459
 6817SOL     OW31909   1.123   2.291   6.695 -0.3033  0.5335  0.2040
 6817SOL    HW131910   1.182   2.222   6.724  0.7825  1.5812  0.4477
 6817SOL    HW231911   1.055   2.286   6.762 -0.2051 -1.1164  0.1708
 6818SOL     OW31912   4.611   2.876   2.065  0.3125 -0.4197  0.3287
 6818SOL    HW131913   4.683   2.827   2.024 -0.5392 -0.2865 -1.3418
 6818SOL    HW231914   4.641   2.881   2.155 -2.4407  0.4082  1.1918
 6819SOL     OW31915   2.158   4.509  13.320  0.5801  0.3892  0.3794
 6819SOL    HW131916   2.199   4.576  13.266  0.2240  1.1082  1.0019
 6819SOL    HW231917   2.231   4.480  13.376  1.1434  0.2555 -0.4312
 6820SOL     OW31918   1.012   2.514   1.236  0.8911  0.2233  0.0682
 6820SOL    HW131919   0.981   2.423   1.239 -0.2802  0.6284  0.1839
 6820SOL    HW231920   1.030   2.529   1.329  0.7685 -0.4463  0.2022
 6821SOL     OW31921   1.647   2.002   3.807 -0.5679  0.1170  0.1233
 6821SOL    HW131922   1.603   1.917   3.814 -0.4203 -0.0189 -0.6262
 6821SOL    HW231923   1.684   1.999   3.896  1.3952 -1.4168 -0.7541
 6822SOL     OW31924   4.423   3.133  13.470 -0.2748 -0.0256  0.1650
 6822SOL    HW131925   4.450   3.050  13.511 -0.5327 -0.7755 -1.2038
 6822SOL    HW231926   4.406   3.108  13.379 -0.0466 -1.3701  0.4866
 6823SOL     OW31927   3.017   3.045   3.892 -0.2973  0.2725 -0.4522
 6823SOL    HW131928   2.944   3.105   3.907  0.2049  0.3259  1.8083
 6823SOL    HW231929   3.081   3.077   3.956 -1.3341  0.5564  0.4425
 6824SOL     OW31930   2.283   0.176   2.727  0.0660  0.0034  0.0900
 6824SOL    HW131931   2.272   0.094   2.679  0.9759  0.4412 -0.8756
 6824SOL    HW231932   2.364   0.211   2.689 -0.8985 -0.8186 -2.7152
 6825SOL     OW31933   3.103   4.073   2.162  0.3184 -0.0908  0.1077
 6825SOL    HW131934   3.078   4.023   2.084 -0.2657  0.2021  0.1080
 6825SOL    HW231935   3.026   4.072   2.218  0.8067  0.9071  0.7938
 6826SOL     OW31936   2.514   4.196  17.428 -0.2426  0.1516  0.4083
 6826SOL    HW131937   2.541   4.240  17.508 -0.3030  0.2826  0.3570
 6826SOL    HW231938   2.420   4.210  17.423 -0.5231 -1.8426  0.1306
 6827SOL     OW31939   0.664   1.014  16.704 -0.4208 -0.3380  0.0515
 6827SOL    HW131940   0.715   1.095  16.713 -0.9856  0.2580 -2.2136
 6827SOL    HW231941   0.657   1.035  16.611 -1.7997  3.2005  0.9258
 6828SOL     OW31942   4.096   2.262   3.631  0.3854  0.5015  0.0153
 6828SOL    HW131943   4.020   2.319   3.620 -0.1325 -0.7797 -3.0587
 6828SOL    HW231944   4.166   2.326   3.629  2.1707 -1.3619  2.4723
 6829SOL     OW31945   3.556   1.597   9.814 -0.3520 -0.5336  0.6892
 6829SOL    HW131946   3.497   1.574   9.743  1.7012 -0.2962 -1.0823
 6829SOL    HW231947   3.571   1.690   9.797  1.7737 -0.6970  1.6293
 6830SOL     OW31948   0.744   1.752   3.846 -0.2258 -0.4438  0.6432
 6830SOL    HW131949   0.754   1.821   3.911 -0.3028  1.1877 -1.0798
 6830SOL    HW231950   0.819   1.771   3.789  1.1575 -1.9542  1.9587
 6831SOL     OW31951   0.557   1.125  14.648  0.3898  0.4196 -0.2405
 6831SOL    HW131952   0.619   1.191  14.618 -0.2282  0.6239 -1.0992
 6831SOL    HW231953   0.518   1.098  14.565 -0.5857 -0.0498  0.3719
 6832SOL     OW31954   1.808   2.509   5.890  0.5938  0.7225 -0.5312
 6832SOL    HW131955   1.883   2.470   5.935  0.6955  0.6592 -0.7558
 6832SOL    HW231956   1.786   2.569   5.961  1.2246 -0.8880  1.0317
 6833SOL     OW31957   4.120   3.833   5.318 -0.1142 -0.1353 -0.4186
 6833SOL    HW131958   4.162   3.871   5.396  1.1700 -3.0981  0.3605
 6833SOL    HW231959   4.070   3.774   5.375  0.5744  1.9608  2.3720
 6834SOL     OW31960   3.403   0.524   8.418 -0.8474  0.2200  0.6166
 6834SOL    HW131961   3.438   0.533   8.507  1.0242 -1.8087  0.1036
 6834SOL    HW231962   3.331   0.587   8.417 -2.2993 -1.4445  0.6292
 6835SOL     OW31963   4.427   1.915   9.322  0.0910  0.2448  0.1729
 6835SOL    HW131964   4.415   1.988   9.382  1.3595  1.4173 -0.9934
 6835SOL    HW231965   4.471   1.854   9.381  0.1220  0.8413  0.7670
 6836SOL     OW31966   1.650   3.831   4.065  0.2579  0.2153 -0.1377
 6836SOL    HW131967   1.642   3.787   3.980  0.6294  0.4773 -0.3094
 6836SOL    HW231968   1.728   3.788   4.099  0.7583  1.3314  0.1055
 6837SOL     OW31969   3.210   1.667   9.388 -0.4283 -0.1154  0.2513
 6837SOL    HW131970   3.138   1.705   9.337 -1.2178  1.3969  2.4571
 6837SOL    HW231971   3.164   1.661   9.472 -2.9875  1.0189 -1.0530
 6838SOL     OW31972   1.905   1.886  16.847  0.1887  0.1328  0.3447
 6838SOL    HW131973   1.943   1.950  16.787  1.4039 -2.0740 -1.2533
 6838SOL    HW231974   1.916   1.803  16.800  0.7620  1.0275 -1.0859
 6839SOL     OW31975   2.492   1.086   7.244  0.7047 -0.4078  0.4523
 6839SOL    HW131976   2.559   1.101   7.177 -0.1958  0.7977 -0.1655
 6839SOL    HW231977   2.518   0.999   7.276  0.3605 -0.1593  1.3875
 6840SOL     OW31978   1.824   2.027   8.159  0.4563 -0.1564 -0.2054
 6840SOL    HW131979   1.805   2.118   8.138  1.8116 -0.0585 -0.9933
 6840SOL    HW231980   1.763   1.989   8.095 -0.1750 -0.0038  0.3031
 6841SOL     OW31981   3.372   4.663   7.596  0.0161  0.5244 -0.7609
 6841SOL    HW131982   3.305   4.692   7.657 -1.8801 -0.6650 -2.2477
 6841SOL    HW231983   3.330   4.586   7.555  0.4285 -0.0452 -0.1140
 6842SOL     OW31984   4.532   3.698   6.322 -0.1530 -0.1431  0.0524
 6842SOL    HW131985   4.574   3.784   6.324 -2.0259  0.7799 -0.2719
 6842SOL    HW231986   4.595   3.628   6.307 -0.6637 -1.2780  3.0881
 6843SOL     OW31987   1.992   3.405  10.783  0.5112 -0.2137 -0.2574
 6843SOL    HW131988   1.908   3.449  10.770 -0.5232 -2.4094 -1.0457
 6843SOL    HW231989   2.010   3.412  10.877  2.4632 -0.0139 -0.6496
 6844SOL     OW31990   2.717   3.329   7.563 -0.1270  0.3954 -0.2803
 6844SOL    HW131991   2.761   3.294   7.641  1.0336 -0.3463 -1.2715
 6844SOL    HW231992   2.683   3.412   7.597 -3.0007 -1.5370  1.5628
 6845SOL     OW31993   2.376   1.945   7.581  0.1768 -0.0177 -0.0512
 6845SOL    HW131994   2.313   1.892   7.629  1.1581 -1.1026  0.0553
 6845SOL    HW231995   2.326   2.024   7.561 -0.6195 -0.4405  0.3049
 6846SOL     OW31996   0.708   4.144   7.214  0.7321  0.1013  0.1637
 6846SOL    HW131997   0.631   4.088   7.226 -1.0032  2.3021 -0.7033
 6846SOL    HW231998   0.761   4.108   7.143  1.4271 -2.0596  1.8048
 6847SOL     OW31999   0.519   0.054  16.162  0.1734  0.9352  0.2205
 6847SOL    HW132000   0.444   0.022  16.111  0.0287  0.0052  1.0167
 6847SOL    HW232001   0.538   4.705  16.221 -1.1233 -1.1814 -1.9500
 6848SOL     OW32002   4.654   4.277   5.994 -0.2475  0.5725  0.0025
 6848SOL    HW132003   0.003   4.248   6.049  0.1091  1.7259  0.1360
 6848SOL    HW232004   4.698   4.276   5.909  1.4753  2.5508  0.8708
 6849SOL     OW32005   3.643   4.388   8.150 -0.2832  0.0388 -0.5804
 6849SOL    HW132006   3.580   4.336   8.100 -2.2449  0.9649  0.9225
 6849SOL    HW232007   3.620   4.476   8.120 -2.6949  0.4925  2.6388
 6850SOL     OW32008   0.336   0.703  10.720 -0.2743  0.1416  0.6069
 6850SOL    HW132009   0.292   0.730  10.801 -1.0858  2.0072 -0.4635
 6850SOL    HW232010   0.360   0.783  10.674  0.4443 -1.3313 -1.5314
 6851SOL     OW32011   2.946   3.603   9.437 -0.4221  0.2368 -0.1287
 6851SOL    HW132012   2.953   3.539   9.508 -0.0304 -1.3238 -1.5562
 6851SOL    HW232013   2.856   3.601   9.406 -0.8261 -0.1150  1.0822
 6852SOL     OW32014   1.583   4.352  12.409  0.7071 -0.2131  0.4451
 6852SOL    HW132015   1.648   4.403  12.457  2.6825  0.1294 -2.6194
 6852SOL    HW232016   1.591   4.394  12.324 -0.0063  2.8887  1.9127
 6853SOL     OW32017   3.545   3.073   8.168  0.1603 -0.0475 -0.2360
 6853SOL    HW132018   3.496   2.991   8.160 -1.2555  0.7670  0.1427
 6853SOL    HW232019   3.631   3.037   8.190 -0.8154 -2.1046  0.1598
 6854SOL     OW32020   2.906   2.577   0.791  0.2113 -0.4282  0.1518
 6854SOL    HW132021   2.861   2.645   0.741  2.3557  0.6654 -0.3073
 6854SOL    HW232022   2.845   2.558   0.862 -1.4673  1.7101 -0.7011
 6855SOL     OW32023   2.208   2.108   7.794  0.3571  0.7714 -0.4579
 6855SOL    HW132024   2.196   2.049   7.868 -0.7998 -1.1031 -2.1138
 6855SOL    HW232025   2.118   2.139   7.786 -0.0703 -0.4174 -0.2428
 6856SOL     OW32026   3.796   0.340   0.185  0.0938 -0.2748  0.4658
 6856SOL    HW132027   3.890   0.328   0.178  0.0040 -0.9910  0.4475
 6856SOL    HW232028   3.770   0.272   0.248  0.3281  0.2215  1.0917
 6857SOL     OW32029   4.592   4.168  11.929  0.0675 -0.0428 -0.0262
 6857SOL    HW132030   4.590   4.257  11.895 -1.1125 -0.4574 -1.0316
 6857SOL    HW232031   4.597   4.114  11.851  1.1375  0.0863 -0.0481
 6858SOL     OW32032   4.437   1.595  10.662  0.3554  0.5143  0.4717
 6858SOL    HW132033   4.348   1.614  10.634  0.5399  1.0036  0.2087
 6858SOL    HW232034   4.449   1.506  10.629  0.6096  1.2280 -1.3892
 6859SOL     OW32035   1.850   1.832   3.676 -0.1519 -0.9039 -0.1269
 6859SOL    HW132036   1.793   1.901   3.709  2.4258  0.6902  1.0779
 6859SOL    HW232037   1.817   1.829   3.586 -0.0812 -3.3002 -0.0773
 6860SOL     OW32038   3.227   2.503   3.372  0.1599 -0.3065  0.2241
 6860SOL    HW132039   3.183   2.586   3.359 -1.3825 -0.9720  1.2148
 6860SOL    HW232040   3.284   2.515   3.448  0.1658  0.2079  0.1334
 6861SOL     OW32041   0.542   0.815   8.297  0.0084  0.0778 -0.2187
 6861SOL    HW132042   0.457   0.860   8.297 -0.3811 -0.6844  1.7137
 6861SOL    HW232043   0.580   0.838   8.212 -1.1117 -0.1913 -0.7912
 6862SOL     OW32044   3.933   0.272   8.303  0.1915  0.0478 -0.0427
 6862SOL    HW132045   3.902   0.224   8.226  0.5971  0.8207 -0.6833
 6862SOL    HW232046   3.930   0.363   8.273 -1.4511  0.9906  2.9477
 6863SOL     OW32047   3.894   4.651   1.480  0.1091 -0.0647 -0.3575
 6863SOL    HW132048   3.945   4.574   1.504 -1.1893 -0.3311  1.6032
 6863SOL    HW232049   3.928   4.688   1.399  1.3653  1.4157  0.8596
 6864SOL     OW32050   4.263   3.541   6.061 -0.0683 -0.5637 -0.1830
 6864SOL    HW132051   4.249   3.548   6.156 -3.4104  2.2297 -0.8898
 6864SOL    HW232052   4.339   3.598   6.050 -1.2629  1.0645 -0.0111
 6865SOL     OW32053   4.667   2.439   7.095 -0.2189 -0.8004  0.3323
 6865SOL    HW132054   4.635   2.505   7.157 -1.2342 -0.7536 -0.2430
 6865SOL    HW232055   0.019   2.410   7.147 -0.4129  1.0381  1.6371
 6866SOL     OW32056   2.161   0.382   5.318 -0.8793 -0.1597  0.4804
 6866SOL    HW132057   2.224   0.313   5.296  1.7457  2.0821  1.1820
 6866SOL    HW232058   2.207   0.425   5.389 -3.0738  3.1032 -0.0823
 6867SOL     OW32059   0.627   2.751  15.453  0.1089  0.3083  0.6371
 6867SOL    HW132060   0.698   2.773  15.392 -0.4175 -1.5894 -0.6757
 6867SOL    HW232061   0.657   2.763  15.543  2.0618 -1.9953  0.2931
 6868SOL     OW32062   2.565   3.474   8.836  0.3079  0.2568  0.3766
 6868SOL    HW132063   2.490   3.533   8.841  0.3014  0.3336 -0.8020
 6868SOL    HW232064   2.597   3.510   8.919  0.9287 -0.3093  0.3793
 6869SOL     OW32065   1.706   3.777   5.486  0.4125  0.0028  0.3780
 6869SOL    HW132066   1.779   3.736   5.534  0.8564 -0.4935 -0.7079
 6869SOL    HW232067   1.744   3.858   5.452  0.4646 -1.4307 -2.9998
 6870SOL     OW32068   0.706   3.255   2.041 -0.2466  0.2310 -0.2457
 6870SOL    HW132069   0.714   3.339   2.087 -1.5137  0.6617 -0.8362
 6870SOL    HW232070   0.641   3.275   1.975  0.5080 -0.8611 -1.3180
 6871SOL     OW32071   0.461   3.153   7.554 -0.2546 -0.0935 -0.1355
 6871SOL    HW132072   0.506   3.237   7.546 -0.2326 -0.2277 -1.4307
 6871SOL    HW232073   0.397   3.167   7.625 -1.3171 -0.7800 -0.9483
 6872SOL     OW32074   0.047   2.015   2.300  0.0332 -0.0378 -0.2616
 6872SOL    HW132075   0.115   1.961   2.340  1.3794  2.3825  0.7505
 6872SOL    HW232076   4.704   2.009   2.368 -2.1517  0.5783 -2.3364
 6873SOL     OW32077   4.465   4.525  14.854  0.4138  0.2094  0.4871
 6873SOL    HW132078   4.454   4.604  14.802  0.6629  0.9669  1.5747
 6873SOL    HW232079   4.469   4.568  14.940  2.7785 -0.8362  0.8934
 6874SOL     OW32080   0.464   2.365  16.485  0.7835  0.3003  0.2953
 6874SOL    HW132081   0.426   2.334  16.566  1.1305 -1.0021 -0.0334
 6874SOL    HW232082   0.552   2.391  16.512  0.4633  2.4983 -0.7445
 6875SOL     OW32083   0.804   1.676   6.269  0.2374  0.9892 -0.0720
 6875SOL    HW132084   0.754   1.754   6.241  1.2135  2.3336  1.9555
 6875SOL    HW232085   0.869   1.719   6.324  0.0650 -0.8159  1.5122
 6876SOL     OW32086   0.538   0.254   0.420  0.2925 -0.2343  0.3210
 6876SOL    HW132087   0.483   0.194   0.369 -0.1912  0.2374  0.2869
 6876SOL    HW232088   0.624   0.212   0.413 -0.7471 -2.2578 -0.5101
 6877SOL     OW32089   0.024   3.047   6.978  0.6686  0.7128  0.3327
 6877SOL    HW132090   0.025   2.988   6.904  0.6294  0.4127  0.5719
 6877SOL    HW232091   0.004   3.131   6.937  1.6802  1.1026  0.6301
 6878SOL     OW32092   0.687   3.490  12.301 -0.2226 -0.1144  0.3244
 6878SOL    HW132093   0.679   3.398  12.278 -1.1529  0.0690 -0.0962
 6878SOL    HW232094   0.622   3.494  12.371 -0.8715  0.6120 -0.3203
 6879SOL     OW32095   4.517   3.704   9.232  0.1815 -0.3708  0.1445
 6879SOL    HW132096   4.452   3.655   9.181 -0.3901  0.3761  0.1421
 6879SOL    HW232097   4.470   3.787   9.236  0.6758  0.0550 -2.7758
 6880SOL     OW32098   0.213   3.277   7.353 -0.3200 -0.0169 -0.3026
 6880SOL    HW132099   0.255   3.227   7.423 -0.9582  3.0618  2.2799
 6880SOL    HW232100   0.280   3.342   7.333  1.8329 -1.7687  1.1276
 6881SOL     OW32101   3.393   1.076  13.791  0.1005 -0.7042  0.0681
 6881SOL    HW132102   3.311   1.123  13.774 -0.5905 -2.8978 -2.5181
 6881SOL    HW232103   3.422   1.133  13.862  0.5971 -0.0702 -0.6434
 6882SOL     OW32104   3.779   2.415   3.329  0.1228 -0.7656 -0.4909
 6882SOL    HW132105   3.856   2.437   3.382 -0.8388  0.8985  0.2239
 6882SOL    HW232106   3.725   2.491   3.350  0.9705 -0.4234  0.4120
 6883SOL     OW32107   1.829   0.323   6.047 -0.2197  0.1348  0.2202
 6883SOL    HW132108   1.810   0.368   5.965 -0.2889  0.8855  0.6468
 6883SOL    HW232109   1.921   0.340   6.064 -1.1121  2.6791  2.6406
 6884SOL     OW32110   1.822   0.184   8.638 -0.3674  0.2990 -0.3010
 6884SOL    HW132111   1.802   0.225   8.723  1.0739  0.0427  0.1608
 6884SOL    HW232112   1.903   0.135   8.653 -0.3298  0.9018  1.4796
 6885SOL     OW32113   0.127   3.281   6.346 -0.5084 -0.0748 -0.4235
 6885SOL    HW132114   0.161   3.208   6.399  0.4098  0.4249 -0.3363
 6885SOL    HW232115   0.170   3.278   6.261  1.4295 -1.0273  0.5795
 6886SOL     OW32116   0.097   2.078  13.649 -0.0018 -0.1250  0.3952
 6886SOL    HW132117   0.051   2.092  13.566  1.1618  1.1323 -0.0303
 6886SOL    HW232118   0.178   2.038  13.618 -0.8472  1.3594 -3.7119
 6887SOL     OW32119   4.662   1.829   7.257  1.0365  0.3240  0.4685
 6887SOL    HW132120   4.584   1.874   7.226  0.7079 -1.2100 -0.9343
 6887SOL    HW232121   4.703   1.907   7.294 -0.1041  0.4036  1.6109
 6888SOL     OW32122   2.273   1.741  16.648 -0.3669 -0.1308 -0.3091
 6888SOL    HW132123   2.341   1.703  16.591  0.7313  1.0894  0.1924
 6888SOL    HW232124   2.326   1.764  16.725 -1.1283  0.4114  0.0426
 6889SOL     OW32125   2.520   0.896   6.574  0.6519 -0.5016 -0.1612
 6889SOL    HW132126   2.544   0.804   6.566 -2.0152 -1.2589  0.3260
 6889SOL    HW232127   2.452   0.888   6.642 -0.3283 -2.1855 -1.3402
 6890SOL     OW32128   4.058   0.252   8.546 -0.4100 -0.1926  0.0948
 6890SOL    HW132129   4.006   0.230   8.468 -0.2207 -0.5694  0.0742
 6890SOL    HW232130   4.110   0.329   8.523 -0.8883  0.2145  0.3725
 6891SOL     OW32131   4.015   2.891  10.508  0.5792 -0.4066  0.1257
 6891SOL    HW132132   3.983   2.942  10.434  0.1380 -0.8704 -0.0075
 6891SOL    HW232133   4.058   2.960  10.559  1.0832 -0.8106  0.2553
 6892SOL     OW32134   2.510   0.796   7.249  0.1868  0.5253  0.3837
 6892SOL    HW132135   2.536   0.750   7.328  2.1882  0.6720 -0.1776
 6892SOL    HW232136   2.540   0.737   7.179 -1.8779 -1.8468  1.5286
 6893SOL     OW32137   0.312   4.398   2.042  0.6689 -0.0421  0.0752
 6893SOL    HW132138   0.277   4.326   1.990  2.6826  0.5636 -2.1180
 6893SOL    HW232139   0.250   4.470   2.053 -0.0908 -0.5959 -0.6498
 6894SOL     OW32140   1.445   2.134   4.639  0.6933  0.3553  0.7603
 6894SOL    HW132141   1.388   2.148   4.564 -0.4666 -0.8463  1.4291
 6894SOL    HW232142   1.445   2.221   4.678 -0.0495  1.5939 -2.0077
 6895SOL     OW32143   1.723   2.561   7.855 -0.1705  0.1156 -0.2963
 6895SOL    HW132144   1.640   2.524   7.824  1.0106 -1.1062 -2.0410
 6895SOL    HW232145   1.733   2.624   7.783 -2.5135 -1.2974 -1.8756
 6896SOL     OW32146   3.451   1.609   6.593 -0.2273 -0.0843  0.0339
 6896SOL    HW132147   3.423   1.532   6.542 -1.9344 -0.0887  0.9917
 6896SOL    HW232148   3.398   1.596   6.671  0.9253 -0.5338  0.7432
 6897SOL     OW32149   0.127   4.609   2.647 -0.5518  0.0723  0.3520
 6897SOL    HW132150   0.119   4.557   2.727 -1.6757  0.1314  0.2670
 6897SOL    HW232151   0.078   4.687   2.673  0.0631  0.1371  1.3378
 6898SOL     OW32152   2.683   0.033  11.114 -0.6239  0.0686  0.1932
 6898SOL    HW132153   2.672   0.109  11.056 -3.9417  1.1028  2.2481
 6898SOL    HW232154   2.726   4.695  11.054 -1.3271  2.4229 -2.7349
 6899SOL     OW32155   4.140   4.614  13.400 -0.5396 -0.2433  0.3058
 6899SOL    HW132156   4.138   4.694  13.347 -1.1792 -1.5976 -1.7038
 6899SOL    HW232157   4.227   4.617  13.439 -0.1441 -3.4844 -0.3445
 6900SOL     OW32158   0.457   1.746   3.741 -0.0311 -0.4954  0.1618
 6900SOL    HW132159   0.521   1.782   3.803 -1.2048 -1.4793  1.9506
 6900SOL    HW232160   0.501   1.677   3.692 -0.8391  1.3698 -3.1811
 6901SOL     OW32161   3.360   4.419   6.627  0.3044  0.0261 -0.2836
 6901SOL    HW132162   3.287   4.380   6.579  1.1624 -2.0132  0.0876
 6901SOL    HW232163   3.339   4.508   6.599  1.0569  0.1382 -0.4805
 6902SOL     OW32164   1.259   1.727   2.641 -0.6616 -0.3042 -0.6293
 6902SOL    HW132165   1.242   1.750   2.732 -1.9824  0.0773 -0.9848
 6902SOL    HW232166   1.169   1.732   2.611 -0.4355 -2.3402 -1.6455
 6903SOL     OW32167   0.838   1.353   3.269 -0.4125  0.3206 -0.0497
 6903SOL    HW132168   0.870   1.430   3.315  1.9305 -0.2099 -0.7796
 6903SOL    HW232169   0.768   1.401   3.227 -0.2581 -1.3911 -2.2954
 6904SOL     OW32170   2.809   3.095   4.983 -0.2502  0.3635  0.4158
 6904SOL    HW132171   2.815   3.090   4.887  0.0302 -1.0959  0.5102
 6904SOL    HW232172   2.886   3.051   5.018 -1.5168 -0.0875  2.6648
 6905SOL     OW32173   2.326   3.113   2.078  0.2035  0.3542 -0.0838
 6905SOL    HW132174   2.325   3.070   2.163 -2.8318 -0.0817 -0.3265
 6905SOL    HW232175   2.232   3.129   2.089  0.4606  1.7835  0.0641
 6906SOL     OW32176   2.162   1.654   7.255 -0.6182  0.3247  0.2354
 6906SOL    HW132177   2.152   1.674   7.348  0.3918 -1.2583  0.6875
 6906SOL    HW232178   2.073   1.666   7.222 -0.3268  0.0286 -0.6686
 6907SOL     OW32179   3.903   3.510  11.172  0.2607  0.0292  0.1371
 6907SOL    HW132180   3.978   3.494  11.114 -0.5059 -1.6488 -0.3742
 6907SOL    HW232181   3.829   3.465  11.133  0.1727  0.7141 -0.4959
 6908SOL     OW32182   2.537   2.650  14.549  0.0018  0.4732 -0.7706
 6908SOL    HW132183   2.505   2.663  14.460  0.5416 -0.5003 -1.1172
 6908SOL    HW232184   2.491   2.716  14.601  1.2782  0.7147  0.0600
 6909SOL     OW32185   3.465   3.982   1.865  0.2698  0.0885 -0.5459
 6909SOL    HW132186   3.453   3.931   1.945  0.2112  0.8856 -0.0581
 6909SOL    HW232187   3.532   4.041   1.899  0.1777  0.4655 -1.0099
 6910SOL     OW32188   3.761   3.682   6.620 -0.1340  0.1730 -0.5092
 6910SOL    HW132189   3.813   3.607   6.591  2.2741  2.1754 -1.3966
 6910SOL    HW232190   3.734   3.716   6.535  1.2037  0.8693 -0.6610
 6911SOL     OW32191   3.767   0.521   2.079  0.0386  0.3755 -0.4198
 6911SOL    HW132192   3.821   0.475   2.144  0.2027  0.5456 -0.4376
 6911SOL    HW232193   3.710   0.449   2.052  0.5152 -0.2525  0.2583
 6912SOL     OW32194   3.327   4.675   6.517 -0.2872  0.2962 -0.0127
 6912SOL    HW132195   3.312   0.045   6.505 -1.9625 -0.3350 -2.8183
 6912SOL    HW232196   3.408   4.671   6.465  0.0989 -0.0620  0.6083
 6913SOL     OW32197   4.427   4.236   3.346  0.1475  0.0480 -0.1017
 6913SOL    HW132198   4.510   4.228   3.299  1.0378 -0.3712  1.5540
 6913SOL    HW232199   4.444   4.309   3.406 -2.0963 -0.6064  1.3143
 6914SOL     OW32200   2.047   1.128  14.439  0.3170 -0.0856 -0.3539
 6914SOL    HW132201   2.010   1.110  14.525  0.5611 -3.1467 -0.8907
 6914SOL    HW232202   2.107   1.053  14.435  0.0529 -0.3401  0.6108
 6915SOL     OW32203   4.034   1.658   3.498 -0.1770  0.5650 -0.6501
 6915SOL    HW132204   3.956   1.706   3.525 -0.2838  0.4686 -0.7912
 6915SOL    HW232205   4.010   1.567   3.513 -4.0367  1.6884 -0.0704
 6916SOL     OW32206   1.076   2.632  15.379 -0.4956 -0.9665  0.1256
 6916SOL    HW132207   1.035   2.636  15.466 -0.4595  0.3029  0.0890
 6916SOL    HW232208   1.066   2.538  15.366 -2.4861 -0.9939  1.7673
 6917SOL     OW32209   2.428   2.558   9.898 -0.2956  0.0243 -0.0817
 6917SOL    HW132210   2.508   2.574   9.949  0.1463  0.2094 -0.8351
 6917SOL    HW232211   2.357   2.552   9.962  0.1691 -0.7369  0.3578
 6918SOL     OW32212   3.640   0.807   9.694  0.6141 -0.2969  0.0018
 6918SOL    HW132213   3.636   0.901   9.712  1.5520 -1.0162  4.0336
 6918SOL    HW232214   3.547   0.793   9.676  0.3633 -1.3399  2.0265
 6919SOL     OW32215   2.578   0.138   7.225 -0.0339  0.5132  0.2462
 6919SOL    HW132216   2.524   0.086   7.284  0.3528  0.4685  0.5595
 6919SOL    HW232217   2.658   0.085   7.224 -0.6742 -0.4404 -1.2574
 6920SOL     OW32218   0.454   2.962   4.547 -0.2844 -0.3088  0.5340
 6920SOL    HW132219   0.486   3.015   4.474  0.5663  0.9564  1.8201
 6920SOL    HW232220   0.511   2.997   4.615 -0.2863 -0.4489  0.6070
 6921SOL     OW32221   1.842   2.154   5.356 -0.3120  0.0121  0.2730
 6921SOL    HW132222   1.747   2.168   5.362 -0.3127 -0.4294  1.2410
 6921SOL    HW232223   1.870   2.244   5.372 -0.7304 -0.2129  2.2215
 6922SOL     OW32224   4.182   0.570  16.639  0.1312  0.5049 -0.0777
 6922SOL    HW132225   4.199   0.535  16.551 -0.8808  1.1971 -0.5463
 6922SOL    HW232226   4.233   0.651  16.640 -1.4015  1.4797 -1.2673
 6923SOL     OW32227   0.328   2.817   4.344  0.2304 -0.4618  0.1115
 6923SOL    HW132228   0.413   2.793   4.308 -0.9803 -2.2358 -1.5979
 6923SOL    HW232229   0.358   2.873   4.415  0.4811  1.8243 -1.7941
 6924SOL     OW32230   0.241   1.278   5.012 -0.3608 -0.3610 -0.1769
 6924SOL    HW132231   0.175   1.295   5.080 -1.5977 -1.0771 -1.1961
 6924SOL    HW232232   0.299   1.212   5.050  1.8165  1.2681 -0.6610
 6925SOL     OW32233   2.112   4.087  11.290  0.0717 -0.2291  0.4929
 6925SOL    HW132234   2.089   4.003  11.331 -1.4338  0.7748  1.6732
 6925SOL    HW232235   2.070   4.143  11.355  0.8801  2.2530 -1.1587
 6926SOL     OW32236   0.348   4.560   7.029  0.0092  0.2280 -0.0669
 6926SOL    HW132237   0.438   4.558   7.060  0.2233  1.2022 -0.6232
 6926SOL    HW232238   0.304   4.634   7.072 -0.1253 -0.8409  1.6244
 6927SOL     OW32239   3.244   2.583  15.196  0.0827 -0.5437 -0.3174
 6927SOL    HW132240   3.238   2.563  15.102 -2.6103  2.4370 -0.7718
 6927SOL    HW232241   3.219   2.501  15.239 -0.7999  1.1381  2.3764
 6928SOL     OW32242   2.123   0.069   2.200 -0.0587  0.2703 -0.0182
 6928SOL    HW132243   2.133   0.148   2.146  2.4988 -1.4834 -2.0760
 6928SOL    HW232244   2.155   0.002   2.140 -1.4933  1.2083 -1.8367
 6929SOL     OW32245   0.707   4.566   5.057  0.3927 -0.0090 -0.3314
 6929SOL    HW132246   0.688   4.654   5.090 -0.3192 -1.1373  2.2513
 6929SOL    HW232247   0.793   4.540   5.092 -2.5671 -3.7543  4.1281
 6930SOL     OW32248   1.517   1.029   8.017 -0.4676  0.2023 -0.6771
 6930SOL    HW132249   1.593   1.086   8.004  0.4715 -0.8063  0.3977
 6930SOL    HW232250   1.563   0.950   7.986 -0.5287  0.5168 -1.5637
 6931SOL     OW32251   3.259   3.773   8.481  0.5365 -0.5504 -0.0506
 6931SOL    HW132252   3.205   3.694   8.484  0.5157 -0.5136  0.4491
 6931SOL    HW232253   3.222   3.821   8.407  1.6251 -0.1813 -0.3531
 6932SOL     OW32254   2.078   3.478   3.173 -0.1321  0.0302  0.1370
 6932SOL    HW132255   2.135   3.403   3.155  0.6545  0.6900 -0.1418
 6932SOL    HW232256   2.145   3.539   3.141 -0.1433 -0.0921 -0.1231
 6933SOL     OW32257   0.413   3.386  12.364 -0.4817  0.3379  0.0789
 6933SOL    HW132258   0.383   3.405  12.275 -1.0107  1.2289  0.4504
 6933SOL    HW232259   0.345   3.434  12.410 -0.5345  1.2284 -0.9357
 6934SOL     OW32260   0.549   0.892  15.395 -0.0250  0.1973  1.0209
 6934SOL    HW132261   0.615   0.962  15.393 -0.2764  0.3650 -1.6130
 6934SOL    HW232262   0.594   0.814  15.363  0.2016  1.4696 -1.7152
 6935SOL     OW32263   3.173   0.235  16.654 -0.8492  0.1570  0.8357
 6935SOL    HW132264   3.102   0.233  16.590 -0.4292 -0.3238  0.3843
 6935SOL    HW232265   3.230   0.296  16.607 -3.1190  0.0427 -2.1088
 6936SOL     OW32266   1.566   1.103   8.285  0.6342  1.1115 -0.2046
 6936SOL    HW132267   1.612   1.164   8.227 -0.0610 -0.2989 -2.2706
 6936SOL    HW232268   1.472   1.120   8.281  0.6036  1.0082  0.0964
 6937SOL     OW32269   3.975   2.938   6.494 -0.4584 -0.0215 -0.4849
 6937SOL    HW132270   4.052   2.933   6.438  0.2015  0.1885  0.4100
 6937SOL    HW232271   4.019   2.981   6.567 -1.7775  0.4883  0.0158
 6938SOL     OW32272   0.699   0.839   4.241 -0.2004 -0.4872  0.3210
 6938SOL    HW132273   0.683   0.907   4.306  1.1322 -1.0280  1.2279
 6938SOL    HW232274   0.610   0.822   4.212 -0.5849 -0.2071  1.3464
 6939SOL     OW32275   1.603   1.180   6.797 -0.1825  0.4327  0.5094
 6939SOL    HW132276   1.650   1.103   6.768  1.7291  2.6931 -2.3741
 6939SOL    HW232277   1.529   1.184   6.736  0.5624 -0.8600 -0.4636
 6940SOL     OW32278   3.713   4.139   7.547  0.1772  0.3897 -0.7606
 6940SOL    HW132279   3.792   4.092   7.573 -2.5314 -1.9195  3.0944
 6940SOL    HW232280   3.739   4.224   7.511 -1.5887  0.9361 -0.7562
 6941SOL     OW32281   0.747   3.745  15.342  0.2557  0.6565 -0.1703
 6941SOL    HW132282   0.765   3.836  15.368 -1.3816 -0.0663  3.4567
 6941SOL    HW232283   0.653   3.744  15.328  0.3123  0.2314 -0.5017
 6942SOL     OW32284   3.550   0.913  15.950  0.3652 -0.3000  0.3497
 6942SOL    HW132285   3.587   0.974  15.886 -0.0473  0.0350  0.4317
 6942SOL    HW232286   3.455   0.929  15.954  0.0036 -2.7274  1.2359
 6943SOL     OW32287   1.992   4.709   8.765  0.1704 -0.8387 -0.2509
 6943SOL    HW132288   2.063   4.713   8.830  1.4104  1.1082 -1.7247
 6943SOL    HW232289   1.980   4.615   8.751  0.0998 -0.7611 -0.7267
 6944SOL     OW32290   3.522   4.607   9.168 -0.0708  0.2488 -0.2222
 6944SOL    HW132291   3.568   4.581   9.088  0.3663  1.7352 -0.4716
 6944SOL    HW232292   3.515   4.527   9.219 -0.4305  0.7026  0.4434
 6945SOL     OW32293   4.372   0.924   6.406  0.3063  0.2198  0.1801
 6945SOL    HW132294   4.417   0.927   6.490  0.4127  1.1974  0.0850
 6945SOL    HW232295   4.378   1.014   6.376  1.1732 -0.0527 -0.4628
 6946SOL     OW32296   1.478   0.445   8.028  0.4953  0.3726  0.0856
 6946SOL    HW132297   1.405   0.384   8.033  0.6695  0.1879  0.4166
 6946SOL    HW232298   1.515   0.440   8.117 -0.4965  0.9222  0.5301
 6947SOL     OW32299   1.267   3.237   6.182 -0.2205  0.6825 -0.2201
 6947SOL    HW132300   1.231   3.183   6.252 -2.2111 -0.4264 -2.1093
 6947SOL    HW232301   1.326   3.295   6.231 -1.7444  2.1099 -0.0650
 6948SOL     OW32302   4.402   4.033   1.028  0.2224 -0.7936 -0.3323
 6948SOL    HW132303   4.405   4.114   0.977  1.4762 -0.9655 -0.5228
 6948SOL    HW232304   4.473   3.984   0.988  0.5055 -0.2545 -0.4867
 6949SOL     OW32305   3.118   1.732   7.510  0.2959  0.2576  0.0636
 6949SOL    HW132306   3.033   1.747   7.467  0.0382  0.7927  0.7657
 6949SOL    HW232307   3.111   1.791   7.584 -0.1118 -1.3064  1.2712
 6950SOL     OW32308   3.322   1.334   3.600  0.2213  0.1471 -0.5114
 6950SOL    HW132309   3.341   1.427   3.609 -0.5232  0.3101 -0.5581
 6950SOL    HW232310   3.284   1.319   3.687 -1.4520 -1.3064 -1.4757
 6951SOL     OW32311   3.721   2.188   5.436 -0.3607  0.5683 -0.3085
 6951SOL    HW132312   3.774   2.228   5.505 -0.8697  1.3248 -0.3471
 6951SOL    HW232313   3.652   2.253   5.420 -1.2403 -0.5346 -1.0153
 6952SOL     OW32314   2.808   1.417   7.206  0.0921  0.0023  0.5846
 6952SOL    HW132315   2.724   1.461   7.191  0.2222 -0.4919 -1.5599
 6952SOL    HW232316   2.822   1.446   7.296 -0.3557  0.9488  0.3403
 6953SOL     OW32317   3.910   0.749   6.296 -0.2866  0.5611  0.4915
 6953SOL    HW132318   3.959   0.822   6.334  0.4856  1.2042 -1.7478
 6953SOL    HW232319   3.978   0.682   6.285 -1.7371 -0.7401 -0.5501
 6954SOL     OW32320   0.854   4.283  13.959 -1.0680 -0.0836  0.1255
 6954SOL    HW132321   0.873   4.193  13.934 -1.5444  0.3352 -1.7637
 6954SOL    HW232322   0.834   4.276  14.052 -0.2209 -0.4506  0.2858
 6955SOL     OW32323   0.746   1.683   5.710 -0.6622  0.1348  0.4587
 6955SOL    HW132324   0.840   1.702   5.712 -0.1511 -2.4873  1.1701
 6955SOL    HW232325   0.713   1.745   5.644 -0.7882 -0.4437 -0.0145
 6956SOL     OW32326   3.276   2.336   7.792 -0.0441 -0.1882 -0.8714
 6956SOL    HW132327   3.187   2.370   7.802  1.2263  2.3209  1.6745
 6956SOL    HW232328   3.261   2.241   7.792  0.5777 -0.2741  3.0680
 6957SOL     OW32329   4.117   0.041   7.474 -0.0649  0.1263 -0.3177
 6957SOL    HW132330   4.116   0.063   7.567 -0.5447 -1.8355  0.1434
 6957SOL    HW232331   4.039   0.093   7.454  1.4404  3.1075  1.5980
 6958SOL     OW32332   4.274   2.062   3.635  0.0688 -0.0436 -0.3862
 6958SOL    HW132333   4.221   2.131   3.674 -0.7546 -0.6788 -0.3865
 6958SOL    HW232334   4.265   2.090   3.544  0.7589 -2.5139 -1.2230
 6959SOL     OW32335   0.037   3.281   5.791  0.1257  0.0055 -0.6971
 6959SOL    HW132336   4.720   3.348   5.735  0.5253  0.3579 -0.5678
 6959SOL    HW232337   0.095   3.339   5.841  1.8780 -2.5170  0.1601
 6960SOL     OW32338   1.120   3.171   6.426  0.1345 -0.3683 -0.2848
 6960SOL    HW132339   1.071   3.090   6.439  2.1420 -1.8477 -1.9331
 6960SOL    HW232340   1.046   3.229   6.410  0.5937  0.3521  0.1743
 6961SOL     OW32341   4.278   0.080   8.578 -0.1746  0.2124 -0.2372
 6961SOL    HW132342   4.327   0.139   8.635 -0.4160  0.7360 -0.5702
 6961SOL    HW232343   4.198   0.130   8.564 -0.2578 -0.0693 -0.7962
 6962SOL     OW32344   1.153   3.526  12.732 -0.2468  0.1988  0.7319
 6962SOL    HW132345   1.074   3.500  12.685  0.4004 -0.4851  0.0195
 6962SOL    HW232346   1.121   3.489  12.815 -0.9291 -1.1717 -0.1385
 6963SOL     OW32347   2.705   4.500   8.798  0.3039 -0.3683 -0.5528
 6963SOL    HW132348   2.752   4.576   8.763 -1.6163  0.9785 -0.2030
 6963SOL    HW232349   2.667   4.544   8.874  0.3978  1.2444 -1.4375
 6964SOL     OW32350   4.547   1.615   6.558  0.5296 -0.3343 -0.1864
 6964SOL    HW132351   4.537   1.525   6.525 -2.0977  0.8010 -2.5004
 6964SOL    HW232352   4.637   1.627   6.588  0.4985 -0.2944 -0.1089
 6965SOL     OW32353   2.465   2.263  16.756 -0.2477 -0.2773  0.3174
 6965SOL    HW132354   2.512   2.184  16.729  0.6689  0.3250  0.1615
 6965SOL    HW232355   2.475   2.320  16.680 -1.1111 -1.1292 -0.4460
 6966SOL     OW32356   0.435   4.546   5.011 -0.5743 -0.1279 -0.0970
 6966SOL    HW132357   0.530   4.538   5.024 -0.5580 -1.6095 -1.1149
 6966SOL    HW232358   0.398   4.511   5.092  2.4362  0.2313  1.4264
 6967SOL     OW32359   2.630   4.108   9.694  0.3819  0.2053 -0.0203
 6967SOL    HW132360   2.574   4.142   9.764 -0.1945  1.2357 -0.9707
 6967SOL    HW232361   2.576   4.111   9.615 -0.2022 -1.3132  0.3352
 6968SOL     OW32362   4.524   0.219   6.039 -0.5456 -0.3556  1.0546
 6968SOL    HW132363   4.459   0.270   6.088  0.5307 -1.0877  3.2391
 6968SOL    HW232364   4.553   0.160   6.108  1.0975  2.0723  2.4586
 6969SOL     OW32365   1.738   0.671   3.059 -0.0315  0.7668 -0.5907
 6969SOL    HW132366   1.755   0.635   2.972 -2.1613  1.6023 -1.3661
 6969SOL    HW232367   1.787   0.752   3.044  3.2834 -1.5606 -2.2124
 6970SOL     OW32368   2.042   2.852  16.405  0.3641 -0.2880 -0.2582
 6970SOL    HW132369   2.094   2.832  16.327 -0.0915  0.0068 -0.6370
 6970SOL    HW232370   1.964   2.801  16.383  0.4734 -1.0772  1.1814
 6971SOL     OW32371   0.755   3.574   6.720 -0.4476 -0.6026  0.5431
 6971SOL    HW132372   0.734   3.612   6.806 -1.0563  1.1624 -0.3860
 6971SOL    HW232373   0.822   3.507   6.736 -1.0671 -1.3794 -0.0760
 6972SOL     OW32374   1.144   2.946   3.105  0.5446  0.4801  0.5356
 6972SOL    HW132375   1.135   3.030   3.060  1.4968  0.0796 -0.3936
 6972SOL    HW232376   1.219   2.960   3.162  0.6388  0.1238  0.4981
 6973SOL     OW32377   3.769   2.981   2.802  0.1435  0.3262  0.2206
 6973SOL    HW132378   3.804   2.916   2.741  0.0978  1.7300 -1.3027
 6973SOL    HW232379   3.797   2.942   2.885  1.7287  0.4760 -0.2421
 6974SOL     OW32380   4.615   4.064   4.242  0.2493 -0.4800  0.5039
 6974SOL    HW132381   4.591   4.067   4.149 -0.3208  1.7765  0.7310
 6974SOL    HW232382   4.700   4.021   4.247  1.2815  1.3712 -1.7261
 6975SOL     OW32383   2.182   0.018   8.230  0.4997  0.1321 -0.2225
 6975SOL    HW132384   2.152   4.658   8.194  0.1952 -0.1611  0.7369
 6975SOL    HW232385   2.138   0.003   8.313 -0.4037 -1.2132 -0.9403
 6976SOL     OW32386   2.953   3.771   5.040 -0.3280 -0.3451 -0.3135
 6976SOL    HW132387   2.930   3.702   4.978 -2.8151  0.2923 -0.1042
 6976SOL    HW232388   2.926   3.852   4.996  0.9005  0.3079  0.1359
 6977SOL     OW32389   3.878   4.264   2.231  0.3494  0.2743 -0.5545
 6977SOL    HW132390   3.784   4.281   2.234  0.3910  0.5406 -0.7852
 6977SOL    HW232391   3.912   4.339   2.183  3.0387 -0.5331  0.0483
 6978SOL     OW32392   4.491   3.795  10.983 -0.2017  0.2252 -0.6592
 6978SOL    HW132393   4.564   3.740  10.956 -0.2602 -0.6269  0.8952
 6978SOL    HW232394   4.523   3.885  10.990 -0.7604  0.3847 -0.1399
 6979SOL     OW32395   2.040   3.240   8.398 -0.7432  0.5479 -0.0080
 6979SOL    HW132396   2.034   3.152   8.362  1.4730  0.9246 -1.2811
 6979SOL    HW232397   2.083   3.223   8.481  1.2749  2.0309 -0.7266
 6980SOL     OW32398   3.823   3.326   6.366  0.7709 -0.5321 -0.0062
 6980SOL    HW132399   3.740   3.336   6.319  2.1866 -0.5051 -2.4810
 6980SOL    HW232400   3.876   3.277   6.304  1.0242  1.4342 -1.3470
 6981SOL     OW32401   2.842   2.794   5.224 -0.5507  0.0200  0.0569
 6981SOL    HW132402   2.885   2.752   5.149 -1.1957 -0.3429 -0.1105
 6981SOL    HW232403   2.843   2.734   5.298  0.7567  1.4084  1.1656
 6982SOL     OW32404   3.764   0.401   2.879 -0.6431 -0.3668 -0.0934
 6982SOL    HW132405   3.731   0.490   2.870  0.7053 -0.1094 -2.5097
 6982SOL    HW232406   3.744   0.365   2.792  1.9356 -0.2851 -0.7126
 6983SOL     OW32407   1.080   3.869  14.878  0.2582  0.3454  0.1794
 6983SOL    HW132408   1.092   3.900  14.788 -0.4490 -0.9540 -0.3690
 6983SOL    HW232409   1.138   3.793  14.877 -0.9152 -0.5403 -2.1484
 6984SOL     OW32410   4.295   2.321  13.398 -0.0812 -0.8395  0.7076
 6984SOL    HW132411   4.276   2.366  13.315 -2.8209 -1.0762  1.2193
 6984SOL    HW232412   4.297   2.229  13.372  1.0112 -1.4818  3.0287
 6985SOL     OW32413   2.707   0.824   5.063  0.2445  0.5702 -0.4100
 6985SOL    HW132414   2.652   0.902   5.054  0.6724  0.7213 -1.8125
 6985SOL    HW232415   2.751   0.827   4.978 -0.5454  2.7891 -0.7305
 6986SOL     OW32416   1.863   3.695   8.737 -0.2617  0.0259 -0.0603
 6986SOL    HW132417   1.876   3.732   8.824  1.8287 -0.5037 -0.1461
 6986SOL    HW232418   1.768   3.701   8.732 -0.3625 -1.0980  0.4759
 6987SOL     OW32419   2.083   2.343   8.778 -0.4524  0.2154 -0.0396
 6987SOL    HW132420   2.154   2.353   8.841 -1.0778  2.6749  0.2668
 6987SOL    HW232421   2.013   2.319   8.839 -0.2206  0.3699  0.2867
 6988SOL     OW32422   1.834   2.045   6.315 -0.2486  0.2702  0.0116
 6988SOL    HW132423   1.828   2.082   6.226 -3.5279 -1.5783 -0.5365
 6988SOL    HW232424   1.743   2.021   6.330  0.0011  0.4143  1.6891
 6989SOL     OW32425   2.793   0.216   5.711 -0.0065 -0.3088 -0.2197
 6989SOL    HW132426   2.720   0.183   5.658  1.5171 -1.5741 -1.5477
 6989SOL    HW232427   2.858   0.146   5.709  0.8204  0.4609 -0.3003
 6990SOL     OW32428   1.740   4.530   8.415  0.6002 -0.1674  0.2662
 6990SOL    HW132429   1.830   4.522   8.448  0.4530 -0.7477  0.5241
 6990SOL    HW232430   1.740   4.509   8.321 -1.3286  0.9305  0.0137
 6991SOL     OW32431   0.326   2.034   3.685  0.2646 -0.4479 -0.2587
 6991SOL    HW132432   0.400   2.082   3.722  0.3310 -1.5733  1.0439
 6991SOL    HW232433   0.319   2.051   3.591  1.1781 -3.0331 -0.7846
 6992SOL     OW32434   2.199   0.908   6.476 -0.5837 -0.4165 -0.1618
 6992SOL    HW132435   2.128   0.970   6.460 -0.7274 -0.3786  0.6715
 6992SOL    HW232436   2.195   0.900   6.571 -0.0267  0.4430 -0.0584
 6993SOL     OW32437   1.937   1.572   3.376 -0.1515 -0.4785  0.4045
 6993SOL    HW132438   1.883   1.647   3.399  0.8542 -0.1106  1.6138
 6993SOL    HW232439   1.976   1.597   3.293  2.0356  1.0695  1.8810
 6994SOL     OW32440   1.896   0.269   2.331 -0.9680 -0.1502 -0.1482
 6994SOL    HW132441   1.985   0.235   2.331 -0.8108  0.2580 -0.9229
 6994SOL    HW232442   1.842   0.199   2.366  1.1388 -1.8976 -0.4023
 6995SOL     OW32443   2.941   0.003   5.663  0.2832  0.1989  0.3256
 6995SOL    HW132444   3.002   4.665   5.704 -0.3828 -0.9414 -0.3903
 6995SOL    HW232445   3.004   0.056   5.615 -0.4836  2.6207  1.9685
 6996SOL     OW32446   2.561   0.891  16.681 -0.0479 -0.1245 -0.2040
 6996SOL    HW132447   2.638   0.848  16.718  2.0451  3.1570 -0.7790
 6996SOL    HW232448   2.526   0.819  16.627  1.0311  0.5742 -1.8344
 6997SOL     OW32449   0.250   1.621  17.229  0.4688  0.0098 -0.2645
 6997SOL    HW132450   0.217   1.532  17.225  0.4448 -0.0455  1.5448
 6997SOL    HW232451   0.191   1.669  17.286  0.7516  1.1624 -0.9343
 6998SOL     OW32452   1.523   1.263   6.415  0.7421  0.2638  0.3862
 6998SOL    HW132453   1.561   1.250   6.329  0.2089  1.1673  0.0087
 6998SOL    HW232454   1.483   1.178   6.431 -0.1695  0.9317  1.6737
 6999SOL     OW32455   3.368   0.481   2.348  0.0040 -0.3459  0.5705
 6999SOL    HW132456   3.320   0.412   2.394 -1.0629  0.8845  1.2904
 6999SOL    HW232457   3.299   0.545   2.330 -0.2289 -0.8002 -0.1242
 7000SOL     OW32458   3.014   1.884   4.809  0.0829 -0.5380  0.2584
 7000SOL    HW132459   3.004   1.899   4.903  2.3767 -0.2327  0.4506
 7000SOL    HW232460   3.050   1.967   4.777  0.7846 -1.2789 -0.8831
 7001SOL     OW32461   2.023   3.249   2.122  0.6862  0.1544 -0.3307
 7001SOL    HW132462   1.949   3.221   2.176  2.4383 -1.4237  1.2560
 7001SOL    HW232463   2.002   3.213   2.037 -1.0579  0.2282  0.0651
 7002SOL     OW32464   3.298   0.751  10.112  0.1978  0.1644  0.1690
 7002SOL    HW132465   3.336   0.818  10.168  2.0708 -0.5574 -0.2525
 7002SOL    HW232466   3.318   0.677  10.169  2.1610  1.3375  0.9803
 7003SOL     OW32467   2.021   4.181   8.332 -0.6055  0.3651 -0.5843
 7003SOL    HW132468   1.983   4.260   8.292  1.4623  1.2664 -0.7716
 7003SOL    HW232469   2.059   4.149   8.250  1.4714 -1.0419  0.9274
 7004SOL     OW32470   4.129   0.786   2.201 -0.3588 -0.4409  0.0617
 7004SOL    HW132471   4.174   0.808   2.120 -2.5302  1.8121 -0.5385
 7004SOL    HW232472   4.095   0.874   2.217  2.8357  0.7820  0.1476
 7005SOL     OW32473   0.276   0.749  17.073 -0.6773  0.3488 -0.4741
 7005SOL    HW132474   0.335   0.711  17.138 -2.1136  0.5356  0.9252
 7005SOL    HW232475   0.337   0.793  17.014  0.1036 -0.0317  0.0451
 7006SOL     OW32476   3.840   0.413  10.031  0.4375 -0.3588  0.5085
 7006SOL    HW132477   3.755   0.453  10.014  0.0713 -1.5848 -0.5575
 7006SOL    HW232478   3.856   0.385   9.941  0.9363 -1.5446  0.9710
 7007SOL     OW32479   3.706   3.534   5.787  0.1664  0.1056  0.3864
 7007SOL    HW132480   3.765   3.498   5.853 -1.3017  0.4401  1.8759
 7007SOL    HW232481   3.672   3.453   5.748  0.2538 -0.3503  1.2799
 7008SOL     OW32482   0.048   1.759   9.865  0.3353  0.0946 -0.0670
 7008SOL    HW132483   0.127   1.706   9.858 -0.2217 -0.8713  0.9742
 7008SOL    HW232484   0.074   1.836   9.814  0.4472  0.1275  0.0383
 7009SOL     OW32485   1.688   4.040   5.457  0.4039  0.1634  0.4131
 7009SOL    HW132486   1.681   4.118   5.402  0.1010 -0.8035 -0.9091
 7009SOL    HW232487   1.758   4.074   5.513  0.7358  0.1447  0.0059
 7010SOL     OW32488   3.886   1.721  10.666 -0.1491 -0.0925 -0.1826
 7010SOL    HW132489   3.835   1.677  10.598  1.0993 -0.1979 -1.0394
 7010SOL    HW232490   3.853   1.810  10.656 -0.3708 -0.2575 -0.9133
 7011SOL     OW32491   3.464   3.849   7.524 -0.0245  0.2304  0.2028
 7011SOL    HW132492   3.484   3.870   7.433 -1.4028  0.1159 -0.1192
 7011SOL    HW232493   3.526   3.776   7.530 -0.6330 -0.3670 -0.8547
 7012SOL     OW32494   2.308   0.566   3.280  0.3738 -0.2913 -0.8768
 7012SOL    HW132495   2.373   0.634   3.295 -2.7596  2.1030  1.7500
 7012SOL    HW232496   2.302   0.570   3.185 -0.1266 -1.0141 -0.8748
 7013SOL     OW32497   2.365   2.741   3.470  0.4674  0.4549 -0.3261
 7013SOL    HW132498   2.316   2.740   3.388  0.6128  2.4135 -0.4361
 7013SOL    HW232499   2.447   2.788   3.450  0.3098  0.8529 -0.0283
 7014SOL     OW32500   3.266   4.714   8.648  0.5049  0.7317 -0.1958
 7014SOL    HW132501   3.331   0.043   8.695  0.7156  0.4540 -0.1730
 7014SOL    HW232502   3.327   4.662   8.595 -1.8936 -0.6134 -1.6264
 7015SOL     OW32503   1.535   4.424   1.062 -0.2626  0.1008 -0.1984
 7015SOL    HW132504   1.561   4.497   1.118  2.9774 -2.0052  1.0489
 7015SOL    HW232505   1.443   4.429   1.088 -0.0959 -1.1289  0.6321
 7016SOL     OW32506   2.635   3.870   5.673  0.0867  0.0944  0.4190
 7016SOL    HW132507   2.586   3.885   5.592 -1.2453 -1.7972  0.8641
 7016SOL    HW232508   2.565   3.867   5.739  0.2619  1.1593  0.6483
 7017SOL     OW32509   0.894   0.776   3.798  0.1321 -0.3292 -0.5946
 7017SOL    HW132510   0.867   0.852   3.848 -1.9736 -2.9769  2.2559
 7017SOL    HW232511   0.833   0.706   3.821 -1.1329  0.1737 -2.3780
 7018SOL     OW32512   4.703   1.321   6.939  0.6524  0.3109 -0.3183
 7018SOL    HW132513   0.010   1.236   6.907  0.1398  0.2974 -0.7827
 7018SOL    HW232514   0.047   1.374   6.897  0.1410  2.5064  1.6867
 7019SOL     OW32515   0.821   2.741   4.688  0.0772 -0.4703  0.2715
 7019SOL    HW132516   0.734   2.735   4.649  0.2942 -0.2472 -0.2441
 7019SOL    HW232517   0.803   2.708   4.777 -2.9913  0.4998  0.0131
 7020SOL     OW32518   1.626   1.518   3.542 -0.1779 -0.3672  0.1658
 7020SOL    HW132519   1.678   1.519   3.622 -1.4418 -0.6635  1.0031
 7020SOL    HW232520   1.562   1.450   3.565 -0.5463 -0.3371 -0.7810
 7021SOL     OW32521   3.450   1.115   4.718 -0.3458  0.7457 -0.7299
 7021SOL    HW132522   3.513   1.160   4.662 -2.4031  2.7564 -1.3886
 7021SOL    HW232523   3.450   1.025   4.685 -0.0924  0.6879 -0.5740
 7022SOL     OW32524   2.380   2.720   7.585 -0.4982  0.0921  0.4332
 7022SOL    HW132525   2.318   2.787   7.613  0.3265  1.5628 -1.2841
 7022SOL    HW232526   2.383   2.660   7.659 -0.4524 -0.9895 -0.4320
 7023SOL     OW32527   4.686   2.416   3.869  0.3836  0.3056 -0.3994
 7023SOL    HW132528   4.596   2.447   3.857  0.3928 -0.0459 -1.3613
 7023SOL    HW232529   4.717   2.480   3.933 -0.1337  0.5550 -0.3973
 7024SOL     OW32530   4.521   3.744  17.522  0.0917 -0.0415 -0.4645
 7024SOL    HW132531   4.555   3.655  17.535 -0.3734 -0.2381 -0.6031
 7024SOL    HW232532   4.558   3.779  17.442  1.4644  0.8385  0.5471
 7025SOL     OW32533   1.782   3.538   7.323  0.0740  0.5170 -0.0460
 7025SOL    HW132534   1.692   3.568   7.314  0.4306  1.6566  0.1874
 7025SOL    HW232535   1.780   3.442   7.318  0.9073  0.5434 -0.9101
 7026SOL     OW32536   1.637   2.800   5.785 -0.0157  0.0249 -0.2756
 7026SOL    HW132537   1.715   2.811   5.730 -0.0803 -0.9035 -0.5350
 7026SOL    HW232538   1.559   2.795   5.730  1.3353  0.1674 -2.2184
 7027SOL     OW32539   2.807   4.355   2.281 -0.1934 -1.0180  0.0226
 7027SOL    HW132540   2.821   4.282   2.220 -1.8724 -2.2665  1.1224
 7027SOL    HW232541   2.717   4.347   2.314  0.3294  0.5874  1.7949
 7028SOL     OW32542   2.640   4.239  16.239 -0.6282 -0.4062  0.3789
 7028SOL    HW132543   2.579   4.173  16.272 -1.4821 -0.8234 -2.0873
 7028SOL    HW232544   2.588   4.301  16.189 -1.8594 -1.9165 -0.2131
 7029SOL     OW32545   2.169   1.190   4.197  0.4329  0.2799 -0.0269
 7029SOL    HW132546   2.130   1.274   4.174  1.7253  0.1130 -2.8623
 7029SOL    HW232547   2.236   1.214   4.261 -2.0899 -0.0928  2.7448
 7030SOL     OW32548   4.692   4.721   9.521 -0.1021  0.0403 -0.0196
 7030SOL    HW132549   0.040   0.002   9.585  0.7923 -1.0303 -0.9277
 7030SOL    HW232550   4.709   0.078   9.473 -1.0531 -0.9081 -1.9277
 7031SOL     OW32551   0.257   1.374   5.678  0.4824 -0.0896  0.7812
 7031SOL    HW132552   0.241   1.282   5.695  2.0741 -0.5772 -0.3599
 7031SOL    HW232553   0.177   1.389   5.627  0.8749 -2.8384 -0.5981
 7032SOL     OW32554   2.129   0.845   1.908 -0.2994  0.4841 -0.1252
 7032SOL    HW132555   2.152   0.850   2.001 -0.0559  0.0448 -0.1614
 7032SOL    HW232556   2.082   0.928   1.902 -1.9366 -0.3819  0.4978
 7033SOL     OW32557   3.596   1.767   4.176 -0.4738  0.2987 -0.0771
 7033SOL    HW132558   3.525   1.819   4.213 -2.3653 -0.3066 -2.8371
 7033SOL    HW232559   3.679   1.811   4.194 -0.1314  1.2236 -3.8356
 7034SOL     OW32560   0.951   1.521   4.500 -0.0585  0.6326 -0.0372
 7034SOL    HW132561   1.039   1.483   4.505  0.0955  0.9122 -0.5988
 7034SOL    HW232562   0.901   1.447   4.536  1.2719  0.8796  2.3175
 7035SOL     OW32563   3.403   2.886   8.551  0.0049 -0.6768  0.3911
 7035SOL    HW132564   3.426   2.807   8.599  0.3100 -1.4035 -0.9400
 7035SOL    HW232565   3.484   2.900   8.502 -0.3570 -1.1526 -0.3594
 7036SOL     OW32566   0.325   3.584  17.157  0.3440 -0.2392 -0.3453
 7036SOL    HW132567   0.365   3.658  17.111 -1.4904 -0.3567 -2.1520
 7036SOL    HW232568   0.294   3.630  17.234  0.9706 -1.4363  0.6232
 7037SOL     OW32569   1.449   1.379  16.532  0.1207 -0.2037 -0.0041
 7037SOL    HW132570   1.474   1.455  16.481  1.1762 -0.4683  0.1318
 7037SOL    HW232571   1.355   1.368  16.516  0.5126  0.8680 -2.9550
 7038SOL     OW32572   3.866   2.465   2.510  0.6445  0.1808 -0.0691
 7038SOL    HW132573   3.822   2.469   2.425 -0.0855  0.1591  0.3077
 7038SOL    HW232574   3.790   2.488   2.564 -0.7816 -1.2877 -1.4413
 7039SOL     OW32575   0.772   3.622  17.447  0.0534 -0.1629 -0.3832
 7039SOL    HW132576   0.867   3.618  17.461  0.0216 -1.3902 -0.4796
 7039SOL    HW232577   0.767   3.531  17.418 -1.0882  0.1865 -1.2758
 7040SOL     OW32578   3.805   0.502  13.678  0.0513  0.6591  0.7824
 7040SOL    HW132579   3.856   0.566  13.627 -0.6932 -0.7558 -1.7520
 7040SOL    HW232580   3.851   0.508  13.761  2.4013  1.3236 -0.5615
 7041SOL     OW32581   1.624   1.387   8.149 -0.1691  0.2346 -0.0851
 7041SOL    HW132582   1.649   1.328   8.078 -0.3198  1.0986 -0.8616
 7041SOL    HW232583   1.704   1.428   8.180 -0.3177 -0.5310  1.3471
 7042SOL     OW32584   1.266   3.714  14.476 -0.2616  0.1767  0.1280
 7042SOL    HW132585   1.279   3.686  14.386  0.6911 -2.7848  1.2107
 7042SOL    HW232586   1.179   3.680  14.498  1.8992 -3.7911  2.4795
 7043SOL     OW32587   0.177   0.743   3.236 -0.0977 -0.1119  0.1317
 7043SOL    HW132588   0.266   0.771   3.260 -0.2037  0.7832 -0.5088
 7043SOL    HW232589   0.127   0.812   3.280 -0.3267 -0.0273 -0.2574
 7044SOL     OW32590   3.798   0.299   3.943  0.2911  0.5846 -0.0312
 7044SOL    HW132591   3.884   0.316   3.983  0.9569  0.6485 -1.4455
 7044SOL    HW232592   3.797   0.204   3.940 -1.6213  0.5147  3.4360
 7045SOL     OW32593   3.821   2.161  17.507  0.1699 -0.2818 -0.3635
 7045SOL    HW132594   3.741   2.110  17.491 -1.2830  1.3293  1.7990
 7045SOL    HW232595   3.817   2.160  17.603  1.1432  0.1678 -0.3152
 7046SOL     OW32596   3.851   2.743   8.635 -0.6188 -0.0580 -0.3606
 7046SOL    HW132597   3.814   2.735   8.723  0.7808 -1.6281  0.0738
 7046SOL    HW232598   3.940   2.765   8.663 -0.7039  0.1165 -0.2205
 7047SOL     OW32599   3.809   3.857  13.715 -0.7489  0.3015 -0.3400
 7047SOL    HW132600   3.792   3.807  13.636 -2.0015  3.0748 -1.8281
 7047SOL    HW232601   3.745   3.927  13.702 -1.8951 -0.7506 -0.2762
 7048SOL     OW32602   0.703   0.229  14.959  0.1882  0.8163  0.4119
 7048SOL    HW132603   0.708   0.303  14.898 -0.8962  0.1589 -0.4629
 7048SOL    HW232604   0.754   0.161  14.914 -1.3034  0.5710 -0.8869
 7049SOL     OW32605   1.496   3.797   6.599 -0.6222  0.7153  0.0143
 7049SOL    HW132606   1.561   3.856   6.638  0.6630  0.2440 -1.4118
 7049SOL    HW232607   1.516   3.791   6.506 -0.9187  1.9206 -0.1172
 7050SOL     OW32608   4.047   3.211   3.108  0.0981  0.1367  0.5004
 7050SOL    HW132609   4.038   3.191   3.015 -0.1938  0.5908  0.4310
 7050SOL    HW232610   4.015   3.299   3.090 -0.7658 -0.5991 -1.5944
 7051SOL     OW32611   4.385   0.135   0.233 -0.0781  0.3345  0.5844
 7051SOL    HW132612   4.476   0.112   0.215 -0.3111 -1.2040  1.3779
 7051SOL    HW232613   4.387   0.229   0.253  0.5303  0.2275  1.0423
 7052SOL     OW32614   2.951   4.375   6.024  0.2653 -0.1465 -0.2990
 7052SOL    HW132615   2.855   4.371   6.021  0.2569  0.6949 -1.2946
 7052SOL    HW232616   2.976   4.284   6.045  0.6228 -1.1267 -4.9621
 7053SOL     OW32617   2.383   0.164   3.847  0.7504  0.0632 -0.7005
 7053SOL    HW132618   2.395   0.233   3.781  2.8546 -0.4777 -0.8781
 7053SOL    HW232619   2.317   0.198   3.907  0.6416  0.2526 -0.9255
 7054SOL     OW32620   0.589   4.405   0.813 -0.1558 -0.4880  0.6134
 7054SOL    HW132621   0.606   4.497   0.790  0.1358 -1.2237 -2.0836
 7054SOL    HW232622   0.551   4.407   0.901 -1.2196  0.7020  0.1359
 7055SOL     OW32623   2.534   1.222   5.252 -0.4244 -0.0950 -0.4293
 7055SOL    HW132624   2.482   1.266   5.185 -2.0666 -1.1254  0.1643
 7055SOL    HW232625   2.572   1.156   5.193  2.2715  1.0128  0.0654
 7056SOL     OW32626   0.600   0.384   5.808  0.3912  0.0581 -0.5938
 7056SOL    HW132627   0.601   0.416   5.899  2.2309  0.2626 -0.6799
 7056SOL    HW232628   0.685   0.406   5.769 -0.2678  0.9544 -1.5230
 7057SOL     OW32629   2.820   0.870   2.111  0.1369 -0.3688  0.1458
 7057SOL    HW132630   2.853   0.838   2.027 -1.3355  1.7315 -1.2269
 7057SOL    HW232631   2.795   0.787   2.150  1.1593  0.7691  3.2083
 7058SOL     OW32632   1.095   2.282  16.059  0.1522  0.3015  0.2032
 7058SOL    HW132633   1.022   2.247  16.110 -0.3237 -1.2198 -1.4969
 7058SOL    HW232634   1.173   2.261  16.110  0.4143 -0.2606 -0.4235
 7059SOL     OW32635   0.204   3.658   8.184 -0.4860  0.0818 -0.4481
 7059SOL    HW132636   0.141   3.730   8.178 -0.6729 -0.1615 -1.3173
 7059SOL    HW232637   0.151   3.600   8.130  1.6850  0.5071 -3.0337
 7060SOL     OW32638   1.259   2.331  14.546 -0.7756 -0.1010  0.0273
 7060SOL    HW132639   1.186   2.372  14.500  0.0954  0.7419 -0.6014
 7060SOL    HW232640   1.302   2.280  14.477 -0.7302  4.5432 -3.3924
 7061SOL     OW32641   1.297   2.621   1.860  0.1024 -0.2329 -0.2864
 7061SOL    HW132642   1.235   2.581   1.922  0.6301 -2.0406 -0.9289
 7061SOL    HW232643   1.361   2.549   1.858 -0.5953 -0.8597  0.0249
 7062SOL     OW32644   4.377   2.641   5.252  0.3818  0.0595 -0.1897
 7062SOL    HW132645   4.408   2.551   5.251 -0.3712 -0.1704 -2.6473
 7062SOL    HW232646   4.455   2.688   5.280 -0.3263  0.8279  0.5325
 7063SOL     OW32647   1.489   2.750  10.470 -0.4479  0.4954 -0.0860
 7063SOL    HW132648   1.551   2.696  10.518 -1.6223 -2.2969 -1.6767
 7063SOL    HW232649   1.462   2.687  10.402  0.1991 -0.1562  0.2617
 7064SOL     OW32650   3.964   3.993  10.106  0.1701 -0.5676 -0.0924
 7064SOL    HW132651   4.026   3.922  10.121  1.9805  0.8696 -0.8599
 7064SOL    HW232652   4.021   4.063  10.136  0.2697 -1.5639  1.9968
 7065SOL     OW32653   2.330   2.575   2.729  0.0417 -0.2998 -0.3974
 7065SOL    HW132654   2.377   2.537   2.654  1.7221 -3.8017  2.4374
 7065SOL    HW232655   2.302   2.658   2.692 -0.0338 -0.0527  0.2094
 7066SOL     OW32656   3.682   4.499   1.127 -0.3742 -0.2011  0.8604
 7066SOL    HW132657   3.601   4.447   1.133 -0.0796 -0.9015 -1.2267
 7066SOL    HW232658   3.649   4.588   1.140  1.1095  0.2876  1.3261
 7067SOL     OW32659   1.593   1.696   2.151 -0.6122  0.4313  0.1496
 7067SOL    HW132660   1.687   1.711   2.159 -0.5096 -0.1046 -0.0173
 7067SOL    HW232661   1.578   1.699   2.057 -0.2574 -0.6665  0.0536
 7068SOL     OW32662   3.669   2.825   1.298 -0.2377  0.0715  0.8998
 7068SOL    HW132663   3.626   2.893   1.350 -0.8104  1.9536 -2.0281
 7068SOL    HW232664   3.596   2.810   1.239 -0.4469  5.0897 -0.1564
 7069SOL     OW32665   2.729   0.213   4.521  0.2096  0.5582 -0.2016
 7069SOL    HW132666   2.766   0.126   4.530 -0.5386  0.0232 -2.1433
 7069SOL    HW232667   2.703   0.204   4.429 -3.1204 -0.5344  0.8873
 7070SOL     OW32668   3.908   4.611   4.851 -0.0859  0.1619 -0.4867
 7070SOL    HW132669   3.864   4.590   4.934  2.2706 -0.5681  0.5796
 7070SOL    HW232670   3.874   4.700   4.841 -0.2058 -0.0220 -1.6516
 7071SOL     OW32671   3.818   0.384   1.649  0.2621  0.2118 -0.3151
 7071SOL    HW132672   3.834   0.457   1.589  0.1565  1.0927  0.7242
 7071SOL    HW232673   3.735   0.412   1.686  0.2533 -2.3728  1.6189
 7072SOL     OW32674   3.087   4.379   0.528  0.1086  0.1935 -0.3604
 7072SOL    HW132675   3.058   4.458   0.483  0.0183  0.5239  0.2815
 7072SOL    HW232676   3.030   4.306   0.505  1.7180 -1.5462  1.1921
 7073SOL     OW32677   1.815   4.020   0.826  0.3540  0.5765  0.2569
 7073SOL    HW132678   1.866   4.070   0.763  0.1702 -1.3273 -1.3887
 7073SOL    HW232679   1.880   4.014   0.896 -0.2171 -0.6961  0.6769
 7074SOL     OW32680   2.235   3.065   1.106  0.0932  0.1212 -0.0604
 7074SOL    HW132681   2.235   3.147   1.155  0.7221  0.2180 -0.2216
 7074SOL    HW232682   2.175   3.081   1.034 -0.9037 -1.2297  0.4624
 7075SOL     OW32683   2.014   2.289  10.745 -0.1095  0.4060 -0.2766
 7075SOL    HW132684   1.992   2.297  10.838 -1.5845 -0.3849 -0.5472
 7075SOL    HW232685   1.923   2.289  10.714 -0.2168 -3.7250  0.0399
 7076SOL     OW32686   4.566   0.698  15.777  0.1927  0.7162  0.9906
 7076SOL    HW132687   4.494   0.760  15.778  0.4049  1.0702 -3.5742
 7076SOL    HW232688   4.570   0.689  15.681  0.0405  1.0813  0.9530
 7077SOL     OW32689   0.956   1.246   7.452 -0.4986  0.1069 -0.1981
 7077SOL    HW132690   1.022   1.206   7.510 -2.2836 -0.0451  1.7203
 7077SOL    HW232691   0.895   1.172   7.454  0.2347 -0.4693  1.1541
 7078SOL     OW32692   3.732   4.360   5.705  0.0803 -0.0393 -0.1658
 7078SOL    HW132693   3.665   4.373   5.638 -0.9357 -0.5869  0.7460
 7078SOL    HW232694   3.769   4.448   5.711  1.3939 -0.6720  0.8774
 7079SOL     OW32695   3.028   2.255   3.591 -0.1083 -0.4329 -0.4364
 7079SOL    HW132696   3.016   2.349   3.577  1.5084  0.2486  2.5226
 7079SOL    HW232697   3.047   2.254   3.685  0.2915 -0.4897 -0.5174
 7080SOL     OW32698   1.287   3.708   8.427 -0.1099  1.0190  0.0438
 7080SOL    HW132699   1.349   3.651   8.472 -0.9525 -0.7289 -0.9965
 7080SOL    HW232700   1.347   3.753   8.367  1.8164 -0.6451  0.7146
 7081SOL     OW32701   2.466   3.042   4.097 -0.6502 -0.0148 -0.8098
 7081SOL    HW132702   2.522   3.023   4.021  0.2008  0.4028 -0.2816
 7081SOL    HW232703   2.397   2.982   4.070 -0.6052 -0.7563  0.7194
 7082SOL     OW32704   1.058   1.501   2.243 -0.2115 -0.6353 -0.7427
 7082SOL    HW132705   1.029   1.510   2.152  1.1247  2.2718 -0.8847
 7082SOL    HW232706   1.151   1.523   2.235 -0.5208  0.1746 -2.0396
 7083SOL     OW32707   4.481   2.177  11.910  0.7561  0.2674  0.0611
 7083SOL    HW132708   4.472   2.248  11.848 -0.1480  0.5297  0.5007
 7083SOL    HW232709   4.553   2.130  11.868  0.6217  0.2810 -0.1848
 7084SOL     OW32710   4.444   2.356  11.693  0.1120  0.0909 -0.4954
 7084SOL    HW132711   4.502   2.389  11.624 -0.9385 -2.3262 -2.5437
 7084SOL    HW232712   4.383   2.307  11.638  0.6616 -0.4346 -0.6408
 7085SOL     OW32713   1.587   0.899  10.372  0.0534 -0.0395 -0.1271
 7085SOL    HW132714   1.533   0.820  10.378 -2.3512  1.5721 -0.7298
 7085SOL    HW232715   1.535   0.949  10.309 -1.3624 -1.1310  0.1537
 7086SOL     OW32716   1.207   0.556   6.572  0.2857 -0.7208 -0.2315
 7086SOL    HW132717   1.160   0.612   6.634 -0.3380 -1.6948  0.1700
 7086SOL    HW232718   1.280   0.618   6.569  0.1864 -0.5428  0.8547
 7087SOL     OW32719   0.033   3.882  15.709  0.8207  0.3949 -0.6625
 7087SOL    HW132720   0.046   3.976  15.697  1.0410  0.3117 -1.0891
 7087SOL    HW232721   4.671   3.885  15.752  1.1335 -2.1450  0.1782
 7088SOL     OW32722   2.168   0.265   3.995 -0.2308  0.7281 -0.0687
 7088SOL    HW132723   2.196   0.305   4.077 -1.6530  1.0889  0.2501
 7088SOL    HW232724   2.156   0.344   3.943  1.0390  1.4335  0.7260
 7089SOL     OW32725   3.994   2.963   2.441 -0.1400 -0.1516  0.0404
 7089SOL    HW132726   3.932   2.910   2.391 -0.9272  2.4796 -1.7409
 7089SOL    HW232727   4.077   2.928   2.410 -0.0307 -2.0421  2.4948
 7090SOL     OW32728   2.025   3.736   8.351 -0.4125  0.0453  0.2715
 7090SOL    HW132729   1.950   3.689   8.315 -1.2064  2.8617 -1.6653
 7090SOL    HW232730   2.085   3.670   8.388 -0.6867 -0.6678 -0.5662
 7091SOL     OW32731   1.479   0.286   3.450  0.3100 -0.0885  0.0395
 7091SOL    HW132732   1.518   0.244   3.373 -0.2863 -3.2967  1.5275
 7091SOL    HW232733   1.387   0.277   3.424  0.8598 -0.0318 -1.9504
 7092SOL     OW32734   0.584   2.053  16.071 -1.2319 -0.2093 -0.7257
 7092SOL    HW132735   0.524   2.081  16.002  0.1262 -0.5053 -2.0265
 7092SOL    HW232736   0.574   2.128  16.131 -0.0742  0.1217 -0.9411
 7093SOL     OW32737   2.987   2.335   7.204 -0.3171 -0.2671 -0.7185
 7093SOL    HW132738   3.011   2.293   7.287  0.4724  0.0536 -0.7842
 7093SOL    HW232739   2.942   2.256   7.174 -1.8334  1.0382 -1.8449
 7094SOL     OW32740   4.587   0.780   7.974 -0.0070 -0.4745  0.2374
 7094SOL    HW132741   4.654   0.845   7.955 -1.5656  0.7425 -1.0534
 7094SOL    HW232742   4.586   0.791   8.069 -0.6250  1.8574 -0.0380
 7095SOL     OW32743   2.214   3.925   3.324 -0.0891 -0.1044  0.3288
 7095SOL    HW132744   2.243   3.912   3.233  0.9938 -3.3751  1.1454
 7095SOL    HW232745   2.283   3.980   3.360 -0.6573  1.6363 -1.2343
 7096SOL     OW32746   2.496   3.509   6.814  0.0040  0.2077 -0.1172
 7096SOL    HW132747   2.489   3.512   6.910 -0.3318  3.4713 -0.2424
 7096SOL    HW232748   2.509   3.602   6.795 -0.0709  0.7880  2.6782
 7097SOL     OW32749   3.757   0.810   2.078 -0.1490  0.4076 -0.0842
 7097SOL    HW132750   3.746   0.717   2.098  2.6447  0.2624  0.8308
 7097SOL    HW232751   3.669   0.847   2.068 -0.9047 -0.6488  2.6159
 7098SOL     OW32752   1.746   3.168   7.639  0.4960 -0.3568  0.5572
 7098SOL    HW132753   1.841   3.181   7.644  0.5180  0.2336 -1.5509
 7098SOL    HW232754   1.732   3.119   7.720 -0.2415 -1.2108 -0.0951
 7099SOL     OW32755   3.297   3.600   8.091  0.0298  0.1245 -0.4037
 7099SOL    HW132756   3.312   3.603   7.997  1.0636 -0.0448 -0.2472
 7099SOL    HW232757   3.386   3.618   8.123 -0.8436  0.4993  1.8241
 7100SOL     OW32758   3.805   0.015   9.709 -1.0198  0.4428 -0.2711
 7100SOL    HW132759   3.785   4.687   9.630  0.1193  1.1888 -1.0362
 7100SOL    HW232760   3.816   4.667   9.772  1.4526 -0.9649 -2.2682
 7101SOL     OW32761   4.609   1.548   9.670 -0.8655 -0.6598  0.3585
 7101SOL    HW132762   4.642   1.615   9.729 -0.0351 -1.2827  0.6037
 7101SOL    HW232763   4.514   1.544   9.680 -0.8180 -2.3155  0.1240
 7102SOL     OW32764   3.797   1.698   2.291 -0.1279 -0.2341 -0.2278
 7102SOL    HW132765   3.740   1.621   2.295  1.2924 -1.2044  1.9745
 7102SOL    HW232766   3.806   1.706   2.386  1.7908 -0.7178 -0.3572
 7103SOL     OW32767   2.106   3.263   9.543 -0.0623 -0.0588 -0.6880
 7103SOL    HW132768   2.189   3.298   9.575 -1.7264  2.2819  1.0443
 7103SOL    HW232769   2.048   3.274   9.619 -0.1402  2.1020 -1.0552
 7104SOL     OW32770   2.688   4.419  13.518  0.1836 -0.0034  0.4170
 7104SOL    HW132771   2.769   4.428  13.567  0.2214  0.2287  0.3117
 7104SOL    HW232772   2.693   4.500  13.468 -1.7247  0.2585  0.6742
 7105SOL     OW32773   1.502   0.168  17.533 -0.1166 -0.0848  0.2386
 7105SOL    HW132774   1.458   0.210  17.460 -1.8074 -0.8745  0.7956
 7105SOL    HW232775   1.595   0.181  17.516  0.3477 -2.8439  0.6053
 7106SOL     OW32776   0.013   4.648   6.829 -0.0652  0.3795  0.2190
 7106SOL    HW132777   4.717   4.616   6.917  1.2252 -1.5456 -0.1834
 7106SOL    HW232778   0.045   4.569   6.784  1.2754  1.9456 -1.5806
 7107SOL     OW32779   2.265   0.067  17.660  0.0219  0.6758  0.0594
 7107SOL    HW132780   2.235   0.093  17.573 -1.9735 -2.4935 -0.2355
 7107SOL    HW232781   2.182   0.077   0.010 -0.2953 -2.6196  0.2017
 7108SOL     OW32782   2.211   2.498   1.755 -0.1392 -0.1269  0.1663
 7108SOL    HW132783   2.274   2.514   1.685  0.1860  2.2656  1.0102
 7108SOL    HW232784   2.171   2.584   1.763 -2.7747 -1.4965  1.7895
 7109SOL     OW32785   0.974   0.160   9.430 -0.5846 -0.1307 -0.2033
 7109SOL    HW132786   1.036   0.197   9.493 -0.1291 -0.0005 -0.7261
 7109SOL    HW232787   0.894   0.170   9.481  0.5117  1.4803  1.2013
 7110SOL     OW32788   2.363   0.208   5.255 -0.1385  0.4911  0.3129
 7110SOL    HW132789   2.317   0.127   5.233  0.9145  0.0234 -0.2122
 7110SOL    HW232790   2.447   0.193   5.210 -0.0683 -2.2581  1.3427
 7111SOL     OW32791   3.892   3.146  11.204 -0.4502  0.0513 -0.0964
 7111SOL    HW132792   3.959   3.082  11.180 -1.4841 -1.9472  2.2933
 7111SOL    HW232793   3.918   3.157  11.295  0.6277  1.1607 -0.5455
 7112SOL     OW32794   4.530   4.185   5.585 -0.1051 -0.0699 -0.7644
 7112SOL    HW132795   4.446   4.228   5.597  0.4548  0.7058  0.4130
 7112SOL    HW232796   4.535   4.172   5.491  0.8537 -0.0595 -0.7107
 7113SOL     OW32797   4.667   3.711   4.262  0.0160  0.1819 -0.4116
 7113SOL    HW132798   4.598   3.674   4.317  0.3132 -1.2816 -1.0491
 7113SOL    HW232799   4.637   3.667   4.182 -1.1576 -1.2565  0.8303
 7114SOL     OW32800   0.945   4.120   2.538  0.2291  0.0953  0.5657
 7114SOL    HW132801   0.869   4.108   2.481 -0.6959  1.1427  1.5774
 7114SOL    HW232802   0.913   4.096   2.625  0.1339 -0.9658  0.2417
 7115SOL     OW32803   4.233   3.602   4.729 -0.0211  0.4528  0.0937
 7115SOL    HW132804   4.154   3.549   4.739  0.7818 -0.7019  0.3172
 7115SOL    HW232805   4.190   3.686   4.747  1.8790  2.0152 -2.7561
 7116SOL     OW32806   2.493   3.302   2.295 -0.3120 -0.0544 -0.2247
 7116SOL    HW132807   2.547   3.318   2.218 -0.7598 -0.5432 -0.6368
 7116SOL    HW232808   2.428   3.248   2.250  1.1106 -0.9052 -1.2447
 7117SOL     OW32809   2.399   2.716   9.692 -0.0054  0.5767  0.2223
 7117SOL    HW132810   2.322   2.667   9.664  1.3425 -1.2127 -0.3407
 7117SOL    HW232811   2.418   2.675   9.776  0.6375  1.7708  0.6631
 7118SOL     OW32812   2.934   3.947   6.641 -0.7582 -0.3120 -0.3781
 7118SOL    HW132813   2.980   3.990   6.713 -2.1860 -0.7654  0.7923
 7118SOL    HW232814   2.849   3.988   6.657  0.0837  0.6781  1.5352
 7119SOL     OW32815   1.293   2.468  12.937  0.1800 -0.3468  0.0915
 7119SOL    HW132816   1.202   2.453  12.910 -0.0546  0.8100  0.2224
 7119SOL    HW232817   1.287   2.547  12.990 -2.4731  0.5654 -1.5526
 7120SOL     OW32818   4.695   4.143   0.907  0.5574  0.2926 -0.2569
 7120SOL    HW132819   0.014   4.064   0.872  0.3587  0.7294 -1.4688
 7120SOL    HW232820   0.014   4.148   0.992 -2.2858 -1.3076  1.2556
 7121SOL     OW32821   0.929   0.854   8.984  0.3231  0.3234 -0.3228
 7121SOL    HW132822   0.974   0.937   8.994 -1.9941  1.3613  1.6306
 7121SOL    HW232823   0.857   0.873   8.924  2.2015  1.9120 -2.0348
 7122SOL     OW32824   3.630   1.726   4.990  0.3786  0.0392 -0.2922
 7122SOL    HW132825   3.661   1.722   4.900  0.5256 -0.6566 -0.2079
 7122SOL    HW232826   3.540   1.697   4.982 -0.3611  1.5980  2.0768
 7123SOL     OW32827   1.504   3.367   6.663  0.6893 -0.1024  0.6789
 7123SOL    HW132828   1.527   3.452   6.700  0.2015  0.5683 -0.5856
 7123SOL    HW232829   1.438   3.341   6.727 -1.7546 -0.6037 -2.0413
 7124SOL     OW32830   1.361   2.774  10.940  0.0646 -0.3631 -0.3682
 7124SOL    HW132831   1.383   2.690  10.979 -2.6463 -1.0854 -0.4011
 7124SOL    HW232832   1.266   2.784  10.948 -0.0115 -1.6394  0.2773
 7125SOL     OW32833   3.915   1.690   6.461  0.0376 -0.2979 -0.0266
 7125SOL    HW132834   3.844   1.710   6.399  0.9349  1.2527 -0.5586
 7125SOL    HW232835   3.856   1.673   6.534 -0.5429 -1.2681 -0.7156
 7126SOL     OW32836   2.659   3.596   7.691  0.0968 -0.2767 -0.0528
 7126SOL    HW132837   2.565   3.592   7.707  0.4464 -1.7020  1.5500
 7126SOL    HW232838   2.690   3.681   7.722 -3.5450  1.5989 -1.5291
 7127SOL     OW32839   0.877   2.877   9.891  0.0716  0.0126 -0.1829
 7127SOL    HW132840   0.884   2.956   9.838  1.4714  0.3559  0.5479
 7127SOL    HW232841   0.948   2.826   9.852 -1.1912 -2.1554  0.3010
 7128SOL     OW32842   2.456   1.486  10.182 -0.0322 -0.7597 -0.1166
 7128SOL    HW132843   2.517   1.414  10.166  0.2430 -0.5945  0.1912
 7128SOL    HW232844   2.445   1.523  10.094  1.6720  0.8199  0.3393
 7129SOL     OW32845   3.480   0.257   9.826 -0.7821  0.2887 -0.0434
 7129SOL    HW132846   3.415   0.287   9.889  0.5500  0.3189  1.3014
 7129SOL    HW232847   3.457   0.300   9.743 -0.0210 -2.0434 -1.4591
 7130SOL     OW32848   1.678   1.022   4.261 -0.2110  0.2160 -0.3114
 7130SOL    HW132849   1.658   1.110   4.230  1.0396 -0.2830 -2.5025
 7130SOL    HW232850   1.608   1.000   4.323  2.3707 -1.4671  2.0371
 7131SOL     OW32851   1.416   2.914   6.986 -0.1421 -0.2418 -0.5226
 7131SOL    HW132852   1.458   2.853   6.925 -1.3483 -1.3371 -0.2709
 7131SOL    HW232853   1.335   2.926   6.936 -0.3709  0.1657 -0.0571
 7132SOL     OW32854   4.085   2.625   6.706  0.4073  0.4534 -0.3013
 7132SOL    HW132855   4.174   2.609   6.674  0.8913  1.9646  0.2782
 7132SOL    HW232856   4.038   2.618   6.623 -2.9406  0.3052  1.6143
 7133SOL     OW32857   0.430   2.310   5.204  0.0684  0.2689 -0.2548
 7133SOL    HW132858   0.425   2.224   5.162  0.5882  0.8467 -1.5190
 7133SOL    HW232859   0.397   2.289   5.291 -0.2224  1.7184 -0.0273
 7134SOL     OW32860   2.510   0.068   7.794  0.1915 -0.3436 -0.3015
 7134SOL    HW132861   2.566   0.084   7.869 -1.1501 -2.1776  1.1061
 7134SOL    HW232862   2.487   0.154   7.760 -1.7662 -0.8485 -0.2479
 7135SOL     OW32863   0.914   2.424   5.640  0.0724 -0.4781  0.3270
 7135SOL    HW132864   0.883   2.465   5.720  0.4480  0.6522 -0.1051
 7135SOL    HW232865   0.987   2.476   5.604  0.0677 -0.2949  0.5853
 7136SOL     OW32866   4.476   2.532  11.976 -0.1657  0.1854  0.1232
 7136SOL    HW132867   4.440   2.511  11.890  1.2871 -0.2544 -0.3744
 7136SOL    HW232868   4.439   2.620  11.973 -2.7921 -0.9091 -0.2798
 7137SOL     OW32869   1.559   2.443   9.010  0.6245  0.2443 -0.2339
 7137SOL    HW132870   1.475   2.478   8.978 -0.2769 -1.6846  0.0328
 7137SOL    HW232871   1.587   2.389   8.937 -1.4426  1.0757 -1.6498
 7138SOL     OW32872   3.883   2.463   3.612  0.1308  0.2009  0.5195
 7138SOL    HW132873   3.824   2.436   3.683 -1.0037 -0.6424 -0.7422
 7138SOL    HW232874   3.852   2.553   3.595 -1.4772 -0.1361  1.7033
 7139SOL     OW32875   1.464   4.670  11.139  0.5630 -0.6238  0.1489
 7139SOL    HW132876   1.429   0.009  11.203 -1.1004 -1.5813  0.1794
 7139SOL    HW232877   1.543   4.654  11.190 -2.0859  0.0952  4.4989
 7140SOL     OW32878   2.700   4.321  12.629  0.2359 -0.2087 -0.1742
 7140SOL    HW132879   2.792   4.347  12.638  0.0286  0.8329 -1.0698
 7140SOL    HW232880   2.679   4.354  12.542  0.0248  1.2913  0.4460
 7141SOL     OW32881   3.626   0.685   6.866 -0.4174 -0.3090 -0.2842
 7141SOL    HW132882   3.661   0.610   6.912  1.4392 -0.1354 -1.4172
 7141SOL    HW232883   3.604   0.658   6.777  2.6831 -1.0364 -0.8204
 7142SOL     OW32884   0.121   0.904   5.904 -0.6156  0.0029  0.3680
 7142SOL    HW132885   0.142   0.974   5.965  0.8042 -1.2049  1.2523
 7142SOL    HW232886   0.050   0.855   5.946 -0.7872 -1.4155 -1.5677
 7143SOL     OW32887   2.484   3.700  11.182 -0.1999  0.6897 -0.7247
 7143SOL    HW132888   2.553   3.724  11.244  1.7688 -3.4740 -1.3233
 7143SOL    HW232889   2.412   3.693  11.244 -1.0539  0.6204 -1.7252
 7144SOL     OW32890   4.320   4.210   5.953 -0.2638  0.6954  0.1642
 7144SOL    HW132891   4.292   4.184   6.041 -1.0458  2.4696  0.4203
 7144SOL    HW232892   4.401   4.159   5.944  0.5755  1.8128  1.4309
 7145SOL     OW32893   4.199   1.811   3.742 -0.2418 -0.0888 -0.4121
 7145SOL    HW132894   4.243   1.867   3.678 -0.6609  1.0060  0.2393
 7145SOL    HW232895   4.138   1.758   3.692 -0.8617 -0.2697  0.5356
 7146SOL     OW32896   1.992   3.684   7.385 -0.1053  0.4091  0.4909
 7146SOL    HW132897   1.914   3.633   7.362  0.8332  0.4168 -2.6936
 7146SOL    HW232898   2.029   3.641   7.462 -2.1481 -0.3811  1.0329
 7147SOL     OW32899   0.272   2.343  12.036 -0.1555  0.3475 -0.1111
 7147SOL    HW132900   0.203   2.386  11.986  0.0855  0.2914 -0.4944
 7147SOL    HW232901   0.307   2.276  11.977 -0.7069 -0.9008  0.9676
 7148SOL     OW32902   3.736   4.069   0.944 -0.3636 -0.5142 -0.1950
 7148SOL    HW132903   3.800   4.138   0.963 -1.5981  0.6316 -0.2155
 7148SOL    HW232904   3.748   4.013   1.021 -1.1398 -0.4121  0.0071
 7149SOL     OW32905   2.756   3.953  12.511 -0.3253 -0.3710 -0.3872
 7149SOL    HW132906   2.838   3.993  12.537  0.2999 -1.1528 -1.1598
 7149SOL    HW232907   2.754   3.882  12.575  1.2087 -0.8960 -0.9321
 7150SOL     OW32908   2.904   0.230  14.739 -0.2738  0.7152 -0.3519
 7150SOL    HW132909   2.915   0.163  14.806  0.0928 -0.5212 -1.6369
 7150SOL    HW232910   2.809   0.235  14.744 -0.3147 -1.4452  0.8760
 7151SOL     OW32911   1.418   1.720   4.515 -0.4767 -0.3929  0.4538
 7151SOL    HW132912   1.359   1.657   4.474  0.5005  0.2975 -2.0670
 7151SOL    HW232913   1.402   1.711   4.608 -0.4653 -2.3617  0.2590
 7152SOL     OW32914   2.525   3.415   8.083  0.2650  0.1771  0.2109
 7152SOL    HW132915   2.547   3.507   8.093  2.6487 -0.1679 -2.0801
 7152SOL    HW232916   2.537   3.393   7.991 -2.1871  3.5467 -0.8910
 7153SOL     OW32917   4.119   1.264   7.942  0.2304  0.2193 -0.0898
 7153SOL    HW132918   4.028   1.238   7.959  0.2183  1.9745  2.4531
 7153SOL    HW232919   4.160   1.182   7.970  1.1040  1.1526  1.3271
 7154SOL     OW32920   2.873   0.396   8.095 -0.5594 -0.3761  0.0764
 7154SOL    HW132921   2.804   0.354   8.147 -0.7018 -0.3528 -0.0935
 7154SOL    HW232922   2.891   0.468   8.155 -1.4854 -1.2308  1.3970
 7155SOL     OW32923   4.520   4.054   0.220 -1.3869 -0.4373  0.4541
 7155SOL    HW132924   4.470   4.091   0.147  1.1422 -0.4294 -1.2770
 7155SOL    HW232925   4.479   4.093   0.297  1.5802  0.5972  1.5243
 7156SOL     OW32926   1.979   0.115   4.265  0.6774  0.2791 -0.6131
 7156SOL    HW132927   2.006   0.200   4.229  1.3305  0.5790  0.6069
 7156SOL    HW232928   1.901   0.136   4.317 -0.8362 -1.4661 -2.1674
 7157SOL     OW32929   2.799   1.929  15.481 -0.3066  0.4889 -0.1493
 7157SOL    HW132930   2.760   1.978  15.553 -2.4814  1.5527 -2.0501
 7157SOL    HW232931   2.754   1.845  15.489 -0.7315  0.8403  1.1803
 7158SOL     OW32932   4.548   1.338   3.558 -0.1104  0.6556 -0.3563
 7158SOL    HW132933   4.461   1.368   3.533  0.2125  1.4993 -0.4710
 7158SOL    HW232934   4.592   1.422   3.544 -3.2439  2.6673  2.2567
 7159SOL     OW32935   1.668   4.137  13.626 -0.0912  0.0450  0.1725
 7159SOL    HW132936   1.649   4.224  13.661 -1.7023  0.1660 -1.0260
 7159SOL    HW232937   1.627   4.077  13.689  1.3895 -1.1034  0.0481
 7160SOL     OW32938   1.885   3.440  15.511  0.6373  0.2689  0.3977
 7160SOL    HW132939   1.871   3.425  15.605  2.4659  0.7138  0.7448
 7160SOL    HW232940   1.909   3.355  15.473  0.5593  0.7536 -0.7262
 7161SOL     OW32941   4.063   4.406   6.025  0.2767 -0.5644 -0.1094
 7161SOL    HW132942   4.034   4.329   6.075  0.7871 -0.8027 -0.1780
 7161SOL    HW232943   4.032   4.478   6.079  1.9340 -0.9726  1.3655
 7162SOL     OW32944   4.714   2.157   3.755 -0.3762 -0.2268 -0.2703
 7162SOL    HW132945   4.710   2.249   3.782  0.4391 -0.0538 -0.7423
 7162SOL    HW232946   4.680   2.119   3.836  0.3234 -0.4889 -0.1049
 7163SOL     OW32947   4.429   0.723   8.772 -0.2858 -0.6715  0.1335
 7163SOL    HW132948   4.365   0.741   8.841  1.1651  0.8742  1.0774
 7163SOL    HW232949   4.513   0.730   8.817 -1.9571 -2.1406  3.5159
 7164SOL     OW32950   3.667   4.232   9.427  0.0657  0.1287  0.3166
 7164SOL    HW132951   3.680   4.275   9.343  1.3638 -0.3893  0.2564
 7164SOL    HW232952   3.665   4.142   9.395 -2.3903  0.0105  0.7759
 7165SOL     OW32953   2.189   2.533   3.771 -0.1544 -0.1533  0.4527
 7165SOL    HW132954   2.158   2.622   3.752  0.5880  0.5869  2.7258
 7165SOL    HW232955   2.219   2.549   3.860  0.3678 -2.4168  0.6712
 7166SOL     OW32956   2.956   4.373  11.653  0.0699  0.1037  0.3369
 7166SOL    HW132957   2.918   4.446  11.604 -0.1897 -2.0995 -2.6743
 7166SOL    HW232958   3.043   4.362  11.614 -0.0771  5.2096 -1.4854
 7167SOL     OW32959   1.094   0.700  13.663  0.0237  0.2131 -0.1460
 7167SOL    HW132960   1.017   0.738  13.620 -1.2330 -0.6272  1.3400
 7167SOL    HW232961   1.163   0.693  13.597 -0.3621 -0.5374 -0.4720
 7168SOL     OW32962   2.392   1.821   8.233 -0.4718  0.1176  0.3413
 7168SOL    HW132963   2.355   1.907   8.256 -0.2506  0.1996  0.3947
 7168SOL    HW232964   2.463   1.844   8.173 -0.5746 -0.3652  0.0388
 7169SOL     OW32965   1.993   4.328   5.626  0.1568 -0.3219 -0.2900
 7169SOL    HW132966   1.957   4.406   5.585  0.8276  0.2784  0.2715
 7169SOL    HW232967   2.047   4.362   5.698  2.0150  0.6517 -2.1342
 7170SOL     OW32968   2.332   0.169   6.144  0.8632 -0.2690  0.4508
 7170SOL    HW132969   2.301   0.133   6.227  2.9507 -0.4949  1.1380
 7170SOL    HW232970   2.291   0.120   6.074 -0.0553 -0.5234  1.1719
 7171SOL     OW32971   1.084   2.102   6.397  0.4890  0.0029 -0.3933
 7171SOL    HW132972   1.033   2.145   6.466  2.5668 -1.3121  1.9747
 7171SOL    HW232973   1.019   2.121   6.329  1.3862  2.3636 -0.5888
 7172SOL     OW32974   0.632   4.046  13.355 -0.0522 -0.4008  0.0079
 7172SOL    HW132975   0.719   4.012  13.336  0.8480  2.1614 -0.5679
 7172SOL    HW232976   0.632   4.031  13.450  0.8318  1.8845  0.3685
 7173SOL     OW32977   4.480   2.465   1.466 -0.3944 -0.6460 -0.5415
 7173SOL    HW132978   4.479   2.490   1.374 -0.3720 -3.4033 -1.2829
 7173SOL    HW232979   4.572   2.488   1.482  0.0623 -2.1192 -1.0297
 7174SOL     OW32980   2.154   1.023   5.612  0.3856 -0.0622 -0.7128
 7174SOL    HW132981   2.117   1.023   5.524 -0.4532 -2.0454 -0.3546
 7174SOL    HW232982   2.084   1.070   5.658  0.1879  0.3915 -1.4776
 7175SOL     OW32983   3.173   4.642   8.279 -0.0674  0.7790 -0.3171
 7175SOL    HW132984   3.199   4.550   8.288  1.3510  1.3056  0.8450
 7175SOL    HW232985   3.251   4.669   8.230  0.6938 -1.1005 -0.1401
 7176SOL     OW32986   0.041   2.031  16.497  0.0201  0.4003 -0.4047
 7176SOL    HW132987   0.053   2.093  16.568 -2.5675  0.4617 -0.0245
 7176SOL    HW232988   4.671   2.047  16.481 -0.3568 -2.9588 -1.5991
 7177SOL     OW32989   1.434   4.015   2.367  0.3359  0.4067  0.7158
 7177SOL    HW132990   1.355   4.068   2.352  1.6463  2.3770  0.6671
 7177SOL    HW232991   1.499   4.080   2.338  0.9850 -1.4107 -1.8688
 7178SOL     OW32992   2.914   0.063   2.797  0.5327  0.3955  0.2370
 7178SOL    HW132993   2.926   0.109   2.714  2.6998 -1.4819 -0.4866
 7178SOL    HW232994   2.909   0.142   2.850 -2.1124 -0.1290  0.7780
 7179SOL     OW32995   1.870   4.392  11.684  0.0641  0.8222  0.2379
 7179SOL    HW132996   1.846   4.469  11.736  1.6861  1.1114  0.5589
 7179SOL    HW232997   1.805   4.329  11.713 -0.0722 -0.1120 -2.0899
 7180SOL     OW32998   2.938   3.634  12.902  0.0620  0.8334  0.4466
 7180SOL    HW132999   2.881   3.655  12.828  0.6939 -1.2263 -0.6083
 7180SOL    HW233000   2.871   3.595  12.959  1.1573 -0.5717  0.7754
 7181SOL     OW33001   4.556   4.512   8.801  0.2976  0.4851 -0.3583
 7181SOL    HW133002   4.618   4.496   8.730  2.0675 -2.5389  1.8795
 7181SOL    HW233003   4.580   4.602   8.820 -0.2141  0.6255 -0.3728
 7182SOL     OW33004   3.963   2.619   2.049  0.0156  0.0951  0.3377
 7182SOL    HW133005   3.883   2.577   2.015  1.1267 -0.1928 -1.9258
 7182SOL    HW233006   4.003   2.654   1.969  1.0180  0.3090  0.9398
 7183SOL     OW33007   1.633   2.276   5.876 -0.0638 -0.8839 -0.2955
 7183SOL    HW133008   1.706   2.338   5.871 -0.8830 -0.0244 -1.6579
 7183SOL    HW233009   1.558   2.321   5.913 -0.9335 -2.0349 -0.6433
 7184SOL     OW33010   4.414   0.288   2.026 -0.5353  0.2343  0.9757
 7184SOL    HW133011   4.393   0.381   2.039  2.3841  1.1811 -0.9020
 7184SOL    HW233012   4.327   0.261   1.997 -0.8445  2.1248  0.1223
 7185SOL     OW33013   3.251   2.297  16.802  0.2182 -0.5820 -0.1138
 7185SOL    HW133014   3.159   2.309  16.780  0.5221 -0.6941 -1.4789
 7185SOL    HW233015   3.253   2.244  16.882 -0.4132  0.5897  0.6776
 7186SOL     OW33016   3.104   2.677   2.963  0.0762  0.5714 -0.1288
 7186SOL    HW133017   3.180   2.625   2.989  1.8306  2.2117 -2.0253
 7186SOL    HW233018   3.036   2.644   3.022  0.3366 -1.6523 -1.0623
 7187SOL     OW33019   2.452   1.799   8.996 -0.5420 -0.2813  0.0526
 7187SOL    HW133020   2.478   1.790   8.904 -1.0326 -1.1574 -0.0055
 7187SOL    HW233021   2.512   1.870   9.018 -2.5186  0.8797  1.7453
 7188SOL     OW33022   1.295   3.020  16.201  0.7655  0.3759 -0.2592
 7188SOL    HW133023   1.292   2.977  16.116 -3.1414 -0.5788  0.3301
 7188SOL    HW233024   1.246   3.100  16.181  0.7941  1.1018  2.5659
 7189SOL     OW33025   2.876   2.698  13.639  0.2362 -0.2020 -0.0549
 7189SOL    HW133026   2.902   2.749  13.716  0.4367 -2.2284  1.2334
 7189SOL    HW233027   2.781   2.690  13.652  0.7389 -2.9353  1.9605
 7190SOL     OW33028   2.117   1.779   5.615  0.5765  0.1573  0.3896
 7190SOL    HW133029   2.124   1.814   5.526  2.2362  0.1465  0.5194
 7190SOL    HW233030   2.072   1.695   5.605  1.6997 -0.6997  2.4341
 7191SOL     OW33031   4.698   4.077   9.142 -0.4231  0.0509  0.1275
 7191SOL    HW133032   0.011   4.007   9.087  0.9378 -0.5772  1.8179
 7191SOL    HW233033   4.670   4.138   9.073  2.9120 -0.7812 -1.9832
 7192SOL     OW33034   2.938   0.873   8.335  0.1370  0.0244  0.9551
 7192SOL    HW133035   3.021   0.918   8.348  1.1520 -0.6519 -3.1635
 7192SOL    HW233036   2.880   0.933   8.382 -0.8041  2.0757 -2.8706
 7193SOL     OW33037   4.072   0.132  12.954 -0.1805 -0.1907  0.0002
 7193SOL    HW133038   4.152   0.078  12.959 -0.8154 -1.2018 -0.6979
 7193SOL    HW233039   4.059   0.148  13.047 -0.5703 -0.0890 -0.0736
 7194SOL     OW33040   2.865   3.659   6.043  0.1862 -0.7841 -0.0164
 7194SOL    HW133041   2.785   3.681   6.090 -0.1284  3.2409 -2.4748
 7194SOL    HW233042   2.837   3.637   5.954 -1.5488 -0.1322  0.3868
 7195SOL     OW33043   4.245   4.440   4.583 -0.3509 -0.4632 -0.4093
 7195SOL    HW133044   4.265   4.529   4.551  0.0540  0.0813  1.3662
 7195SOL    HW233045   4.320   4.419   4.639 -0.8752 -0.3706  0.3134
 7196SOL     OW33046   1.521   2.479   7.707 -0.8485  0.2749 -0.1027
 7196SOL    HW133047   1.550   2.453   7.619 -0.9384 -0.5473  0.1087
 7196SOL    HW233048   1.451   2.415   7.714  0.9164 -1.6259  0.3469
 7197SOL     OW33049   2.615   3.983   4.421  0.1089 -0.3729  1.3814
 7197SOL    HW133050   2.603   4.067   4.464  0.6950  1.1996 -1.5160
 7197SOL    HW233051   2.695   3.993   4.370 -1.1370  1.9973 -0.1164
 7198SOL     OW33052   1.063   1.330  10.310 -0.2287 -0.3159 -0.0237
 7198SOL    HW133053   1.099   1.247  10.342 -2.2179 -1.4162 -0.6648
 7198SOL    HW233054   1.125   1.355  10.241  0.1542 -0.1637  0.3756
 7199SOL     OW33055   2.766   4.625   3.983 -0.3668 -0.2866  0.7688
 7199SOL    HW133056   2.712   4.550   3.956 -0.1190 -0.5425  0.9865
 7199SOL    HW233057   2.852   4.587   3.970 -0.4744  0.2696 -1.4916
 7200SOL     OW33058   4.093   2.864   4.298  0.7867  0.0096  0.4567
 7200SOL    HW133059   4.083   2.941   4.242 -0.1809 -0.0576  0.5384
 7200SOL    HW233060   4.189   2.854   4.300  0.7145 -0.7892  0.1863
 7201SOL     OW33061   2.873   3.318   5.140  0.7179 -0.1892 -0.4401
 7201SOL    HW133062   2.823   3.254   5.090 -0.7942  0.5793  0.0959
 7201SOL    HW233063   2.965   3.295   5.130  0.7775  1.2820 -3.1629
 7202SOL     OW33064   0.740   2.538  15.174 -0.0625 -0.4202  0.3520
 7202SOL    HW133065   0.821   2.488  15.186  1.1440  0.5788 -3.5568
 7202SOL    HW233066   0.741   2.555  15.079  1.8188 -2.6155 -0.0150
 7203SOL     OW33067   4.396   2.060   5.004 -0.1851  0.0460 -0.4520
 7203SOL    HW133068   4.448   1.981   4.990  1.9160  1.6153 -1.5135
 7203SOL    HW233069   4.394   2.103   4.918  2.8149  2.7138  0.7886
 7204SOL     OW33070   1.400   2.302  16.972 -0.5591  0.1354 -0.4681
 7204SOL    HW133071   1.488   2.338  16.966 -0.1749 -0.7454 -0.0908
 7204SOL    HW233072   1.413   2.218  16.928  2.0585  0.6076 -0.5971
 7205SOL     OW33073   1.928   3.679  15.306  0.3684 -0.3600  0.1559
 7205SOL    HW133074   1.912   3.628  15.226 -0.7575  0.5394 -0.1963
 7205SOL    HW233075   1.903   3.616  15.373  0.1008 -0.5561 -0.1247
 7206SOL     OW33076   4.564   4.458   6.558 -0.1068 -0.8484  0.1112
 7206SOL    HW133077   4.478   4.459   6.599  1.1909  0.1371  2.8129
 7206SOL    HW233078   4.556   4.524   6.489 -2.1698 -0.4204  0.7790
 7207SOL     OW33079   1.360   3.628  14.224 -0.3570 -0.2123  0.3487
 7207SOL    HW133080   1.455   3.615  14.231 -0.3168 -0.1335 -0.0571
 7207SOL    HW233081   1.325   3.544  14.255  1.1441  0.3348  3.5608
 7208SOL     OW33082   4.669   0.851  13.900  0.2817  0.3845  0.1587
 7208SOL    HW133083   0.003   0.924  13.922 -1.4068  2.0094 -0.8508
 7208SOL    HW233084   4.627   0.838  13.985  1.9441  0.6031  1.0155
 7209SOL     OW33085   0.554   1.765  13.749  0.0498  0.1477  0.1328
 7209SOL    HW133086   0.523   1.827  13.815 -1.1186  0.2560 -0.5241
 7209SOL    HW233087   0.479   1.772  13.690 -1.9837  0.5578  2.7969
 7210SOL     OW33088   3.238   3.764   4.708 -0.5577  0.0099  0.2250
 7210SOL    HW133089   3.272   3.748   4.796 -1.7367 -0.8862  0.5349
 7210SOL    HW233090   3.149   3.730   4.720 -1.0609  1.3777  0.3532
 7211SOL     OW33091   4.394   4.062   6.656  0.4607  0.2692 -0.0764
 7211SOL    HW133092   4.470   4.007   6.636  1.1265  1.5231 -0.9235
 7211SOL    HW233093   4.381   4.019   6.741  1.3600  0.8392  0.3502
 7212SOL     OW33094   4.156   1.251   6.025 -0.0808 -0.0103  0.7156
 7212SOL    HW133095   4.107   1.326   5.991  1.0138  0.3519 -0.0616
 7212SOL    HW233096   4.093   1.228   6.093 -0.7236  1.3154  0.5777
 7213SOL     OW33097   3.736   3.994   6.067  0.2652 -0.3974 -0.1753
 7213SOL    HW133098   3.768   3.951   5.988  0.8796  0.0782 -0.1740
 7213SOL    HW233099   3.740   4.086   6.042  2.8847  0.3488  3.0778
 7214SOL     OW33100   3.368   3.342  13.992  0.3627 -0.1387 -0.1734
 7214SOL    HW133101   3.354   3.436  14.004 -0.4952 -0.2075 -0.6500
 7214SOL    HW233102   3.385   3.317  14.083 -3.2253 -0.4113  0.4313
 7215SOL     OW33103   2.166   0.232   7.471  0.1235 -0.0736  0.1598
 7215SOL    HW133104   2.203   0.251   7.385 -0.3141 -4.3345 -1.0022
 7215SOL    HW233105   2.078   0.268   7.465  0.6839  0.8970 -2.2931
 7216SOL     OW33106   3.625   2.698   0.909  0.5335 -0.4777 -0.2812
 7216SOL    HW133107   3.625   2.607   0.939  0.3734 -0.4687 -0.2532
 7216SOL    HW233108   3.721   2.705   0.911  0.6069 -1.5867  0.0162
 7217SOL     OW33109   2.958   1.747   2.150  0.4971 -0.5824  0.3505
 7217SOL    HW133110   3.013   1.800   2.092 -0.9878  0.3829 -0.1910
 7217SOL    HW233111   2.869   1.772   2.124  0.5856  0.2183  0.8222
 7218SOL     OW33112   4.606   1.225  16.954  0.2758  0.1072  0.1661
 7218SOL    HW133113   4.662   1.215  16.877 -1.0215  0.3051 -0.8030
 7218SOL    HW233114   4.637   1.307  16.992 -0.3336  1.0907 -1.4612
 7219SOL     OW33115   1.798   1.702   7.824  0.5228 -0.1895 -0.1287
 7219SOL    HW133116   1.869   1.655   7.868  1.2502  1.2449  0.2165
 7219SOL    HW233117   1.726   1.643   7.845  0.7212  0.7652  3.1575
 7220SOL     OW33118   2.279   2.781   3.229 -0.1331 -0.3877 -0.1439
 7220SOL    HW133119   2.227   2.766   3.150 -1.8268  1.9661  0.5325
 7220SOL    HW233120   2.364   2.750   3.196 -1.3994 -3.3566 -0.6373
 7221SOL     OW33121   1.018   2.069   5.660 -0.2520 -0.4654  0.6139
 7221SOL    HW133122   0.964   2.069   5.581  0.8672  1.0739 -0.1461
 7221SOL    HW233123   1.093   2.015   5.633 -1.8126 -0.0731 -4.5090
 7222SOL     OW33124   4.378   3.771  16.070 -0.2235 -0.0771 -0.2378
 7222SOL    HW133125   4.457   3.725  16.098  0.4364  1.3946  0.3139
 7222SOL    HW233126   4.381   3.842  16.134  0.5308 -3.2784  3.2668
 7223SOL     OW33127   1.351   3.496  12.529  0.4501 -0.5084  0.6915
 7223SOL    HW133128   1.293   3.523  12.601  0.6598  1.4390  0.1072
 7223SOL    HW233129   1.402   3.432  12.579  1.4455 -0.3957 -0.1932
 7224SOL     OW33130   1.042   0.782   1.843  0.2121 -0.2462 -0.9026
 7224SOL    HW133131   1.007   0.785   1.753 -0.6402  2.4840 -0.4735
 7224SOL    HW233132   0.964   0.805   1.893  0.0033 -0.9181 -0.9190
 7225SOL     OW33133   1.808   1.589  17.488  0.0001 -0.2272  0.2371
 7225SOL    HW133134   1.744   1.570  17.556  1.9495 -0.3746  2.0194
 7225SOL    HW233135   1.871   1.517  17.495  1.5917  1.0938 -0.5086
 7226SOL     OW33136   3.756   4.710  15.520  0.0768 -0.7768 -0.1731
 7226SOL    HW133137   3.819   4.640  15.535  0.5638 -0.2435  0.2821
 7226SOL    HW233138   3.703   4.683  15.595 -0.2487 -0.1980 -0.1902
 7227SOL     OW33139   2.336   4.573   4.118 -0.1376 -0.0995 -0.1673
 7227SOL    HW133140   2.425   4.545   4.140 -0.2188 -0.9413 -0.9017
 7227SOL    HW233141   2.320   4.559   4.025 -1.2948 -1.5206  0.2388
 7228SOL     OW33142   1.880   1.489  16.309 -0.1884 -0.5641  0.1543
 7228SOL    HW133143   1.858   1.524  16.222  0.2278 -1.0732 -0.1566
 7228SOL    HW233144   1.885   1.571  16.358 -0.5602  0.1876 -1.0666
 7229SOL     OW33145   3.577   3.341  15.229 -0.0961  0.0013  0.0903
 7229SOL    HW133146   3.619   3.299  15.304 -0.6078 -1.0484 -0.1977
 7229SOL    HW233147   3.573   3.431  15.262 -1.9892 -0.9399  2.4638
 7230SOL     OW33148   3.870   2.110   8.912 -0.1959  0.2440 -0.0060
 7230SOL    HW133149   3.913   2.040   8.961 -1.4911 -1.8315 -1.8181
 7230SOL    HW233150   3.890   2.190   8.961  0.8484  0.9984 -1.6724
 7231SOL     OW33151   2.644   0.115   3.206 -0.1039  0.1688  0.1040
 7231SOL    HW133152   2.582   0.139   3.276  2.5151  0.0175  2.4505
 7231SOL    HW233153   2.616   0.171   3.133 -0.5910  0.0888  0.2302
 7232SOL     OW33154   1.653   3.104   5.641  0.2145 -0.8642  0.1615
 7232SOL    HW133155   1.747   3.094   5.660 -0.2378 -2.2037  1.6839
 7232SOL    HW233156   1.641   3.092   5.547  1.1232  0.9753 -0.2039
 7233SOL     OW33157   1.899   3.459   4.539  0.5257  0.3056 -0.4973
 7233SOL    HW133158   1.808   3.443   4.516  0.6235 -1.4761  0.3899
 7233SOL    HW233159   1.901   3.550   4.569 -0.3477 -0.0712  0.6719
 7234SOL     OW33160   2.320   0.289   5.731  0.2915 -0.9630  0.3481
 7234SOL    HW133161   2.369   0.338   5.797 -0.1027  2.0979 -1.6564
 7234SOL    HW233162   2.386   0.223   5.710  1.4548  0.2798  0.1058
 7235SOL     OW33163   1.144   0.103  13.392 -0.4198  0.1123 -0.1622
 7235SOL    HW133164   1.155   0.131  13.482 -1.5009  0.9529 -0.2915
 7235SOL    HW233165   1.206   0.164  13.352  2.1383 -0.8908  2.2650
 7236SOL     OW33166   4.406   0.324   1.236  0.3777  0.0741 -0.6072
 7236SOL    HW133167   4.443   0.250   1.187 -1.6523 -1.0140 -0.4699
 7236SOL    HW233168   4.325   0.296   1.277  2.0871 -0.2507  2.5245
 7237SOL     OW33169   3.798   4.439   2.843 -0.3412 -0.0934 -0.5248
 7237SOL    HW133170   3.883   4.398   2.825  0.8876  1.9193  0.7512
 7237SOL    HW233171   3.831   4.528   2.849  0.2769 -0.3413 -0.2565
 7238SOL     OW33172   0.608   2.883   8.462 -0.0768  0.2843  0.2562
 7238SOL    HW133173   0.607   2.947   8.533  2.1796  1.7308 -1.0502
 7238SOL    HW233174   0.571   2.803   8.500  0.0784 -0.3177 -0.8425
 7239SOL     OW33175   3.930   0.823   5.660  0.5137  0.1403 -0.1318
 7239SOL    HW133176   3.985   0.885   5.612 -1.3069  2.2331  0.4463
 7239SOL    HW233177   3.906   0.879   5.734 -0.6786  0.1315 -0.5219
 7240SOL     OW33178   0.506   2.928  12.687 -0.4507 -0.1864  0.3023
 7240SOL    HW133179   0.503   2.842  12.646  0.9354 -0.5605  0.9970
 7240SOL    HW233180   0.472   2.903  12.772 -0.7916 -3.5477 -0.8175
 7241SOL     OW33181   2.916   0.891   9.588  0.0537  0.1479  0.2617
 7241SOL    HW133182   2.929   0.851   9.501  3.5314 -2.3494  1.9163
 7241SOL    HW233183   2.989   0.856   9.639 -0.5248  0.2278  1.1469
 7242SOL     OW33184   1.206   2.519   6.088 -0.0371 -0.0588 -0.4875
 7242SOL    HW133185   1.174   2.431   6.068  2.2373 -0.7220 -1.2434
 7242SOL    HW233186   1.271   2.529   6.019 -0.0445  0.9292 -0.3385
 7243SOL     OW33187   2.250   2.509   5.691  0.0297  0.0844  0.0366
 7243SOL    HW133188   2.330   2.535   5.644  0.7026 -1.4276  0.3372
 7243SOL    HW233189   2.257   2.563   5.769 -2.2297 -0.3678  0.5556
 7244SOL     OW33190   0.462   3.982   7.209 -0.0527  0.6568 -0.3198
 7244SOL    HW133191   0.445   3.928   7.131  1.5131 -0.3285  0.0244
 7244SOL    HW233192   0.457   3.918   7.280 -0.3824 -1.3416 -2.1046
 7245SOL     OW33193   4.184   3.389   1.341  0.1038  0.2936 -0.0214
 7245SOL    HW133194   4.165   3.453   1.409  0.6752 -0.5991  0.9684
 7245SOL    HW233195   4.099   3.348   1.328 -1.2706  3.4056 -0.8016
 7246SOL     OW33196   0.595   0.239   8.227 -0.0223 -0.5052 -0.0608
 7246SOL    HW133197   0.627   0.229   8.137  0.8882  0.3426  0.1733
 7246SOL    HW233198   0.652   0.309   8.260 -0.9083  0.0841  0.2283
 7247SOL     OW33199   4.570   2.142   6.887 -0.0105  0.1800 -0.0033
 7247SOL    HW133200   4.610   2.199   6.822 -2.8891  0.2259 -1.7624
 7247SOL    HW233201   4.586   2.056   6.849 -3.3069 -0.5022  0.0821
 7248SOL     OW33202   2.705   0.368  14.267 -0.2668 -0.2786 -0.1998
 7248SOL    HW133203   2.657   0.402  14.191  1.0621  1.3695 -0.2964
 7248SOL    HW233204   2.750   0.448  14.292 -0.2536 -0.3292 -0.0622
 7249SOL     OW33205   3.148   3.872   4.474 -0.5817  0.2447 -0.8525
 7249SOL    HW133206   3.208   3.895   4.403  0.1575 -1.4162 -0.7672
 7249SOL    HW233207   3.198   3.823   4.540  0.0575  2.6408  0.4345
 7250SOL     OW33208   3.193   2.311  15.028 -0.0373 -0.0961 -0.7873
 7250SOL    HW133209   3.121   2.302  15.090  0.2655  1.6452 -0.1773
 7250SOL    HW233210   3.167   2.243  14.967 -0.9943 -0.9998  0.6293
 7251SOL     OW33211   2.725   3.217   6.397 -0.1541 -0.5638 -0.6854
 7251SOL    HW133212   2.720   3.299   6.348  0.6678  0.4245  0.9032
 7251SOL    HW233213   2.640   3.227   6.442 -0.7547 -2.5132 -1.3740
 7252SOL     OW33214   0.073   2.210  16.729  0.4031  0.6417 -0.1994
 7252SOL    HW133215   0.011   2.283  16.723 -0.1990  0.1378 -0.0537
 7252SOL    HW233216   0.030   2.153  16.793 -0.9734 -0.5978 -2.2353
 7253SOL     OW33217   4.008   1.352   7.528 -0.1815 -0.5741 -0.6586
 7253SOL    HW133218   3.998   1.433   7.480  0.6834 -1.1827 -1.8492
 7253SOL    HW233219   4.046   1.384   7.610  0.3104 -2.9106  0.0468
 7254SOL     OW33220   0.595   3.026  11.911  0.1144  0.4701 -0.0853
 7254SOL    HW133221   0.561   3.097  11.857 -0.6597  1.5049  1.7454
 7254SOL    HW233222   0.537   2.952  11.893 -0.9108  1.1225  0.5061
 7255SOL     OW33223   2.884   1.860   8.753  0.2138  0.1330  0.3053
 7255SOL    HW133224   2.816   1.893   8.694 -1.3850 -0.2046  1.9629
 7255SOL    HW233225   2.851   1.772   8.771  0.4598  0.2426  1.2495
 7256SOL     OW33226   4.268   2.041  11.997  0.2391 -0.2275 -0.3552
 7256SOL    HW133227   4.322   1.962  11.996  0.1603 -0.2811 -0.3484
 7256SOL    HW233228   4.323   2.105  11.952  0.3574 -0.1893 -0.1553
 7257SOL     OW33229   1.235   1.673   3.258  0.0188  0.2942 -0.8092
 7257SOL    HW133230   1.151   1.682   3.213 -0.5558 -1.5412 -0.0910
 7257SOL    HW233231   1.228   1.581   3.283 -0.8005  0.5921  0.0272
 7258SOL     OW33232   1.671   4.512   1.413 -0.0135 -0.2243  0.0760
 7258SOL    HW133233   1.587   4.542   1.447  0.7413  1.9366  0.0198
 7258SOL    HW233234   1.675   4.561   1.331 -0.0736  0.5609  0.5473
 7259SOL     OW33235   0.503   3.537  14.888  0.1013  0.6730  0.1473
 7259SOL    HW133236   0.594   3.537  14.916  0.2744 -0.4450 -0.3983
 7259SOL    HW233237   0.515   3.495  14.803  0.2111 -1.4011  1.1826
 7260SOL     OW33238   3.823   4.001  13.440  0.1651 -1.1322 -0.6151
 7260SOL    HW133239   3.839   4.037  13.353  1.7974 -1.5406 -0.4777
 7260SOL    HW233240   3.733   3.967  13.433 -0.0413 -0.9887  1.3669
 7261SOL     OW33241   2.883   0.340  13.390  0.1260  0.1299  0.3339
 7261SOL    HW133242   2.800   0.382  13.412  0.2135  1.2639 -1.5231
 7261SOL    HW233243   2.909   0.399  13.319  0.2974 -1.2377 -0.7636
 7262SOL     OW33244   0.974   1.041  14.003 -0.5337  0.5104  0.7429
 7262SOL    HW133245   0.944   1.056  13.914  1.1419  0.7995  0.2428
 7262SOL    HW233246   0.993   0.947  13.994 -1.1459  0.5675 -1.1362
 7263SOL     OW33247   3.816   3.109   5.060 -0.2187 -0.0364  0.3600
 7263SOL    HW133248   3.726   3.140   5.047 -0.7153 -1.8143 -0.5848
 7263SOL    HW233249   3.855   3.120   4.973  0.7556  0.9691  0.9309
 7264SOL     OW33250   3.647   1.869   5.419  0.1488 -0.1563 -0.1615
 7264SOL    HW133251   3.635   1.956   5.382  0.4760 -0.4140 -0.8710
 7264SOL    HW233252   3.716   1.829   5.367 -0.1130 -0.6187 -0.1541
 7265SOL     OW33253   2.792   4.649   3.555  0.1504 -0.4579  0.1291
 7265SOL    HW133254   2.860   4.662   3.622 -0.3798 -0.3275  0.6518
 7265SOL    HW233255   2.728   4.715   3.584 -0.7957 -0.7675 -1.2534
 7266SOL     OW33256   3.803   3.692   5.153  0.5519 -0.6860  0.1552
 7266SOL    HW133257   3.777   3.782   5.174 -0.5890 -1.0715  0.4004
 7266SOL    HW233258   3.737   3.650   5.208  1.3082  0.7411  2.1572
 7267SOL     OW33259   3.892   2.728   4.185 -0.1170  0.5345 -0.0167
 7267SOL    HW133260   3.953   2.784   4.233  0.3464  0.6172 -0.7022
 7267SOL    HW233261   3.850   2.795   4.132  2.5627  0.8250 -1.7553
 7268SOL     OW33262   4.417   0.448   6.175  0.0142  0.3679  0.0845
 7268SOL    HW133263   4.421   0.485   6.087  1.1134 -0.3257 -0.1543
 7268SOL    HW233264   4.375   0.522   6.218 -0.6542  0.3254 -0.4973
 7269SOL     OW33265   2.525   1.878   3.378  0.2396 -0.4598 -0.6288
 7269SOL    HW133266   2.432   1.896   3.360  0.4839  0.6567 -0.7848
 7269SOL    HW233267   2.507   1.789   3.406 -2.5861  0.0315 -0.8818
 7270SOL     OW33268   3.895   2.719  10.693 -0.0418 -0.6224  0.1012
 7270SOL    HW133269   3.909   2.782  10.623 -0.9154  0.9689  1.3682
 7270SOL    HW233270   3.894   2.778  10.768 -0.7931 -1.3255  0.6518
 7271SOL     OW33271   2.787   2.544   7.388 -0.1082  0.2216  0.4867
 7271SOL    HW133272   2.760   2.599   7.462  2.4777 -0.6295  2.0835
 7271SOL    HW233273   2.797   2.454   7.419 -0.8883 -0.3607 -0.9480
 7272SOL     OW33274   3.793   1.606  12.034  0.1080 -0.2237  0.2148
 7272SOL    HW133275   3.700   1.625  12.045  0.5624  0.4639  2.9113
 7272SOL    HW233276   3.809   1.643  11.947  2.0157 -0.0548  0.6277
 7273SOL     OW33277   3.239   1.310   6.535 -0.6223  0.2629  0.4663
 7273SOL    HW133278   3.293   1.259   6.596 -0.7247  0.3272  0.6100
 7273SOL    HW233279   3.148   1.288   6.554 -0.7884  0.2221 -0.3506
 7274SOL     OW33280   4.251   0.639   1.803 -0.5416 -0.1171 -0.3816
 7274SOL    HW133281   4.265   0.734   1.811 -2.4425 -0.0181  1.5745
 7274SOL    HW233282   4.158   0.633   1.820 -0.3688 -0.0206  0.5846
 7275SOL     OW33283   0.986   2.244   9.905 -0.8428  0.3344  0.1308
 7275SOL    HW133284   0.948   2.249   9.993 -1.1401  0.4227 -0.0012
 7275SOL    HW233285   1.054   2.182   9.930 -1.8824 -1.4268 -1.4176
 7276SOL     OW33286   4.675   4.437  11.115 -0.3060 -0.3646 -0.8248
 7276SOL    HW133287   4.692   4.483  11.197  0.1277  1.0195 -1.6825
 7276SOL    HW233288   0.016   4.366  11.111 -1.0839 -1.2316  2.1829
 7277SOL     OW33289   0.324   1.353  13.972 -0.0119  0.3442  0.1029
 7277SOL    HW133290   0.237   1.313  13.962  0.8624 -1.1843 -1.3007
 7277SOL    HW233291   0.377   1.303  13.910  0.5953 -1.4363  2.0504
 7278SOL     OW33292   1.769   0.071  12.208 -0.6791  0.3085 -0.5204
 7278SOL    HW133293   1.717   0.073  12.289 -0.3148  0.2023 -0.2842
 7278SOL    HW233294   1.751   4.704  12.182  1.4172 -0.6501  1.3803
 7279SOL     OW33295   2.790   1.300   4.650 -0.4525 -0.5149 -0.4752
 7279SOL    HW133296   2.748   1.318   4.734  2.9384  1.9235  0.7075
 7279SOL    HW233297   2.824   1.385   4.623 -1.8778  0.4989  0.8692
 7280SOL     OW33298   0.272   0.691   8.080  0.7656 -0.5279 -0.4323
 7280SOL    HW133299   0.187   0.702   8.125  0.9883  1.0833 -0.3873
 7280SOL    HW233300   0.300   0.611   8.125  0.7911 -1.3597 -1.9518
 7281SOL     OW33301   1.209   3.084   3.954 -0.0806 -0.0098  0.3147
 7281SOL    HW133302   1.121   3.074   3.990  0.0345  3.4027  1.5749
 7281SOL    HW233303   1.262   3.083   4.034 -0.7407 -1.1119  0.7450
 7282SOL     OW33304   3.996   0.035   3.573  0.5476  0.5244 -0.4989
 7282SOL    HW133305   4.030   0.101   3.634  2.6236 -0.4601 -0.5840
 7282SOL    HW233306   3.991   0.077   3.488 -0.4753  0.5886 -0.3999
 7283SOL     OW33307   3.260   3.619   0.248 -0.2257  0.4167  0.1410
 7283SOL    HW133308   3.179   3.587   0.286 -1.0529  1.6210 -0.5776
 7283SOL    HW233309   3.322   3.558   0.289 -0.8223 -0.4455 -0.2509
 7284SOL     OW33310   0.139   3.026   5.771 -0.2299 -0.0535 -0.0862
 7284SOL    HW133311   0.088   3.102   5.796 -1.5494 -1.0751  0.3263
 7284SOL    HW233312   0.089   3.008   5.691 -0.9343 -0.4807  0.4572
 7285SOL     OW33313   4.065   1.091   3.258 -0.2851  0.1686  0.1255
 7285SOL    HW133314   4.072   1.137   3.174 -1.9448 -1.6894 -1.0123
 7285SOL    HW233315   3.971   1.080   3.266 -0.2325 -0.6533 -0.4284
 7286SOL     OW33316   2.494   3.867   2.749 -0.1659  0.5280  0.5186
 7286SOL    HW133317   2.413   3.916   2.764 -0.6692 -0.0003 -0.3827
 7286SOL    HW233318   2.563   3.929   2.767 -0.8137  1.0025  1.3799
 7287SOL     OW33319   0.350   0.751   5.859  0.2573 -0.2622 -0.1747
 7287SOL    HW133320   0.279   0.796   5.905 -1.2138 -0.9747 -1.7811
 7287SOL    HW233321   0.387   0.698   5.930  1.7619 -0.3440 -1.0231
 7288SOL     OW33322   3.238   0.307   8.327  0.1840 -0.6306  0.0140
 7288SOL    HW133323   3.300   0.377   8.346 -0.1303 -0.5657  0.7786
 7288SOL    HW233324   3.297   0.233   8.339 -2.1234 -2.6297 -0.7053
 7289SOL     OW33325   4.441   1.869   4.054  0.5174  0.6536 -0.0550
 7289SOL    HW133326   4.511   1.815   4.019  0.9796  0.6017  0.9484
 7289SOL    HW233327   4.445   1.950   4.003  2.8208  1.0625  0.7937
 7290SOL     OW33328   0.357   0.498   1.106  0.0259  0.0060 -0.3191
 7290SOL    HW133329   0.277   0.531   1.064 -1.1060 -1.2032  0.8724
 7290SOL    HW233330   0.422   0.516   1.039  1.2781 -2.0311  0.3735
 7291SOL     OW33331   4.193   0.014   4.534  0.3197 -0.7081 -0.3353
 7291SOL    HW133332   4.170   0.101   4.503 -1.7852 -1.2500 -0.2809
 7291SOL    HW233333   4.218   4.693   4.453  1.2699  0.2478 -0.5641
 7292SOL     OW33334   3.883   4.454   6.755 -0.5586 -0.3632  0.2697
 7292SOL    HW133335   3.806   4.409   6.721  0.7310 -0.4087 -2.5535
 7292SOL    HW233336   3.850   4.516   6.820 -0.1522 -0.4041  0.5135
 7293SOL     OW33337   4.100   4.175   8.616  0.1158  1.0125 -0.0764
 7293SOL    HW133338   4.112   4.080   8.609  0.6505  1.0032  1.0294
 7293SOL    HW233339   4.087   4.178   8.711 -1.5002 -0.4828 -0.2461
 7294SOL     OW33340   4.229   0.929   3.417  0.1831 -0.4605 -0.2807
 7294SOL    HW133341   4.246   0.999   3.480 -0.4812  1.5228 -2.3076
 7294SOL    HW233342   4.147   0.964   3.382  0.2549 -0.5660 -0.5540
 7295SOL     OW33343   4.561   1.703   1.049  0.4826  0.2920  0.5970
 7295SOL    HW133344   4.469   1.675   1.050  0.2818  0.8583 -3.0678
 7295SOL    HW233345   4.550   1.795   1.072 -2.2275  0.3503 -0.9369
 7296SOL     OW33346   1.660   0.256  15.507 -0.0627 -0.3791 -0.1514
 7296SOL    HW133347   1.591   0.238  15.443 -0.9612 -1.6028  1.1497
 7296SOL    HW233348   1.628   0.331  15.556 -0.5472 -1.0315  0.5356
 7297SOL     OW33349   0.481   1.637   6.392  0.2302 -0.0203 -0.3675
 7297SOL    HW133350   0.429   1.645   6.312 -1.0126 -1.4661  0.2908
 7297SOL    HW233351   0.546   1.701   6.363 -0.6674  0.0550 -2.1989
 7298SOL     OW33352   0.435   0.975  12.473 -0.0192  0.6184 -0.2199
 7298SOL    HW133353   0.404   0.950  12.560 -1.4342 -2.0923 -1.5136
 7298SOL    HW233354   0.371   0.934  12.415 -1.2908 -0.1101  1.7031
 7299SOL     OW33355   3.872   2.973  14.307 -0.2723 -0.0764  0.0354
 7299SOL    HW133356   3.931   3.038  14.270 -0.1742  0.5167  1.2107
 7299SOL    HW233357   3.927   2.910  14.354  1.0312 -0.9517 -2.6811
 7300SOL     OW33358   1.608   2.508   4.335  0.3072 -0.1467  0.1436
 7300SOL    HW133359   1.603   2.574   4.266 -0.9868  0.6704  1.0359
 7300SOL    HW233360   1.696   2.523   4.370  0.9767  0.3987 -1.7718
 7301SOL     OW33361   4.221   3.350   4.441  0.2047 -0.0935  0.1535
 7301SOL    HW133362   4.185   3.273   4.484  0.1348  0.2257  0.6659
 7301SOL    HW233363   4.292   3.368   4.502  0.1837 -0.2537  0.2262
 7302SOL     OW33364   3.316   1.829   5.009  0.3691 -0.3586 -0.0145
 7302SOL    HW133365   3.365   1.854   4.931  0.6940 -0.0423  0.2861
 7302SOL    HW233366   3.326   1.734   4.998  0.6081 -0.3097 -0.2190
 7303SOL     OW33367   2.397   4.324   2.858 -0.0798  0.0009 -0.0282
 7303SOL    HW133368   2.423   4.400   2.909 -2.1821  0.8626 -0.2462
 7303SOL    HW233369   2.307   4.339   2.830  0.5821 -0.0873 -2.2072
 7304SOL     OW33370   1.114   3.843   2.547  0.2658 -0.0420  0.4266
 7304SOL    HW133371   1.028   3.822   2.585 -1.0574  0.9732 -2.0132
 7304SOL    HW233372   1.102   3.936   2.530 -1.2551 -0.5975 -1.6194
 7305SOL     OW33373   0.562   4.225  14.886  0.4374  0.3484 -0.1968
 7305SOL    HW133374   0.467   4.219  14.871  0.1904  1.3967  0.9262
 7305SOL    HW233375   0.597   4.137  14.898 -1.1607 -0.1799  0.6562
 7306SOL     OW33376   3.404   1.987   0.776  0.5128  0.8996 -0.0311
 7306SOL    HW133377   3.437   1.939   0.700 -2.2774  1.1939 -1.4293
 7306SOL    HW233378   3.312   2.006   0.759 -0.0037 -1.9274 -0.3074
 7307SOL     OW33379   3.407   3.575  14.841  0.0658 -0.1937 -0.1486
 7307SOL    HW133380   3.456   3.657  14.842  1.9143 -1.2917 -1.9488
 7307SOL    HW233381   3.315   3.600  14.849 -0.3957 -1.3899 -1.5845
 7308SOL     OW33382   1.745   4.155  14.041  0.9598  0.3144 -0.2588
 7308SOL    HW133383   1.754   4.219  13.970  1.3493  0.9623  0.3788
 7308SOL    HW233384   1.796   4.080  14.010 -0.6426 -0.8276 -0.1330
 7309SOL     OW33385   2.035   4.441   8.752 -0.5366  0.9523 -0.2358
 7309SOL    HW133386   2.049   4.428   8.846  0.3359 -0.0795 -0.5140
 7309SOL    HW233387   2.052   4.351   8.725 -2.1561  0.4853  0.3262
 7310SOL     OW33388   3.674   0.623   3.033  0.1518 -0.1737 -0.1424
 7310SOL    HW133389   3.710   0.648   3.119 -2.5467  2.6459  0.1797
 7310SOL    HW233390   3.597   0.680   3.038 -0.8496 -1.5022 -0.2644
 7311SOL     OW33391   3.245   0.087   2.673 -0.2103  0.2133 -0.4994
 7311SOL    HW133392   3.242   0.035   2.754 -3.0487  0.0790 -0.6706
 7311SOL    HW233393   3.173   0.044   2.626 -0.6542  0.9513 -0.4840
 7312SOL     OW33394   2.883   2.649  11.296 -0.4484  0.0543  0.1933
 7312SOL    HW133395   2.886   2.620  11.205 -1.7145 -2.2808  0.8839
 7312SOL    HW233396   2.966   2.696  11.304 -0.0933 -0.6534  0.6365
 7313SOL     OW33397   2.113   4.144   7.933  0.1718  0.4057 -0.0961
 7313SOL    HW133398   2.062   4.191   7.999 -1.5497  0.4105 -1.4167
 7313SOL    HW233399   2.196   4.125   7.977 -0.8026 -2.0297  0.6631
 7314SOL     OW33400   3.624   3.981   2.284 -0.2688  0.5496 -0.1539
 7314SOL    HW133401   3.530   3.984   2.303  0.0662 -0.1419  1.5637
 7314SOL    HW233402   3.669   3.998   2.367  1.5728  1.6517 -1.3547
 7315SOL     OW33403   3.801   3.897   7.881  0.0963 -0.8014  0.3844
 7315SOL    HW133404   3.875   3.878   7.938 -0.8573  0.3317  1.9944
 7315SOL    HW233405   3.750   3.816   7.872  1.0149 -1.4546  1.1897
 7316SOL     OW33406   2.334   2.134   1.061 -0.3437  0.3178 -0.1414
 7316SOL    HW133407   2.292   2.195   1.001 -0.5096 -1.0533 -1.4067
 7316SOL    HW233408   2.407   2.106   1.005 -0.2003 -1.3898  0.8626
 7317SOL     OW33409   2.989   1.844  12.060  0.0109 -0.8122  0.1188
 7317SOL    HW133410   2.929   1.800  12.121 -1.3391 -0.8959 -1.2891
 7317SOL    HW233411   2.957   1.815  11.975  0.4109 -0.6212 -0.0929
 7318SOL     OW33412   2.127   2.684   4.324 -0.4350  0.0809  0.1641
 7318SOL    HW133413   2.148   2.664   4.415  0.4632 -0.5357 -0.1795
 7318SOL    HW233414   2.188   2.639   4.266 -2.7671 -1.0320 -1.4230
 7319SOL     OW33415   2.215   0.810   6.166  0.4672 -0.1383 -0.0577
 7319SOL    HW133416   2.240   0.890   6.121 -0.4168  1.3120  2.0035
 7319SOL    HW233417   2.224   0.742   6.100 -1.4866 -1.3663  0.9237
 7320SOL     OW33418   0.113   2.586   4.618  0.1898  0.1067  0.3448
 7320SOL    HW133419   0.075   2.660   4.667 -3.3122 -0.4464 -1.5472
 7320SOL    HW233420   0.189   2.559   4.669 -1.7568 -1.5717  2.3560
 7321SOL     OW33421   3.963   1.237   6.234  0.9657 -0.0155 -0.2804
 7321SOL    HW133422   3.955   1.180   6.310 -1.8803 -0.1913 -0.7102
 7321SOL    HW233423   3.891   1.204   6.180  0.5145  1.7228 -0.7424
 7322SOL     OW33424   1.907   1.703   4.947 -0.4698 -0.0121 -0.1916
 7322SOL    HW133425   1.821   1.696   4.904 -0.1426  0.4910 -0.9321
 7322SOL    HW233426   1.943   1.615   4.953  3.4362  1.5835 -0.0347
 7323SOL     OW33427   3.295   0.670   7.927 -0.3849  0.3443  0.0270
 7323SOL    HW133428   3.241   0.675   8.005 -0.9900 -1.8022 -0.2436
 7323SOL    HW233429   3.382   0.658   7.966 -0.4076 -3.8085 -1.1714
 7324SOL     OW33430   2.363   2.006   3.767  0.4439  0.2091 -0.2748
 7324SOL    HW133431   2.391   2.097   3.753  1.0859  0.3312  1.8400
 7324SOL    HW233432   2.404   1.960   3.694  3.4390  0.3564  1.3054
 7325SOL     OW33433   3.796   2.268  13.331  0.8786  0.1690  0.6230
 7325SOL    HW133434   3.765   2.282  13.421 -0.1326 -0.0196  0.3041
 7325SOL    HW233435   3.816   2.175  13.337 -0.5146 -0.1756 -0.2915
 7326SOL     OW33436   4.416   0.593   1.289  0.1304  0.1363  0.4502
 7326SOL    HW133437   4.431   0.507   1.248  1.5240 -0.0830  1.4409
 7326SOL    HW233438   4.407   0.640   1.206 -0.5705  0.7877  0.8956
 7327SOL     OW33439   2.069   1.713  14.332 -0.2327 -0.1621  0.8292
 7327SOL    HW133440   2.010   1.740  14.402  1.2735  2.2522  1.1666
 7327SOL    HW233441   2.150   1.713  14.383  0.3369  3.1334 -0.1052
 7328SOL     OW33442   1.508   2.973  10.786  0.4061 -0.0317 -0.1666
 7328SOL    HW133443   1.469   2.906  10.843  1.1766 -1.4801 -1.3329
 7328SOL    HW233444   1.434   3.010  10.739  1.1985  2.1027  0.2752
 7329SOL     OW33445   2.074   2.755   1.561  0.3799 -0.1868 -0.6032
 7329SOL    HW133446   2.126   2.733   1.484  0.5325  0.2975 -0.6378
 7329SOL    HW233447   1.997   2.776   1.509 -1.0869 -2.0387  0.8485
 7330SOL     OW33448   3.707   1.663   6.222  0.4394 -0.5012 -0.4654
 7330SOL    HW133449   3.670   1.667   6.134  0.4688  1.1738 -0.4099
 7330SOL    HW233450   3.729   1.570   6.223  0.8508 -0.3914  0.8259
 7331SOL     OW33451   2.915   3.253   6.644  0.2249  0.5306 -0.0315
 7331SOL    HW133452   2.860   3.298   6.707  0.9619 -0.0451  1.0151
 7331SOL    HW233453   2.866   3.265   6.562 -0.5564 -0.4801  0.2941
 7332SOL     OW33454   3.819   1.875  15.927  0.4300  0.1105  0.3198
 7332SOL    HW133455   3.898   1.846  15.881  1.5515  1.0044  1.6843
 7332SOL    HW233456   3.746   1.848  15.870  1.3919 -1.0100 -0.3787
 7333SOL     OW33457   3.480   3.710   1.096 -0.1562 -0.1285 -0.0496
 7333SOL    HW133458   3.386   3.692   1.092 -0.0235 -0.7738 -0.1469
 7333SOL    HW233459   3.489   3.790   1.044 -1.0171 -0.2449 -0.3868
 7334SOL     OW33460   4.708   0.403   0.269 -0.0982 -0.0526 -0.2990
 7334SOL    HW133461   4.626   0.399   0.220  0.2630  1.3078 -1.0072
 7334SOL    HW233462   4.717   0.310   0.287 -2.2483  0.0770  1.4143
 7335SOL     OW33463   1.618   2.547   7.013  0.5161 -0.2008 -0.3303
 7335SOL    HW133464   1.684   2.588   7.069 -0.9785 -0.0228  1.3476
 7335SOL    HW233465   1.544   2.585   7.062  1.1158 -1.0769  1.2528
 7336SOL     OW33466   1.009   4.278   1.897 -0.0738  0.0630 -0.6272
 7336SOL    HW133467   1.018   4.370   1.922 -2.6618 -0.0601  0.7562
 7336SOL    HW233468   1.047   4.285   1.809 -2.0069  0.2548 -1.4510
 7337SOL     OW33469   3.797   1.135   7.165  0.3281  0.4655  0.1785
 7337SOL    HW133470   3.877   1.089   7.190  0.4826  1.5141  1.5976
 7337SOL    HW233471   3.743   1.077   7.111 -1.2296  1.6862  0.4195
 7338SOL     OW33472   3.264   2.477  17.087  0.0352  0.2002  0.2644
 7338SOL    HW133473   3.191   2.456  17.146 -0.4489  2.8155  0.5946
 7338SOL    HW233474   3.323   2.532  17.138 -0.2683  0.4962  0.3008
 7339SOL     OW33475   4.050   1.913   1.765 -0.0545  0.7405 -0.3253
 7339SOL    HW133476   4.044   1.982   1.699 -3.2977  1.4631  0.6744
 7339SOL    HW233477   4.053   1.838   1.706  1.3371  0.3027  0.3184
 7340SOL     OW33478   0.232   1.728   7.837 -0.0042  0.2441  0.7910
 7340SOL    HW133479   0.244   1.819   7.864  0.8671  0.8895 -1.7964
 7340SOL    HW233480   0.214   1.684   7.920  1.5780 -0.5180  0.7364
 7341SOL     OW33481   2.715   1.609   9.863 -0.0816  0.0688 -0.1738
 7341SOL    HW133482   2.750   1.521   9.858  0.7945  0.4388 -0.5626
 7341SOL    HW233483   2.656   1.594   9.936 -1.2081  0.7672 -0.9374
 7342SOL     OW33484   3.528   1.029   2.947 -0.3880 -0.4944 -0.2336
 7342SOL    HW133485   3.517   0.990   2.860 -1.6048  1.2868 -0.8633
 7342SOL    HW233486   3.500   1.116   2.921  0.8494 -0.2661 -0.8038
 7343SOL     OW33487   3.868   3.767   7.444  0.9306 -0.0388 -0.0896
 7343SOL    HW133488   3.824   3.844   7.407  0.5995  0.8153  2.0517
 7343SOL    HW233489   3.799   3.702   7.440  0.6845  0.4018 -2.8602
 7344SOL     OW33490   0.400   3.964   8.069  0.0545  0.2480  0.0558
 7344SOL    HW133491   0.487   3.957   8.109 -0.8432 -0.2321  1.9082
 7344SOL    HW233492   0.353   4.005   8.141  0.5412  0.6767  0.1307
 7345SOL     OW33493   1.438   4.283  12.696 -0.2647  0.6735 -0.4492
 7345SOL    HW133494   1.519   4.318  12.733 -0.2577  0.5191 -0.3149
 7345SOL    HW233495   1.416   4.352  12.633 -0.3258  0.5586 -0.5535
 7346SOL     OW33496   1.854   1.357   8.639 -0.4116  0.1098 -0.0484
 7346SOL    HW133497   1.845   1.425   8.706 -0.5428  0.6180 -0.5805
 7346SOL    HW233498   1.944   1.331   8.659 -1.0425 -2.3769 -0.4354
 7347SOL     OW33499   0.595   3.405   5.031  0.0485 -0.4882 -0.1867
 7347SOL    HW133500   0.633   3.322   5.061  0.6049 -0.7813 -1.6791
 7347SOL    HW233501   0.566   3.389   4.941  2.4760 -2.0979 -0.6827
 7348SOL     OW33502   2.131   4.214  11.020 -0.4685  0.6633  0.2269
 7348SOL    HW133503   2.096   4.147  11.080  2.3654  1.6340  2.9716
 7348SOL    HW233504   2.052   4.267  11.010  0.5418  2.2494  0.6810
 7349SOL     OW33505   4.195   2.533   4.238  0.0640 -0.0174 -0.0043
 7349SOL    HW133506   4.186   2.450   4.285 -3.3107  0.6880  0.5830
 7349SOL    HW233507   4.118   2.586   4.256 -2.1354 -3.1138 -0.2094
 7350SOL     OW33508   4.358   4.433  15.550  0.5441  0.1811  0.3172
 7350SOL    HW133509   4.432   4.468  15.501  1.3163 -1.6672  0.1693
 7350SOL    HW233510   4.369   4.490  15.626 -0.0972  1.3589 -0.4695
 7351SOL     OW33511   4.002   2.377   2.808  0.4068 -0.7032  0.1824
 7351SOL    HW133512   4.082   2.411   2.768 -0.3110  1.3868  0.5112
 7351SOL    HW233513   4.002   2.284   2.786 -1.2698 -0.6929  0.1807
 7352SOL     OW33514   2.963   3.188   7.151  0.0688 -0.0467  0.1458
 7352SOL    HW133515   2.876   3.223   7.132 -0.0239 -0.7273 -0.6517
 7352SOL    HW233516   3.000   3.249   7.215  1.9172 -0.9499 -0.0396
 7353SOL     OW33517   3.326   4.331   5.055 -0.1406 -0.5231  0.1692
 7353SOL    HW133518   3.365   4.386   4.988 -0.8191  2.2200  2.0508
 7353SOL    HW233519   3.235   4.346   5.032 -0.9067  0.4800  3.7810
 7354SOL     OW33520   0.055   4.400   8.625  0.0058 -0.5931 -0.3302
 7354SOL    HW133521   0.076   4.493   8.616  0.5311 -0.6042  0.7368
 7354SOL    HW233522   0.140   4.357   8.625  0.0128 -0.5793 -0.2875
 7355SOL     OW33523   0.277   2.363  15.320 -0.7194  0.4791  0.0019
 7355SOL    HW133524   0.274   2.357  15.415  0.7812  1.7178  0.1160
 7355SOL    HW233525   0.372   2.356  15.306 -0.5707  1.4601  0.5574
 7356SOL     OW33526   4.355   1.115  12.633  0.4847 -0.1088  0.1772
 7356SOL    HW133527   4.263   1.141  12.642 -0.0700 -2.0811  0.3161
 7356SOL    HW233528   4.377   1.127  12.540  0.5700 -0.3793  0.1637
 7357SOL     OW33529   2.080   2.747  10.479  0.4921  0.0394  0.1214
 7357SOL    HW133530   2.114   2.810  10.544  0.4059 -1.2461  1.4079
 7357SOL    HW233531   2.096   2.671  10.535 -0.0204 -0.2714 -0.1545
 7358SOL     OW33532   3.568   2.658   8.409  0.2448 -0.5032  0.0329
 7358SOL    HW133533   3.584   2.664   8.315 -0.7361  1.8063  0.0304
 7358SOL    HW233534   3.613   2.575   8.423 -1.5682 -1.1818  1.7545
 7359SOL     OW33535   3.676   4.299   8.409  0.3592  0.6318 -0.6920
 7359SOL    HW133536   3.652   4.350   8.332  1.5279  0.4079 -1.2133
 7359SOL    HW233537   3.766   4.268   8.397  0.7721  1.0526  1.3812
 7360SOL     OW33538   1.636   2.091   5.681  0.1370 -0.1423  0.5591
 7360SOL    HW133539   1.629   2.150   5.756  2.3937  0.6814  0.1166
 7360SOL    HW233540   1.729   2.069   5.681 -0.7431 -3.8501  0.9627
 7361SOL     OW33541   1.971   2.523   9.047 -0.2965  0.4730  0.0793
 7361SOL    HW133542   1.887   2.516   9.093 -1.0666  0.0844 -1.3954
 7361SOL    HW233543   1.938   2.528   8.958  0.3656 -1.9349 -0.3157
 7362SOL     OW33544   4.412   3.866   4.420  0.3903 -0.1631 -0.1376
 7362SOL    HW133545   4.455   3.939   4.376  0.0641  0.1794  0.1116
 7362SOL    HW233546   4.472   3.847   4.493  2.0565  2.3372 -0.8734
 7363SOL     OW33547   4.714   2.174  11.768 -0.1101 -0.4931  0.0491
 7363SOL    HW133548   0.070   2.188  11.716  0.3543 -0.0321  0.8701
 7363SOL    HW233549   4.697   2.084  11.739  0.2337 -0.6112  0.2138
 7364SOL     OW33550   1.331   1.136   3.462 -0.4048  0.0231 -0.0633
 7364SOL    HW133551   1.237   1.145   3.447 -0.7699 -0.5380  1.8672
 7364SOL    HW233552   1.346   1.088   3.381  0.2347 -2.1983  1.3546
 7365SOL     OW33553   1.926   3.559  15.066 -0.0988  0.2558  0.2990
 7365SOL    HW133554   1.839   3.573  15.031 -0.1948  1.0547  0.8599
 7365SOL    HW233555   1.981   3.577  14.990 -0.0824  1.4084  0.5827
 7366SOL     OW33556   3.920   4.245   2.578  0.3500  0.0073 -0.5630
 7366SOL    HW133557   3.872   4.320   2.542 -1.4815 -0.6529  0.4601
 7366SOL    HW233558   3.937   4.274   2.668 -2.9984 -2.3206  0.8526
 7367SOL     OW33559   2.479   1.065   4.236 -0.0898 -0.0305 -0.5016
 7367SOL    HW133560   2.416   1.134   4.256  1.4938  1.4810 -0.6506
 7367SOL    HW233561   2.429   1.000   4.187 -1.8542 -1.3094  2.9654
 7368SOL     OW33562   3.018   1.629   4.736 -0.9517  0.4663 -0.2289
 7368SOL    HW133563   3.035   1.716   4.773  1.7099 -0.7510  1.3807
 7368SOL    HW233564   2.923   1.638   4.741 -1.0167 -0.1239 -0.4630
 7369SOL     OW33565   2.026   4.137   3.325  0.3620  1.0461 -0.3560
 7369SOL    HW133566   2.063   4.049   3.332  0.2532  1.1117  1.1247
 7369SOL    HW233567   1.997   4.150   3.416 -0.9325  1.7467 -0.8603
 7370SOL     OW33568   0.639   2.520  14.916 -0.5374 -0.1288 -0.0621
 7370SOL    HW133569   0.572   2.576  14.876 -0.0141 -1.0507 -2.2824
 7370SOL    HW233570   0.713   2.565  14.876 -0.1337 -1.3816 -0.7530
 7371SOL     OW33571   4.350   2.979   2.530 -0.0819 -1.0437 -0.2834
 7371SOL    HW133572   4.332   2.933   2.611  0.7596 -1.2628 -0.2163
 7371SOL    HW233573   4.328   2.908   2.469 -2.9830  1.3278 -2.0121
 7372SOL     OW33574   4.162   1.584  13.014  0.1549  0.0334  0.2793
 7372SOL    HW133575   4.192   1.505  12.969 -2.8816  0.3881 -2.3943
 7372SOL    HW233576   4.181   1.655  12.953 -1.6338 -0.9172 -1.3784
 7373SOL     OW33577   1.110   1.369   6.997 -0.2871 -0.3020 -0.2079
 7373SOL    HW133578   1.058   1.344   6.921  1.1864 -1.2545 -0.8943
 7373SOL    HW233579   1.052   1.346   7.070 -0.5570 -1.9535 -0.9369
 7374SOL     OW33580   1.765   3.744   2.507 -0.2012  0.4603 -0.3379
 7374SOL    HW133581   1.772   3.698   2.590 -1.4573  0.6689 -0.1253
 7374SOL    HW233582   1.733   3.832   2.531 -0.2073 -0.5247  3.2741
 7375SOL     OW33583   2.992   4.385   7.041 -0.0958 -0.2311 -0.2330
 7375SOL    HW133584   3.029   4.333   7.111  1.6792 -0.8284 -1.6352
 7375SOL    HW233585   3.014   4.322   6.972 -0.8914  0.4830 -1.1484
 7376SOL     OW33586   0.329   3.431  15.944 -0.2344  0.5611 -0.5531
 7376SOL    HW133587   0.288   3.484  16.013  1.4518  2.4624 -0.9964
 7376SOL    HW233588   0.327   3.499  15.877 -1.5400  2.7436  1.6844
 7377SOL     OW33589   2.541   4.609   6.200  0.2468  0.0315  0.3114
 7377SOL    HW133590   2.556   4.703   6.192 -3.3238  0.5905  0.1433
 7377SOL    HW233591   2.496   4.600   6.116  0.2768 -2.2339  0.5453
 7378SOL     OW33592   2.147   3.119   5.589  0.2557  0.0343 -0.4630
 7378SOL    HW133593   2.061   3.157   5.572 -0.8238 -2.5384 -0.7704
 7378SOL    HW233594   2.189   3.157   5.512 -0.1879  0.3261 -0.5623
 7379SOL     OW33595   3.152   0.374   6.985  0.2512  0.1109 -0.2266
 7379SOL    HW133596   3.238   0.332   6.997 -0.4002 -0.6398  1.7454
 7379SOL    HW233597   3.108   0.343   7.064  0.8681 -0.0226  0.0714
 7380SOL     OW33598   1.280   4.277   5.335  0.3943  0.6119 -0.0046
 7380SOL    HW133599   1.296   4.368   5.310  2.5987 -0.3854 -2.1713
 7380SOL    HW233600   1.353   4.248   5.282  0.3704  1.6351 -0.5932
 7381SOL     OW33601   0.469   1.381   6.285  0.1877  0.0740 -0.1214
 7381SOL    HW133602   0.517   1.299   6.291  0.9208  0.5756  0.8609
 7381SOL    HW233603   0.505   1.436   6.355 -0.0166 -0.6772  0.5737
 7382SOL     OW33604   1.259   4.424   8.673  0.0345 -0.4630  0.5097
 7382SOL    HW133605   1.200   4.404   8.746 -2.5649  0.4327 -1.3385
 7382SOL    HW233606   1.328   4.365   8.703 -0.6141 -2.8707 -2.8207
 7383SOL     OW33607   4.176   0.241   0.496  0.0594 -0.1282  0.0197
 7383SOL    HW133608   4.113   0.246   0.425  0.3250 -2.1417 -0.3642
 7383SOL    HW233609   4.190   0.335   0.501 -0.2051  0.0504 -3.1863
 7384SOL     OW33610   0.399   4.204   4.780 -0.2887 -0.0691  0.3515
 7384SOL    HW133611   0.481   4.247   4.803  0.9661 -2.7569  0.9612
 7384SOL    HW233612   0.356   4.265   4.722 -0.1342 -1.3892 -1.1515
 7385SOL     OW33613   3.772   2.038   6.987 -0.6086  1.0000  0.1199
 7385SOL    HW133614   3.717   1.977   6.938  0.4444  0.6989 -0.6755
 7385SOL    HW233615   3.732   2.121   6.961 -2.3798  0.0398 -0.2490
 7386SOL     OW33616   3.570   4.574   3.295  0.0212  0.1633  0.1018
 7386SOL    HW133617   3.557   4.554   3.388 -2.6991  0.8367 -0.1268
 7386SOL    HW233618   3.640   4.639   3.295  0.8569 -0.7140 -1.3324
 7387SOL     OW33619   0.694   0.165   7.967  0.4526 -0.3445  0.9194
 7387SOL    HW133620   0.775   0.181   7.918 -0.7906  0.4391 -0.8775
 7387SOL    HW233621   0.666   0.080   7.934  1.3038 -1.3748  2.8715
 7388SOL     OW33622   1.797   3.326   3.414  0.1201 -0.0045 -0.0200
 7388SOL    HW133623   1.871   3.384   3.429  0.3437 -0.5620  1.0361
 7388SOL    HW233624   1.841   3.244   3.434  0.2227 -0.7603 -3.3660
 7389SOL     OW33625   3.605   1.102   5.359 -0.3192 -0.2195  0.3988
 7389SOL    HW133626   3.660   1.026   5.340  0.2084  0.1099  0.5808
 7389SOL    HW233627   3.667   1.166   5.323  1.3714 -2.4073 -0.5417
 7390SOL     OW33628   0.158   4.354   9.371  0.3323 -0.0739  0.4706
 7390SOL    HW133629   0.078   4.313   9.337  0.6387 -0.5517  0.3378
 7390SOL    HW233630   0.179   4.407   9.294  0.8034  0.2964  0.8615
 7391SOL     OW33631   2.252   1.883  15.211 -0.5045  0.5417  0.0059
 7391SOL    HW133632   2.257   1.974  15.183 -1.8188  1.5251  2.9968
 7391SOL    HW233633   2.223   1.849  15.126  0.7167 -0.2782 -0.0743
 7392SOL     OW33634   4.651   2.907   4.039 -0.3470  0.3579  0.1784
 7392SOL    HW133635   4.719   2.941   3.980 -0.2458 -1.3861 -0.6961
 7392SOL    HW233636   4.596   2.986   4.034  0.0176  0.5149 -1.5196
 7393SOL     OW33637   0.285   2.815   3.998 -0.4656  0.2947  0.2060
 7393SOL    HW133638   0.224   2.820   4.072 -2.2129  1.8996 -1.3416
 7393SOL    HW233639   0.298   2.720   3.995  0.5685  0.3741  2.1553
 7394SOL     OW33640   0.918   4.636   1.350 -0.4295  0.0096  0.1230
 7394SOL    HW133641   0.842   4.603   1.398 -1.7146  1.5833 -0.8121
 7394SOL    HW233642   0.870   4.656   1.269  1.1085  1.3726 -0.4784
 7395SOL     OW33643   0.581   3.155   0.322  0.2471  0.0088  0.2188
 7395SOL    HW133644   0.658   3.206   0.348  2.5648 -3.1995 -0.2575
 7395SOL    HW233645   0.599   3.071   0.365 -0.4215 -0.0067  0.4601
 7396SOL     OW33646   0.618   4.035   6.776 -0.2446 -0.3925  0.3021
 7396SOL    HW133647   0.689   4.052   6.838  0.7411  0.7417 -1.1367
 7396SOL    HW233648   0.587   4.123   6.752 -0.1223 -0.8694 -1.5326
 7397SOL     OW33649   2.871   4.712   8.612 -0.3063  0.8525  0.4946
 7397SOL    HW133650   2.913   0.071   8.588  1.9402 -0.5770 -0.5267
 7397SOL    HW233651   2.855   4.667   8.529 -0.0417 -0.1698  1.0036
 7398SOL     OW33652   4.322   0.492   2.454 -0.0473  0.0711  0.0296
 7398SOL    HW133653   4.344   0.416   2.400 -1.1372  0.2395 -0.6613
 7398SOL    HW233654   4.349   0.464   2.541  0.1673  0.2828  0.0298
 7399SOL     OW33655   1.104   4.068   4.366 -0.2840 -0.1469 -0.3449
 7399SOL    HW133656   1.185   4.089   4.319 -0.2440  1.4105  0.4489
 7399SOL    HW233657   1.158   4.049   4.443  1.3435 -1.1686 -1.7350
 7400SOL     OW33658   2.294   2.921   5.470  0.0289  0.0407  0.2408
 7400SOL    HW133659   2.292   2.966   5.385  1.3447  0.1146  0.2388
 7400SOL    HW233660   2.227   2.967   5.521 -0.0306  0.4695 -0.2185
 7401SOL     OW33661   1.359   0.392   4.434 -0.4390 -0.0229 -0.0845
 7401SOL    HW133662   1.409   0.322   4.392  2.6186  1.5577  0.9230
 7401SOL    HW233663   1.319   0.437   4.359  1.6316  0.2854 -0.9814
 7402SOL     OW33664   1.745   4.521   3.189 -0.4383 -0.1526  0.0474
 7402SOL    HW133665   1.825   4.563   3.157  0.5895 -1.1178  1.3913
 7402SOL    HW233666   1.763   4.428   3.177 -2.2688 -0.4385 -0.6140
 7403SOL     OW33667   3.173   2.057  17.316  0.3620  0.2427 -0.2071
 7403SOL    HW133668   3.234   2.000  17.363  1.5257  0.2297 -1.7291
 7403SOL    HW233669   3.134   2.009  17.243  1.1888 -0.6507 -0.0723
 7404SOL     OW33670   3.713   0.926  16.171 -0.0950 -0.6921 -0.2815
 7404SOL    HW133671   3.624   0.950  16.198 -1.0705 -2.5963 -1.8177
 7404SOL    HW233672   3.694   0.907  16.079  1.2893  1.1848 -0.9668
 7405SOL     OW33673   1.215   0.878   2.873 -0.0404 -0.2359  0.6746
 7405SOL    HW133674   1.230   0.817   2.800 -0.7556 -0.1738  0.4763
 7405SOL    HW233675   1.130   0.911   2.842  0.3058 -0.7640 -0.8359
 7406SOL     OW33676   2.683   3.256   7.053 -0.8643 -0.5057 -0.2948
 7406SOL    HW133677   2.628   3.180   7.034 -1.1270 -0.1122 -1.0909
 7406SOL    HW233678   2.626   3.330   7.070 -1.5396 -1.3057  0.9333
 7407SOL     OW33679   0.595   2.316   4.234 -0.1725  0.2191 -0.3307
 7407SOL    HW133680   0.550   2.272   4.306  1.3810  1.0669  1.1662
 7407SOL    HW233681   0.673   2.262   4.219 -0.7859 -0.4200 -1.2452
 7408SOL     OW33682   3.939   1.953   6.580  0.3551 -0.0059 -0.0332
 7408SOL    HW133683   3.946   1.882   6.515 -0.2858  0.0918 -0.2179
 7408SOL    HW233684   3.849   1.980   6.562  1.6427  3.0908 -1.8527
 7409SOL     OW33685   0.464   3.322   2.980 -0.1317 -0.3659 -0.5066
 7409SOL    HW133686   0.393   3.258   2.990  2.4394 -2.5716  3.7011
 7409SOL    HW233687   0.530   3.261   2.946 -1.1207 -1.8478  0.2593
 7410SOL     OW33688   3.258   0.205   6.479  0.3665  0.3997 -0.5048
 7410SOL    HW133689   3.224   0.207   6.568  2.0360  0.9975  0.1286
 7410SOL    HW233690   3.331   0.267   6.487 -1.1527  1.9781  1.3392
 7411SOL     OW33691   3.286   2.189   8.861 -0.1389  0.1888  0.0637
 7411SOL    HW133692   3.257   2.182   8.952  1.3353  0.0164  0.5202
 7411SOL    HW233693   3.367   2.138   8.859 -0.1611  0.1370  0.4528
 7412SOL     OW33694   1.747   1.930  16.523 -0.3225  0.2577 -0.6319
 7412SOL    HW133695   1.667   1.886  16.495  1.0344  0.3922 -4.7377
 7412SOL    HW233696   1.724   1.953  16.613  4.5125 -1.5977  1.0831
 7413SOL     OW33697   1.548   1.821   7.054 -0.4355  0.2363 -0.2255
 7413SOL    HW133698   1.575   1.729   7.048 -1.8073 -0.3295  2.2917
 7413SOL    HW233699   1.598   1.861   6.983 -4.3890  1.0230 -2.6057
 7414SOL     OW33700   2.545   3.685   0.034  0.6909  0.1469 -0.2134
 7414SOL    HW133701   2.569   3.604  17.685 -1.0357 -0.5516  0.1257
 7414SOL    HW233702   2.474   3.656   0.092 -0.8754  1.5273 -1.4171
 7415SOL     OW33703   1.571   3.450  10.453  0.1457 -0.0099  0.1256
 7415SOL    HW133704   1.582   3.509  10.378  0.9380  2.8482  2.4733
 7415SOL    HW233705   1.565   3.369  10.402  1.2036 -0.2621  0.3999
 7416SOL     OW33706   4.379   2.055  13.397 -0.4731  0.1732  0.0865
 7416SOL    HW133707   4.453   2.107  13.430  0.7126  0.7630 -3.5195
 7416SOL    HW233708   4.323   2.057  13.475 -1.4080  1.9962 -0.6258
 7417SOL     OW33709   4.648   2.307   8.426  0.0123 -0.1812  0.0537
 7417SOL    HW133710   4.595   2.355   8.363 -0.7578 -0.9808  0.0942
 7417SOL    HW233711   4.606   2.221   8.423  1.4117 -0.8273 -1.0804
 7418SOL     OW33712   0.075   3.317   8.795  0.2101  0.1412  0.2067
 7418SOL    HW133713   0.080   3.275   8.881  0.5185 -1.6741 -0.7020
 7418SOL    HW233714   0.150   3.376   8.792 -1.1947  1.8998 -0.3927
 7419SOL     OW33715   1.540   2.230   5.287 -0.2967 -0.1663 -0.0871
 7419SOL    HW133716   1.450   2.254   5.267  0.3529  0.7795 -1.9333
 7419SOL    HW233717   1.576   2.309   5.328 -0.3306 -0.1734 -0.0446
 7420SOL     OW33718   1.020   0.332   5.615 -0.5686 -0.1622  0.3628
 7420SOL    HW133719   0.955   0.336   5.686  0.3476  1.9857  1.0699
 7420SOL    HW233720   1.090   0.298   5.670 -1.4769  0.6106  1.9988
 7421SOL     OW33721   3.665   3.850   0.786  0.2025  0.0379 -0.3927
 7421SOL    HW133722   3.707   3.923   0.832  0.7526 -0.5664  0.0563
 7421SOL    HW233723   3.723   3.848   0.710 -2.6082 -1.3944 -2.5128
 7422SOL     OW33724   0.636   2.332  10.508 -0.2416  0.4656  0.6109
 7422SOL    HW133725   0.651   2.238  10.520 -0.1887  0.4541  0.4544
 7422SOL    HW233726   0.545   2.329  10.479  0.3949 -0.2418 -1.3052
 7423SOL     OW33727   2.681   3.170  17.230  0.3255  0.0280 -0.0869
 7423SOL    HW133728   2.737   3.101  17.267 -1.9229 -0.6869  2.0024
 7423SOL    HW233729   2.749   3.214  17.180 -0.1564  0.1024 -0.6746
 7424SOL     OW33730   3.798   1.812   8.069  0.3492  0.0448 -0.1803
 7424SOL    HW133731   3.825   1.726   8.101 -0.5546  0.2007  0.9788
 7424SOL    HW233732   3.764   1.782   7.985 -1.6396  2.1746 -0.1376
 7425SOL     OW33733   3.499   0.690   2.726  0.0333  0.1171  0.2802
 7425SOL    HW133734   3.518   0.616   2.668  1.2006  0.1984  0.5461
 7425SOL    HW233735   3.587   0.710   2.758  0.4648 -2.2560  0.5856
 7426SOL     OW33736   1.516   2.215   8.057 -0.0613 -0.6551 -0.8111
 7426SOL    HW133737   1.444   2.271   8.085  1.1218  0.3390  0.2335
 7426SOL    HW233738   1.490   2.127   8.081 -0.8436  0.4522  2.3042
 7427SOL     OW33739   4.571   3.012  13.830 -0.0835 -0.3488 -0.7133
 7427SOL    HW133740   4.560   2.977  13.742 -2.2423  0.3835 -0.7420
 7427SOL    HW233741   4.505   2.966  13.881 -1.3716  1.0633 -1.0886
 7428SOL     OW33742   0.321   2.195   3.110  0.1306  0.1145 -0.1257
 7428SOL    HW133743   0.362   2.278   3.085  1.2456 -0.4701 -0.2541
 7428SOL    HW233744   0.288   2.180   3.021 -1.6003 -2.8913  1.0443
 7429SOL     OW33745   2.016   1.193   4.639  0.1936  0.0648 -0.1247
 7429SOL    HW133746   2.066   1.137   4.580 -0.8625  0.2661 -1.2186
 7429SOL    HW233747   1.928   1.183   4.602  0.3540 -0.1086 -0.4534
 7430SOL     OW33748   3.334   0.010   1.899 -0.1931 -0.2651  0.2335
 7430SOL    HW133749   3.396   4.723   1.971  0.1084 -1.9125 -0.2644
 7430SOL    HW233750   3.254   0.032   1.948  0.2812 -1.4973  1.5759
 7431SOL     OW33751   3.835   4.076  17.070 -0.0611  0.0317 -0.5966
 7431SOL    HW133752   3.778   4.121  17.132 -1.2809  0.5344 -2.1085
 7431SOL    HW233753   3.783   3.998  17.050 -0.3146 -0.4395  1.8746
 7432SOL     OW33754   0.223   1.573   3.915  0.3428  0.1904 -0.0453
 7432SOL    HW133755   0.316   1.576   3.896 -0.0835  1.0340 -1.9563
 7432SOL    HW233756   0.188   1.530   3.837  0.6215 -1.8337  0.9272
 7433SOL     OW33757   2.682   0.522  13.404  0.4145  0.0348  0.3952
 7433SOL    HW133758   2.592   0.528  13.435  0.2104 -0.1569 -0.1850
 7433SOL    HW233759   2.712   0.613  13.416  1.2203 -0.0998 -0.6024
 7434SOL     OW33760   3.705   4.039   6.975 -0.3314  0.4509  0.2142
 7434SOL    HW133761   3.636   4.104   6.992 -1.0320  0.1201 -1.3764
 7434SOL    HW233762   3.675   4.019   6.886  1.4938  1.5993 -0.6642
 7435SOL     OW33763   0.355   1.552  11.426  0.9459  0.0444  0.3199
 7435SOL    HW133764   0.382   1.532  11.516 -0.0400 -2.1029  0.1429
 7435SOL    HW233765   0.423   1.508  11.375  1.5129  0.0618  1.0557
 7436SOL     OW33766   3.121   3.552   8.554 -0.8021 -0.3470 -0.0310
 7436SOL    HW133767   3.182   3.485   8.524 -1.3769 -1.1697  0.6363
 7436SOL    HW233768   3.115   3.537   8.648 -0.3355  3.2917  0.6081
 7437SOL     OW33769   3.535   0.998  15.665  0.1182 -0.9131 -0.1051
 7437SOL    HW133770   3.625   1.005  15.636  0.0160  1.2260  0.0859
 7437SOL    HW233771   3.519   0.910  15.630 -2.3016 -1.0083  1.2368
 7438SOL     OW33772   0.911   2.968   0.729 -0.2426  0.0481 -0.4353
 7438SOL    HW133773   0.969   2.905   0.772 -0.7178  0.4444  0.7795
 7438SOL    HW233774   0.931   3.048   0.777  1.5755 -0.0955 -0.9596
 7439SOL     OW33775   1.180   3.472   3.544  0.2015 -0.2268  0.2615
 7439SOL    HW133776   1.269   3.437   3.547  0.4997  0.6313  1.3317
 7439SOL    HW233777   1.180   3.500   3.452 -1.2469  0.1256  0.3709
 7440SOL     OW33778   4.699   2.717   0.465 -0.0269  0.5308 -0.4973
 7440SOL    HW133779   4.616   2.723   0.418 -1.3529  0.1916  1.8212
 7440SOL    HW233780   0.023   2.646   0.422  2.7506  0.9978  1.8219
 7441SOL     OW33781   0.258   0.023  15.043 -0.8719 -0.0322 -0.1784
 7441SOL    HW133782   0.295   4.671  14.997 -0.6184 -0.2162  0.3240
 7441SOL    HW233783   0.230   4.694  15.118 -0.2786 -0.5505 -0.3142
 7442SOL     OW33784   3.717   3.347   6.950  0.1867 -0.5098 -0.4021
 7442SOL    HW133785   3.805   3.384   6.942 -0.4863  0.9302 -1.1325
 7442SOL    HW233786   3.670   3.400   6.886  0.0485  0.8804  0.8565
 7443SOL     OW33787   1.405   0.433   6.348  0.2099 -0.2216 -0.2430
 7443SOL    HW133788   1.418   0.477   6.432 -0.2375 -0.4508 -0.0476
 7443SOL    HW233789   1.323   0.396   6.382  0.2314  0.4748  0.5863
 7444SOL     OW33790   4.168   1.138   7.469  0.2197 -0.5628  0.1292
 7444SOL    HW133791   4.105   1.204   7.496  0.2523  0.0287 -1.2245
 7444SOL    HW233792   4.176   1.163   7.377 -0.9517 -0.9530 -0.0740
 7445SOL     OW33793   3.963   3.854   3.089  0.9508  0.2127  0.2306
 7445SOL    HW133794   3.889   3.812   3.045  0.4101  2.4944 -1.0562
 7445SOL    HW233795   4.008   3.889   3.012  0.6595 -0.7911 -0.3963
 7446SOL     OW33796   1.337   2.653   1.264 -0.7758  0.7669 -0.4397
 7446SOL    HW133797   1.276   2.605   1.319  0.8651 -0.5389  0.2643
 7446SOL    HW233798   1.386   2.717   1.315 -0.2124 -1.9901  2.4468
 7447SOL     OW33799   2.659   0.778   2.672 -0.6192 -0.3890  0.7090
 7447SOL    HW133800   2.670   0.798   2.579 -0.5028 -0.6660  0.6610
 7447SOL    HW233801   2.688   0.848   2.730  0.6172  2.1590 -3.0031
 7448SOL     OW33802   1.920   3.212  11.065 -0.0547  0.0227 -0.1657
 7448SOL    HW133803   1.976   3.189  10.991  0.3360 -1.3085  0.5579
 7448SOL    HW233804   1.834   3.193  11.028  0.7158 -0.6364 -1.6313
 7449SOL     OW33805   0.385   4.131   1.236 -0.3156 -0.2403 -0.6794
 7449SOL    HW133806   0.361   4.076   1.310 -0.1136  1.8388  0.9263
 7449SOL    HW233807   0.481   4.121   1.237 -0.2604  0.5320  1.0250
 7450SOL     OW33808   1.578   4.193  17.228  0.2711  0.4825 -0.3494
 7450SOL    HW133809   1.665   4.195  17.267  0.3253  1.2960 -0.5292
 7450SOL    HW233810   1.526   4.161  17.302  1.2416  0.4728  0.3315
 7451SOL     OW33811   1.018   3.697  12.468 -0.4775 -0.4747  0.0995
 7451SOL    HW133812   0.999   3.609  12.501 -1.1367 -0.1388  0.6164
 7451SOL    HW233813   1.074   3.730  12.538 -0.4555  2.6870 -1.4284
 7452SOL     OW33814   2.396   0.287   6.813  0.4139 -0.1916  0.2710
 7452SOL    HW133815   2.324   0.329   6.860 -0.1620  0.0838 -0.8380
 7452SOL    HW233816   2.379   0.323   6.725 -0.5306 -0.5862  0.2969
 7453SOL     OW33817   1.167   4.387   6.517  0.3114 -0.0605 -0.4620
 7453SOL    HW133818   1.230   4.338   6.464  1.1378  0.5744 -0.0736
 7453SOL    HW233819   1.086   4.336   6.515 -0.6877  1.4529  0.8994
 7454SOL     OW33820   0.108   1.170   3.175  0.0186  0.0657  0.4841
 7454SOL    HW133821   0.137   1.125   3.095 -1.5395 -1.9900  1.0650
 7454SOL    HW233822   0.028   1.217   3.150  0.2741 -0.4864 -1.3867
 7455SOL     OW33823   1.298   4.501   9.809  0.5033  0.6108  0.2742
 7455SOL    HW133824   1.265   4.461   9.889 -0.8016  1.2477  0.0568
 7455SOL    HW233825   1.241   4.578   9.804  0.8932  1.0760  2.5082
 7456SOL     OW33826   1.938   3.644   2.733 -0.3156  0.3537 -0.7099
 7456SOL    HW133827   1.901   3.668   2.818 -1.0718  1.5443 -1.3775
 7456SOL    HW233828   1.909   3.554   2.718 -1.7129  0.3931  1.7108
 7457SOL     OW33829   1.334   3.947   3.946  0.0281 -0.5025 -0.1914
 7457SOL    HW133830   1.381   3.869   3.918 -0.5625 -0.9774  0.1563
 7457SOL    HW233831   1.400   4.011   3.919 -3.7778  2.1124 -3.4681
 7458SOL     OW33832   3.393   0.098   0.555  0.0710 -0.4807 -0.2911
 7458SOL    HW133833   3.353   0.029   0.501 -0.6624 -1.6897  1.7935
 7458SOL    HW233834   3.409   0.051   0.637 -0.8415  1.5882  1.0533
 7459SOL     OW33835   2.226   0.134   8.654  0.0046  0.2230  0.0525
 7459SOL    HW133836   2.209   0.223   8.687 -0.4944 -0.4581  1.6218
 7459SOL    HW233837   2.208   0.087   8.735  0.1162 -0.0626 -0.0902
 7460SOL     OW33838   2.219   3.755  12.887 -0.2194  0.0521  0.4435
 7460SOL    HW133839   2.147   3.790  12.940  0.4116  2.2616 -0.1674
 7460SOL    HW233840   2.292   3.764  12.948 -0.4222  0.3819  0.6351
 7461SOL     OW33841   3.729   1.860  14.677  0.1394  0.3193  0.1637
 7461SOL    HW133842   3.675   1.903  14.611 -0.0573  0.0348  0.1399
 7461SOL    HW233843   3.723   1.931  14.740 -0.8880  0.9326 -0.6472
 7462SOL     OW33844   1.390   3.580   6.999  0.3149 -0.1869  0.6383
 7462SOL    HW133845   1.459   3.599   6.936  0.6542  1.2246  1.4341
 7462SOL    HW233846   1.396   3.484   7.003  0.1608 -0.2605 -1.1319
 7463SOL     OW33847   0.755   3.829   7.967 -0.5828  0.0931  0.0988
 7463SOL    HW133848   0.844   3.844   7.999 -0.1989  0.4723 -1.1404
 7463SOL    HW233849   0.713   3.818   8.052  0.4600 -1.3703  0.4173
 7464SOL     OW33850   3.284   0.621   9.847 -0.2492 -0.4540  0.0012
 7464SOL    HW133851   3.288   0.533   9.884  2.2661 -0.3813 -0.1361
 7464SOL    HW233852   3.297   0.672   9.927  0.9140  1.9068 -1.7180
 7465SOL     OW33853   1.969   2.150  12.331 -0.4329 -0.4770 -0.1394
 7465SOL    HW133854   2.025   2.161  12.409  0.7550 -0.1953 -1.0261
 7465SOL    HW233855   1.891   2.104  12.361  1.5548 -2.6069  1.7591
 7466SOL     OW33856   3.322   1.584   7.381  0.1101 -0.5188  0.3898
 7466SOL    HW133857   3.260   1.654   7.402 -1.5049 -2.1714  1.1840
 7466SOL    HW233858   3.261   1.510   7.376 -0.3930 -0.0849  0.1716
 7467SOL     OW33859   4.494   3.507   4.666 -0.1295  0.4204 -0.2628
 7467SOL    HW133860   4.421   3.540   4.719 -1.5975 -0.9779 -1.3958
 7467SOL    HW233861   4.560   3.487   4.732  1.9451  4.4467 -1.1053
 7468SOL     OW33862   3.828   1.238   5.277  0.1953 -0.6550 -0.2038
 7468SOL    HW133863   3.890   1.170   5.249 -1.4461 -1.7571 -1.1791
 7468SOL    HW233864   3.888   1.311   5.263 -0.6326  0.1781  0.5558
 7469SOL     OW33865   4.301   4.158   3.748  0.7016  0.0765  0.7676
 7469SOL    HW133866   4.287   4.248   3.719  1.4160  0.4082  1.4427
 7469SOL    HW233867   4.313   4.107   3.668 -1.1575  1.2368 -0.2355
 7470SOL     OW33868   0.792   2.358  16.003 -0.6736 -0.1466  0.4545
 7470SOL    HW133869   0.723   2.402  16.053 -1.0135 -0.1371 -0.0278
 7470SOL    HW233870   0.808   2.273  16.045 -2.1268 -1.3355 -1.4280
 7471SOL     OW33871   2.350   4.179   0.510 -0.0487  0.2813  0.0746
 7471SOL    HW133872   2.321   4.268   0.488 -2.2528 -0.4408  0.0619
 7471SOL    HW233873   2.307   4.120   0.448  1.0795  1.8691 -2.2322
 7472SOL     OW33874   4.517   1.253   6.679  0.3223  0.0955 -0.3727
 7472SOL    HW133875   4.596   1.241   6.626 -0.0906 -1.6701 -0.5571
 7472SOL    HW233876   4.478   1.313   6.615  0.4993  0.1878 -0.3951
 7473SOL     OW33877   4.524   2.038   6.319 -0.4538 -0.2012 -0.1982
 7473SOL    HW133878   4.487   2.118   6.357  1.7997  0.5705  0.3525
 7473SOL    HW233879   4.466   1.972   6.357 -0.2809  0.2266  0.8063
 7474SOL     OW33880   4.489   2.085   2.039  0.1145  0.2468 -0.1438
 7474SOL    HW133881   4.450   1.999   2.022 -0.8165  0.3162  1.6094
 7474SOL    HW233882   4.481   2.089   2.135  0.6703 -3.0565  0.0296
 7475SOL     OW33883   2.753   1.866   5.079 -0.0869  0.0889  0.3859
 7475SOL    HW133884   2.849   1.858   5.078 -0.0964 -0.0597  0.5203
 7475SOL    HW233885   2.728   1.858   5.171  2.8504 -1.5720  1.0432
 7476SOL     OW33886   1.729   0.064   2.409  0.2015 -0.2791  0.2551
 7476SOL    HW133887   1.739   4.692   2.417  2.2646 -0.0309  0.3946
 7476SOL    HW233888   1.694   0.090   2.495 -0.3662 -2.4942  0.7004
 7477SOL     OW33889   0.278   3.262   6.126  0.3142 -0.0805  0.0147
 7477SOL    HW133890   0.292   3.331   6.062  0.1165 -0.3624 -0.3284
 7477SOL    HW233891   0.301   3.185   6.075 -1.0477  0.3064 -1.1733
 7478SOL     OW33892   1.245   0.005   3.484 -0.6896  0.1374 -0.0883
 7478SOL    HW133893   1.199   0.005   3.568  0.6306  1.8034  0.6299
 7478SOL    HW233894   1.275   0.095   3.474  2.8006 -1.1700 -1.4579
 7479SOL     OW33895   4.614   4.290   3.157  0.1634 -0.2459 -0.5552
 7479SOL    HW133896   4.700   4.332   3.161 -1.1432  2.2135  1.6366
 7479SOL    HW233897   4.586   4.325   3.072 -0.1366 -1.3412 -0.9066
 7480SOL     OW33898   4.407   1.260  11.009  0.2793 -0.1653 -0.2792
 7480SOL    HW133899   4.497   1.286  11.031 -0.1522  0.7977  0.3754
 7480SOL    HW233900   4.370   1.286  11.094  0.7575 -0.2215 -0.0500
 7481SOL     OW33901   4.294   0.177   3.887  0.4925  0.0738 -0.3982
 7481SOL    HW133902   4.331   0.237   3.952 -1.4343  0.1421  0.6399
 7481SOL    HW233903   4.257   0.107   3.941  0.7314  0.2241 -0.0315
 7482SOL     OW33904   3.069   1.063   2.111 -0.5940  0.1690  0.4622
 7482SOL    HW133905   3.117   1.046   2.030 -1.5259 -1.4631  0.2461
 7482SOL    HW233906   2.990   1.014   2.088 -0.6624  0.4823  0.0125
 7483SOL     OW33907   0.060   1.527   7.703 -0.6362 -0.0362  0.1676
 7483SOL    HW133908   0.128   1.587   7.734 -1.5625  0.2377  1.6687
 7483SOL    HW233909   0.010   1.592   7.652 -1.6919  1.2105  2.7934
 7484SOL     OW33910   2.466   3.807   4.283  0.7739 -0.4651  0.2852
 7484SOL    HW133911   2.502   3.891   4.314 -0.2046  0.1532 -0.2680
 7484SOL    HW233912   2.497   3.744   4.348 -1.4916  0.3446  2.1552
 7485SOL     OW33913   3.400   4.045   3.653  1.2479  0.0892  0.3944
 7485SOL    HW133914   3.466   4.109   3.626  1.1293 -0.7691 -1.9397
 7485SOL    HW233915   3.373   4.088   3.734 -3.3661 -0.9716 -0.5647
 7486SOL     OW33916   2.373   4.194  11.779  0.0366 -0.0511 -0.4988
 7486SOL    HW133917   2.455   4.242  11.791  1.0459 -1.6869 -0.8421
 7486SOL    HW233918   2.319   4.238  11.844  1.6916  0.8654  0.2516
 7487SOL     OW33919   0.782   4.169   9.543  0.0267 -0.5176 -0.1743
 7487SOL    HW133920   0.768   4.076   9.563 -0.8504 -0.5338 -0.8620
 7487SOL    HW233921   0.728   4.205   9.613  1.3477 -1.9992  1.6014
 7488SOL     OW33922   1.161   4.224  10.759 -0.1184  0.0645  0.7807
 7488SOL    HW133923   1.181   4.132  10.772 -0.6535 -0.0420  0.8422
 7488SOL    HW233924   1.147   4.258  10.848 -1.4453  0.8413  0.2787
 7489SOL     OW33925   4.497   3.418   1.584 -0.4375 -0.1161 -0.0762
 7489SOL    HW133926   4.455   3.448   1.665  2.3480 -0.7081  1.6043
 7489SOL    HW233927   4.583   3.390   1.615 -1.4441 -1.1326  1.8127
 7490SOL     OW33928   2.184   3.964   3.925  0.1459 -0.3387 -0.4864
 7490SOL    HW133929   2.218   3.921   4.004  1.4021 -1.4988 -1.6697
 7490SOL    HW233930   2.096   3.992   3.952  0.1909 -0.5285 -0.1351
 7491SOL     OW33931   3.375   0.552   1.139  0.0414 -0.1906 -0.5284
 7491SOL    HW133932   3.418   0.591   1.215  1.6760  1.6016 -2.3806
 7491SOL    HW233933   3.375   0.626   1.078  2.7421 -0.9602 -1.4245
 7492SOL     OW33934   1.390   2.151   0.117 -0.4737 -0.4453  0.2381
 7492SOL    HW133935   1.396   2.207   0.195 -0.3482  2.9602 -2.2226
 7492SOL    HW233936   1.350   2.210   0.054 -0.2262  1.4425  1.8439
 7493SOL     OW33937   3.741   4.179   8.863 -0.1966  0.3806 -0.0759
 7493SOL    HW133938   3.734   4.112   8.931 -1.5619  1.5761  0.9667
 7493SOL    HW233939   3.830   4.164   8.831 -1.2394 -0.6957 -2.4760
 7494SOL     OW33940   1.451   3.755   6.037  0.1052  0.3125 -0.0886
 7494SOL    HW133941   1.419   3.687   6.097 -0.5029  0.7879  0.1309
 7494SOL    HW233942   1.466   3.695   5.964 -0.3440 -3.0746  2.5643
 7495SOL     OW33943   2.043   1.929   7.067 -0.1285 -0.2180  0.2567
 7495SOL    HW133944   2.016   1.841   7.091  0.1541 -1.0387 -2.4241
 7495SOL    HW233945   2.049   1.962   7.156  0.2267  0.4100 -0.0015
 7496SOL     OW33946   1.084   3.114   4.436  0.1024  0.4206 -0.0209
 7496SOL    HW133947   0.995   3.150   4.438 -1.4144 -3.2639 -1.0551
 7496SOL    HW233948   1.057   3.027   4.407  0.0143  0.2260  0.6392
 7497SOL     OW33949   0.087   2.893   2.520 -0.8197 -0.3450 -0.4137
 7497SOL    HW133950   0.107   2.904   2.427  0.0687  1.6644  0.0246
 7497SOL    HW233951   0.173   2.907   2.558 -0.3968  1.4516 -2.0493
 7498SOL     OW33952   1.594   4.445  11.979  0.6036  0.1389 -0.0806
 7498SOL    HW133953   1.593   4.403  11.893 -0.0084  2.5874 -1.2759
 7498SOL    HW233954   1.509   4.487  11.992  0.2012 -0.4571 -0.8382
 7499SOL     OW33955   4.691   0.828  12.319  0.1155  0.1399 -0.1851
 7499SOL    HW133956   4.608   0.871  12.337  0.2861  0.5172 -0.3063
 7499SOL    HW233957   4.711   0.796  12.407 -0.4108 -1.6421 -0.7115
 7500SOL     OW33958   4.586   2.910  13.569 -0.4848  0.1962  0.4310
 7500SOL    HW133959   4.662   2.955  13.533  1.5001 -3.2114  0.2881
 7500SOL    HW233960   4.613   2.818  13.567 -0.0015  0.3653 -0.5749
 7501SOL     OW33961   0.106   0.665  10.546  0.5987  0.1756 -0.0390
 7501SOL    HW133962   0.114   0.684  10.453 -0.4434 -0.5276 -0.2587
 7501SOL    HW233963   0.190   0.695  10.582 -0.7783  3.5047  0.4616
 7502SOL     OW33964   2.141   1.830  12.286  0.7886  0.0959 -0.2932
 7502SOL    HW133965   2.076   1.823  12.216 -1.3156  0.6720  1.6161
 7502SOL    HW233966   2.211   1.877  12.239  1.7478 -0.7648  0.2822
 7503SOL     OW33967   4.464   0.504  11.962 -0.1358  0.1088 -0.2168
 7503SOL    HW133968   4.487   0.480  11.872 -0.8219 -0.5816 -0.2164
 7503SOL    HW233969   4.528   0.449  12.006 -2.0665 -2.1424 -0.2352
 7504SOL     OW33970   1.744   1.805   5.805  0.9882 -0.5852  0.1821
 7504SOL    HW133971   1.810   1.868   5.778 -0.6682  0.8860 -0.4523
 7504SOL    HW233972   1.802   1.753   5.861 -0.7630 -2.5617  0.1759
 7505SOL     OW33973   0.634   3.560   8.778  0.2576 -1.2206  0.0329
 7505SOL    HW133974   0.717   3.601   8.803 -1.2602  1.0073  1.5367
 7505SOL    HW233975   0.615   3.620   8.706  0.1195 -0.0108  1.0754
 7506SOL     OW33976   1.732   3.286   8.903 -0.3601  0.5139 -0.2945
 7506SOL    HW133977   1.799   3.299   8.835  0.7406 -0.7683  0.5315
 7506SOL    HW233978   1.693   3.373   8.910 -2.9379 -0.4870 -2.4303
 7507SOL     OW33979   1.849   0.379   5.252  0.2516 -0.0856  0.3498
 7507SOL    HW133980   1.927   0.372   5.308  0.7952  1.4015 -0.2025
 7507SOL    HW233981   1.845   0.475   5.254 -1.5019 -0.2044  1.5972
 7508SOL     OW33982   0.499   0.861   4.957 -0.4041  0.2221 -0.4505
 7508SOL    HW133983   0.569   0.926   4.958  0.5751 -0.8291 -0.4115
 7508SOL    HW233984   0.447   0.872   4.877  1.3981 -3.2015 -2.1095
 7509SOL     OW33985   2.914   3.736   8.739 -0.0360  0.1019  0.1099
 7509SOL    HW133986   2.904   3.676   8.813  0.0087 -2.2545 -1.7988
 7509SOL    HW233987   2.883   3.821   8.773 -2.2439 -0.1120 -1.4083
 7510SOL     OW33988   0.946   3.949  15.125  0.9834 -0.5093  0.2090
 7510SOL    HW133989   0.990   3.932  15.041  0.3445 -0.1251 -0.2043
 7510SOL    HW233990   0.946   3.862  15.164 -2.3077 -0.5246  0.1720
 7511SOL     OW33991   1.079   4.040   2.037  0.0033  0.3124  0.1634
 7511SOL    HW133992   1.116   4.122   2.006 -1.6271  0.8135 -0.4327
 7511SOL    HW233993   1.160   3.989   2.040 -0.3680 -0.2975  0.0344
 7512SOL     OW33994   4.373   0.437   7.194 -0.4529 -0.4403  0.5039
 7512SOL    HW133995   4.289   0.465   7.228 -0.7717  0.4161 -0.9974
 7512SOL    HW233996   4.354   0.464   7.104 -1.7485  0.3610  1.0201
 7513SOL     OW33997   2.308   4.066   2.854 -0.0799 -0.3738  0.0013
 7513SOL    HW133998   2.221   4.094   2.826 -1.1698 -0.9327  2.8366
 7513SOL    HW233999   2.350   4.151   2.863  1.9844 -1.6102  2.1507
 7514SOL     OW34000   0.836   1.011   5.705 -0.3086 -0.0804 -0.4474
 7514SOL    HW134001   0.756   0.972   5.740 -0.2692 -0.9670 -1.3469
 7514SOL    HW234002   0.803   1.044   5.621 -0.3328  1.9735  0.3691
 7515SOL     OW34003   2.401   2.834  14.767 -0.2842  0.1842  0.2838
 7515SOL    HW134004   2.388   2.868  14.855 -1.6741 -1.6420  0.7793
 7515SOL    HW234005   2.439   2.906  14.716  2.0423 -2.8655 -2.3007
 7516SOL     OW34006   0.969   0.940   0.759 -0.2961  0.1175 -0.0936
 7516SOL    HW134007   0.997   0.853   0.789 -2.5566 -0.2198  1.0837
 7516SOL    HW234008   1.050   0.990   0.759  0.6726 -1.4392  1.3299
 7517SOL     OW34009   2.673   4.337  14.397 -0.0418  0.0328  0.0029
 7517SOL    HW134010   2.586   4.331  14.358  0.2916  1.6038 -0.9607
 7517SOL    HW234011   2.686   4.430  14.380  0.0542 -0.0885 -0.5845
 7518SOL     OW34012   3.957   0.068   0.236 -0.3033 -0.4765  0.1896
 7518SOL    HW134013   3.953   0.048   0.143 -3.4550  0.8911  0.0295
 7518SOL    HW234014   3.987   0.159   0.244 -0.0885 -0.5651  0.4361
 7519SOL     OW34015   1.490   4.121   5.226  0.7939  0.4058 -0.0597
 7519SOL    HW134016   1.567   4.154   5.272  0.3415  0.1079  0.9266
 7519SOL    HW234017   1.524   4.095   5.140  0.2636 -0.0060 -0.1440
 7520SOL     OW34018   3.635   3.696   4.222 -0.0987  0.4808 -0.7628
 7520SOL    HW134019   3.724   3.723   4.199  0.8279  0.3172  2.6837
 7520SOL    HW234020   3.611   3.750   4.298  0.6628 -1.5835  0.9386
 7521SOL     OW34021   1.517   4.114  13.387  0.2845  0.3918  0.1331
 7521SOL    HW134022   1.557   4.125  13.473 -1.8612 -2.1481  1.4809
 7521SOL    HW234023   1.562   4.186  13.342 -0.6769  0.8357 -0.1300
 7522SOL     OW34024   3.986   0.021  17.650  0.0059 -0.2663  0.2448
 7522SOL    HW134025   3.943   4.659  17.646 -2.8533  1.1538  0.5639
 7522SOL    HW234026   4.001   0.038  17.557 -0.2985 -1.2831  0.0021
 7523SOL     OW34027   1.012   2.900   8.284 -0.5897  0.0030  0.0688
 7523SOL    HW134028   1.004   2.935   8.372  0.1100  0.6963 -0.1510
 7523SOL    HW234029   0.939   2.837   8.293 -2.9127  2.9118  1.5344
 7524SOL     OW34030   3.341   2.632   8.670  0.0511 -0.7497  0.6732
 7524SOL    HW134031   3.358   2.604   8.580 -0.2976  0.7697  0.1165
 7524SOL    HW234032   3.269   2.575   8.696 -0.8301 -1.0753 -2.4084
 7525SOL     OW34033   0.723   1.642  10.072 -0.2887  0.4318 -0.2436
 7525SOL    HW134034   0.673   1.586  10.132 -0.9823  1.2952 -0.0138
 7525SOL    HW234035   0.685   1.729  10.083  1.7901  1.1345  1.3598
 7526SOL     OW34036   0.261   4.293   0.940 -0.1604  0.9853  0.5276
 7526SOL    HW134037   0.308   4.320   1.019  0.0117  2.8969 -0.2137
 7526SOL    HW234038   0.209   4.371   0.924 -1.8885 -0.1444  0.6709
 7527SOL     OW34039   0.480   1.774  17.485  0.0880 -0.1647  0.8616
 7527SOL    HW134040   0.431   1.716  17.426  0.4173  0.6850 -0.2613
 7527SOL    HW234041   0.493   1.851  17.429 -0.3293 -0.0963  0.8560
 7528SOL     OW34042   0.608   4.247   3.529  0.2191 -0.0988 -0.2582
 7528SOL    HW134043   0.624   4.336   3.497  0.4104  0.8928  2.6629
 7528SOL    HW234044   0.583   4.273   3.617  0.1419  0.5353 -0.4686
 7529SOL     OW34045   3.513   3.783   8.157  0.1817  0.2584 -0.3444
 7529SOL    HW134046   3.561   3.865   8.145  0.0781  0.3250 -0.3055
 7529SOL    HW234047   3.434   3.814   8.114 -0.0715  0.0517 -0.0218
 7530SOL     OW34048   0.047   0.639  12.130  1.1104 -0.4186 -0.0492
 7530SOL    HW134049   4.702   0.681  12.182  1.1447 -0.6483  0.1801
 7530SOL    HW234050   0.094   0.588  12.195 -1.0771 -1.7355  0.4893
 7531SOL     OW34051   2.329   1.533  12.073 -0.2326 -0.4754 -0.0925
 7531SOL    HW134052   2.391   1.606  12.079  0.5471 -0.9746 -2.1832
 7531SOL    HW234053   2.397   1.467  12.087 -0.2638 -0.6452 -0.7719
 7532SOL     OW34054   0.870   3.008   4.881 -0.4468  0.3096  0.8072
 7532SOL    HW134055   0.937   3.061   4.837 -0.3807 -0.9174 -0.5515
 7532SOL    HW234056   0.888   2.921   4.846  0.1884  1.3432 -1.4299
 7533SOL     OW34057   2.446   4.245   3.630 -0.2300 -0.3326  0.2143
 7533SOL    HW134058   2.463   4.196   3.549 -1.4416 -1.5400  0.6961
 7533SOL    HW234059   2.377   4.189   3.664 -0.7994  1.1160  1.4111
 7534SOL     OW34060   0.185   2.513   5.538  0.2029  0.3035 -1.3347
 7534SOL    HW134061   0.185   2.593   5.485  0.1738  1.1366 -0.0954
 7534SOL    HW234062   0.092   2.495   5.529 -0.1435  1.4589 -0.1966
 7535SOL     OW34063   2.944   0.112   3.152  0.2760 -0.0403 -0.0600
 7535SOL    HW134064   2.871   0.159   3.190  0.6826  0.8544 -0.3847
 7535SOL    HW234065   2.908   0.023   3.146 -0.8925  0.3671  1.1076
 7536SOL     OW34066   2.520   0.373  17.531 -0.0822 -0.0856  0.3534
 7536SOL    HW134067   2.524   0.461  17.568  1.3919 -0.4553  1.0578
 7536SOL    HW234068   2.518   0.334  17.618 -0.0066  0.9867  0.8222
 7537SOL     OW34069   0.609   1.841   7.836 -0.2016 -0.3090 -0.0195
 7537SOL    HW134070   0.588   1.912   7.895  0.6292  1.1454 -1.4612
 7537SOL    HW234071   0.646   1.778   7.898 -0.2962 -0.2633  0.0829
 7538SOL     OW34072   1.061   0.719  12.198 -0.0205 -0.1942  0.2289
 7538SOL    HW134073   0.971   0.750  12.210  0.4585  0.9984  0.7722
 7538SOL    HW234074   1.050   0.625  12.182 -0.3697 -0.4468  1.9295
 7539SOL     OW34075   2.822   1.740   7.643 -0.3017  0.5008 -0.3913
 7539SOL    HW134076   2.728   1.753   7.629 -0.0601  1.9297 -0.7072
 7539SOL    HW234077   2.829   1.688   7.722  0.5595  1.2433  0.0238
 7540SOL     OW34078   4.684   0.120   0.255  0.4304 -0.3496  0.0369
 7540SOL    HW134079   4.679   0.046   0.316  0.9204  1.0407  1.7663
 7540SOL    HW234080   0.019   0.088   0.187  1.3478  2.0706 -0.3041
 7541SOL     OW34081   2.141   0.585   6.603 -0.3665  0.3494 -0.3485
 7541SOL    HW134082   2.120   0.557   6.692  2.4828 -1.1659 -0.1462
 7541SOL    HW234083   2.142   0.679   6.619  0.3348  0.1621  0.7313
 7542SOL     OW34084   3.241   0.327   0.640 -0.1539 -0.0714  0.0180
 7542SOL    HW134085   3.302   0.261   0.609 -0.5933 -0.7381  0.5637
 7542SOL    HW234086   3.231   0.381   0.562  1.8538  0.7718  0.3627
 7543SOL     OW34087   1.810   3.419   1.656  0.2841 -0.6370 -0.2117
 7543SOL    HW134088   1.734   3.406   1.599  1.5052 -3.7697 -1.1027
 7543SOL    HW234089   1.769   3.462   1.731  1.4938  1.8169 -0.9631
 7544SOL     OW34090   0.549   3.879   1.817 -0.3971 -0.4517  0.3611
 7544SOL    HW134091   0.640   3.852   1.834 -0.3495 -0.9855 -0.7324
 7544SOL    HW234092   0.510   3.815   1.877 -2.6500 -1.3707 -2.1171
 7545SOL     OW34093   0.217   0.746   8.745  0.5224  0.1746  0.2608
 7545SOL    HW134094   0.174   0.755   8.830  0.7159 -2.1086  0.5920
 7545SOL    HW234095   0.226   0.837   8.717 -3.0125  0.3309 -0.4447
 7546SOL     OW34096   0.377   3.126   2.053 -0.0031  0.8557  0.5541
 7546SOL    HW134097   0.291   3.155   2.082 -0.9014  1.3888 -2.5888
 7546SOL    HW234098   0.432   3.133   2.131  1.7432 -2.1071 -0.4067
 7547SOL     OW34099   4.443   2.018  13.756  0.6045 -0.2095  0.2015
 7547SOL    HW134100   4.490   2.023  13.839  1.2556  0.8113 -0.2240
 7547SOL    HW234101   4.455   1.925  13.739  1.0758 -0.2716  0.8936
 7548SOL     OW34102   0.833   1.147   9.008 -0.0549 -0.1883 -0.1543
 7548SOL    HW134103   0.739   1.147   9.024  0.3935  1.1124  2.4843
 7548SOL    HW234104   0.837   1.171   8.915  2.2873 -0.9148 -0.2454
 7549SOL     OW34105   0.581   1.159   9.191  0.2588 -0.3783 -0.1439
 7549SOL    HW134106   0.603   1.205   9.272 -0.7013  0.3050 -0.2858
 7549SOL    HW234107   0.519   1.098   9.232 -0.6686  0.0601 -0.9101
 7550SOL     OW34108   3.250   1.054   6.364  0.7205  0.0541  0.4873
 7550SOL    HW134109   3.204   0.985   6.412 -0.6748  0.6633  0.0202
 7550SOL    HW234110   3.230   1.120   6.431  2.0461 -1.1624  2.0836
 7551SOL     OW34111   3.142   3.852   7.282  0.5738 -0.4639  0.5103
 7551SOL    HW134112   3.175   3.766   7.307 -0.6294 -1.2434 -0.6235
 7551SOL    HW234113   3.217   3.902   7.314  1.3512 -0.0983 -1.8707
 7552SOL     OW34114   3.808   3.206   4.758  0.0425 -0.1957 -0.5747
 7552SOL    HW134115   3.743   3.241   4.819  0.3135  0.8308 -0.8717
 7552SOL    HW234116   3.762   3.191   4.675 -0.8633  3.3982 -0.7107
 7553SOL     OW34117   1.628   3.789  14.043  0.7245  0.1626  0.4268
 7553SOL    HW134118   1.543   3.747  14.031  0.6415 -0.0213  1.6414
 7553SOL    HW234119   1.617   3.856  13.976 -2.7294 -0.4442  0.3766
 7554SOL     OW34120   0.941   3.589   7.601 -0.1613  0.1007 -0.3000
 7554SOL    HW134121   0.909   3.500   7.617  0.5111 -0.1803 -0.4858
 7554SOL    HW234122   0.869   3.645   7.628 -0.5629 -0.3086 -0.5189
 7555SOL     OW34123   3.364   1.537  12.789 -0.0097  0.0373  0.1756
 7555SOL    HW134124   3.367   1.534  12.694 -1.5494 -0.7860  0.1522
 7555SOL    HW234125   3.398   1.625  12.804  1.8935 -0.8721  1.2267
 7556SOL     OW34126   3.515   0.918   4.498  0.3212 -0.2388 -0.0908
 7556SOL    HW134127   3.439   0.964   4.462 -0.3565 -1.4212 -0.1601
 7556SOL    HW234128   3.526   0.851   4.431  0.1884 -1.6286  1.2687
 7557SOL     OW34129   1.488   1.846   4.186  0.1862 -0.2537 -0.1801
 7557SOL    HW134130   1.422   1.897   4.233  2.5431  1.6018  1.1192
 7557SOL    HW234131   1.563   1.849   4.245  2.2012 -1.1115 -2.7084
 7558SOL     OW34132   1.077   1.471  15.520  0.2876 -0.7261 -0.0795
 7558SOL    HW134133   1.079   1.452  15.426 -0.1288 -2.7019  0.3189
 7558SOL    HW234134   1.096   1.565  15.524  3.3386 -1.3041 -0.9871
 7559SOL     OW34135   4.095   1.895   1.335  0.4775 -0.1879  0.0049
 7559SOL    HW134136   4.003   1.916   1.318  0.0195 -0.8852  1.6547
 7559SOL    HW234137   4.124   1.856   1.252  2.9466 -0.8471  1.1983
 7560SOL     OW34138   4.318   4.340   7.769 -0.3200  0.0165 -0.2580
 7560SOL    HW134139   4.291   4.413   7.713  0.4605 -0.1651 -0.8646
 7560SOL    HW234140   4.377   4.386   7.828 -0.5061  0.0413 -0.0933
 7561SOL     OW34141   0.810   2.635   7.559  0.4191 -0.8558  0.2552
 7561SOL    HW134142   0.810   2.570   7.630  0.8041 -2.7329 -1.4370
 7561SOL    HW234143   0.862   2.584   7.497  0.8661 -0.3617  0.2243
 7562SOL     OW34144   2.693   2.510   5.247  0.9501 -0.4676  0.3936
 7562SOL    HW134145   2.753   2.537   5.317 -0.3804  1.4440  0.7887
 7562SOL    HW234146   2.645   2.437   5.286  1.7140 -0.3826  1.4984
 7563SOL     OW34147   3.721   0.494   7.249  0.4566  0.5475 -0.1081
 7563SOL    HW134148   3.773   0.567   7.214 -0.4442  0.7850 -0.9570
 7563SOL    HW234149   3.675   0.471   7.168 -1.8298  2.3793  0.6995
 7564SOL     OW34150   0.226   3.171  15.980  0.0107  0.3741  0.2414
 7564SOL    HW134151   0.247   3.264  15.973  1.0795  0.1130 -0.0306
 7564SOL    HW234152   0.136   3.167  15.948  0.2601  0.4991 -0.4626
 7565SOL     OW34153   3.746   2.486  10.529 -0.7457  0.0763  0.0314
 7565SOL    HW134154   3.783   2.498  10.441 -1.3685  0.0501 -0.2327
 7565SOL    HW234155   3.748   2.577  10.561 -0.7051  0.4985 -1.1525
 7566SOL     OW34156   2.867   0.568  12.583 -0.2056 -0.3504  0.2487
 7566SOL    HW134157   2.846   0.649  12.537  0.8176 -1.0786 -1.4933
 7566SOL    HW234158   2.946   0.586  12.634 -1.6230  0.7903  2.0477
 7567SOL     OW34159   0.831   3.448   7.051  0.0688  0.0473  0.4781
 7567SOL    HW134160   0.881   3.451   6.970  0.7650 -3.3385  0.7541
 7567SOL    HW234161   0.771   3.376   7.032  1.3466 -0.7560 -0.5278
 7568SOL     OW34162   0.497   2.123  16.897 -0.2310 -0.0719 -0.3887
 7568SOL    HW134163   0.498   2.182  16.973 -1.2897 -0.4771 -0.0622
 7568SOL    HW234164   0.493   2.035  16.936  1.2479 -1.0041 -2.3335
 7569SOL     OW34165   4.265   3.462   5.311 -0.5403 -0.0872  0.1401
 7569SOL    HW134166   4.309   3.515   5.245  1.5960 -3.4245 -1.0433
 7569SOL    HW234167   4.173   3.489   5.305 -0.8199 -0.6413  1.8582
 7570SOL     OW34168   0.853   1.589   3.376 -0.4291  0.1065  0.1156
 7570SOL    HW134169   0.911   1.631   3.313 -0.2443 -1.7600 -0.9508
 7570SOL    HW234170   0.779   1.650   3.377 -0.8356 -0.3397 -3.5872
 7571SOL     OW34171   0.879   0.588   3.262 -0.4925 -0.2262  0.0692
 7571SOL    HW134172   0.871   0.584   3.357  1.7676 -1.1340  0.2167
 7571SOL    HW234173   0.974   0.581   3.258 -0.5062  1.1778 -2.4298
 7572SOL     OW34174   0.520   4.035   6.000 -0.4912  0.3421 -0.0163
 7572SOL    HW134175   0.512   4.106   5.936 -3.2910 -0.5926 -0.7055
 7572SOL    HW234176   0.518   4.085   6.081  0.4563 -0.9300  0.7987
 7573SOL     OW34177   3.483   0.307   3.895  0.3469  0.5287  0.1834
 7573SOL    HW134178   3.476   0.214   3.916  2.2999 -0.0048 -1.5432
 7573SOL    HW234179   3.573   0.317   3.924 -0.2759  0.2556  2.1606
 7574SOL     OW34180   1.255   4.020  15.044 -0.2332 -0.3060 -0.6222
 7574SOL    HW134181   1.233   4.113  15.033 -0.7414 -0.5830 -1.9191
 7574SOL    HW234182   1.206   3.976  14.975  2.4414 -0.4375 -2.4155
 7575SOL     OW34183   4.148   2.241   4.975  0.7041  0.0590  0.2251
 7575SOL    HW134184   4.171   2.323   4.931  1.9961  0.9054  2.4842
 7575SOL    HW234185   4.230   2.192   4.977  0.2476 -0.8376 -3.2951
 7576SOL     OW34186   4.411   3.987   7.027  0.1916  0.3653 -0.5251
 7576SOL    HW134187   4.350   4.027   7.088  1.2865  1.6822 -0.2832
 7576SOL    HW234188   4.378   3.898   7.015  1.2372 -0.1562  0.4570
 7577SOL     OW34189   1.019   3.505   9.995 -0.1733  0.4465 -0.0638
 7577SOL    HW134190   0.931   3.543   9.992 -0.0752  0.6516 -0.3193
 7577SOL    HW234191   1.009   3.431  10.055  1.3509 -1.2595 -1.9698
 7578SOL     OW34192   0.623   0.258   9.172  0.1086  0.6039  0.4602
 7578SOL    HW134193   0.621   0.219   9.260 -0.8164  1.4093  0.7987
 7578SOL    HW234194   0.562   0.200   9.127 -0.7464  1.1943  0.8586
 7579SOL     OW34195   4.644   2.346  15.064 -0.0746  0.3627 -0.3791
 7579SOL    HW134196   4.710   2.391  15.117 -0.4447  0.9408 -0.4101
 7579SOL    HW234197   4.570   2.341  15.125  0.9835 -0.5321  0.8526
 7580SOL     OW34198   1.005   4.697   3.323  0.5804 -0.0834 -0.4485
 7580SOL    HW134199   1.087   4.684   3.371 -0.5247 -1.2361  1.1638
 7580SOL    HW234200   1.021   0.064   3.296  0.5906 -0.1304 -0.5988
 7581SOL     OW34201   2.400   2.814   1.833 -0.5197  0.3604  0.3499
 7581SOL    HW134202   2.452   2.782   1.907  0.4183  1.7691  0.2983
 7581SOL    HW234203   2.439   2.765   1.761 -2.2752  0.7199 -0.8272
 7582SOL     OW34204   4.351   2.818   2.096  0.5159 -0.6075  0.2351
 7582SOL    HW134205   4.442   2.845   2.087  0.4625 -0.3670  0.4167
 7582SOL    HW234206   4.333   2.770   2.015  0.3013 -0.7046  0.3399
 7583SOL     OW34207   1.896   3.406   0.327  0.2176  0.9931 -0.4816
 7583SOL    HW134208   1.850   3.391   0.410 -0.6964  1.4193 -0.9058
 7583SOL    HW234209   1.820   3.419   0.270 -0.2323 -0.9138 -0.3088
 7584SOL     OW34210   2.619   3.221   0.663  0.0027  0.2703  0.4415
 7584SOL    HW134211   2.566   3.290   0.623 -0.8365 -0.8156 -0.3101
 7584SOL    HW234212   2.707   3.231   0.627  0.1461  0.2050  0.7712
 7585SOL     OW34213   2.969   2.301  15.177  0.2610 -0.1014 -0.2117
 7585SOL    HW134214   2.912   2.353  15.120 -0.7754 -0.5567  0.4142
 7585SOL    HW234215   2.911   2.275  15.248 -2.9685 -0.1835 -2.8841
 7586SOL     OW34216   1.479   2.842   2.933  0.0167  0.2054 -0.7637
 7586SOL    HW134217   1.553   2.827   2.874 -0.5148 -1.4998 -0.9866
 7586SOL    HW234218   1.512   2.819   3.020 -1.0144  0.6657 -0.2490
 7587SOL     OW34219   0.615   4.221   4.293 -0.0879 -0.1965 -0.0104
 7587SOL    HW134220   0.587   4.287   4.229  1.0071 -0.6371 -0.9345
 7587SOL    HW234221   0.632   4.291   4.356  2.1854 -0.8667  0.0924
 7588SOL     OW34222   3.352   0.884  11.693  0.5902  0.2732 -0.3211
 7588SOL    HW134223   3.349   0.942  11.616  1.2743  0.2488 -0.3689
 7588SOL    HW234224   3.413   0.817  11.662 -0.1250  0.3767 -1.9854
 7589SOL     OW34225   3.612   3.624   6.361  0.0790  0.0442  0.1291
 7589SOL    HW134226   3.554   3.618   6.436 -1.2654 -2.2739 -1.0786
 7589SOL    HW234227   3.544   3.623   6.294  0.2808 -1.1004 -0.0649
 7590SOL     OW34228   4.085   0.456  11.135 -0.0384  0.3506 -0.1042
 7590SOL    HW134229   4.055   0.415  11.054  1.7675 -0.4764 -0.3537
 7590SOL    HW234230   4.102   0.545  11.106  1.3371 -0.1203 -0.7455
 7591SOL     OW34231   2.392   3.510   6.063 -0.4331  0.2233  0.2469
 7591SOL    HW134232   2.306   3.550   6.048  0.4025  2.3573  1.3102
 7591SOL    HW234233   2.379   3.418   6.040  2.0950 -0.6977  2.4618
 7592SOL     OW34234   1.280   0.866   5.018 -0.1926 -0.0425  0.0513
 7592SOL    HW134235   1.259   0.779   4.984 -1.0343 -0.2626  1.1481
 7592SOL    HW234236   1.274   0.853   5.113 -2.1002  0.3782 -0.0186
 7593SOL     OW34237   3.548   3.580   2.372  0.7100 -0.4080  0.2734
 7593SOL    HW134238   3.631   3.536   2.355 -0.7510 -1.7509 -3.3752
 7593SOL    HW234239   3.549   3.636   2.294 -2.5426  0.3595  0.7838
 7594SOL     OW34240   4.247   0.986   4.098 -0.6091  0.5969 -0.3706
 7594SOL    HW134241   4.313   0.983   4.028 -0.7179 -1.4743 -0.3779
 7594SOL    HW234242   4.294   1.056   4.143 -1.6121 -0.4565  2.3057
 7595SOL     OW34243   3.702   0.483  14.677 -0.4306 -0.6392 -0.3240
 7595SOL    HW134244   3.677   0.474  14.769 -1.0756  0.5152 -0.3963
 7595SOL    HW234245   3.683   0.576  14.672 -2.5713 -0.9661  1.6938
 7596SOL     OW34246   2.173   1.200   5.171 -0.2944 -0.0714  0.2724
 7596SOL    HW134247   2.120   1.135   5.218 -0.6233  0.4118  0.5789
 7596SOL    HW234248   2.136   1.190   5.084 -0.6123 -1.8462  0.6022
 7597SOL     OW34249   2.326   1.213   2.199  0.6086  0.3127  0.1466
 7597SOL    HW134250   2.347   1.122   2.223  2.7005  0.1119 -2.4134
 7597SOL    HW234251   2.348   1.261   2.278  2.7477  2.0186 -1.4776
 7598SOL     OW34252   0.164   3.671   7.346  0.2119 -0.7755  0.2239
 7598SOL    HW134253   0.212   3.664   7.264 -1.8527 -1.4669 -0.9291
 7598SOL    HW234254   0.123   3.756   7.335  1.0087 -0.5030 -0.6076
 7599SOL     OW34255   1.912   4.296  12.266 -0.1396  0.2113  0.2194
 7599SOL    HW134256   1.991   4.304  12.213 -2.3281 -1.2089 -3.2991
 7599SOL    HW234257   1.938   4.253  12.347 -0.4047 -0.0333  0.1732
 7600SOL     OW34258   0.925   1.557   1.980  0.2787 -0.0661  0.6293
 7600SOL    HW134259   0.996   1.581   1.921  0.0716  0.3311  0.5414
 7600SOL    HW234260   0.860   1.627   1.971  2.3811  1.6434 -1.3609
 7601SOL     OW34261   2.264   1.049   2.658  0.4789  0.1874 -0.9042
 7601SOL    HW134262   2.348   1.047   2.612  1.8042  0.2823  1.5004
 7601SOL    HW234263   2.246   1.142   2.662 -1.8548 -0.2664 -0.9181
 7602SOL     OW34264   3.950   0.788   4.382  1.1533 -0.2048 -0.1703
 7602SOL    HW134265   3.907   0.797   4.467 -0.5928 -1.4886 -0.9017
 7602SOL    HW234266   3.947   0.875   4.342  2.0037 -0.0875  0.0281
 7603SOL     OW34267   2.725   1.765   5.319  0.1045  0.9744  0.3401
 7603SOL    HW134268   2.635   1.753   5.348 -0.0410 -0.0925 -0.5706
 7603SOL    HW234269   2.747   1.676   5.291  1.0731  1.0291  0.9468
 7604SOL     OW34270   3.273   3.850   9.205 -0.0531 -0.0466 -0.3869
 7604SOL    HW134271   3.241   3.885   9.121  0.3347  0.4998 -0.3085
 7604SOL    HW234272   3.353   3.806   9.175 -0.3865 -0.9101  0.0185
 7605SOL     OW34273   3.471   2.657   6.342 -0.4702  0.0080  0.2686
 7605SOL    HW134274   3.403   2.725   6.342 -0.7871 -0.3109  0.1902
 7605SOL    HW234275   3.477   2.630   6.434  1.3650 -1.1012 -0.1798
 7606SOL     OW34276   2.659   3.249   6.035 -0.3068 -0.2917 -0.0866
 7606SOL    HW134277   2.711   3.219   5.960 -0.2259 -2.0229  0.6605
 7606SOL    HW234278   2.676   3.181   6.100 -2.3695 -0.1210  0.6343
 7607SOL     OW34279   4.038   4.311   2.830  0.3697 -0.7346  0.3338
 7607SOL    HW134280   4.088   4.305   2.911  2.2056  2.4516 -0.5703
 7607SOL    HW234281   4.099   4.308   2.757 -0.6674  0.4955 -0.5844
 7608SOL     OW34282   4.302   1.059  14.152 -0.2738 -0.1912  0.1470
 7608SOL    HW134283   4.232   1.113  14.188  1.7398 -0.7084  4.8454
 7608SOL    HW234284   4.290   1.076  14.059  0.5683  0.3032  0.1306
 7609SOL     OW34285   1.763   4.117   4.802  0.2835 -0.5139  0.6383
 7609SOL    HW134286   1.792   4.073   4.883 -1.0336 -2.9540 -0.2080
 7609SOL    HW234287   1.845   4.120   4.753  0.2718 -0.4777  0.6215
 7610SOL     OW34288   0.645   0.553   3.752 -0.2266 -0.0809 -0.1327
 7610SOL    HW134289   0.587   0.629   3.747 -0.8160 -0.6959 -2.2344
 7610SOL    HW234290   0.581   0.488   3.780  0.1183  0.2180  1.3617
 7611SOL     OW34291   4.095   2.520  16.271  0.0070  0.2003  0.1411
 7611SOL    HW134292   4.112   2.603  16.227 -1.9584  0.7390  0.4000
 7611SOL    HW234293   4.060   2.547  16.355  0.4250  0.4150  0.2472
 7612SOL     OW34294   3.654   0.879   7.740 -0.0470  0.3910  0.7485
 7612SOL    HW134295   3.730   0.932   7.716  0.2684 -0.4985 -0.2326
 7612SOL    HW234296   3.610   0.939   7.800  0.2916  2.2917 -0.9293
 7613SOL     OW34297   3.612   1.861   2.160  0.4120 -0.5969 -0.2161
 7613SOL    HW134298   3.690   1.840   2.210  0.6998  2.6534  0.6627
 7613SOL    HW234299   3.655   1.884   2.078 -2.5723  0.1897 -1.5726
 7614SOL     OW34300   2.524   1.353   2.413 -0.0830  0.3045  0.4948
 7614SOL    HW134301   2.564   1.375   2.497 -0.1925 -1.3764  0.9881
 7614SOL    HW234302   2.603   1.373   2.362  0.5529 -0.7012  1.0916
 7615SOL     OW34303   0.332   4.501  12.205  0.4007 -0.7953  0.8036
 7615SOL    HW134304   0.305   4.523  12.116  0.2208  0.6495  1.2281
 7615SOL    HW234305   0.259   4.445  12.232  0.0881  0.5073  2.5781
 7616SOL     OW34306   0.171   4.337   8.172  0.2904 -0.0972  0.4451
 7616SOL    HW134307   0.104   4.403   8.152 -1.4572 -2.0832 -0.2016
 7616SOL    HW234308   0.250   4.386   8.146  0.4474 -1.1062 -0.9685
 7617SOL     OW34309   0.249   0.173  14.392  1.1180  0.1388 -0.3534
 7617SOL    HW134310   0.296   0.092  14.414  1.6270  0.1866 -1.2958
 7617SOL    HW234311   0.282   0.231  14.461  0.2528 -0.2791  0.4224
 7618SOL     OW34312   0.250   1.478   5.935  0.0685  0.6663  0.1025
 7618SOL    HW134313   0.331   1.528   5.926  0.7004 -0.3702  0.1077
 7618SOL    HW234314   0.241   1.448   5.845  1.1816  3.2219 -0.8816
 7619SOL     OW34315   4.178   4.375   9.258  0.6354  0.8191 -0.2401
 7619SOL    HW134316   4.172   4.464   9.223  2.5203  0.8554 -0.4655
 7619SOL    HW234317   4.268   4.359   9.231  0.2782  0.0158 -0.9863
 7620SOL     OW34318   2.122   4.425   9.041 -0.5611 -0.2499  0.0241
 7620SOL    HW134319   2.206   4.463   9.016  0.6498 -3.7255 -1.1824
 7620SOL    HW234320   2.088   4.502   9.088 -1.1564  0.2831 -1.2867
 7621SOL     OW34321   0.603   1.465  11.305  0.1509 -0.1257 -0.1253
 7621SOL    HW134322   0.665   1.533  11.280  0.4108 -0.5080 -0.5000
 7621SOL    HW234323   0.578   1.437  11.218  1.0606  1.0061 -0.7507
 7622SOL     OW34324   2.855   2.487   9.763 -0.4021 -0.1136  0.0245
 7622SOL    HW134325   2.888   2.558   9.818 -1.0797  0.9695 -0.9850
 7622SOL    HW234326   2.913   2.416   9.792  1.5462  0.5637 -2.2347
 7623SOL     OW34327   0.854   1.058   7.021 -0.0027 -0.1477  0.1819
 7623SOL    HW134328   0.890   0.973   6.998 -1.1080 -0.7138  0.5383
 7623SOL    HW234329   0.781   1.032   7.078 -0.8824  1.0189 -0.4176
 7624SOL     OW34330   0.916   4.435   4.414 -0.6900 -0.8721 -0.0269
 7624SOL    HW134331   0.915   4.516   4.465 -0.2748  0.9184 -2.8671
 7624SOL    HW234332   0.841   4.386   4.449 -0.0270 -2.0639 -0.2823
 7625SOL     OW34333   1.616   2.119   0.495 -0.3965  0.5842  0.1408
 7625SOL    HW134334   1.650   2.123   0.406 -2.8960  1.6989 -0.7873
 7625SOL    HW234335   1.691   2.104   0.552 -1.6861  1.3455  2.0243
 7626SOL     OW34336   2.388   2.742  10.346  0.1259 -0.1870 -0.0074
 7626SOL    HW134337   2.337   2.695  10.412  0.5216  2.3951  2.1312
 7626SOL    HW234338   2.422   2.811  10.401  0.5586 -1.0259  0.7762
 7627SOL     OW34339   0.749   2.210   9.747 -0.4259 -0.7669 -0.2313
 7627SOL    HW134340   0.838   2.198   9.779 -0.9518  1.7057  2.1252
 7627SOL    HW234341   0.742   2.305   9.752  2.4212 -0.6137  0.5912
 7628SOL     OW34342   0.482   2.493  14.082  0.6096 -0.1688 -0.1175
 7628SOL    HW134343   0.538   2.417  14.097  0.3390 -0.6405 -1.4912
 7628SOL    HW234344   0.537   2.562  14.118 -0.2978  0.2752  0.4316
 7629SOL     OW34345   0.226   0.216   9.026  0.0242 -0.1322  0.0292
 7629SOL    HW134346   0.212   0.299   8.980  0.2264  0.2448  0.6447
 7629SOL    HW234347   0.259   0.246   9.111  2.2798 -0.2031 -0.8112
 7630SOL     OW34348   0.535   2.621   6.943 -0.0329 -0.3812  0.2687
 7630SOL    HW134349   0.518   2.716   6.947 -2.3914 -0.6908 -3.1991
 7630SOL    HW234350   0.631   2.616   6.943  0.0249  0.6774 -0.9890
 7631SOL     OW34351   1.522   3.225   5.385  0.5822 -0.1268 -0.3053
 7631SOL    HW134352   1.502   3.133   5.367 -1.3346  0.5220 -1.4198
 7631SOL    HW234353   1.586   3.244   5.316  1.6037 -1.8854  0.1565
 7632SOL     OW34354   2.865   3.785   3.166  0.3601 -1.0424  0.6158
 7632SOL    HW134355   2.815   3.854   3.122  0.2185 -0.2335  2.0585
 7632SOL    HW234356   2.828   3.765   3.252 -0.7848  2.0889  0.8385
 7633SOL     OW34357   2.304   2.427   6.633  0.2593 -0.3677 -0.3293
 7633SOL    HW134358   2.272   2.514   6.654  0.0488 -0.7412  0.8883
 7633SOL    HW234359   2.394   2.425   6.666 -0.0405  0.7671  0.5313
 7634SOL     OW34360   1.479   4.610   6.670 -0.3518  0.5871 -0.1993
 7634SOL    HW134361   1.445   4.652   6.749 -3.2247 -0.2861 -0.9878
 7634SOL    HW234362   1.510   4.524   6.701 -0.0722  1.2362  1.3473
 7635SOL     OW34363   0.203   1.018   4.161 -0.0701  0.6042  0.4769
 7635SOL    HW134364   0.238   1.053   4.079 -1.8488  1.0855 -0.0676
 7635SOL    HW234365   0.238   1.081   4.223  0.1634 -1.2303  2.2121
 7636SOL     OW34366   4.393   3.751   6.543  0.5621  0.2260 -0.1111
 7636SOL    HW134367   4.429   3.708   6.465  0.0359  0.8200 -0.6798
 7636SOL    HW234368   4.433   3.700   6.613 -0.1306  0.0099  0.1345
 7637SOL     OW34369   0.565   2.723   1.919 -1.0054 -0.0907 -0.1092
 7637SOL    HW134370   0.596   2.669   1.992 -2.7968 -0.1170  0.6211
 7637SOL    HW234371   0.523   2.657   1.864 -0.5108 -0.1462 -0.4250
 7638SOL     OW34372   2.804   3.868   7.730  0.0523  0.0273 -0.6897
 7638SOL    HW134373   2.881   3.851   7.784  0.3603 -0.4797 -1.2911
 7638SOL    HW234374   2.836   3.928   7.662 -0.2205 -0.1752 -0.9949
 7639SOL     OW34375   0.083   2.787   1.884  0.0962  0.5809  0.4808
 7639SOL    HW134376   0.074   2.789   1.789  2.0610 -1.7239  0.2410
 7639SOL    HW234377   0.142   2.713   1.896  1.2919  1.4287 -0.0649
 7640SOL     OW34378   3.718   1.891  15.427 -0.7516  0.1816  0.2873
 7640SOL    HW134379   3.747   1.849  15.508  1.5834  0.2615 -0.5255
 7640SOL    HW234380   3.624   1.874  15.437 -0.8013  1.1945  1.5099
 7641SOL     OW34381   2.101   2.968   9.449  0.4665  0.5133  0.6070
 7641SOL    HW134382   2.063   2.928   9.527  0.8734 -0.5532  0.2537
 7641SOL    HW234383   2.020   2.968   9.397  1.2060 -0.6190 -0.5429
 7642SOL     OW34384   1.607   2.853   7.509 -0.3438 -0.1052 -0.0514
 7642SOL    HW134385   1.547   2.854   7.435 -0.0047 -3.5884 -0.3855
 7642SOL    HW234386   1.552   2.834   7.586 -0.6853 -0.1013 -0.2961
 7643SOL     OW34387   1.907   0.704   4.399 -0.2766 -0.7144 -0.0790
 7643SOL    HW134388   2.001   0.688   4.409 -0.4744 -0.7662  1.6500
 7643SOL    HW234389   1.893   0.798   4.414 -0.1875 -0.4917 -1.4234
 7644SOL     OW34390   1.931   3.269   4.801 -0.2490  0.2821 -0.4381
 7644SOL    HW134391   1.960   3.339   4.859 -0.5314 -0.0447  0.0938
 7644SOL    HW234392   1.891   3.321   4.731 -0.9316  0.9150  0.4320
 7645SOL     OW34393   1.530   0.806   5.942 -0.7426 -0.0719  0.1113
 7645SOL    HW134394   1.618   0.768   5.949 -0.4836  0.8900  1.8739
 7645SOL    HW234395   1.548   0.899   5.928  0.2307 -0.5980 -2.3286
 7646SOL     OW34396   0.703   3.975  11.788  0.1464  0.4930 -0.3766
 7646SOL    HW134397   0.699   3.952  11.881 -1.5451 -1.2720 -0.8814
 7646SOL    HW234398   0.620   3.945  11.751 -0.0698 -1.3059  1.5863
 7647SOL     OW34399   4.367   0.076   9.327 -0.6691  0.3993 -0.2800
 7647SOL    HW134400   4.434   0.130   9.285  0.9862  0.0243  1.8372
 7647SOL    HW234401   4.346   0.134   9.401 -2.2340  1.7052 -1.7614
 7648SOL     OW34402   0.138   2.952   6.157  0.0486  0.0585  0.0833
 7648SOL    HW134403   0.059   2.988   6.115  2.0290  1.6620 -2.2456
 7648SOL    HW234404   0.206   2.958   6.091 -0.5385 -1.1726 -0.6429
 7649SOL     OW34405   1.450   3.521   8.518 -0.1287  0.1027  0.3043
 7649SOL    HW134406   1.399   3.473   8.583 -2.8230  0.2095 -1.7511
 7649SOL    HW234407   1.449   3.461   8.444 -0.6743  0.0885  0.3225
 7650SOL     OW34408   4.721   0.949  10.334  0.3217  0.3454  1.4060
 7650SOL    HW134409   4.680   0.908  10.258  0.6674  1.6399  0.5395
 7650SOL    HW234410   4.721   1.041  10.311  1.1754  0.1709  0.7244
 7651SOL     OW34411   3.124   2.055   7.165  0.5582 -0.1731 -0.3860
 7651SOL    HW134412   3.115   1.960   7.170 -0.4004  0.1331  3.8299
 7651SOL    HW234413   3.035   2.085   7.148 -0.2312 -2.1589  0.2800
 7652SOL     OW34414   1.439   4.218   0.181 -0.0956  0.3001 -0.0002
 7652SOL    HW134415   1.466   4.158   0.112 -2.0236 -0.3563 -0.1992
 7652SOL    HW234416   1.379   4.166   0.235 -0.9558 -0.3202 -1.5372
 7653SOL     OW34417   3.790   3.449  10.004 -0.0213 -0.0060  0.4889
 7653SOL    HW134418   3.732   3.525  10.008 -1.3160 -0.8626 -2.0275
 7653SOL    HW234419   3.873   3.486   9.973 -1.5662  1.7164 -1.6020
 7654SOL     OW34420   0.771   4.400   9.099  0.1066  0.2387 -0.1975
 7654SOL    HW134421   0.807   4.468   9.155  1.4028 -2.0212  1.7150
 7654SOL    HW234422   0.689   4.378   9.142 -0.5512  2.3075 -0.3775
 7655SOL     OW34423   0.259   4.332   3.441  0.1164 -0.1556  0.0814
 7655SOL    HW134424   0.250   4.238   3.458 -0.2712 -0.7528 -3.3474
 7655SOL    HW234425   0.348   4.342   3.407  0.6483  1.8903  2.1183
 7656SOL     OW34426   4.273   3.259  10.102 -0.4060 -0.2285 -0.5543
 7656SOL    HW134427   4.202   3.269  10.165 -1.1621  0.3257 -1.4916
 7656SOL    HW234428   4.284   3.349  10.073 -0.8605  0.1688  0.5058
 7657SOL     OW34429   3.587   4.677  10.567 -0.6548 -0.4953  0.4880
 7657SOL    HW134430   3.543   4.600  10.530  1.7605 -1.0347 -1.2682
 7657SOL    HW234431   3.549   0.025  10.515 -0.5361 -0.6553  0.1808
 7658SOL     OW34432   3.017   4.108   2.818 -0.3604  0.0917 -0.1171
 7658SOL    HW134433   2.991   4.169   2.888 -0.1106  1.6813 -1.4085
 7658SOL    HW234434   2.962   4.031   2.828  0.9890 -0.6675  1.3768
 7659SOL     OW34435   1.014   3.715   9.077 -0.2053 -0.3748 -0.0675
 7659SOL    HW134436   0.988   3.799   9.114  2.9189 -0.4662  2.3237
 7659SOL    HW234437   1.098   3.698   9.119 -0.2850  1.0432  0.6644
 7660SOL     OW34438   0.497   2.896   6.950 -0.4326 -0.1405  0.0400
 7660SOL    HW134439   0.549   2.922   7.026  1.6427 -0.2149 -1.3489
 7660SOL    HW234440   0.409   2.931   6.958  0.5760  2.9445 -2.3702
 7661SOL     OW34441   4.546   2.853   4.315  0.0948 -0.5443 -0.1550
 7661SOL    HW134442   4.477   2.852   4.249  0.0315  1.4892 -0.1164
 7661SOL    HW234443   4.620   2.900   4.277  0.0090 -2.0338 -2.1712
 7662SOL     OW34444   2.593   3.324   2.681  0.3084 -0.1050 -0.0947
 7662SOL    HW134445   2.503   3.315   2.649  0.8858 -2.4753 -1.0860
 7662SOL    HW234446   2.634   3.403   2.645 -2.5534  0.4092 -2.2896
 7663SOL     OW34447   0.873   2.284   3.724  0.0247  0.5596  0.4964
 7663SOL    HW134448   0.882   2.197   3.762 -0.0485 -0.2829 -1.4035
 7663SOL    HW234449   0.965   2.307   3.710 -0.2142  1.7762  0.9351
 7664SOL     OW34450   1.346   3.036  14.322  0.0927  0.7167  0.7401
 7664SOL    HW134451   1.350   3.090  14.401  0.9559 -0.3572  1.4421
 7664SOL    HW234452   1.372   3.094  14.250 -2.0550 -0.1982 -0.7836
 7665SOL     OW34453   4.063   3.985   2.884 -0.4521  0.2603 -0.3271
 7665SOL    HW134454   4.096   3.957   2.798  0.6864  0.7632 -0.0595
 7665SOL    HW234455   4.144   3.997   2.933  0.3825  2.1256 -2.1756
 7666SOL     OW34456   4.491   0.953   3.012  0.2099 -0.6014  0.6245
 7666SOL    HW134457   4.405   0.933   3.049 -0.3682 -1.5706 -1.2941
 7666SOL    HW234458   4.492   0.934   2.918  0.2452 -2.8021  1.0625
 7667SOL     OW34459   3.293   4.315   2.693  0.3543  0.0913  0.5788
 7667SOL    HW134460   3.369   4.256   2.689  0.7963  0.6614  0.6129
 7667SOL    HW234461   3.239   4.264   2.633 -0.5226  1.6085  0.0737
 7668SOL     OW34462   3.769   3.749  11.155  0.2943 -0.1529 -0.1360
 7668SOL    HW134463   3.822   3.670  11.163 -1.8832 -1.4558  1.4760
 7668SOL    HW234464   3.764   3.765  11.249 -0.1709 -1.7227  0.1152
 7669SOL     OW34465   4.474   3.593   6.749  0.2242 -0.4557  0.1715
 7669SOL    HW134466   4.441   3.630   6.831 -0.0044 -0.8627  0.2674
 7669SOL    HW234467   4.552   3.547   6.780  0.8975 -0.5274 -1.6408
 7670SOL     OW34468   4.677   2.812   3.637 -0.1024 -0.2480 -0.1083
 7670SOL    HW134469   4.643   2.866   3.708  0.1002  0.0323 -0.2250
 7670SOL    HW234470   4.599   2.763   3.612  0.0745 -0.5708 -0.0294
 7671SOL     OW34471   0.703   3.389  16.515 -0.0413 -0.0942 -0.5496
 7671SOL    HW134472   0.755   3.349  16.585 -0.5737  0.1055 -0.0357
 7671SOL    HW234473   0.617   3.396  16.558  0.6247 -1.0419  0.9386
 7672SOL     OW34474   0.253   1.831   3.355 -0.2635  0.4771 -0.5122
 7672SOL    HW134475   0.276   1.801   3.267 -1.4683  2.1766 -1.3915
 7672SOL    HW234476   0.277   1.923   3.344  0.1695  0.5046  0.7108
 7673SOL     OW34477   1.950   3.362  16.398  0.8045 -0.1367  0.3674
 7673SOL    HW134478   1.903   3.306  16.337  0.5908  0.7866 -0.3239
 7673SOL    HW234479   2.033   3.367  16.351 -0.0389  0.1628 -1.0656
 7674SOL     OW34480   2.888   0.208   2.289 -0.1577  0.2407 -0.2876
 7674SOL    HW134481   2.801   0.242   2.269 -0.9822 -2.2271 -0.8847
 7674SOL    HW234482   2.903   0.247   2.375 -1.4138 -0.1052  0.0852
 7675SOL     OW34483   2.307   0.032   1.023 -0.6728  0.0597  0.5741
 7675SOL    HW134484   2.374   4.690   1.001 -0.8370  0.5448 -1.4047
 7675SOL    HW234485   2.319   0.053   1.115 -0.6967  0.0076  0.5892
 7676SOL     OW34486   2.884   3.137   7.487 -0.0075 -0.0351 -0.0392
 7676SOL    HW134487   2.856   3.071   7.423  2.2151 -0.7852 -0.2369
 7676SOL    HW234488   2.800   3.182   7.495  0.5803  0.7939  1.5374
 7677SOL     OW34489   4.474   3.084  16.170  0.3744 -0.6572 -0.2441
 7677SOL    HW134490   4.506   3.174  16.164  0.4483 -0.7634 -1.4571
 7677SOL    HW234491   4.378   3.089  16.166  0.2202 -2.1187  1.6979
 7678SOL     OW34492   2.321   3.414   3.723 -0.1474 -0.4631  0.0274
 7678SOL    HW134493   2.303   3.382   3.635 -1.2914 -0.1721  0.1582
 7678SOL    HW234494   2.244   3.469   3.736  0.4023  0.7040 -1.6976
 7679SOL     OW34495   2.608   4.145   2.805 -0.4190 -0.2049  0.2272
 7679SOL    HW134496   2.555   4.223   2.819 -0.6623 -0.5977  1.5787
 7679SOL    HW234497   2.648   4.151   2.718 -0.1832  0.2215  0.3669
 7680SOL     OW34498   4.531   1.529   7.925 -0.0585  0.3743  0.5521
 7680SOL    HW134499   4.614   1.556   7.885 -1.1306  1.1547 -1.1455
 7680SOL    HW234500   4.556   1.493   8.010  1.3140 -1.4683 -0.6277
 7681SOL     OW34501   3.840   0.964   3.821 -0.0890 -0.4183 -0.3513
 7681SOL    HW134502   3.855   0.890   3.761  2.5086  0.6689 -1.0422
 7681SOL    HW234503   3.901   0.948   3.893 -0.2325  1.5751  0.2121
 7682SOL     OW34504   1.697   3.859  17.150  0.5691 -0.2528 -0.2528
 7682SOL    HW134505   1.755   3.793  17.187  0.2134 -1.2103 -1.4167
 7682SOL    HW234506   1.695   3.920  17.224  2.4870 -0.3943 -0.0760
 7683SOL     OW34507   0.245   0.911   7.558  0.2584 -0.2114 -0.3381
 7683SOL    HW134508   0.245   0.984   7.621 -2.1836  1.4919 -2.3384
 7683SOL    HW234509   0.198   0.838   7.598  1.9753 -0.2669  1.5871
 7684SOL     OW34510   2.385   1.765   5.779 -0.4821 -0.0018 -0.0853
 7684SOL    HW134511   2.315   1.792   5.721  0.0316  0.6072 -0.4316
 7684SOL    HW234512   2.392   1.838   5.842  2.1433 -1.2877  1.1081
 7685SOL     OW34513   4.475   2.337  15.263 -0.1333 -0.1355  0.0698
 7685SOL    HW134514   4.430   2.415  15.230 -3.3461 -0.9967  2.4274
 7685SOL    HW234515   4.506   2.367  15.349  1.5481  0.0755 -0.6242
 7686SOL     OW34516   3.502   0.740  14.714 -0.3626  0.3861 -0.8616
 7686SOL    HW134517   3.465   0.764  14.630  1.5204  2.8757 -0.9978
 7686SOL    HW234518   3.587   0.785  14.721 -0.5110  0.1065  3.2781
 7687SOL     OW34519   2.568   2.237   4.148  0.9141 -0.2247  0.5284
 7687SOL    HW134520   2.602   2.300   4.085 -0.6664  1.1673  1.0549
 7687SOL    HW234521   2.483   2.268   4.179 -0.1818 -0.1973 -2.5074
 7688SOL     OW34522   2.796   2.398   5.024  0.0870 -0.3509 -0.0033
 7688SOL    HW134523   2.710   2.409   4.984 -0.9045  2.0453  2.8169
 7688SOL    HW234524   2.779   2.438   5.109 -1.6998 -1.4626  0.1696
 7689SOL     OW34525   4.182   2.784   5.131 -0.5172 -0.3615 -0.2710
 7689SOL    HW134526   4.258   2.742   5.172  0.4611  0.1805 -1.5067
 7689SOL    HW234527   4.223   2.849   5.074 -1.5545 -1.7175 -2.5539
 7690SOL     OW34528   1.369   1.476   1.691  0.1198 -0.1828  0.1548
 7690SOL    HW134529   1.407   1.393   1.722  0.3873 -0.1532 -0.1040
 7690SOL    HW234530   1.438   1.492   1.627 -1.6409  1.2704 -1.3590
 7691SOL     OW34531   2.142   1.362   9.004  0.0066 -0.1179  0.2218
 7691SOL    HW134532   2.069   1.338   9.060  0.1712 -0.9100  0.1013
 7691SOL    HW234533   2.106   1.443   8.968 -0.6342 -0.0016  1.1519
 7692SOL     OW34534   0.943   2.468   7.817 -0.0336  0.5158  0.4751
 7692SOL    HW134535   0.929   2.443   7.908  0.0787  0.1002  0.3773
 7692SOL    HW234536   0.962   2.562   7.827 -1.9651  1.0951 -1.2408
 7693SOL     OW34537   3.499   0.043   6.339  0.6714 -0.2798 -0.3678
 7693SOL    HW134538   3.425   0.069   6.284  0.6842  0.8583  0.1489
 7693SOL    HW234539   3.568   0.011   6.282  1.1989 -0.6027  0.4538
 7694SOL     OW34540   1.793   4.716  14.307  0.3142 -0.0409  0.0379
 7694SOL    HW134541   1.730   4.655  14.346  2.4429 -0.7001  2.4315
 7694SOL    HW234542   1.855   0.018  14.375  1.4258 -1.3881 -0.4870
 7695SOL     OW34543   2.801   0.289   6.676 -0.1318 -0.6980 -0.3038
 7695SOL    HW134544   2.779   0.252   6.761 -0.0266  0.8044  0.3730
 7695SOL    HW234545   2.759   0.217   6.629  0.7148 -1.0589 -0.5113
 7696SOL     OW34546   0.804   0.744   7.965  0.5090  0.0842 -0.4737
 7696SOL    HW134547   0.846   0.684   7.904 -2.2089 -0.2822 -2.0023
 7696SOL    HW234548   0.883   0.791   7.992  1.0306 -2.0171  1.6076
 7697SOL     OW34549   3.310   3.829   6.332  0.6999 -0.1269 -0.6602
 7697SOL    HW134550   3.372   3.831   6.406  0.4336 -0.0139 -0.4423
 7697SOL    HW234551   3.231   3.825   6.385 -0.1708 -0.7622 -2.0269
 7698SOL     OW34552   2.833   2.837   8.411  0.2140  0.5933  0.3208
 7698SOL    HW134553   2.919   2.859   8.445 -1.5961  2.4291  3.7349
 7698SOL    HW234554   2.838   2.875   8.323 -0.8980 -1.6220 -0.7036
 7699SOL     OW34555   1.900   1.680   3.904 -0.0879  0.1057  0.0416
 7699SOL    HW134556   1.960   1.730   3.848 -2.0014  2.1979 -0.0995
 7699SOL    HW234557   1.833   1.748   3.905 -2.4551 -2.1764 -3.6921
 7700SOL     OW34558   2.610   0.870  10.678 -0.0021  0.2677 -0.5376
 7700SOL    HW134559   2.568   0.785  10.691  1.8791 -0.4364  0.9400
 7700SOL    HW234560   2.701   0.840  10.668 -0.7030 -1.7557 -0.8804
 7701SOL     OW34561   2.903   2.443  11.836 -0.3690 -0.5059  0.3016
 7701SOL    HW134562   2.981   2.400  11.800  0.3832  0.3355  0.9172
 7701SOL    HW234563   2.859   2.383  11.896  1.0340 -0.7919  1.0407
 7702SOL     OW34564   1.581   2.228  16.685 -0.2030  0.2548 -0.2976
 7702SOL    HW134565   1.659   2.282  16.702 -1.2614  1.7704 -0.2610
 7702SOL    HW234566   1.614   2.143  16.713 -1.5883 -0.4688 -0.8664
 7703SOL     OW34567   1.697   0.569   5.552 -0.1021 -0.1362  0.0042
 7703SOL    HW134568   1.735   0.572   5.464 -0.4768  1.0256 -0.1202
 7703SOL    HW234569   1.615   0.520   5.546  0.5910 -1.1855 -0.9076
 7704SOL     OW34570   2.683   2.466  15.999 -0.0794  0.3438  0.3143
 7704SOL    HW134571   2.724   2.395  15.949 -0.6627  0.9207 -0.9760
 7704SOL    HW234572   2.641   2.521  15.933 -0.8920 -1.7036 -0.8887
 7705SOL     OW34573   0.757   0.327   7.270 -0.2951 -0.5522 -0.0366
 7705SOL    HW134574   0.774   0.344   7.178 -2.7525  2.9730  0.1842
 7705SOL    HW234575   0.786   0.235   7.277 -0.4023 -0.6183 -0.4762
 7706SOL     OW34576   0.824   3.142   5.397  0.1557 -0.3205 -0.4961
 7706SOL    HW134577   0.801   3.099   5.480  2.2778 -0.5999 -0.0624
 7706SOL    HW234578   0.795   3.233   5.407  0.7107 -0.3533  1.4088
 7707SOL     OW34579   1.166   1.391   2.941 -0.6748 -0.4733  0.1529
 7707SOL    HW134580   1.132   1.364   3.027 -1.1401  3.0738  1.0841
 7707SOL    HW234581   1.199   1.308   2.907 -0.1836 -0.5498  0.8092
 7708SOL     OW34582   2.002   0.731   7.170  0.0546 -0.6094  0.1842
 7708SOL    HW134583   1.933   0.753   7.232  0.3071  1.4700 -0.2863
 7708SOL    HW234584   1.944   0.714   7.095  2.1786 -0.1591 -1.5714
 7709SOL     OW34585   1.852   4.194   1.527 -0.3610  0.2958 -0.9348
 7709SOL    HW134586   1.853   4.107   1.565 -0.0748 -0.1731 -2.0107
 7709SOL    HW234587   1.876   4.170   1.437  1.4616  2.7350 -1.1186
 7710SOL     OW34588   1.900   3.660   1.974  0.1408  0.3407 -0.0021
 7710SOL    HW134589   1.937   3.576   2.001  1.3633  1.1069  0.7367
 7710SOL    HW234590   1.977   3.715   1.993  0.6271  0.2691 -1.7650
 7711SOL     OW34591   4.671   1.535  13.787 -0.0271  0.9155 -0.1322
 7711SOL    HW134592   4.668   1.476  13.711 -1.8316  0.3489  0.3827
 7711SOL    HW234593   4.648   1.474  13.857 -1.1068  1.1893 -0.2384
 7712SOL     OW34594   3.722   4.680   8.557 -0.1271 -0.4730 -0.1601
 7712SOL    HW134595   3.813   4.652   8.562 -0.3540 -0.9703  1.1391
 7712SOL    HW234596   3.711   4.677   8.462 -2.2791 -2.0639  0.1362
 7713SOL     OW34597   4.532   0.345   5.571 -0.4531 -0.4141 -0.2640
 7713SOL    HW134598   4.457   0.395   5.602  0.4739  1.1000 -0.4579
 7713SOL    HW234599   4.544   0.278   5.638 -1.8105  0.1223  0.5099
 7714SOL     OW34600   0.394   0.627   9.374  0.2398  0.1236 -0.1982
 7714SOL    HW134601   0.440   0.664   9.449 -0.7801  1.8283 -0.4164
 7714SOL    HW234602   0.300   0.625   9.395  0.5614  0.8517  1.2689
 7715SOL     OW34603   2.328   1.244  11.863 -0.4376  0.2401  0.6107
 7715SOL    HW134604   2.291   1.156  11.869 -1.6477  0.8089  1.7296
 7715SOL    HW234605   2.411   1.242  11.817  0.5661 -0.0399  2.4440
 7716SOL     OW34606   0.762   4.464   3.935  0.4580 -0.2962  0.2600
 7716SOL    HW134607   0.720   4.384   3.904 -1.2789 -0.0023  1.8779
 7716SOL    HW234608   0.808   4.484   3.853  0.0051 -0.9094 -0.1457
 7717SOL     OW34609   1.241   2.509  13.331 -0.0727 -0.2362 -0.5263
 7717SOL    HW134610   1.172   2.557  13.377  0.4496 -0.6324  0.6654
 7717SOL    HW234611   1.222   2.418  13.353  1.0088 -0.6860 -1.4535
 7718SOL     OW34612   4.177   1.789   5.777  0.3250  0.2432  0.1976
 7718SOL    HW134613   4.247   1.724   5.768 -0.0929 -0.4355  1.7765
 7718SOL    HW234614   4.209   1.845   5.849  0.3393 -0.7849  0.9820
 7719SOL     OW34615   4.644   2.421   2.813 -0.4192  0.0305  0.1369
 7719SOL    HW134616   4.633   2.455   2.902  2.7254  0.4326  0.3753
 7719SOL    HW234617   4.643   2.497   2.755  0.4147 -1.0445 -1.2607
 7720SOL     OW34618   1.251   0.333  15.457 -0.7165  0.2268 -0.1167
 7720SOL    HW134619   1.173   0.366  15.414 -1.5046 -0.0163  1.1433
 7720SOL    HW234620   1.318   0.383  15.411  0.6653 -3.3357 -2.0359
 7721SOL     OW34621   2.830   1.078   8.471 -0.7328 -0.2532  0.4380
 7721SOL    HW134622   2.755   1.124   8.433 -0.5315  1.4570  2.0999
 7721SOL    HW234623   2.794   1.051   8.556 -2.1249  1.0700  0.2641
 7722SOL     OW34624   4.210   3.741  11.644 -0.1142  0.0269  0.4703
 7722SOL    HW134625   4.284   3.694  11.605 -1.0334 -1.1491  0.1593
 7722SOL    HW234626   4.248   3.799  11.710  1.7868 -0.3070 -0.3268
 7723SOL     OW34627   3.218   2.457  13.541 -1.0687  0.1345  0.3919
 7723SOL    HW134628   3.137   2.418  13.573 -0.6167 -1.3420 -0.2699
 7723SOL    HW234629   3.269   2.383  13.508 -1.8132 -0.8116  1.3744
 7724SOL     OW34630   1.537   0.463   8.297  0.2249 -0.4885  0.5120
 7724SOL    HW134631   1.555   0.404   8.371  0.5925 -0.3577  0.5271
 7724SOL    HW234632   1.450   0.498   8.314 -1.0224 -1.9738 -2.8292
 7725SOL     OW34633   2.599   2.639  13.321  0.3583  0.1283 -0.3221
 7725SOL    HW134634   2.651   2.718  13.336  1.4911 -0.4661 -1.0881
 7725SOL    HW234635   2.519   2.667  13.277 -1.0862 -1.1703  1.4529
 7726SOL     OW34636   2.288   0.683   7.073 -0.1125 -0.3324 -0.4008
 7726SOL    HW134637   2.202   0.696   7.113  0.7058  0.6327  1.1052
 7726SOL    HW234638   2.343   0.733   7.134  0.6195  0.8268 -2.0104
 7727SOL     OW34639   4.465   3.590  13.862 -0.4142  0.3629 -0.2158
 7727SOL    HW134640   4.415   3.513  13.836 -0.9675  0.5412  0.3236
 7727SOL    HW234641   4.405   3.627  13.927  0.6411  1.3725  0.1784
 7728SOL     OW34642   1.153   4.435  13.490  0.2119  0.0337  0.4085
 7728SOL    HW134643   1.082   4.464  13.548  0.0132 -2.5610  1.4891
 7728SOL    HW234644   1.228   4.462  13.543  0.4717  0.0102  0.0470
 7729SOL     OW34645   2.233   2.320   2.156  0.0932 -0.1357 -0.5610
 7729SOL    HW134646   2.277   2.338   2.073  2.3151 -0.1819  0.6087
 7729SOL    HW234647   2.154   2.375   2.160  0.3471  0.1288  0.7957
 7730SOL     OW34648   3.337   0.159   0.953  0.0429  0.1247  0.1608
 7730SOL    HW134649   3.423   0.175   0.992  0.2045  1.2962 -0.6968
 7730SOL    HW234650   3.285   0.195   1.025  2.4243  0.6639  1.6073
 7731SOL     OW34651   1.941   2.173   7.791  0.1567  0.1205  0.4110
 7731SOL    HW134652   1.860   2.122   7.796  0.6523 -0.6830  0.3530
 7731SOL    HW234653   1.923   2.247   7.733  0.5629 -0.3922 -0.3749
 7732SOL     OW34654   0.558   3.786   6.067 -0.5843 -0.6489  0.1537
 7732SOL    HW134655   0.619   3.749   6.002 -2.4421 -5.8356  1.3637
 7732SOL    HW234656   0.529   3.868   6.027 -1.6839 -2.2973 -2.5333
 7733SOL     OW34657   1.357   2.200   6.425 -0.2732 -0.0418  0.5922
 7733SOL    HW134658   1.343   2.211   6.331  0.7296  2.4723  0.7502
 7733SOL    HW234659   1.263   2.194   6.443 -0.0414 -1.3924  1.4156
 7734SOL     OW34660   2.031   2.579   6.612  0.5274 -0.1808 -0.2805
 7734SOL    HW134661   1.957   2.631   6.581  0.9642  1.8580  2.1117
 7734SOL    HW234662   2.082   2.627   6.678 -0.5896  1.0909 -0.3399
 7735SOL     OW34663   1.664   3.175  10.937  0.0248  0.5143  0.3584
 7735SOL    HW134664   1.639   3.155  10.847  0.4012 -1.6547  0.7459
 7735SOL    HW234665   1.589   3.230  10.959 -0.6969 -0.1478 -0.4748
 7736SOL     OW34666   3.673   3.015   7.545 -0.3325  0.2317  0.0586
 7736SOL    HW134667   3.730   3.068   7.489  0.9836 -1.5183 -0.2629
 7736SOL    HW234668   3.635   2.953   7.483  1.6251 -1.2828  0.3723
 7737SOL     OW34669   1.289   4.271   0.793 -0.2813  0.3657  0.1556
 7737SOL    HW134670   1.276   4.224   0.711 -1.4443  0.9987 -0.0190
 7737SOL    HW234671   1.200   4.290   0.825 -0.5372  0.5237 -0.6668
 7738SOL     OW34672   0.012   3.835  10.802  0.1907  0.1517 -0.0578
 7738SOL    HW134673   4.687   3.913  10.830 -0.3697 -0.1182 -0.2662
 7738SOL    HW234674   0.049   3.824  10.890  3.2654 -0.8726 -1.5156
 7739SOL     OW34675   0.607   1.666  11.525 -0.2944  0.0341  0.1790
 7739SOL    HW134676   0.602   1.619  11.441 -1.1276  0.3653  0.0450
 7739SOL    HW234677   0.527   1.647  11.575  1.1526 -1.3534  1.9527
 7740SOL     OW34678   3.033   0.585   7.840 -0.0709 -0.4315  0.0691
 7740SOL    HW134679   3.116   0.631   7.857 -1.0327  0.2101  3.0659
 7740SOL    HW234680   2.987   0.624   7.914 -1.0351  1.4313 -1.5022
 7741SOL     OW34681   3.316   0.172   6.131 -0.5705 -0.1619  0.0131
 7741SOL    HW134682   3.251   0.195   6.198 -1.1448  2.6607 -1.5106
 7741SOL    HW234683   3.266   0.117   6.071 -1.3298 -1.8735  2.2086
 7742SOL     OW34684   4.097   0.112  17.358  0.2941  0.0698 -0.1578
 7742SOL    HW134685   4.142   0.138  17.278  2.5567  0.6931  1.3097
 7742SOL    HW234686   4.112   0.189  17.413 -1.2780  0.9464 -0.9422
 7743SOL     OW34687   2.425   2.701   5.500  0.3036  0.2584 -0.2365
 7743SOL    HW134688   2.368   2.777   5.491  0.0890 -0.0197 -1.1758
 7743SOL    HW234689   2.392   2.642   5.433 -0.1714  0.3041 -0.0419
 7744SOL     OW34690   3.378   4.446   4.802  0.0940  0.2607 -0.0954
 7744SOL    HW134691   3.399   4.498   4.725  2.5840 -1.8291 -0.8295
 7744SOL    HW234692   3.299   4.399   4.775 -0.9819  3.0457 -1.7542
 7745SOL     OW34693   2.890   3.951   7.447 -0.2761 -0.2969 -0.1012
 7745SOL    HW134694   2.869   3.858   7.447  0.2430 -0.4270 -3.5516
 7745SOL    HW234695   2.980   3.945   7.416 -0.4368 -4.0725  0.1856
 7746SOL     OW34696   4.223   4.454   2.291  0.0202 -0.2535 -0.2223
 7746SOL    HW134697   4.215   4.380   2.231 -0.3654 -0.4404  0.0603
 7746SOL    HW234698   4.318   4.462   2.301  0.0779 -0.8622 -0.2405
 7747SOL     OW34699   3.745   3.126   2.049 -0.3611  0.1615  0.5118
 7747SOL    HW134700   3.669   3.179   2.074 -0.4709  0.8658 -1.2795
 7747SOL    HW234701   3.748   3.054   2.112  0.8005  0.6497  1.0136
 7748SOL     OW34702   2.681   0.054   6.565 -0.6798 -1.0029  0.4057
 7748SOL    HW134703   2.632   0.043   6.646  0.2851 -1.1719  0.9746
 7748SOL    HW234704   2.754   4.715   6.574 -0.3317 -0.5684  0.5786
 7749SOL     OW34705   1.441   1.454   8.342  0.3531 -0.1803  0.2038
 7749SOL    HW134706   1.507   1.454   8.272  0.1909  0.7749  0.0578
 7749SOL    HW234707   1.476   1.409   8.419 -2.5854  0.6922  2.0188
 7750SOL     OW34708   1.910   3.667   5.952  0.2299 -0.2725 -0.1925
 7750SOL    HW134709   1.843   3.599   5.945 -1.2312  1.2087 -0.7140
 7750SOL    HW234710   1.885   3.715   6.031  0.2846 -0.9260  0.2265
 7751SOL     OW34711   1.092   3.619   6.192 -0.1780  0.4067 -0.0367
 7751SOL    HW134712   1.033   3.686   6.156 -1.2982 -0.5692 -0.0213
 7751SOL    HW234713   1.138   3.613   6.108 -0.5660  2.1410 -0.3724
 7752SOL     OW34714   2.650   0.757  11.066  0.0329 -0.4407 -0.0297
 7752SOL    HW134715   2.635   0.678  11.015 -0.4546  1.4399 -2.8401
 7752SOL    HW234716   2.596   0.736  11.142  2.0195 -1.5880  1.0727
 7753SOL     OW34717   0.563   4.283   5.127 -0.0770 -0.0068 -0.0626
 7753SOL    HW134718   0.648   4.240   5.132  0.0162  0.1254 -0.4923
 7753SOL    HW234719   0.504   4.208   5.115 -0.8206  0.2187  2.2205
 7754SOL     OW34720   1.017   4.089   7.765  0.3865  0.0903  0.2539
 7754SOL    HW134721   0.995   4.032   7.839 -1.4300  1.1015  0.5195
 7754SOL    HW234722   0.933   4.133   7.750 -0.2611 -0.1445  3.1920
 7755SOL     OW34723   2.662   3.985  15.056  0.4632 -0.0971  0.3685
 7755SOL    HW134724   2.734   3.998  14.994 -0.2488  0.8533 -0.2341
 7755SOL    HW234725   2.598   4.045  15.019  1.1650 -1.1620 -2.5904
 7756SOL     OW34726   4.718   0.773   6.790  0.2341  0.2800  0.3917
 7756SOL    HW134727   4.709   0.709   6.860  0.3397  0.5742  0.6762
 7756SOL    HW234728   0.086   0.760   6.765  0.5421  1.3009  0.9561
 7757SOL     OW34729   2.080   4.687   5.149 -0.4792 -0.4288 -0.2891
 7757SOL    HW134730   2.172   4.667   5.132 -0.1639  0.2659  0.5734
 7757SOL    HW234731   2.045   4.598   5.149 -0.3058 -0.5011  1.5227
 7758SOL     OW34732   3.984   0.329  10.884 -0.2588 -0.5571  0.0289
 7758SOL    HW134733   3.914   0.394  10.892  1.9401  1.5768  1.9148
 7758SOL    HW234734   3.939   0.245  10.898 -1.7935  0.4528  1.1840
 7759SOL     OW34735   4.113   3.836   4.460 -0.3951  0.5306  0.1284
 7759SOL    HW134736   4.131   3.854   4.552  0.8428 -0.0144 -0.0164
 7759SOL    HW234737   4.201   3.829   4.423 -1.7465 -2.5544 -2.5369
 7760SOL     OW34738   3.398   0.035  16.510  0.4395  0.3341 -0.2260
 7760SOL    HW134739   3.320   0.055  16.457  0.5861 -0.6428 -0.8152
 7760SOL    HW234740   3.424   0.119  16.547  1.5399 -0.7483  1.4409
 7761SOL     OW34741   4.519   2.236   7.486 -0.6961  0.3885  0.9134
 7761SOL    HW134742   4.523   2.218   7.392 -1.0073  0.3861  0.9004
 7761SOL    HW234743   4.595   2.293   7.483 -1.8671  2.0063  2.3797
 7762SOL     OW34744   0.797   2.662  11.379  0.7045  0.3368 -0.3808
 7762SOL    HW134745   0.890   2.670  11.399  0.6310 -1.4529  0.6136
 7762SOL    HW234746   0.766   2.743  11.419  0.5869  0.1714 -0.1387
 7763SOL     OW34747   2.309   2.770   2.137  0.0150  0.5080  0.3118
 7763SOL    HW134748   2.397   2.736   2.121 -0.8861 -0.5911 -2.3049
 7763SOL    HW234749   2.320   2.855   2.096  0.6309  0.1359 -0.2891
 7764SOL     OW34750   2.139   1.733   7.512 -0.0645  0.1948 -0.0331
 7764SOL    HW134751   2.045   1.733   7.531 -0.0837 -1.8766 -0.1740
 7764SOL    HW234752   2.180   1.749   7.597 -1.2833 -0.0611  0.6062
 7765SOL     OW34753   4.608   4.708   3.635  0.3117  0.1388 -0.1137
 7765SOL    HW134754   4.616   4.683   3.727  2.1189  2.0713  0.2650
 7765SOL    HW234755   4.516   0.010   3.629  0.7585  2.0912  1.4752
 7766SOL     OW34756   1.480   2.109  13.404 -0.3392  0.8244 -0.2947
 7766SOL    HW134757   1.398   2.150  13.379 -0.2768 -0.2276 -2.1616
 7766SOL    HW234758   1.491   2.142  13.494 -3.3904  4.2890 -1.1802
 7767SOL     OW34759   0.884   2.613   2.237  0.0100  0.3163 -0.3506
 7767SOL    HW134760   0.938   2.593   2.160 -0.5391  0.1862 -0.7025
 7767SOL    HW234761   0.909   2.545   2.299  2.3134  0.5533 -1.0211
 7768SOL     OW34762   2.070   0.769   3.845 -0.3070  0.2217 -1.1957
 7768SOL    HW134763   2.036   0.756   3.934  2.4030 -2.3944 -0.5418
 7768SOL    HW234764   2.043   0.859   3.830 -0.9186  0.1427 -0.5956
 7769SOL     OW34765   0.705   0.505  16.271  0.2044  0.1017 -0.0164
 7769SOL    HW134766   0.741   0.499  16.182 -0.4572  0.7701 -0.3281
 7769SOL    HW234767   0.728   0.594  16.298  1.1374 -0.2905  0.4792
 7770SOL     OW34768   4.243   2.353   2.988 -0.0345  0.2781  0.2413
 7770SOL    HW134769   4.280   2.375   2.903  2.3845 -1.1042  0.9268
 7770SOL    HW234770   4.173   2.289   2.973  2.1068 -2.7142  2.8617
 7771SOL     OW34771   3.115   3.336  14.902  0.0962  0.2413 -0.1014
 7771SOL    HW134772   3.132   3.251  14.942 -2.5107  0.5666  1.6792
 7771SOL    HW234773   3.133   3.331  14.808  1.5117 -0.7603  0.2140
 7772SOL     OW34774   0.286   3.019   7.090 -0.1935 -0.1043 -0.0498
 7772SOL    HW134775   0.261   2.998   7.180 -2.2119  0.4979 -0.4695
 7772SOL    HW234776   0.198   3.035   7.055 -0.6903  0.1260  1.2647
 7773SOL     OW34777   3.761   0.705  17.626  0.8480 -0.3030  0.4391
 7773SOL    HW134778   3.710   0.644  17.679 -0.1206  1.2270  1.2639
 7773SOL    HW234779   3.788   0.762   0.002 -1.2009 -0.8277  1.6304
 7774SOL     OW34780   3.932   4.503   2.104  0.0068 -0.1438 -0.7333
 7774SOL    HW134781   3.896   4.542   2.025  1.3378  0.9830 -0.7717
 7774SOL    HW234782   4.015   4.463   2.080 -0.2169 -1.4827  0.7277
 7775SOL     OW34783   4.369   3.209   7.225  0.4433  0.0819  0.4336
 7775SOL    HW134784   4.377   3.295   7.267 -0.8558  1.1156 -1.4495
 7775SOL    HW234785   4.398   3.214   7.134  2.1138  0.3065  0.9867
 7776SOL     OW34786   0.976   3.429   4.253 -0.4293  0.1902 -0.0334
 7776SOL    HW134787   0.890   3.407   4.217 -0.1739 -1.3278  0.2475
 7776SOL    HW234788   0.960   3.503   4.311 -1.2401  0.4473 -0.5885
 7777SOL     OW34789   0.002   2.215   4.098  0.5249  0.1796  0.1586
 7777SOL    HW134790   0.058   2.250   4.167 -0.6421  0.9341  0.7278
 7777SOL    HW234791   0.042   2.271   4.031  0.0840 -0.9552 -1.0393
 7778SOL     OW34792   3.135   2.672  13.782  0.1804 -0.0557  0.0524
 7778SOL    HW134793   3.230   2.659  13.774  0.0906 -0.4783 -0.3196
 7778SOL    HW234794   3.124   2.612  13.856 -0.4832 -1.5462 -1.2528
 7779SOL     OW34795   4.121   2.527   5.225  0.3544 -0.3365  0.4946
 7779SOL    HW134796   4.120   2.602   5.165  1.0369 -2.5051 -2.2680
 7779SOL    HW234797   4.196   2.559   5.275  1.2582 -0.0167 -1.0623
 7780SOL     OW34798   1.783   0.011   5.160  0.0723 -0.2811  0.4644
 7780SOL    HW134799   1.878   0.006   5.149  0.1941  1.0684  0.8844
 7780SOL    HW234800   1.770   0.093   5.112 -0.3477  0.4697  1.8532
 7781SOL     OW34801   3.484   2.330   4.758  0.2978  0.0084 -0.1297
 7781SOL    HW134802   3.421   2.376   4.703  1.9486  3.4919  0.8592
 7781SOL    HW234803   3.521   2.270   4.694  0.7786  0.1258  0.0373
 7782SOL     OW34804   3.998   0.557  17.629 -0.3834  0.3302  0.2933
 7782SOL    HW134805   4.046   0.614  17.569 -0.8671  1.4318  0.9522
 7782SOL    HW234806   3.911   0.593  17.646  0.1660  2.4638 -1.3340
 7783SOL     OW34807   4.674   3.520   5.985  0.0615  0.3115 -0.8661
 7783SOL    HW134808   4.632   3.472   5.914  1.0880 -1.6098 -0.1546
 7783SOL    HW234809   4.644   3.610   5.969  1.1934  1.4200  3.2781
 7784SOL     OW34810   4.664   4.272  14.387 -1.1151  0.6154  0.7993
 7784SOL    HW134811   4.719   4.340  14.349  0.9617 -1.3975  0.2111
 7784SOL    HW234812   0.009   4.206  14.404 -0.8580 -0.3454 -4.0550
 7785SOL     OW34813   3.732   2.591   5.403 -0.0469  0.1579 -0.5210
 7785SOL    HW134814   3.672   2.559   5.471  0.9755  1.7844  1.1596
 7785SOL    HW234815   3.784   2.512   5.392  0.7937  0.9425 -2.2513
 7786SOL     OW34816   1.995   2.895  12.976  0.2003 -0.3294 -0.1996
 7786SOL    HW134817   2.019   2.979  12.936 -1.2359 -0.9530 -2.3519
 7786SOL    HW234818   1.998   2.911  13.070 -0.3591  1.1024 -0.4228
 7787SOL     OW34819   4.694   4.601  16.401  0.1756  0.1130  0.2765
 7787SOL    HW134820   0.015   4.516  16.406 -1.0054 -0.6178 -1.7393
 7787SOL    HW234821   4.653   4.593  16.315  0.1288  0.6869  0.2484
 7788SOL     OW34822   0.108   2.532   3.290 -0.3947 -0.0456 -0.2036
 7788SOL    HW134823   0.126   2.613   3.338 -1.3315  0.1070 -0.1179
 7788SOL    HW234824   0.172   2.545   3.220  0.9043 -1.1075  0.7741
 7789SOL     OW34825   1.276   0.367   6.838  0.6677  0.0906 -0.0144
 7789SOL    HW134826   1.258   0.302   6.906  1.5481 -1.3852 -1.1990
 7789SOL    HW234827   1.308   0.439   6.893 -0.5149 -0.1515  0.9968
 7790SOL     OW34828   1.365   3.712   7.250 -0.0603 -0.1354 -0.5063
 7790SOL    HW134829   1.419   3.786   7.223 -1.2701  0.3899 -1.4704
 7790SOL    HW234830   1.344   3.659   7.173 -1.2638 -0.0836 -0.2155
 7791SOL     OW34831   0.006   2.390   0.911  0.1521 -0.0850 -0.2907
 7791SOL    HW134832   0.087   2.423   0.873 -0.3172  0.6163 -0.6656
 7791SOL    HW234833   4.663   2.444   0.868 -1.1805 -1.4822  0.0036
 7792SOL     OW34834   0.247   0.660   6.738 -0.0421  0.2379  0.2862
 7792SOL    HW134835   0.202   0.586   6.780 -1.7685  0.3003 -1.4324
 7792SOL    HW234836   0.339   0.640   6.752 -0.0008 -0.1469 -0.5165
 7793SOL     OW34837   2.769   1.153  14.856  0.0675  0.0720 -0.2462
 7793SOL    HW134838   2.727   1.077  14.816  0.1855 -0.3642  0.4554
 7793SOL    HW234839   2.817   1.111  14.927 -0.2142 -0.6868 -0.4978
 7794SOL     OW34840   4.560   3.283   4.448 -0.1592 -0.2341  0.2297
 7794SOL    HW134841   4.607   3.268   4.366  0.8145  0.4140  0.6629
 7794SOL    HW234842   4.565   3.379   4.446  0.3077 -0.3014 -1.4847
 7795SOL     OW34843   2.271   1.391  16.979 -0.1720 -0.0032  0.3651
 7795SOL    HW134844   2.359   1.367  16.950  0.6538  1.5996  1.5406
 7795SOL    HW234845   2.218   1.316  16.952  1.2539 -0.0756 -2.3121
 7796SOL     OW34846   4.670   1.429   6.187 -0.0525 -1.1871  0.0101
 7796SOL    HW134847   4.654   1.346   6.230 -0.5141 -0.8786  0.4288
 7796SOL    HW234848   0.041   1.415   6.192 -0.0186 -1.2538 -0.7679
 7797SOL     OW34849   4.394   4.160  11.139  0.0085 -0.3285 -0.0304
 7797SOL    HW134850   4.337   4.121  11.205 -2.1083  0.4531 -1.3804
 7797SOL    HW234851   4.362   4.121  11.057 -2.9661  1.4039  0.3059
 7798SOL     OW34852   1.735   2.764  15.021  0.6867  0.9319  0.4786
 7798SOL    HW134853   1.745   2.850  14.981 -0.2307  1.3776  1.2231
 7798SOL    HW234854   1.818   2.760  15.067  0.1275 -1.0743  1.3297
 7799SOL     OW34855   3.600   3.548   0.527 -0.0463  0.1180 -0.4356
 7799SOL    HW134856   3.678   3.592   0.491 -0.5803 -0.7959 -2.6927
 7799SOL    HW234857   3.622   3.544   0.620  2.4030 -0.4675 -1.0431
 7800SOL     OW34858   1.355   2.215   7.738 -0.5184 -0.2518 -0.4243
 7800SOL    HW134859   1.313   2.170   7.665  0.6508 -1.3186 -0.4287
 7800SOL    HW234860   1.274   2.229   7.787 -1.0250  0.7417 -1.5344
 7801SOL     OW34861   1.791   1.961   7.556 -0.4571  0.5014  0.7006
 7801SOL    HW134862   1.814   2.048   7.590  2.6906 -0.4144  0.8984
 7801SOL    HW234863   1.696   1.968   7.566 -0.5548  2.1499 -1.3336
 7802SOL     OW34864   0.939   2.268   4.525 -0.3659  0.1288 -0.8081
 7802SOL    HW134865   0.927   2.344   4.581 -2.3539 -0.2133 -0.7543
 7802SOL    HW234866   0.992   2.309   4.457  1.2492 -0.6791 -0.0265
 7803SOL     OW34867   3.682   0.229   8.473  0.3936 -0.3268  0.2017
 7803SOL    HW134868   3.718   0.145   8.500 -2.0855 -1.4950 -0.1784
 7803SOL    HW234869   3.725   0.243   8.388  0.2284  0.1920  0.2031
 7804SOL     OW34870   0.873   2.162   3.380  0.7211  0.1345  0.7017
 7804SOL    HW134871   0.870   2.256   3.362 -2.3717 -0.0209  0.5019
 7804SOL    HW234872   0.796   2.152   3.436  1.8299 -1.1662  2.0251
 7805SOL     OW34873   0.334   0.382  14.574  0.6106 -0.2712  0.2352
 7805SOL    HW134874   0.375   0.445  14.633  1.8811  0.4260 -1.3829
 7805SOL    HW234875   0.245   0.366  14.605  0.3394  1.0664  0.1477
 7806SOL     OW34876   0.141   3.623   3.188  0.2895 -0.4895  0.0809
 7806SOL    HW134877   0.117   3.585   3.104 -1.3860  1.0414 -0.1220
 7806SOL    HW234878   0.235   3.638   3.180  0.0172  0.8838 -0.4215
 7807SOL     OW34879   4.488   0.048   2.172 -0.3508 -0.2304  0.3357
 7807SOL    HW134880   4.417   0.008   2.121 -1.3413  3.0580 -0.8684
 7807SOL    HW234881   4.511   0.113   2.106 -1.9646  1.0812  1.0718
 7808SOL     OW34882   2.454   4.523   3.678 -0.3133 -0.2214 -0.5464
 7808SOL    HW134883   2.440   4.429   3.665 -0.5668 -0.5395  1.9727
 7808SOL    HW234884   2.438   4.551   3.588 -1.2198  0.1204 -0.2784
 7809SOL     OW34885   3.085   3.398   6.996  0.2668 -0.1016 -0.0398
 7809SOL    HW134886   3.086   3.413   6.901 -3.0811 -0.5422 -0.1288
 7809SOL    HW234887   3.083   3.303   7.009 -1.5338  0.0877  1.0041
 7810SOL     OW34888   1.247   2.975   5.186 -0.0716  0.3838 -0.1023
 7810SOL    HW134889   1.187   3.039   5.222 -0.6168 -0.5381  0.6125
 7810SOL    HW234890   1.228   2.974   5.092  2.1099 -0.8721 -0.5392
 7811SOL     OW34891   1.214   1.129   7.212 -0.3427 -0.3552  0.1735
 7811SOL    HW134892   1.292   1.125   7.158 -0.1929  1.2780  0.2738
 7811SOL    HW234893   1.150   1.168   7.154 -1.8747  0.6020  2.5101
 7812SOL     OW34894   2.071   2.921   8.423 -0.0197  0.7607  0.2690
 7812SOL    HW134895   2.123   2.871   8.361 -0.8262  1.4378 -0.9499
 7812SOL    HW234896   2.131   2.924   8.498 -0.4010 -0.5150  0.6332
 7813SOL     OW34897   3.692   2.282   1.795 -0.6650  0.1670 -0.2405
 7813SOL    HW134898   3.720   2.306   1.707  1.5786  2.3290  1.0749
 7813SOL    HW234899   3.756   2.235   1.847 -0.7901  0.7516  0.4518
 7814SOL     OW34900   4.518   2.286   1.846 -0.8957  0.0573  0.2318
 7814SOL    HW134901   4.538   2.248   1.932  0.1654 -0.0033 -0.0365
 7814SOL    HW234902   4.561   2.228   1.783 -1.5170  0.4613 -0.5608
 7815SOL     OW34903   2.252   0.292   4.327  0.1379 -0.3816  0.0502
 7815SOL    HW134904   2.317   0.236   4.284 -3.2689 -3.3706 -1.1394
 7815SOL    HW234905   2.303   0.373   4.336 -1.8660  0.8793 -0.0345
 7816SOL     OW34906   4.547   2.719   4.558  0.2920 -0.4916 -0.2082
 7816SOL    HW134907   4.543   2.783   4.487  1.3030 -0.0554  0.1235
 7816SOL    HW234908   4.554   2.640   4.504 -3.1506  0.3821 -1.9224
 7817SOL     OW34909   3.350   3.342  15.077  0.7643 -0.5726  0.4611
 7817SOL    HW134910   3.431   3.360  15.125 -1.2058 -0.3342  3.7158
 7817SOL    HW234911   3.318   3.274  15.136  0.5200 -0.4039  0.5271
 7818SOL     OW34912   1.113   2.738   1.101 -0.4816  0.4758  0.1806
 7818SOL    HW134913   1.183   2.727   1.166  0.6958  0.6630 -1.0614
 7818SOL    HW234914   1.061   2.666   1.138 -1.2248  0.1300 -1.5651
 7819SOL     OW34915   3.391   0.837   6.880  0.2305 -0.1108 -0.1747
 7819SOL    HW134916   3.347   0.756   6.853  1.2902 -1.1872  1.3060
 7819SOL    HW234917   3.482   0.824   6.851 -0.0671 -1.3656 -0.5394
 7820SOL     OW34918   1.198   1.874   2.166 -0.3365 -0.2199  0.3665
 7820SOL    HW134919   1.177   1.944   2.227  1.6487 -0.0350  0.8397
 7820SOL    HW234920   1.121   1.873   2.108  0.2352  1.2338 -0.4029
 7821SOL     OW34921   1.036   2.114  12.776 -0.6705  0.3770  0.4917
 7821SOL    HW134922   1.098   2.042  12.766 -0.0681  1.0463 -0.5627
 7821SOL    HW234923   1.066   2.164  12.701 -1.9181 -0.9353 -0.8893
 7822SOL     OW34924   1.828   3.264   6.101 -0.5897  0.0697  0.0920
 7822SOL    HW134925   1.809   3.270   6.194 -1.1202 -2.3718  0.1291
 7822SOL    HW234926   1.787   3.182   6.075 -2.4927  1.3432 -0.8964
 7823SOL     OW34927   2.523   3.317   9.714  0.9544  0.8031  0.1041
 7823SOL    HW134928   2.579   3.346   9.787  2.4950 -1.2128 -0.2728
 7823SOL    HW234929   2.475   3.247   9.758 -0.1179  1.4028 -0.1310
 7824SOL     OW34930   3.719   3.396  11.439  0.1280  0.4476 -0.5384
 7824SOL    HW134931   3.767   3.348  11.507  1.8764  0.2988 -1.8818
 7824SOL    HW234932   3.789   3.418  11.378 -2.3474  2.0903 -2.8010
 7825SOL     OW34933   4.095   3.502   8.985 -0.1733  0.1131 -0.8371
 7825SOL    HW134934   4.108   3.525   8.893  3.7283 -0.1555 -0.3255
 7825SOL    HW234935   4.037   3.425   8.981  2.5304 -1.9969  0.6087
 7826SOL     OW34936   1.679   4.236   5.808 -0.4369  0.4585  0.0621
 7826SOL    HW134937   1.749   4.185   5.850  0.1779  0.5203 -0.8892
 7826SOL    HW234938   1.724   4.302   5.756  0.5041 -0.7360 -0.6616
 7827SOL     OW34939   4.311   2.224   6.334  0.1377 -0.6739 -0.1976
 7827SOL    HW134940   4.241   2.288   6.327  2.5154  2.0420  1.1452
 7827SOL    HW234941   4.288   2.165   6.262 -1.2329 -0.7993  0.3536
 7828SOL     OW34942   3.190   0.320   4.312 -0.2019  0.0010  0.3387
 7828SOL    HW134943   3.255   0.375   4.268  0.5052 -0.5052  0.7575
 7828SOL    HW234944   3.243   0.241   4.323 -0.7172 -0.7908 -2.6864
 7829SOL     OW34945   0.931   0.239   8.248 -0.2905 -0.0591 -0.0272
 7829SOL    HW134946   0.967   0.292   8.319 -0.7936  1.1832 -0.6947
 7829SOL    HW234947   0.917   0.313   8.189  1.1460  0.1435 -0.1261
 7830SOL     OW34948   1.893   2.422   7.125 -0.5988  1.0171 -0.1858
 7830SOL    HW134949   1.969   2.451   7.074  1.1096 -1.1266  1.1573
 7830SOL    HW234950   1.848   2.504   7.148 -2.8900 -0.5032  0.6842
 7831SOL     OW34951   3.173   0.986   1.885  0.6362  0.6463  0.1470
 7831SOL    HW134952   3.107   0.937   1.837  2.3652 -0.7495 -0.7986
 7831SOL    HW234953   3.249   0.960   1.832 -0.2076 -0.3882 -0.5499
 7832SOL     OW34954   4.272   3.514   6.325  0.3763  0.0515 -0.0691
 7832SOL    HW134955   4.338   3.452   6.356 -0.0097  0.1017  0.8342
 7832SOL    HW234956   4.223   3.534   6.404  0.7937  0.9528 -0.0312
 7833SOL     OW34957   3.587   4.027   8.459  0.1738 -0.1746  0.1272
 7833SOL    HW134958   3.599   4.122   8.452 -0.5276  0.0475  1.9422
 7833SOL    HW234959   3.644   4.002   8.386 -1.2428 -0.0226 -1.0216
 7834SOL     OW34960   1.980   0.694   5.481  0.4273  0.0706 -0.1884
 7834SOL    HW134961   1.968   0.623   5.544 -0.7927 -0.7649 -1.3472
 7834SOL    HW234962   1.988   0.765   5.543  1.2929 -0.2088  0.0228
 7835SOL     OW34963   0.059   1.863   6.495  0.3148  0.1573  0.0936
 7835SOL    HW134964   0.050   1.951   6.459 -0.2662 -0.8137 -2.1538
 7835SOL    HW234965   4.710   1.861   6.559  1.6660 -1.4247  1.5749
 7836SOL     OW34966   1.748   2.850   7.149 -0.2724 -0.1789 -0.4052
 7836SOL    HW134967   1.791   2.912   7.208 -0.6586 -0.9990  0.7516
 7836SOL    HW234968   1.707   2.911   7.089 -1.3263 -1.7207 -1.2496
 7837SOL     OW34969   0.911   3.590   4.451 -0.2175 -0.3515 -0.2178
 7837SOL    HW134970   0.856   3.592   4.530  1.9398  1.8000  1.2467
 7837SOL    HW234971   0.896   3.682   4.429 -2.4938 -0.2741  1.6378
 7838SOL     OW34972   0.482   3.589   7.718 -0.6103  0.2990  0.0936
 7838SOL    HW134973   0.401   3.577   7.669  0.2098  1.3282 -1.5023
 7838SOL    HW234974   0.449   3.634   7.797  2.1321  1.8652  0.3433
 7839SOL     OW34975   3.908   2.993   6.118  0.1765  0.2793 -0.2984
 7839SOL    HW134976   3.862   2.930   6.061  2.4147  0.6906 -2.5585
 7839SOL    HW234977   3.990   2.945   6.123  0.1984  0.3824  0.2488
 7840SOL     OW34978   3.968   2.868  17.177 -0.2744 -0.1522 -0.4645
 7840SOL    HW134979   3.957   2.962  17.160  1.2830 -0.2703 -2.0785
 7840SOL    HW234980   3.892   2.854  17.234  0.3533 -1.0365  0.1389
 7841SOL     OW34981   2.237   0.127   4.551  0.5244 -0.2883 -0.4429
 7841SOL    HW134982   2.217   0.188   4.480 -0.6245 -0.5254 -0.3104
 7841SOL    HW234983   2.183   0.153   4.625  1.3934  0.6933 -0.1508
 7842SOL     OW34984   4.392   1.832  13.248  0.0868  0.0545  0.2586
 7842SOL    HW134985   4.347   1.792  13.323 -0.5264  0.3280  0.0361
 7842SOL    HW234986   4.397   1.918  13.290 -0.8516  0.8404 -1.2674
 7843SOL     OW34987   0.333   4.497   0.655  0.3134  0.1423 -0.0332
 7843SOL    HW134988   0.300   4.410   0.676  0.8779 -0.7454 -2.9060
 7843SOL    HW234989   0.290   4.518   0.572 -0.0607  3.1150  0.8952
 7844SOL     OW34990   1.807   0.779  13.021 -0.0535  0.3668 -0.0786
 7844SOL    HW134991   1.787   0.873  13.028  1.5360  0.8732 -2.0745
 7844SOL    HW234992   1.848   0.756  13.104 -2.9232  1.3473  1.5851
 7845SOL     OW34993   0.816   3.471   3.711  0.0241  0.0580  0.3062
 7845SOL    HW134994   0.855   3.387   3.736 -0.2914 -0.7486 -1.9324
 7845SOL    HW234995   0.736   3.443   3.666  0.1215  1.7751 -0.9465
 7846SOL     OW34996   1.168   0.994   2.265 -0.5420  1.2377  0.2530
 7846SOL    HW134997   1.097   1.044   2.226  0.1787  1.2546 -1.0403
 7846SOL    HW234998   1.183   0.931   2.194  0.7158  0.2271  1.4183
 7847SOL     OW34999   3.950   0.377   5.805 -0.1701 -0.2643  0.3215
 7847SOL    HW135000   3.950   0.442   5.876  0.0594 -0.5674  0.5996
 7847SOL    HW235001   3.889   0.416   5.743 -0.2644  0.2511  0.7383
 7848SOL     OW35002   2.439   0.587  17.239 -0.5818  0.0595  0.7404
 7848SOL    HW135003   2.524   0.567  17.199  0.1028 -0.3065  2.3533
 7848SOL    HW235004   2.416   0.506  17.285 -0.8746  1.5177  3.1796
 7849SOL     OW35005   0.999   1.430   3.551  0.0044  0.2085  0.3330
 7849SOL    HW135006   0.954   1.475   3.623 -2.5803  1.7755 -2.2686
 7849SOL    HW235007   0.973   1.491   3.481  1.7071 -0.6376 -1.0322
 7850SOL     OW35008   0.647   4.383   4.840  0.1523 -0.3123  0.3216
 7850SOL    HW135009   0.670   4.301   4.883  1.7451 -0.7494 -1.3521
 7850SOL    HW235010   0.675   4.438   4.913 -1.8614  0.7832  0.2519
 7851SOL     OW35011   1.041   3.648   5.503 -0.4029  0.3411 -0.5253
 7851SOL    HW135012   0.977   3.594   5.550 -0.2820 -0.9312 -1.8025
 7851SOL    HW235013   1.057   3.716   5.568  0.9145 -0.1293 -0.3443
 7852SOL     OW35014   3.258   1.329   9.070  0.3415  0.1323  0.0134
 7852SOL    HW135015   3.186   1.340   9.132  0.2515 -0.4482  0.0143
 7852SOL    HW235016   3.206   1.318   8.991  0.0893 -2.7238  0.5503
 7853SOL     OW35017   4.538   3.118   4.904 -0.2583 -0.0610 -0.0831
 7853SOL    HW135018   4.490   3.129   4.823 -0.2255 -1.7822 -0.3168
 7853SOL    HW235019   4.563   3.210   4.917  1.3647 -0.9510  3.1743
 7854SOL     OW35020   2.382   3.780  15.118 -1.1547 -0.1198 -0.8270
 7854SOL    HW135021   2.424   3.864  15.139  0.1520 -0.3817 -2.3986
 7854SOL    HW235022   2.325   3.775  15.195 -0.5938 -0.9155 -0.4510
 7855SOL     OW35023   3.277   4.082   5.159  0.7393  0.0589  0.4719
 7855SOL    HW135024   3.227   4.072   5.240  0.8632 -1.2838  0.3708
 7855SOL    HW235025   3.286   4.177   5.153 -2.6568  0.1478 -2.9876
 7856SOL     OW35026   2.143   1.334   7.758 -0.0788 -0.1857 -0.0714
 7856SOL    HW135027   2.157   1.240   7.760  1.3044  0.0718  2.3880
 7856SOL    HW235028   2.164   1.349   7.666  2.1202 -1.3681  0.2528
 7857SOL     OW35029   4.519   2.164   4.246 -0.4810 -0.6417 -0.5971
 7857SOL    HW135030   4.426   2.153   4.224 -0.8032 -0.5008  0.7133
 7857SOL    HW235031   4.569   2.208   4.177  0.4720 -0.2652  0.3295
 7858SOL     OW35032   1.325   1.690   8.032  0.3037  0.1358 -0.4092
 7858SOL    HW135033   1.287   1.611   7.993 -0.2113 -0.1890  0.7672
 7858SOL    HW235034   1.290   1.752   7.968  3.6925  1.1211 -1.2707
 7859SOL     OW35035   0.933   4.540   4.138 -0.0766 -0.3162 -0.2375
 7859SOL    HW135036   0.891   4.514   4.220  2.8395 -0.6361  1.1751
 7859SOL    HW235037   0.872   4.501   4.076  2.5108 -1.1293 -2.2700
 7860SOL     OW35038   0.654   2.174  17.411 -0.0323 -0.4333 -0.1267
 7860SOL    HW135039   0.690   2.213  17.491 -2.6221  0.7884  0.4568
 7860SOL    HW235040   0.709   2.096  17.404  0.8498  0.1785  0.0747
 7861SOL     OW35041   0.592   0.889   5.761  0.2305 -0.5356 -0.1279
 7861SOL    HW135042   0.536   0.824   5.803 -1.5382 -0.5347 -2.4950
 7861SOL    HW235043   0.546   0.966   5.795  0.9718  0.2478 -0.9188
 7862SOL     OW35044   3.081   3.501   4.278  0.0205 -0.2566  1.1990
 7862SOL    HW135045   3.087   3.584   4.231  0.5966 -0.2658  1.2553
 7862SOL    HW235046   3.173   3.473   4.283 -0.2299 -1.4458 -1.0154
 7863SOL     OW35047   3.208   0.100   2.284  0.1325 -0.2723 -0.0938
 7863SOL    HW135048   3.189   0.176   2.339 -0.5953 -1.0505  0.7103
 7863SOL    HW235049   3.174   0.037   2.347  2.9423  1.6146  3.3142
 7864SOL     OW35050   1.762   2.633  11.612 -0.5583  0.0581  0.1626
 7864SOL    HW135051   1.685   2.652  11.664 -1.1937 -0.8436 -0.4399
 7864SOL    HW235052   1.822   2.673  11.675  1.9290 -0.3597 -1.8864
 7865SOL     OW35053   0.815   0.998   7.458  0.1579 -0.3787 -0.4967
 7865SOL    HW135054   0.747   1.042   7.510  0.0253 -0.0818 -0.9137
 7865SOL    HW235055   0.815   0.913   7.502  0.0491  0.2284  0.6820
 7866SOL     OW35056   3.936   4.132  15.298 -0.2344 -0.4259 -0.2765
 7866SOL    HW135057   3.916   4.220  15.267 -0.6639 -0.2724  0.4618
 7866SOL    HW235058   3.947   4.149  15.391 -1.8468 -0.8545 -0.0056
 7867SOL     OW35059   0.561   1.014   4.413 -0.3156  0.2661 -0.3747
 7867SOL    HW135060   0.499   1.083   4.389  0.4967  0.8109 -0.9045
 7867SOL    HW235061   0.548   1.001   4.507  1.2511 -1.0527 -0.3273
 7868SOL     OW35062   3.655   3.989   9.782  0.2974 -0.4973  0.2094
 7868SOL    HW135063   3.723   3.954   9.724  0.8946  1.0885 -0.0573
 7868SOL    HW235064   3.578   3.981   9.725  0.6730  1.1478 -0.5406
 7869SOL     OW35065   2.768   3.077   4.327  0.1715 -0.1232 -0.1278
 7869SOL    HW135066   2.856   3.094   4.292  0.7137  0.3415  1.4750
 7869SOL    HW235067   2.708   3.085   4.253  0.8609  1.3321 -0.5184
 7870SOL     OW35068   3.986   0.518  16.852 -0.4238  0.0828 -0.1709
 7870SOL    HW135069   3.952   0.444  16.802 -2.0627 -0.1983  1.3531
 7870SOL    HW235070   4.045   0.556  16.787  1.3434  0.7621  1.8145
 7871SOL     OW35071   3.738   2.214  10.570  0.3601  0.0671 -0.0217
 7871SOL    HW135072   3.707   2.214  10.661  0.5399 -2.2610  0.0201
 7871SOL    HW235073   3.749   2.309  10.558  0.5887  0.0498  0.0601
 7872SOL     OW35074   2.764   1.650  16.602  0.1481  0.2824 -0.2089
 7872SOL    HW135075   2.683   1.655  16.551 -0.8937 -1.5131  1.2895
 7872SOL    HW235076   2.824   1.627  16.531 -0.8481 -1.3833 -0.4892
 7873SOL     OW35077   0.559   0.914   0.758 -0.3195  0.2861  0.1283
 7873SOL    HW135078   0.541   0.999   0.800  1.9998  1.1558 -0.6587
 7873SOL    HW235079   0.522   0.928   0.671  1.1335 -0.7726 -0.6536
 7874SOL     OW35080   3.897   0.082   0.766  0.2042  0.0676  0.0037
 7874SOL    HW135081   3.873   0.071   0.858 -0.5785 -1.4316 -0.3784
 7874SOL    HW235082   3.931   0.172   0.763 -2.0253  0.8409 -1.3227
 7875SOL     OW35083   0.754   4.163   7.744  0.0826  0.5183 -0.2029
 7875SOL    HW135084   0.702   4.084   7.730 -0.5176  0.6076  1.5469
 7875SOL    HW235085   0.731   4.226   7.675  1.1795 -0.4075 -1.4242
 7876SOL     OW35086   4.298   0.596   3.189 -0.2698  0.0743 -0.5234
 7876SOL    HW135087   4.257   0.678   3.162 -0.1406  0.4643  0.4810
 7876SOL    HW235088   4.381   0.613   3.145  0.3806  0.0946  0.7102
 7877SOL     OW35089   4.411   1.623  17.094  0.1312  0.8555  0.1021
 7877SOL    HW135090   4.497   1.583  17.077 -0.4266 -0.1017 -0.5178
 7877SOL    HW235091   4.414   1.669  17.177  0.2473  1.0744 -0.0220
 7878SOL     OW35092   2.640   0.633   8.803 -0.3625 -0.4317  0.6577
 7878SOL    HW135093   2.577   0.562   8.788 -1.7320  0.8100  0.5287
 7878SOL    HW235094   2.619   0.647   8.895 -0.2041  3.1939  0.1180
 7879SOL     OW35095   2.065   4.710   9.180  0.0441 -0.4203  0.3443
 7879SOL    HW135096   2.056   0.081   9.191 -1.0182 -0.4606 -0.2178
 7879SOL    HW235097   2.067   4.718   9.084 -1.0351 -0.6965  0.3013
 7880SOL     OW35098   3.510   4.111   5.787 -0.4423  0.5140 -0.4629
 7880SOL    HW135099   3.536   4.116   5.696 -0.8900  3.7061 -0.4298
 7880SOL    HW235100   3.415   4.125   5.790 -0.4516  0.2388  0.6369
 7881SOL     OW35101   2.656   0.911   9.375 -0.5065 -0.6356 -0.0328
 7881SOL    HW135102   2.648   0.884   9.466 -0.0038 -2.2298 -0.4544
 7881SOL    HW235103   2.589   0.861   9.328 -0.9422 -0.0199 -0.0682
 7882SOL     OW35104   1.320   1.797   3.771  1.0443  0.4588 -0.3757
 7882SOL    HW135105   1.337   1.703   3.767  1.2761  0.4380  1.0460
 7882SOL    HW235106   1.339   1.818   3.679  0.6433 -2.2259 -1.0542
 7883SOL     OW35107   0.451   3.371  16.938 -0.1911 -0.4855  0.0913
 7883SOL    HW135108   0.449   3.306  17.008 -0.0462  0.9540  1.4323
 7883SOL    HW235109   0.365   3.411  16.947  0.1276  0.4967 -1.1125
 7884SOL     OW35110   2.629   2.928   1.619 -0.0766 -0.1454 -0.1304
 7884SOL    HW135111   2.585   2.954   1.700  3.1215  1.1457  1.1626
 7884SOL    HW235112   2.687   3.001   1.595  0.1134  0.0679  0.9773
 7885SOL     OW35113   2.755   1.368   2.284  0.5839  0.4411 -0.1610
 7885SOL    HW135114   2.833   1.417   2.258 -0.0048  2.0310  1.0296
 7885SOL    HW235115   2.799   1.284   2.297 -1.1514  0.1194  3.5833
 7886SOL     OW35116   2.737   1.337   7.651  0.8671  0.4295 -0.1747
 7886SOL    HW135117   2.685   1.257   7.658  1.0108  0.2440 -1.2064
 7886SOL    HW235118   2.823   1.297   7.665  0.2917 -0.9689 -0.5756
 7887SOL     OW35119   3.479   3.359   8.895  0.7774  0.5817  0.2050
 7887SOL    HW135120   3.496   3.444   8.856 -0.8593  0.0107 -1.7294
 7887SOL    HW235121   3.514   3.299   8.829 -0.5211  0.5764 -0.4787
 7888SOL     OW35122   0.615   0.103   1.213  0.1072  0.3047 -0.2450
 7888SOL    HW135123   0.584   0.192   1.225  1.3150  0.4316  1.8477
 7888SOL    HW235124   0.555   0.066   1.148  0.0955  1.0332 -0.6453
 7889SOL     OW35125   2.320   0.519   2.578  0.0390  0.0862 -0.4437
 7889SOL    HW135126   2.225   0.523   2.561 -0.3075  0.0665  1.5709
 7889SOL    HW235127   2.350   0.441   2.533 -0.7445  1.3770 -3.2217
 7890SOL     OW35128   1.564   2.346   2.378 -0.3026  0.2093  0.5718
 7890SOL    HW135129   1.647   2.336   2.425 -0.5306  1.1994  1.1801
 7890SOL    HW235130   1.589   2.424   2.329  1.2546  0.1244  1.2447
 7891SOL     OW35131   3.012   4.296   7.739 -0.5268 -0.0566  0.0864
 7891SOL    HW135132   2.971   4.249   7.666 -1.9660  1.4649 -0.1013
 7891SOL    HW235133   2.945   4.363   7.753 -0.8780 -0.4925  0.4760
 7892SOL     OW35134   1.245   1.906   0.086  0.3383 -0.1852 -0.9107
 7892SOL    HW135135   1.304   1.833   0.106 -0.5190 -0.9691 -1.2501
 7892SOL    HW235136   1.295   1.983   0.111  0.7541 -1.2041  1.4644
 7893SOL     OW35137   0.460   4.189   5.778  1.1567 -0.4179  0.1740
 7893SOL    HW135138   0.512   4.170   5.701  3.0908  2.7520  0.7007
 7893SOL    HW235139   0.394   4.252   5.748  0.7079  1.4333  4.9770
 7894SOL     OW35140   2.577   3.924  11.561 -0.1376  0.3158  0.6813
 7894SOL    HW135141   2.654   3.928  11.618 -0.2506 -0.2534  0.8749
 7894SOL    HW235142   2.545   3.834  11.547  0.1109  0.4041 -0.4825
 7895SOL     OW35143   2.712   1.608  11.177 -0.1021 -0.0024 -0.5773
 7895SOL    HW135144   2.737   1.691  11.134 -0.8684  1.9956  2.8471
 7895SOL    HW235145   2.715   1.554  11.098  0.5620  1.0629 -1.2915
 7896SOL     OW35146   3.440   1.501   8.922 -0.3633  0.5461  0.0516
 7896SOL    HW135147   3.425   1.425   8.978  1.7529 -1.5226 -2.2281
 7896SOL    HW235148   3.501   1.549   8.977 -0.7966 -0.2204  1.2174
 7897SOL     OW35149   4.208   0.668  10.766 -0.9609  0.1321  0.0951
 7897SOL    HW135150   4.177   0.751  10.730  0.2984 -0.2126 -1.7631
 7897SOL    HW235151   4.181   0.679  10.857  2.5038 -1.3649  1.2682
 7898SOL     OW35152   0.377   1.102  15.296  0.0260  0.2588 -0.8856
 7898SOL    HW135153   0.430   1.167  15.250 -0.6485  0.4392 -1.4205
 7898SOL    HW235154   0.368   1.028  15.236 -0.5117 -1.6351  1.5415
 7899SOL     OW35155   3.848   0.937   3.369  0.2184  0.4554  0.3007
 7899SOL    HW135156   3.864   0.931   3.464  0.2303  0.0923  0.2755
 7899SOL    HW235157   3.783   1.006   3.354  0.7509  0.5077 -1.6691
 7900SOL     OW35158   1.017   2.497   9.900 -0.3956  0.1082  0.3159
 7900SOL    HW135159   1.027   2.504   9.995  0.6277 -1.0648  0.3123
 7900SOL    HW235160   1.016   2.401   9.902  0.6839  0.1404  2.5153
 7901SOL     OW35161   3.275   4.625   1.632 -0.1005 -0.6655  0.0849
 7901SOL    HW135162   3.198   4.661   1.588  0.4966 -0.5978 -0.9109
 7901SOL    HW235163   3.272   4.641   1.727 -0.8100 -2.1416  0.3119
 7902SOL     OW35164   2.457   3.812   9.767 -0.0671  0.9504  0.6836
 7902SOL    HW135165   2.391   3.794   9.700 -0.8109  2.0670  1.1230
 7902SOL    HW235166   2.500   3.893   9.740  1.2954 -0.3560 -1.0713
 7903SOL     OW35167   1.478   2.280   8.402  0.5360  0.1145 -0.1948
 7903SOL    HW135168   1.462   2.333   8.481  0.0540 -0.0867 -0.1597
 7903SOL    HW235169   1.531   2.207   8.434 -1.9334 -0.8903  1.5601
 7904SOL     OW35170   0.521   0.184  10.386 -0.1164  0.3649 -0.4320
 7904SOL    HW135171   0.476   0.211  10.305 -0.6224 -0.9238 -0.5804
 7904SOL    HW235172   0.610   0.208  10.362 -0.0795  1.1281  0.4880
 7905SOL     OW35173   1.465   1.972   2.133 -0.2927 -0.3324  0.9689
 7905SOL    HW135174   1.514   1.915   2.075 -1.6186 -0.7863  0.3070
 7905SOL    HW235175   1.380   1.929   2.139 -1.4640  1.6708 -1.3465
 7906SOL     OW35176   0.817   2.532   5.884 -0.2084  0.1313  0.5167
 7906SOL    HW135177   0.758   2.598   5.847  0.8737 -0.3338 -2.0535
 7906SOL    HW235178   0.862   2.595   5.941 -0.1539 -1.2688  2.0328
 7907SOL     OW35179   0.561   1.389  10.753  0.0188  0.1471 -0.1712
 7907SOL    HW135180   0.655   1.385  10.735 -0.2675 -1.5881 -1.3268
 7907SOL    HW235181   0.534   1.465  10.702  0.2102 -0.4711 -1.1898
 7908SOL     OW35182   0.424   2.888   6.571 -0.2344  0.5916  0.0020
 7908SOL    HW135183   0.399   2.843   6.652  3.7488  1.2505  1.5964
 7908SOL    HW235184   0.515   2.912   6.589  0.6065  0.7515 -4.3987
 7909SOL     OW35185   4.372   1.184   7.710  0.6352 -0.3180  0.2150
 7909SOL    HW135186   4.412   1.238   7.642  0.2927  0.2706  0.4828
 7909SOL    HW235187   4.297   1.144   7.665 -0.9735  1.1292  1.5787
 7910SOL     OW35188   1.349   0.087   9.827  0.0919 -0.0276  0.0150
 7910SOL    HW135189   1.320   0.065   9.916  4.0825 -0.4182  1.2232
 7910SOL    HW235190   1.437   0.121   9.842  0.1560  0.2263 -0.9648
 7911SOL     OW35191   3.125   0.688   5.232  0.2614 -0.1161 -0.4851
 7911SOL    HW135192   3.113   0.666   5.140 -0.7151  2.1395 -0.8904
 7911SOL    HW235193   3.035   0.712   5.252  0.2704 -1.1203  0.7678
 7912SOL     OW35194   0.418   3.828   7.456 -0.0853  0.2278  0.5293
 7912SOL    HW135195   0.487   3.761   7.449  0.1184  0.6142 -1.0000
 7912SOL    HW235196   0.340   3.774   7.467  0.6159 -1.4593 -2.9267
 7913SOL     OW35197   0.715   3.177   5.708 -0.2140 -0.2850 -0.1400
 7913SOL    HW135198   0.658   3.248   5.679  0.9732  0.1200 -1.4523
 7913SOL    HW235199   0.768   3.217   5.777 -0.5511 -0.0110 -0.0431
 7914SOL     OW35200   2.007   1.682  16.720  0.4014  0.3434  0.4521
 7914SOL    HW135201   2.099   1.696  16.700 -0.0732  0.6185 -1.5086
 7914SOL    HW235202   2.012   1.638  16.805 -1.0337  2.0945  1.4501
 7915SOL     OW35203   4.184   2.782   7.315 -0.1954  0.2526  0.4728
 7915SOL    HW135204   4.264   2.771   7.265  0.2892 -2.0024  1.6959
 7915SOL    HW235205   4.175   2.877   7.318  1.2790  0.3554  1.4150
 7916SOL     OW35206   4.186   0.403  10.714  0.8186 -0.1927  0.1602
 7916SOL    HW135207   4.188   0.498  10.727  0.5303 -0.2646  0.7513
 7916SOL    HW235208   4.101   0.372  10.746  0.5867  1.2901  0.9651
 7917SOL     OW35209   0.540   2.982   5.807 -0.0083  0.7025 -0.1578
 7917SOL    HW135210   0.595   2.907   5.829  0.6447  1.3508  0.4141
 7917SOL    HW235211   0.600   3.042   5.763 -1.3464  3.4160  1.6991
 7918SOL     OW35212   2.294   3.255  15.936 -0.2058  0.0617 -0.0535
 7918SOL    HW135213   2.345   3.302  15.871 -0.3216 -2.3962 -1.9213
 7918SOL    HW235214   2.352   3.264  16.012  0.5781 -1.5610 -0.4553
 7919SOL     OW35215   1.628   1.975   3.233  0.4874  0.0735  0.2898
 7919SOL    HW135216   1.638   2.034   3.159 -0.1866 -0.8926 -0.5778
 7919SOL    HW235217   1.553   1.922   3.205  0.8287 -0.2414 -0.0133
 7920SOL     OW35218   2.795   4.557  10.964 -0.0464  0.1237  0.2625
 7920SOL    HW135219   2.736   4.484  10.980 -0.9176  1.0810  1.4977
 7920SOL    HW235220   2.873   4.512  10.996  0.4685  0.9007  0.1026
 7921SOL     OW35221   0.829   0.400   6.921 -0.4243  0.1091  0.3763
 7921SOL    HW135222   0.752   0.389   6.865 -0.0932 -0.1986 -0.0194
 7921SOL    HW235223   0.888   0.346   6.868 -2.4373  0.2866 -2.0528
 7922SOL     OW35224   4.050   3.042   7.013 -0.6685 -0.4602  0.1996
 7922SOL    HW135225   3.986   3.111   7.027 -1.2138 -0.7500 -0.8165
 7922SOL    HW235226   4.014   2.978   7.075 -1.7201 -1.8575 -1.8459
 7923SOL     OW35227   0.399   0.723   2.910 -0.5178  0.7181  0.0099
 7923SOL    HW135228   0.380   0.793   2.847 -1.0014  2.3559  2.0094
 7923SOL    HW235229   0.312   0.685   2.924 -0.4697  0.0806 -1.3936
 7924SOL     OW35230   1.272   2.435   1.455 -0.1626 -0.4210  0.0263
 7924SOL    HW135231   1.253   2.369   1.521 -0.3371  0.0608  0.4588
 7924SOL    HW235232   1.346   2.401   1.405 -0.9377  1.6357 -2.5575
 7925SOL     OW35233   1.702   4.526  13.268 -0.1369  0.0610 -0.1669
 7925SOL    HW135234   1.681   4.433  13.256  2.3900 -0.5066 -0.1957
 7925SOL    HW235235   1.795   4.505  13.281  0.2280  1.4741 -0.5422
 7926SOL     OW35236   4.399   2.171   7.885 -0.2515  0.3390  0.1350
 7926SOL    HW135237   4.438   2.106   7.827  0.0519  0.4438  0.2222
 7926SOL    HW235238   4.389   2.118   7.964  1.1768  0.1010  0.1548
 7927SOL     OW35239   4.505   3.130   4.055  0.1277 -0.0837  0.5643
 7927SOL    HW135240   4.513   3.221   4.029 -0.2359  0.2926  1.7645
 7927SOL    HW235241   4.413   3.111   4.034  0.3152  0.4683 -0.7541
 7928SOL     OW35242   0.058   1.659   6.707 -0.1935  0.4933 -0.3659
 7928SOL    HW135243   0.106   1.606   6.771  1.1553  1.4865 -0.5483
 7928SOL    HW235244   0.076   1.747   6.739  1.7423  0.1206 -0.4302
 7929SOL     OW35245   3.914   3.357  15.223 -0.0188 -0.1651 -0.5447
 7929SOL    HW135246   3.859   3.363  15.301 -0.0409 -2.3422 -0.4001
 7929SOL    HW235247   3.997   3.395  15.253  1.2250 -3.4902  0.2350
 7930SOL     OW35248   2.452   2.941  17.231  0.0469 -0.1141  0.2041
 7930SOL    HW135249   2.508   3.018  17.224 -0.3516 -0.0606 -2.2369
 7930SOL    HW235250   2.380   2.972  17.176  0.6223 -1.9806 -1.5752
 7931SOL     OW35251   4.646   0.933  14.659  0.1718 -0.1694  0.0567
 7931SOL    HW135252   4.586   0.974  14.597  0.3313 -1.2311 -0.7976
 7931SOL    HW235253   4.595   0.853  14.670 -2.2947  1.1201 -2.0772
 7932SOL     OW35254   3.497   3.240   2.115  0.2118 -0.2402 -0.1732
 7932SOL    HW135255   3.464   3.175   2.053  1.8428 -0.1181 -1.1759
 7932SOL    HW235256   3.435   3.310   2.096 -0.2992 -0.8806 -0.8543
 7933SOL     OW35257   3.287   2.693   2.151  0.2056  0.6980  0.2354
 7933SOL    HW135258   3.266   2.625   2.215 -1.7821  2.7881  1.8019
 7933SOL    HW235259   3.327   2.761   2.206  0.5705 -0.0255  0.8623
 7934SOL     OW35260   3.823   3.025  10.726 -0.3382  0.2638  0.6925
 7934SOL    HW135261   3.815   3.020  10.821 -1.0616  0.2489  0.6332
 7934SOL    HW235262   3.916   3.042  10.718 -0.3178  1.0642  2.7766
 7935SOL     OW35263   0.666   0.825   6.886 -0.0523  0.1061 -0.4891
 7935SOL    HW135264   0.609   0.901   6.896 -0.7501 -0.5477  0.4267
 7935SOL    HW235265   0.663   0.782   6.971  0.7159  0.2437 -0.3902
 7936SOL     OW35266   3.303   2.174   4.902 -0.1086  0.6316  0.2050
 7936SOL    HW135267   3.357   2.244   4.866 -0.1639  0.0689 -0.9822
 7936SOL    HW235268   3.351   2.094   4.882 -2.3357 -0.4621 -0.7552
 7937SOL     OW35269   1.170   3.471   2.912  0.1935 -0.0925  0.1704
 7937SOL    HW135270   1.218   3.544   2.951  1.8511  0.3702 -2.7158
 7937SOL    HW235271   1.156   3.506   2.824 -0.1766  0.9790  0.6522
 7938SOL     OW35272   0.706   4.031   8.472  0.1464  0.2864 -0.1490
 7938SOL    HW135273   0.720   4.120   8.441  0.1304  1.0884  2.1232
 7938SOL    HW235274   0.785   4.026   8.526 -0.0705 -0.7054  0.0748
 7939SOL     OW35275   4.393   2.109  16.783 -0.2825 -0.6299  0.1614
 7939SOL    HW135276   4.368   2.021  16.810  1.9588 -0.8096  1.6778
 7939SOL    HW235277   4.306   2.143  16.762 -1.0238 -1.4941  1.8098
 7940SOL     OW35278   3.955   1.519   6.179 -0.0136 -0.0884  0.1938
 7940SOL    HW135279   3.880   1.530   6.120  1.2619 -0.1932 -1.4574
 7940SOL    HW235280   3.955   1.426   6.199  1.7729 -0.3369 -0.9728
 7941SOL     OW35281   3.344   4.616   4.260  0.0078 -0.5252 -0.4514
 7941SOL    HW135282   3.428   4.573   4.273  0.1511 -0.5382 -1.4831
 7941SOL    HW235283   3.326   4.598   4.168  1.4139 -2.4149 -0.3489
 7942SOL     OW35284   1.931   0.971   5.001  0.2594 -0.6062 -0.1813
 7942SOL    HW135285   1.867   0.910   5.037 -2.3579  0.7252 -2.6229
 7942SOL    HW235286   1.926   0.956   4.907 -0.0050 -2.2298  0.1034
 7943SOL     OW35287   2.431   4.548  12.071  0.6539 -0.4406  0.6488
 7943SOL    HW135288   2.470   4.593  11.997 -0.8429 -0.7097 -0.3035
 7943SOL    HW235289   2.378   4.617  12.110  1.4877 -0.0734  1.1350
 7944SOL     OW35290   0.663   1.053   2.970 -0.0458 -0.1440 -0.5951
 7944SOL    HW135291   0.662   0.989   2.900 -1.2100 -0.3694 -0.3712
 7944SOL    HW235292   0.757   1.062   2.982 -0.3664  1.2167  0.9254
 7945SOL     OW35293   1.358   1.522   0.859  0.5107  0.1158 -0.4607
 7945SOL    HW135294   1.347   1.590   0.793  1.6630 -0.5244 -1.3266
 7945SOL    HW235295   1.383   1.578   0.932  1.1149 -0.7906  0.0239
 7946SOL     OW35296   3.285   0.691   3.405 -0.1469  0.8171 -0.1602
 7946SOL    HW135297   3.378   0.706   3.422 -0.3381  0.8629  0.8034
 7946SOL    HW235298   3.299   0.610   3.357  0.8052  1.0258 -0.2372
 7947SOL     OW35299   1.806   2.290   8.835 -0.0566 -0.4039 -0.7603
 7947SOL    HW135300   1.713   2.307   8.821  0.3749  1.4743 -1.3907
 7947SOL    HW235301   1.806   2.197   8.860  0.5620  0.0562  0.9501
 7948SOL     OW35302   3.439   4.047  14.787  0.2009 -0.7944 -0.1159
 7948SOL    HW135303   3.486   4.052  14.870 -0.2836 -0.1420  0.1211
 7948SOL    HW235304   3.380   3.974  14.808  0.2326 -2.5340 -6.1278
 7949SOL     OW35305   0.513   0.349  12.394 -0.5473  0.0923 -0.3890
 7949SOL    HW135306   0.471   0.263  12.387  4.7188 -2.3219 -1.8560
 7949SOL    HW235307   0.603   0.317  12.383 -0.8742 -1.2431  0.7675
 7950SOL     OW35308   3.184   4.415  13.841  0.2089  0.3448 -0.0464
 7950SOL    HW135309   3.148   4.503  13.852 -1.4793 -0.5393  1.4161
 7950SOL    HW235310   3.236   4.425  13.761  0.6025 -0.7982  0.0730
 7951SOL     OW35311   4.386   2.499  16.669  0.4169  0.0665 -0.2901
 7951SOL    HW135312   4.452   2.433  16.651  0.8450  0.4096  0.0010
 7951SOL    HW235313   4.413   2.559  16.599 -0.2446 -0.1560 -0.7326
 7952SOL     OW35314   2.269   4.595   3.861  0.5374  0.0414  0.2967
 7952SOL    HW135315   2.340   4.560   3.807 -0.3355 -1.1250 -0.0991
 7952SOL    HW235316   2.272   4.690   3.867  0.1620  0.0831 -0.2177
 7953SOL     OW35317   0.612   1.252   4.740 -0.9885 -0.3694  0.5611
 7953SOL    HW135318   0.540   1.189   4.739 -0.6334 -0.7814  1.0003
 7953SOL    HW235319   0.621   1.280   4.831  2.0717  0.5582 -0.0069
 7954SOL     OW35320   2.949   1.607   5.291  0.4910  0.0626  0.0927
 7954SOL    HW135321   3.037   1.592   5.325  0.0090 -0.0216  1.2995
 7954SOL    HW235322   2.970   1.658   5.213 -1.7008 -1.2034 -1.3085
 7955SOL     OW35323   2.417   3.893   0.632  0.4831 -0.4441 -0.9257
 7955SOL    HW135324   2.372   3.859   0.555 -1.2634 -0.3521  0.0508
 7955SOL    HW235325   2.419   3.988   0.620 -1.9689 -0.1338  1.2545
 7956SOL     OW35326   2.280   2.037  12.111  0.2483 -0.1903  0.0316
 7956SOL    HW135327   2.253   1.982  12.038 -0.7752  0.2331  0.0983
 7956SOL    HW235328   2.281   2.121  12.065 -0.7418 -1.5610 -2.4419
 7957SOL     OW35329   1.104   0.402  11.435 -0.1253 -0.2981  0.4816
 7957SOL    HW135330   1.195   0.373  11.434 -0.1584 -0.3287 -1.8745
 7957SOL    HW235331   1.075   0.346  11.508 -1.3225 -2.0613 -1.3459
 7958SOL     OW35332   1.477   1.455   4.314 -0.0420  0.2420 -0.1410
 7958SOL    HW135333   1.550   1.505   4.276 -1.9218  2.8740 -0.3019
 7958SOL    HW235334   1.522   1.407   4.384  1.7365  1.2258 -0.5955
 7959SOL     OW35335   0.665   4.453   5.771 -0.5618 -0.4706 -0.2710
 7959SOL    HW135336   0.659   4.369   5.727  0.9552 -0.6994 -0.0224
 7959SOL    HW235337   0.753   4.486   5.753 -0.8095  0.4674  0.2030
 7960SOL     OW35338   4.177   0.613   9.208 -0.4214 -1.0072  0.2072
 7960SOL    HW135339   4.101   0.659   9.246 -1.4097 -1.2761 -1.4527
 7960SOL    HW235340   4.131   0.542   9.164 -1.9298 -0.3243  0.6749
 7961SOL     OW35341   1.871   0.973   5.540 -0.4800 -0.7850 -0.1361
 7961SOL    HW135342   1.823   1.055   5.553  1.2502 -0.2160  2.5186
 7961SOL    HW235343   1.813   0.927   5.479 -0.0753 -0.9360 -0.4081
 7962SOL     OW35344   2.940   2.534  17.561  0.0607 -0.2397 -0.2433
 7962SOL    HW135345   2.870   2.543  17.497 -1.2437  0.4160  1.2668
 7962SOL    HW235346   2.937   2.442  17.584  0.7368  0.2676  1.8985
 7963SOL     OW35347   2.708   2.083   3.721 -0.1541 -0.3515  0.1638
 7963SOL    HW135348   2.637   2.135   3.683 -0.7712 -0.8892  0.5774
 7963SOL    HW235349   2.662   2.002   3.744 -0.4839 -0.0204  0.6884
 7964SOL     OW35350   4.697   2.246  14.174  0.1623 -0.1958  0.0460
 7964SOL    HW135351   4.620   2.281  14.130 -0.1092 -0.5061  0.2755
 7964SOL    HW235352   0.031   2.322  14.168 -1.6512  0.9762 -2.2053
 7965SOL     OW35353   2.530   0.813   9.619 -0.1723  0.1201 -0.2561
 7965SOL    HW135354   2.515   0.722   9.645  1.5475 -0.3971 -1.1469
 7965SOL    HW235355   2.447   0.854   9.593 -0.3773  1.3052  2.2720
 7966SOL     OW35356   2.084   3.082   6.827 -0.0692 -0.2127 -0.4603
 7966SOL    HW135357   2.166   3.102   6.872 -0.4217  1.9008 -0.7624
 7966SOL    HW235358   2.020   3.143   6.865  2.7817  2.7984 -0.5135
 7967SOL     OW35359   3.900   3.793   3.336 -0.0695 -0.1207 -0.2129
 7967SOL    HW135360   3.953   3.793   3.256  1.6748 -2.1324  0.9451
 7967SOL    HW235361   3.837   3.857   3.303  0.8939  0.4169 -1.0075
 7968SOL     OW35362   0.321   2.511  12.712  0.2283  0.0541  0.1461
 7968SOL    HW135363   0.386   2.579  12.691 -2.0130  2.3745  0.6268
 7968SOL    HW235364   0.380   2.438  12.726  0.8371  0.5954  0.3809
 7969SOL     OW35365   3.275   1.224   7.916 -0.3542  0.2542  0.3339
 7969SOL    HW135366   3.220   1.232   7.994 -0.4094 -0.7380  0.3921
 7969SOL    HW235367   3.239   1.140   7.887 -2.5114  1.3487 -0.1844
 7970SOL     OW35368   4.588   1.411  13.566 -0.2879  0.7440 -0.2408
 7970SOL    HW135369   4.501   1.371  13.570  0.1862 -0.1704  0.9179
 7970SOL    HW235370   4.613   1.371  13.483  3.4661  1.2197  0.6234
 7971SOL     OW35371   2.738   1.625   0.287  0.5628  0.2502 -0.3936
 7971SOL    HW135372   2.662   1.673   0.255  1.3089  1.2769 -0.6315
 7971SOL    HW235373   2.736   1.545   0.234 -0.0134  1.9478 -2.9389
 7972SOL     OW35374   1.873   4.052   7.204 -0.2831  0.2405 -0.6378
 7972SOL    HW135375   1.935   4.032   7.274  2.2509  1.5165 -2.5049
 7972SOL    HW235376   1.887   4.147   7.201  2.0495 -0.0534  0.5914
 7973SOL     OW35377   4.512   1.713  10.907  0.9302  0.1491  0.2455
 7973SOL    HW135378   4.475   1.663  10.981  0.0018  2.3702  1.2805
 7973SOL    HW235379   4.491   1.664  10.828 -1.9383  2.1267 -0.2135
 7974SOL     OW35380   3.422   3.048   1.951  0.2480  0.2718  0.0847
 7974SOL    HW135381   3.481   2.979   1.981  2.1802  2.8079  2.1385
 7974SOL    HW235382   3.451   3.073   1.863 -3.6539 -0.6238 -1.4519
 7975SOL     OW35383   3.514   1.854   7.416  0.4228  0.3430  0.0657
 7975SOL    HW135384   3.466   1.936   7.407  0.3345  0.3772  0.8725
 7975SOL    HW235385   3.456   1.803   7.360  1.5476  1.6213 -2.2543
 7976SOL     OW35386   1.339   1.833   9.699  0.4528  0.4268  0.1911
 7976SOL    HW135387   1.433   1.814   9.698  0.4705  0.6676 -1.8091
 7976SOL    HW235388   1.343   1.924   9.729 -0.5978  0.3700  0.5033
 7977SOL     OW35389   3.436   4.169   4.122  0.1726  0.1712  0.2510
 7977SOL    HW135390   3.447   4.189   4.215 -0.8722  3.0608 -0.2496
 7977SOL    HW235391   3.342   4.176   4.106  0.4675  2.5533 -0.4383
 7978SOL     OW35392   3.540   3.526   4.816 -0.1604  0.1407 -0.7560
 7978SOL    HW135393   3.635   3.534   4.822 -0.4024  1.1761  2.0155
 7978SOL    HW235394   3.521   3.533   4.723  0.0423 -0.9887 -0.8791
 7979SOL     OW35395   2.543   2.367   6.782 -0.0079  0.3672 -0.3168
 7979SOL    HW135396   2.594   2.335   6.857 -0.1571  1.3970  0.2362
 7979SOL    HW235397   2.482   2.294   6.773  0.4323  0.1193 -1.2896
 7980SOL     OW35398   4.639   2.119   5.727 -0.4924 -0.5020 -0.0936
 7980SOL    HW135399   0.006   2.116   5.759 -0.4824 -0.3849 -0.1101
 7980SOL    HW235400   4.611   2.031   5.754 -2.5616  0.2978  0.3450
 7981SOL     OW35401   3.415   1.892  13.799  0.4238 -0.4038 -0.0086
 7981SOL    HW135402   3.432   1.955  13.728 -1.2578 -2.9944 -2.6976
 7981SOL    HW235403   3.502   1.885  13.838 -0.9070  0.1416  3.0217
 7982SOL     OW35404   1.176   0.156   7.982 -0.1344  0.0132 -0.1814
 7982SOL    HW135405   1.232   0.078   7.990 -0.0463 -0.0218 -1.1099
 7982SOL    HW235406   1.213   0.206   8.055  0.2350  0.3955 -0.6308
 7983SOL     OW35407   3.179   1.328   8.771 -0.2989  0.4685  0.1352
 7983SOL    HW135408   3.153   1.368   8.687  0.3983 -1.1310 -0.8314
 7983SOL    HW235409   3.144   1.239   8.775 -1.4039  0.7530 -2.8386
 7984SOL     OW35410   3.481   3.687   9.110  0.1101  0.0068 -0.4817
 7984SOL    HW135411   3.498   3.603   9.152  2.4668 -0.0584 -1.5670
 7984SOL    HW235412   3.465   3.660   9.019 -2.6827  2.4291 -0.7326
 7985SOL     OW35413   1.191   0.685   8.620  1.0310  0.0844 -1.0184
 7985SOL    HW135414   1.110   0.680   8.670  1.1270  0.2107 -0.8502
 7985SOL    HW235415   1.236   0.765   8.647  1.1501  0.7484 -3.1088
 7986SOL     OW35416   3.540   3.778   8.584  0.0944 -0.2128 -0.4046
 7986SOL    HW135417   3.445   3.782   8.593  0.2224  3.1857 -0.1928
 7986SOL    HW235418   3.559   3.866   8.551 -0.1621 -0.4060 -1.0715
 7987SOL     OW35419   2.755   1.428  14.755  0.7134  0.4778 -0.3893
 7987SOL    HW135420   2.835   1.395  14.715  0.6050 -1.0728  0.7019
 7987SOL    HW235421   2.736   1.362  14.821  0.5522  1.6881  0.7828
 7988SOL     OW35422   3.598   0.566   5.127 -0.3861 -0.3719  0.2826
 7988SOL    HW135423   3.556   0.649   5.102  0.3418 -0.2885 -0.6855
 7988SOL    HW235424   3.685   0.588   5.094 -0.6700 -0.2599 -0.4137
 7989SOL     OW35425   2.870   4.197   2.066 -0.2756  0.2651  0.4458
 7989SOL    HW135426   2.880   4.108   2.032 -1.3228  0.5369 -0.5638
 7989SOL    HW235427   2.955   4.236   2.046  0.5450 -0.6558  2.0821
 7990SOL     OW35428   4.695   1.335  11.046  0.4832 -0.3730  0.0977
 7990SOL    HW135429   0.062   1.352  11.074  0.3094 -0.4771  0.7071
 7990SOL    HW235430   4.708   1.273  10.974  4.1128  1.2073 -0.6524
 7991SOL     OW35431   3.571   2.155  13.181  0.2789 -0.1201  0.1421
 7991SOL    HW135432   3.638   2.188  13.121  1.4682 -0.7981  1.1019
 7991SOL    HW235433   3.554   2.239  13.222 -0.6978  2.1752 -4.9365
 7992SOL     OW35434   4.612   4.609   9.921 -0.3088  0.2984 -0.1707
 7992SOL    HW135435   4.586   4.623   9.830 -0.0612  1.4175 -0.0698
 7992SOL    HW235436   4.530   4.639   9.961 -0.6515 -0.0672 -0.5864
 7993SOL     OW35437   2.312   4.014  15.798 -0.1068 -0.4807 -0.0810
 7993SOL    HW135438   2.390   4.057  15.831 -0.1569 -0.8026  0.4619
 7993SOL    HW235439   2.332   3.927  15.834 -0.8501 -0.3080  0.7598
 7994SOL     OW35440   0.488   3.951   2.611 -0.9723 -0.2110 -0.1307
 7994SOL    HW135441   0.406   3.942   2.563 -1.4345  1.2345  0.3786
 7994SOL    HW235442   0.458   3.953   2.702 -3.4126 -2.6315 -0.8893
 7995SOL     OW35443   3.940   1.401   2.837 -0.2793 -0.5094  0.7262
 7995SOL    HW135444   3.983   1.485   2.817 -1.5208 -0.4015 -1.5193
 7995SOL    HW235445   3.857   1.427   2.878 -0.3593 -0.1919  0.3677
 7996SOL     OW35446   0.569   3.525   2.671 -0.0650  0.9979  0.1458
 7996SOL    HW135447   0.661   3.545   2.686 -0.0349  1.1538 -0.2374
 7996SOL    HW235448   0.540   3.511   2.761 -2.1252 -1.1564 -0.8327
 7997SOL     OW35449   1.563   2.615   3.885 -0.0690 -0.1450  0.3417
 7997SOL    HW135450   1.582   2.709   3.879  0.5553 -0.3576 -1.0108
 7997SOL    HW235451   1.583   2.589   3.795  2.3040 -0.0077  0.8243
 7998SOL     OW35452   1.251   1.908   5.638 -0.0535  0.0078 -0.0050
 7998SOL    HW135453   1.328   1.863   5.674 -1.8693 -2.1859  1.0688
 7998SOL    HW235454   1.307   1.982   5.612  0.5205 -1.6388 -3.3878
 7999SOL     OW35455   2.957   0.965  10.775  0.5408  0.1886  0.0428
 7999SOL    HW135456   3.028   0.970  10.712 -1.5698  0.5020 -2.3007
 7999SOL    HW235457   2.915   0.884  10.748 -0.2925  1.4453 -2.3628
 8000SOL     OW35458   1.800   3.080  15.113 -0.5689  0.2262  0.1983
 8000SOL    HW135459   1.882   3.129  15.106  0.2193 -0.8133  2.5016
 8000SOL    HW235460   1.793   3.051  15.022  0.2240 -0.6383  0.4176
 8001SOL     OW35461   4.325   4.720   5.994  0.3065  0.1271 -0.2537
 8001SOL    HW135462   4.409   0.038   5.979  0.0088  1.8718  2.9323
 8001SOL    HW235463   4.356   4.630   6.006  0.4865  0.5327  2.2990
 8002SOL     OW35464   4.096   1.561  16.954  0.2725  0.4253 -0.2984
 8002SOL    HW135465   4.024   1.539  17.013  1.1037 -0.8066  0.2620
 8002SOL    HW235466   4.093   1.479  16.905 -1.9435 -1.3786  2.8843
 8003SOL     OW35467   2.095   1.480  17.320 -0.5850  0.0639 -0.0751
 8003SOL    HW135468   2.054   1.429  17.390 -1.6164 -1.2415 -1.6390
 8003SOL    HW235469   2.050   1.438  17.247 -0.1810  1.6486 -1.2267
 8004SOL     OW35470   3.596   4.294   2.186  0.5935 -0.2146 -0.0713
 8004SOL    HW135471   3.587   4.375   2.235 -0.0020  0.5543 -1.4628
 8004SOL    HW235472   3.534   4.232   2.225 -0.2067 -0.2264 -1.3878
 8005SOL     OW35473   0.799   0.701   5.521 -0.4303 -0.1424  0.0940
 8005SOL    HW135474   0.719   0.749   5.500 -0.5093 -0.1953  0.2760
 8005SOL    HW235475   0.862   0.758   5.476 -0.1500 -0.7734 -0.3142
 8006SOL     OW35476   0.882   1.829   3.609 -0.0644 -0.3227  0.0853
 8006SOL    HW135477   0.815   1.820   3.540  2.1368 -1.5208 -1.8855
 8006SOL    HW235478   0.956   1.841   3.550  0.4909  1.4873  1.1419
 8007SOL     OW35479   3.553   0.430   2.645  0.2299 -0.3892 -0.0439
 8007SOL    HW135480   3.591   0.391   2.567  0.0582  0.8503 -0.7424
 8007SOL    HW235481   3.525   0.352   2.694  0.8493 -1.9525 -2.2112
 8008SOL     OW35482   0.340   4.096  12.890 -0.6461 -0.0491  0.5154
 8008SOL    HW135483   0.433   4.079  12.875 -0.7204  0.0279 -0.0315
 8008SOL    HW235484   0.322   4.162  12.824  0.0315  0.8985  1.2794
 8009SOL     OW35485   1.879   3.663   5.662 -0.0648  0.3174 -0.2309
 8009SOL    HW135486   1.877   3.645   5.756 -1.6118  1.1878 -0.1010
 8009SOL    HW235487   1.972   3.661   5.641  0.2137 -1.0421  1.1355
 8010SOL     OW35488   3.327   3.326   9.132  0.0660  0.2694  0.3240
 8010SOL    HW135489   3.386   3.270   9.182 -0.6184  0.1034  0.9510
 8010SOL    HW235490   3.380   3.339   9.054  1.5211 -1.0876  1.1082
 8011SOL     OW35491   3.242   3.299   2.810  0.2492  0.4313  0.1120
 8011SOL    HW135492   3.264   3.380   2.856  1.5191  1.1116 -1.6926
 8011SOL    HW235493   3.321   3.293   2.756  0.9461  1.3290  1.0370
 8012SOL     OW35494   1.624   0.719   1.925  0.1649 -0.2645 -0.6820
 8012SOL    HW135495   1.633   0.805   1.884  3.0758  1.0593  2.6792
 8012SOL    HW235496   1.696   0.732   1.987 -1.6000 -0.0730  1.3088
 8013SOL     OW35497   0.593   0.204   1.612  0.3118  0.7642  0.1117
 8013SOL    HW135498   0.502   0.223   1.592 -0.2416  0.4388  2.3206
 8013SOL    HW235499   0.618   0.138   1.547  0.3975 -1.2660  2.1831
 8014SOL     OW35500   1.639   1.211   3.053  0.1199  0.6252  0.3724
 8014SOL    HW135501   1.707   1.230   3.117 -0.6174  0.2125  1.2837
 8014SOL    HW235502   1.564   1.192   3.110  0.3067  1.8530  1.0110
 8015SOL     OW35503   1.952   0.883   8.493  0.0934  0.1792 -0.0792
 8015SOL    HW135504   1.893   0.959   8.495  1.0485  0.8624  2.8096
 8015SOL    HW235505   2.030   0.907   8.444  1.3596  0.3772  2.0198
 8016SOL     OW35506   1.675   2.826   2.743 -0.4878 -0.1151 -0.0035
 8016SOL    HW135507   1.684   2.917   2.715  1.3788 -0.1001  0.6389
 8016SOL    HW235508   1.673   2.781   2.658 -1.7709 -0.3934  0.1748
 8017SOL     OW35509   2.047   2.439   4.039 -0.5230  0.9092 -0.3932
 8017SOL    HW135510   2.058   2.415   3.947 -0.9935  0.3308 -0.2927
 8017SOL    HW235511   1.973   2.499   4.043 -0.4471  0.9664  0.1689
 8018SOL     OW35512   0.254   2.056   3.968  0.4265  0.3256 -0.2845
 8018SOL    HW135513   0.277   2.052   3.875  0.6655 -0.9787 -0.1712
 8018SOL    HW235514   0.166   2.019   3.964  0.5869 -0.0935  0.1062
 8019SOL     OW35515   2.224   1.495   5.027  0.5402  0.1783  0.6589
 8019SOL    HW135516   2.136   1.459   5.015  1.8425 -3.0438  0.8282
 8019SOL    HW235517   2.266   1.433   4.968 -0.9381 -0.0582 -0.1474
 8020SOL     OW35518   1.711   4.509   5.305  0.1742 -0.4899 -0.2679
 8020SOL    HW135519   1.620   4.482   5.294  0.5068 -0.5380 -2.8593
 8020SOL    HW235520   1.725   4.578   5.240 -0.9779 -0.8629 -0.9112
 8021SOL     OW35521   0.580   0.549  10.520  0.5069  0.5205 -0.5361
 8021SOL    HW135522   0.654   0.555  10.581 -0.5471 -0.8504  0.8736
 8021SOL    HW235523   0.632   0.555  10.440  1.1363  2.6211  0.0401
 8022SOL     OW35524   3.988   1.892  14.548 -0.3416 -0.1516  0.2137
 8022SOL    HW135525   3.898   1.891  14.580 -1.2783  1.8021 -2.2794
 8022SOL    HW235526   4.032   1.831  14.607  0.0932 -0.1325 -0.0887
 8023SOL     OW35527   4.670   2.865  15.968 -0.2536  0.1836 -0.7085
 8023SOL    HW135528   4.701   2.853  16.058 -0.2896  0.3919 -0.6687
 8023SOL    HW235529   4.624   2.781  15.961  2.3467 -1.3226  0.2901
 8024SOL     OW35530   0.083   3.868   3.501 -0.1085  0.1824  0.7885
 8024SOL    HW135531   0.033   3.868   3.420 -0.8892  2.7089  1.2653
 8024SOL    HW235532   0.140   3.944   3.490 -0.7463  0.5869  0.2631
 8025SOL     OW35533   1.258   3.759  16.428 -0.1671  0.7406 -0.1480
 8025SOL    HW135534   1.286   3.674  16.462  0.5835  1.0470 -0.0193
 8025SOL    HW235535   1.175   3.731  16.388 -0.8813 -0.0428  1.9154
 8026SOL     OW35536   3.062   4.596  14.445  0.4282  0.5433 -0.4707
 8026SOL    HW135537   3.075   4.619  14.353 -1.7031  1.1874 -0.5883
 8026SOL    HW235538   3.147   4.555  14.463 -0.0160 -0.4903 -0.7428
 8027SOL     OW35539   2.778   1.597  11.629  0.2485 -0.3129  0.2647
 8027SOL    HW135540   2.802   1.549  11.549 -1.4918 -2.2782  0.9469
 8027SOL    HW235541   2.687   1.617  11.608  0.5700  1.7546  0.8354
 8028SOL     OW35542   2.488   3.314  11.226 -0.5762 -0.5808  0.1513
 8028SOL    HW135543   2.491   3.362  11.143 -0.3428 -2.6406 -1.0447
 8028SOL    HW235544   2.539   3.375  11.280 -1.4942 -0.3928  0.8077
 8029SOL     OW35545   4.079   3.269  10.316 -0.1652 -0.3582  0.4956
 8029SOL    HW135546   4.087   3.301  10.406 -2.3139 -0.2892  0.6559
 8029SOL    HW235547   4.030   3.187  10.326  1.9551 -1.3734  2.7017
 8030SOL     OW35548   4.456   3.388   8.362 -0.0811  0.2515 -0.5358
 8030SOL    HW135549   4.446   3.461   8.422 -0.8531 -1.1960  1.0834
 8030SOL    HW235550   4.382   3.330   8.382 -0.7723  0.9846 -0.9880
 8031SOL     OW35551   0.048   3.953   5.844  0.1265 -0.3967  0.3551
 8031SOL    HW135552   0.064   3.918   5.932  0.9414 -0.0408  0.3480
 8031SOL    HW235553   0.131   3.936   5.800 -0.8547 -1.1951 -1.1676
 8032SOL     OW35554   2.926   4.257  14.073 -0.3516 -0.1296 -0.5041
 8032SOL    HW135555   2.894   4.343  14.044 -0.3111 -0.0037 -0.1705
 8032SOL    HW235556   2.989   4.281  14.140  0.1390  0.8772 -1.3401
 8033SOL     OW35557   3.365   3.944   4.328 -0.2656 -0.1282 -0.0392
 8033SOL    HW135558   3.452   3.953   4.368  0.0621  0.1048 -0.8013
 8033SOL    HW235559   3.381   3.903   4.243  4.2556 -1.0702  1.2587
 8034SOL     OW35560   3.216   3.930   8.741 -0.4526  0.7505 -0.0668
 8034SOL    HW135561   3.218   3.892   8.654  0.5919  0.1570  0.2128
 8034SOL    HW235562   3.310   3.939   8.757 -0.0324  0.7401 -2.5873
 8035SOL     OW35563   2.583   2.551   9.131  0.0241  0.1970 -0.0455
 8035SOL    HW135564   2.594   2.462   9.165 -0.7696  0.6490  1.3802
 8035SOL    HW235565   2.665   2.564   9.083  0.2284 -0.4037  0.1401
 8036SOL     OW35566   4.237   2.433   6.842 -0.0663 -0.6158  0.0843
 8036SOL    HW135567   4.175   2.483   6.789  0.9219  0.5851  0.0691
 8036SOL    HW235568   4.312   2.423   6.784 -0.3502 -2.6141  0.0638
 8037SOL     OW35569   0.405   4.614   1.510  0.1397 -0.2867  0.1487
 8037SOL    HW135570   0.342   4.682   1.485  0.7931  0.5516  0.7967
 8037SOL    HW235571   0.363   4.575   1.586 -0.8017  0.9357  0.2542
 8038SOL     OW35572   0.686   1.135  12.767 -0.0111 -0.7092 -0.4351
 8038SOL    HW135573   0.728   1.175  12.843 -2.5031  1.4930 -0.2103
 8038SOL    HW235574   0.674   1.044  12.794 -1.0947 -0.1977  0.7934
 8039SOL     OW35575   0.870   1.387  15.755  0.2586 -0.4196 -0.1981
 8039SOL    HW135576   0.936   1.446  15.718  0.9156 -1.2726 -0.4083
 8039SOL    HW235577   0.845   1.426  15.838 -0.6432 -0.7015 -0.3469
 8040SOL     OW35578   3.859   0.760   7.556 -0.1368 -0.4503 -0.0368
 8040SOL    HW135579   3.834   0.839   7.602  0.3265  0.2226 -0.9436
 8040SOL    HW235580   3.929   0.720   7.609 -1.2373  0.0102  1.7505
 8041SOL     OW35581   4.422   2.454   2.109 -0.7446 -0.2490 -0.5346
 8041SOL    HW135582   4.465   2.403   2.178 -0.0839  0.3009 -0.5386
 8041SOL    HW235583   4.493   2.508   2.074  0.5487 -1.6150 -0.0453
 8042SOL     OW35584   0.083   1.287   2.394 -0.0368  0.1483  0.1712
 8042SOL    HW135585   0.013   1.320   2.450 -2.1027  0.1701 -2.4338
 8042SOL    HW235586   0.150   1.250   2.451 -0.6778 -1.0270  0.1444
 8043SOL     OW35587   3.627   4.390   8.712 -0.4169 -0.2624 -0.1998
 8043SOL    HW135588   3.614   4.352   8.625 -0.2371  2.8354 -1.5618
 8043SOL    HW235589   3.655   4.313   8.762  0.0512 -0.9354 -1.4787
 8044SOL     OW35590   2.994   0.742   9.351  0.4033  0.1965  0.1138
 8044SOL    HW135591   2.934   0.762   9.280 -1.3512  1.1086  1.8712
 8044SOL    HW235592   3.042   0.667   9.316  2.6553  1.7504 -0.1207
 8045SOL     OW35593   4.259   0.341   5.213  0.4641 -0.0210 -0.3567
 8045SOL    HW135594   4.214   0.342   5.297 -0.0739  2.4911 -0.6578
 8045SOL    HW235595   4.305   0.257   5.215  1.8310  0.7512  1.4527
 8046SOL     OW35596   4.085   0.825   2.670  0.0206 -0.1838 -0.5117
 8046SOL    HW135597   4.179   0.831   2.683 -0.1377  0.0233  0.4810
 8046SOL    HW235598   4.100   0.753   2.608  0.0953 -1.5759  1.1077
 8047SOL     OW35599   0.050   2.482  15.272 -0.3329 -0.4975 -0.3416
 8047SOL    HW135600   0.066   2.568  15.234 -2.3845  0.7718  1.7291
 8047SOL    HW235601   0.139   2.449  15.280 -0.9207 -1.9356  0.3773
 8048SOL     OW35602   0.392   3.281   3.808 -0.0623 -0.1062 -0.5749
 8048SOL    HW135603   0.383   3.272   3.903 -0.1380 -1.4174 -0.7114
 8048SOL    HW235604   0.300   3.270   3.783  0.0563 -0.1691 -0.9841
 8049SOL     OW35605   3.799   0.887  15.840  0.1625  0.9571 -0.0779
 8049SOL    HW135606   3.732   0.820  15.841  1.0895  0.0431  0.6731
 8049SOL    HW235607   3.782   0.930  15.756  1.5210  2.0798  0.2043
 8050SOL     OW35608   3.820   3.485   6.016  0.3085 -0.4328 -0.5223
 8050SOL    HW135609   3.801   3.536   6.094  0.9143  0.8919 -1.2412
 8050SOL    HW235610   3.889   3.429   6.052 -2.0326 -0.8495  3.3560
 8051SOL     OW35611   0.042   1.666  12.216 -0.3836  0.8394  0.2503
 8051SOL    HW135612   0.089   1.750  12.216  2.4779 -0.7433  0.0979
 8051SOL    HW235613   0.083   1.630  12.295  0.4112 -4.2338 -2.4944
 8052SOL     OW35614   4.048   3.497   3.051  0.0615  0.1507 -0.3872
 8052SOL    HW135615   3.989   3.520   2.979  1.0225  3.5146 -0.1070
 8052SOL    HW235616   4.121   3.552   3.022  0.4424  0.9517  2.1395
 8053SOL     OW35617   1.599   3.969   7.978 -0.8434 -0.4927  0.0389
 8053SOL    HW135618   1.587   4.064   7.975  1.7277 -0.2477 -2.4368
 8053SOL    HW235619   1.676   3.948   8.032 -1.4334 -0.7083  0.7894
 8054SOL     OW35620   1.216   2.563   8.613  0.0228  0.3870  0.0671
 8054SOL    HW135621   1.154   2.570   8.685 -0.8087 -0.4051 -0.5638
 8054SOL    HW235622   1.265   2.484   8.637 -0.6523 -0.0612 -0.0236
 8055SOL     OW35623   0.281   0.520   2.617  0.2683 -0.0986 -0.4141
 8055SOL    HW135624   0.191   0.527   2.586 -0.5962 -1.5260  1.7314
 8055SOL    HW235625   0.280   0.424   2.610  0.4502 -0.0808 -0.6745
 8056SOL     OW35626   1.651   1.370   4.525 -0.0761  0.1175 -0.5404
 8056SOL    HW135627   1.649   1.368   4.621 -1.8536  0.2784 -0.5864
 8056SOL    HW235628   1.720   1.431   4.499  0.6526 -0.7042 -0.5536
 8057SOL     OW35629   4.003   0.314   4.693  0.0782 -0.1087  0.1960
 8057SOL    HW135630   4.086   0.310   4.740  0.8158 -0.6992 -1.1702
 8057SOL    HW235631   4.021   0.390   4.638 -2.4507  1.3937  1.4609
 8058SOL     OW35632   2.156   4.300   3.141  0.3850 -0.3828  0.5655
 8058SOL    HW135633   2.124   4.246   3.213  0.4179 -0.2775  0.6591
 8058SOL    HW235634   2.075   4.339   3.109  1.4225  0.2030 -1.3325
 8059SOL     OW35635   1.821   4.684   4.115 -0.1135 -0.3835 -0.4527
 8059SOL    HW135636   1.887   0.004   4.170  2.7510  0.2822 -4.4016
 8059SOL    HW235637   1.870   4.644   4.044 -2.1825 -2.3039 -0.7775
 8060SOL     OW35638   2.243   1.798   6.887  0.3518 -0.0497 -0.7138
 8060SOL    HW135639   2.201   1.792   6.973  0.2704 -0.5741 -0.7899
 8060SOL    HW235640   2.207   1.878   6.848 -0.6214 -0.1431 -0.0195
 8061SOL     OW35641   2.749   0.620   7.659  0.7768  0.0535 -0.0779
 8061SOL    HW135642   2.797   0.553   7.708 -0.1721 -0.0571  0.6867
 8061SOL    HW235643   2.817   0.687   7.668 -1.1956  2.0669 -0.0874
 8062SOL     OW35644   3.985   1.125   8.187 -0.1796 -0.2361  0.6116
 8062SOL    HW135645   3.951   1.107   8.274  0.1300 -2.5624  0.2557
 8062SOL    HW235646   4.074   1.151   8.213  0.2533 -0.3781 -0.6997
 8063SOL     OW35647   2.711   1.782   2.055  0.2522  0.2211 -0.2748
 8063SOL    HW135648   2.633   1.838   2.055  0.2447  0.1911  1.7825
 8063SOL    HW235649   2.695   1.713   1.990  0.8015 -0.1519 -0.0175
 8064SOL     OW35650   1.406   3.408   3.989  0.3250 -0.0374  0.0134
 8064SOL    HW135651   1.345   3.397   4.061 -0.5163  1.3462 -0.4833
 8064SOL    HW235652   1.375   3.354   3.916 -0.2034 -1.5670  1.3753
 8065SOL     OW35653   0.122   4.696   7.735 -0.4822  0.1815  0.1157
 8065SOL    HW135654   0.176   0.049   7.718 -0.2426  0.1716  0.8329
 8065SOL    HW235655   0.179   4.629   7.773 -0.8287  0.9234  1.9396
 8066SOL     OW35656   1.644   3.413   7.576  0.3362  0.1433  0.0211
 8066SOL    HW135657   1.709   3.475   7.608 -0.2141 -0.2052  1.7825
 8066SOL    HW235658   1.699   3.335   7.587 -2.2868 -2.0750 -2.5743
 8067SOL     OW35659   2.801   0.463   4.589  0.8001 -0.2959 -0.4336
 8067SOL    HW135660   2.891   0.431   4.587  0.1720 -2.1350  0.5648
 8067SOL    HW235661   2.767   0.381   4.556  1.7755 -1.0815  0.5153
 8068SOL     OW35662   0.991   4.319   6.971  0.4273  0.0177 -0.4613
 8068SOL    HW135663   0.988   4.352   7.061  2.3317  1.0105 -0.7530
 8068SOL    HW235664   1.068   4.263   6.982  0.0242 -0.2323  1.1557
 8069SOL     OW35665   1.952   1.842   6.714 -0.2487 -0.5521 -0.0786
 8069SOL    HW135666   1.947   1.921   6.661 -2.7025 -2.4117 -2.5811
 8069SOL    HW235667   2.027   1.793   6.681  0.1266 -0.2847  0.3670
 8070SOL     OW35668   4.261   2.456   3.533 -0.0378 -0.0061  0.2590
 8070SOL    HW135669   4.213   2.479   3.454 -1.0906 -1.3165  0.5221
 8070SOL    HW235670   4.336   2.406   3.501 -0.3604 -1.5511  1.8958
 8071SOL     OW35671   3.052   0.708   4.455  0.2369 -0.4985  0.2426
 8071SOL    HW135672   3.059   0.801   4.431  0.2329 -0.6351 -0.3036
 8071SOL    HW235673   3.123   0.673   4.401  1.6202  2.4285  0.1591
 8072SOL     OW35674   1.132   4.248   8.248 -0.0985  0.0580  0.1750
 8072SOL    HW135675   1.123   4.326   8.301  2.3545  0.5496 -0.0950
 8072SOL    HW235676   1.113   4.179   8.311 -1.0626  0.2178  0.0583
 8073SOL     OW35677   1.001   2.552  16.136 -0.7014 -0.1262 -0.1658
 8073SOL    HW135678   0.924   2.609  16.142  0.2451  1.0811  0.3749
 8073SOL    HW235679   1.079   2.603  16.154 -0.0805 -1.4561  0.8951
 8074SOL     OW35680   4.695   1.303   6.477 -0.4376  0.0730  0.1558
 8074SOL    HW135681   0.036   1.374   6.470 -1.7250  0.9219 -3.0884
 8074SOL    HW235682   0.030   1.230   6.494  0.4222  1.0788  1.5309
 8075SOL     OW35683   2.650   3.337   2.057 -0.6217  0.0183 -0.1461
 8075SOL    HW135684   2.739   3.340   2.093 -0.6586 -0.1697 -0.0402
 8075SOL    HW235685   2.651   3.279   1.981  0.0111  2.6411 -2.1346
 8076SOL     OW35686   3.125   1.782   7.085 -0.0581 -0.2839  0.2784
 8076SOL    HW135687   3.040   1.739   7.092  0.4364 -1.1600  0.9524
 8076SOL    HW235688   3.187   1.709   7.087  1.0847  0.6597 -0.2415
 8077SOL     OW35689   0.295   3.084  17.087  0.4344  0.0557  0.2535
 8077SOL    HW135690   0.327   3.134  17.162  1.9001 -2.3218  1.1776
 8077SOL    HW235691   0.299   2.997  17.125 -0.2344  0.2839  0.8641
 8078SOL     OW35692   2.427   1.683   7.937 -0.0526  0.1408  0.0241
 8078SOL    HW135693   2.493   1.721   7.995  1.1777  1.2260 -2.0910
 8078SOL    HW235694   2.474   1.632   7.871  0.2251 -0.6038  0.8006
 8079SOL     OW35695   3.789   2.120   2.643 -0.6512 -0.3641  0.3936
 8079SOL    HW135696   3.860   2.096   2.703 -0.6215 -2.4904 -0.4799
 8079SOL    HW235697   3.842   2.108   2.564 -1.7385 -0.7354 -0.2751
 8080SOL     OW35698   4.153   4.248   0.640  0.3907  0.2468  0.2641
 8080SOL    HW135699   4.151   4.339   0.612 -1.3712  0.1153 -0.0387
 8080SOL    HW235700   4.068   4.247   0.684 -0.3259 -2.7459 -1.1652
 8081SOL     OW35701   4.560   3.632   3.491 -0.1623  0.5413  0.4007
 8081SOL    HW135702   4.587   3.676   3.412 -0.0722 -0.9751 -0.4225
 8081SOL    HW235703   4.499   3.694   3.531 -2.2716 -1.4915  0.3626
 8082SOL     OW35704   2.983   2.278  16.726  0.4314 -0.3287 -0.2985
 8082SOL    HW135705   2.956   2.366  16.752  0.9746 -0.9089  2.2285
 8082SOL    HW235706   2.940   2.225  16.793  1.7183 -2.6413 -1.2843
 8083SOL     OW35707   3.930   4.417   1.189  0.2730 -0.3308  0.2816
 8083SOL    HW135708   3.846   4.452   1.159 -0.2747 -1.1212  0.8950
 8083SOL    HW235709   3.985   4.460   1.123  0.1143  0.8396  0.9089
 8084SOL     OW35710   1.587   1.003   3.406  0.6093 -0.5324 -0.3246
 8084SOL    HW135711   1.572   1.090   3.368  1.3042  0.1023  0.8522
 8084SOL    HW235712   1.578   1.025   3.499 -1.2533  2.9171 -1.3207
 8085SOL     OW35713   0.559   0.289   3.068 -0.8483  0.2808  0.3553
 8085SOL    HW135714   0.571   0.363   3.008  2.1252 -0.4409  0.0657
 8085SOL    HW235715   0.543   0.336   3.149 -0.6232 -1.1124  1.2079
 8086SOL     OW35716   0.325   4.004   4.286 -0.3299  0.4083  0.2805
 8086SOL    HW135717   0.321   4.100   4.294 -3.7002  0.1801  1.5652
 8086SOL    HW235718   0.245   3.975   4.242  0.4366 -2.3422  0.7444
 8087SOL     OW35719   4.150   2.502  12.705 -0.4661 -0.3192  0.3463
 8087SOL    HW135720   4.246   2.504  12.706 -0.4840  0.1331  1.0278
 8087SOL    HW235721   4.134   2.560  12.630 -0.5461 -1.0867 -0.2373
 8088SOL     OW35722   1.766   0.769   3.649  0.2750 -0.2006  0.3374
 8088SOL    HW135723   1.713   0.729   3.718  1.1317  0.8229  1.5932
 8088SOL    HW235724   1.807   0.835   3.705  1.9549 -0.3194 -0.7534
 8089SOL     OW35725   1.224   3.621  10.272  0.4477 -0.1396 -0.1911
 8089SOL    HW135726   1.195   3.626  10.181 -1.2393  1.5714  0.4442
 8089SOL    HW235727   1.262   3.707  10.290  0.1595  0.1238 -0.8495
 8090SOL     OW35728   0.624   0.285  17.115 -0.3342  0.6626 -0.0890
 8090SOL    HW135729   0.688   0.351  17.143 -1.7448  2.2356 -0.6278
 8090SOL    HW235730   0.561   0.325  17.056 -0.4364  0.2851 -0.2354
 8091SOL     OW35731   4.384   1.052   5.566 -0.1941  0.6533  0.3871
 8091SOL    HW135732   4.390   1.030   5.473  2.1627 -0.9248  0.8907
 8091SOL    HW235733   4.448   0.988   5.598  0.8895  2.3712  1.6125
 8092SOL     OW35734   2.584   2.388   6.189  0.2888 -0.3784 -0.1350
 8092SOL    HW135735   2.563   2.476   6.158 -0.7542 -0.4592  0.3592
 8092SOL    HW235736   2.568   2.384   6.283  0.3270  1.9587 -0.0284
 8093SOL     OW35737   3.161   0.110   7.374  0.1304 -0.2497 -0.4183
 8093SOL    HW135738   3.186   0.035   7.320  0.6892 -0.8265  0.6479
 8093SOL    HW235739   3.194   0.085   7.460 -0.9636 -0.1718  0.0228
 8094SOL     OW35740   3.553   1.525  11.091  0.3861 -0.1590 -0.2711
 8094SOL    HW135741   3.625   1.470  11.121  2.1226  1.6829 -1.0751
 8094SOL    HW235742   3.490   1.462  11.125 -0.1764 -0.3789 -1.6993
 8095SOL     OW35743   0.077   1.143   5.407 -0.3836  0.0878  0.1479
 8095SOL    HW135744   0.147   1.204   5.385 -0.0656 -0.4581 -0.3853
 8095SOL    HW235745   0.005   1.201   5.431  0.4671  1.1112  0.2116
 8096SOL     OW35746   3.605   0.261   7.393 -0.8614  0.2110  0.1227
 8096SOL    HW135747   3.656   0.340   7.375 -1.8486  0.1428 -2.9055
 8096SOL    HW235748   3.517   0.300   7.389  0.4413  2.6593 -4.6197
 8097SOL     OW35749   1.462   1.536   3.841  0.4682 -0.3575  0.1196
 8097SOL    HW135750   1.430   1.495   3.760  0.8809 -0.1894 -0.1290
 8097SOL    HW235751   1.409   1.497   3.910 -0.0379 -0.7438 -0.4837
 8098SOL     OW35752   1.404   0.609   2.080 -0.4505 -0.2787 -0.3300
 8098SOL    HW135753   1.371   0.541   2.021 -2.6404  0.1686  0.3795
 8098SOL    HW235754   1.482   0.643   2.035  0.4261 -1.6374  0.1599
 8099SOL     OW35755   1.868   1.596  12.129  0.3982  0.0043  0.0190
 8099SOL    HW135756   1.899   1.533  12.194  0.3243  0.4479  0.4842
 8099SOL    HW235757   1.845   1.656  12.200 -1.5307 -0.0694 -0.5244
 8100SOL     OW35758   2.088   1.408   1.429  0.4084  0.1070  0.2314
 8100SOL    HW135759   2.046   1.344   1.372 -0.7715 -0.2519  1.5009
 8100SOL    HW235760   2.168   1.368   1.461  0.8366  0.9174  0.1883
 8101SOL     OW35761   0.264   4.066  13.728  0.1330  0.3919 -0.5525
 8101SOL    HW135762   0.315   4.143  13.754  0.0955 -0.3690  1.7146
 8101SOL    HW235763   0.290   4.007  13.798 -0.3078  0.4780 -0.3149
 8102SOL     OW35764   2.773   1.364   9.592  0.2336 -0.3326  0.0932
 8102SOL    HW135765   2.768   1.271   9.567 -1.9478 -0.6464  1.7443
 8102SOL    HW235766   2.789   1.349   9.685 -1.4729 -2.0496  0.1085
 8103SOL     OW35767   3.262   2.612  11.884  0.2196  0.0785 -0.2486
 8103SOL    HW135768   3.232   2.529  11.847 -1.3782  0.1015  0.9816
 8103SOL    HW235769   3.333   2.640  11.826 -0.4401  0.1590 -1.0219
 8104SOL     OW35770   0.246   4.086   3.142  0.6088  0.1028  0.5635
 8104SOL    HW135771   0.162   4.043   3.156 -0.5975  2.7286  1.2864
 8104SOL    HW235772   0.304   4.011   3.157 -1.0211 -0.8794  1.9989
 8105SOL     OW35773   3.920   1.449   3.635 -0.2939 -0.3680  0.3225
 8105SOL    HW135774   3.824   1.447   3.633 -0.2570 -3.1462  1.3465
 8105SOL    HW235775   3.943   1.372   3.687  0.8309 -0.5482 -0.4414
 8106SOL     OW35776   2.866   2.103   6.788 -0.1412  0.0354 -0.0941
 8106SOL    HW135777   2.776   2.107   6.818 -1.1076  1.3955 -3.1463
 8106SOL    HW235778   2.873   2.011   6.762  0.2426 -0.3797  1.4771
 8107SOL     OW35779   0.891   0.181  14.609 -0.0598  0.0329 -0.0190
 8107SOL    HW135780   0.894   0.131  14.691  0.0338  2.8032  1.6794
 8107SOL    HW235781   0.824   0.136  14.558  1.7431 -1.0380 -1.4292
 8108SOL     OW35782   1.002   2.820  12.202 -0.2674 -0.1287 -0.0789
 8108SOL    HW135783   0.926   2.841  12.148 -2.0359  1.2543  2.9419
 8108SOL    HW235784   1.079   2.847  12.150 -0.0936  1.1291  0.8330
 8109SOL     OW35785   2.986   2.379   7.765 -0.4442  0.6910  0.3695
 8109SOL    HW135786   2.973   2.294   7.723  0.0219  0.5568  0.5031
 8109SOL    HW235787   2.923   2.361   7.835 -1.7340 -0.2294 -1.0240
 8110SOL     OW35788   4.062   3.128   3.578  0.2449 -0.6943 -0.1012
 8110SOL    HW135789   4.125   3.128   3.506  0.7366  1.3920  0.3505
 8110SOL    HW235790   4.088   3.199   3.636  0.0331 -0.2125 -0.6021
 8111SOL     OW35791   2.555   1.612  17.347 -0.4357  0.0442 -0.1860
 8111SOL    HW135792   2.598   1.636  17.265  0.9202 -1.7038 -0.0029
 8111SOL    HW235793   2.513   1.533  17.313 -0.9330  0.9558 -1.6638
 8112SOL     OW35794   1.301   1.175   8.303 -0.0193  0.2401  0.5690
 8112SOL    HW135795   1.261   1.262   8.308 -0.6020 -0.1685  3.0164
 8112SOL    HW235796   1.241   1.125   8.358 -1.9955  0.9281 -0.9768
 8113SOL     OW35797   3.655   2.524   9.134  0.6292 -0.6375  0.6705
 8113SOL    HW135798   3.612   2.457   9.081 -0.2345  0.5942 -0.1949
 8113SOL    HW235799   3.736   2.548   9.089  0.1475 -0.3079 -0.0206
 8114SOL     OW35800   0.277   3.725  12.300  0.6738  0.1906 -0.4224
 8114SOL    HW135801   0.238   3.654  12.352 -0.3225  1.2513  0.2936
 8114SOL    HW235802   0.252   3.800  12.355  1.5910 -0.4928  0.9407
 8115SOL     OW35803   1.835   2.756   5.612 -0.1729  0.2770 -0.2106
 8115SOL    HW135804   1.855   2.803   5.532 -0.7157 -0.2838 -0.6815
 8115SOL    HW235805   1.905   2.691   5.605  0.6499  1.1985 -0.4324
 8116SOL     OW35806   4.181   3.290   4.988  0.2057 -0.3271 -0.2556
 8116SOL    HW135807   4.129   3.329   4.918 -0.7884 -1.4670 -0.1546
 8116SOL    HW235808   4.133   3.334   5.059  2.0372  0.1215  0.7043
 8117SOL     OW35809   1.471   0.735   3.180 -0.2424  0.4123  0.1213
 8117SOL    HW135810   1.445   0.661   3.234  2.4644 -0.0976  0.7162
 8117SOL    HW235811   1.555   0.704   3.146 -0.3258 -0.8198  1.0341
 8118SOL     OW35812   1.553   3.670  15.441  0.3079  0.5434 -0.1811
 8118SOL    HW135813   1.483   3.671  15.376  0.7323 -1.3908 -0.6693
 8118SOL    HW235814   1.601   3.742  15.399 -1.5134  0.7865 -1.8238
 8119SOL     OW35815   1.274   4.380   6.794 -0.1030 -0.0498 -0.1485
 8119SOL    HW135816   1.343   4.334   6.747  0.0724  0.5383 -0.4597
 8119SOL    HW235817   1.219   4.411   6.723 -1.0935 -1.8167 -0.1410
 8120SOL     OW35818   4.185   0.692   5.689  0.1775 -0.4144 -0.3721
 8120SOL    HW135819   4.217   0.737   5.767  1.0364  1.0157 -1.5486
 8120SOL    HW235820   4.102   0.739   5.682  0.1178 -0.1088  2.3426
 8121SOL     OW35821   0.402   2.150  14.579 -0.1453 -0.4700  0.0462
 8121SOL    HW135822   0.319   2.119  14.544 -1.5928  1.4035  1.8449
 8121SOL    HW235823   0.427   2.211  14.509 -0.9710 -0.1873  0.0049
 8122SOL     OW35824   2.606   1.125   3.824  0.2750  0.3566 -0.9933
 8122SOL    HW135825   2.517   1.130   3.789 -0.3811  0.7455  0.6972
 8122SOL    HW235826   2.642   1.060   3.764 -1.0863 -1.1181 -0.2273
 8123SOL     OW35827   3.812   0.955   0.103 -0.1985  0.3440 -0.4703
 8123SOL    HW135828   3.797   1.008   0.026  2.5148  1.3080 -0.3321
 8123SOL    HW235829   3.861   1.013   0.161  0.8336 -0.5820 -0.4055
 8124SOL     OW35830   3.510   2.996   2.782  0.5214  0.0330 -0.2165
 8124SOL    HW135831   3.495   2.952   2.866 -0.0975 -1.7327 -1.2564
 8124SOL    HW235832   3.605   2.993   2.784  0.4936 -1.9751 -2.3314
 8125SOL     OW35833   3.443   1.795  12.874  0.6598 -0.9421 -0.7590
 8125SOL    HW135834   3.490   1.752  12.945  0.3376 -1.4661 -0.8629
 8125SOL    HW235835   3.505   1.859  12.839  0.4117  0.7528  1.8865
 8126SOL     OW35836   4.035   4.346   5.630 -0.1964  0.0122  0.5563
 8126SOL    HW135837   4.024   4.296   5.711 -1.0882  2.2502  1.8189
 8126SOL    HW235838   3.993   4.429   5.655  0.1666  0.2659  0.3163
 8127SOL     OW35839   3.865   3.971   2.119  0.4052  0.3770 -0.1914
 8127SOL    HW135840   3.823   4.011   2.043 -0.1309  0.9334  0.3855
 8127SOL    HW235841   3.839   4.039   2.183 -2.6667 -1.8362  0.9063
 8128SOL     OW35842   3.590   2.559   8.157  0.1011  0.2088 -0.2582
 8128SOL    HW135843   3.661   2.497   8.172 -1.0573 -1.5242 -1.9737
 8128SOL    HW235844   3.549   2.534   8.074 -1.5181  0.5033  0.4437
 8129SOL     OW35845   0.284   2.086  16.170  0.0615  0.1060  0.5290
 8129SOL    HW135846   0.361   2.133  16.203 -0.8635  1.1729  1.1757
 8129SOL    HW235847   0.303   1.993  16.184  1.2282  0.3077  0.3011
 8130SOL     OW35848   1.934   1.487   6.356 -1.0148 -0.4214  0.1427
 8130SOL    HW135849   1.894   1.573   6.364  0.3012  0.3249 -1.3243
 8130SOL    HW235850   2.020   1.509   6.392  0.7655 -4.4484 -1.6672
 8131SOL     OW35851   2.676   3.499  11.313 -0.0371 -0.3011 -0.2976
 8131SOL    HW135852   2.701   3.591  11.308  2.4361 -0.8776  1.3539
 8131SOL    HW235853   2.758   3.460  11.285  0.7767 -1.7580  4.0195
 8132SOL     OW35854   0.757   3.884   9.576 -0.1777 -0.1229 -0.9071
 8132SOL    HW135855   0.736   3.848   9.662  3.1706  2.5878  1.0636
 8132SOL    HW235856   0.835   3.832   9.561 -0.3322 -0.4773 -0.4622
 8133SOL     OW35857   0.191   1.542   2.647  0.1058 -0.1600 -0.1780
 8133SOL    HW135858   0.144   1.580   2.573 -1.3221  0.7787  1.2100
 8133SOL    HW235859   0.115   1.521   2.702 -0.3903  1.6921 -0.1735
 8134SOL     OW35860   2.125   1.324  12.137 -0.0756 -0.5543  0.2237
 8134SOL    HW135861   2.207   1.329  12.089 -0.7503 -0.7507 -0.9378
 8134SOL    HW235862   2.069   1.294  12.066 -0.4920  3.5033 -1.1120
 8135SOL     OW35863   2.531   0.826   4.509 -0.3561 -0.6864 -0.1605
 8135SOL    HW135864   2.490   0.757   4.456 -0.7056 -1.4054  1.0688
 8135SOL    HW235865   2.621   0.792   4.516 -0.3856 -1.1748 -2.0727
 8136SOL     OW35866   3.083   2.593   7.362  0.4221 -0.0009 -0.0489
 8136SOL    HW135867   3.146   2.554   7.301 -1.9120 -1.0479 -1.7822
 8136SOL    HW235868   3.001   2.546   7.347  1.6082 -2.0734  0.0644
 8137SOL     OW35869   2.286   1.641   2.768 -0.2350 -0.2860 -0.0678
 8137SOL    HW135870   2.344   1.571   2.738 -1.0114 -0.2720 -1.6027
 8137SOL    HW235871   2.341   1.682   2.835  1.1558 -1.7273 -0.3221
 8138SOL     OW35872   0.104   1.183  10.859 -0.2206  0.3086  0.2014
 8138SOL    HW135873   0.185   1.225  10.831  1.1572 -2.2226  0.3784
 8138SOL    HW235874   0.139   1.098  10.887 -0.9158  0.4406  1.4774
 8139SOL     OW35875   1.170   3.403   2.380 -0.2683  0.5841  0.5382
 8139SOL    HW135876   1.252   3.359   2.401 -0.4479  1.1164  2.2836
 8139SOL    HW235877   1.167   3.479   2.437 -0.9531  1.9062 -1.2677
 8140SOL     OW35878   0.406   1.035   8.852 -0.4494  0.2108 -0.0148
 8140SOL    HW135879   0.376   1.048   8.761  1.8605  0.1144 -0.7806
 8140SOL    HW235880   0.331   0.987   8.887  0.6791 -0.5630  1.3187
 8141SOL     OW35881   2.734   0.937   9.786 -0.2978 -0.4301  0.1939
 8141SOL    HW135882   2.803   0.943   9.720 -0.7540  1.1962 -0.1129
 8141SOL    HW235883   2.656   0.933   9.732 -1.1433  0.4038  1.3547
 8142SOL     OW35884   2.721   3.106   3.406 -0.5123 -0.0759  0.9786
 8142SOL    HW135885   2.681   3.026   3.372  0.8975  0.0218 -0.9164
 8142SOL    HW235886   2.726   3.143   3.318  1.1482 -0.2487  0.9982
 8143SOL     OW35887   0.502   0.794   3.775 -0.4125  0.1512  0.7706
 8143SOL    HW135888   0.448   0.805   3.697  0.6506 -0.5135 -0.0582
 8143SOL    HW235889   0.568   0.855   3.742  0.1354 -0.9010 -0.0958
 8144SOL     OW35890   1.795   3.522   6.388  0.3339 -0.1899  0.4345
 8144SOL    HW135891   1.763   3.561   6.469 -0.8007 -0.1947 -0.0198
 8144SOL    HW235892   1.713   3.517   6.339  0.1594  1.5788  0.5410
 8145SOL     OW35893   2.032   1.532  16.948  0.3647  0.1657 -0.6637
 8145SOL    HW135894   2.119   1.491  16.949  1.4980  2.6676  2.4883
 8145SOL    HW235895   1.979   1.465  16.993  0.6317  1.1424  1.1010
 8146SOL     OW35896   3.700   0.149   7.009  0.2800 -0.6339  0.1499
 8146SOL    HW135897   3.615   0.116   7.037 -0.1456 -0.1901 -0.6168
 8146SOL    HW235898   3.750   0.109   7.080  1.8295  1.8556  0.4502
 8147SOL     OW35899   4.351   3.695  16.414  0.2685  0.0780 -0.1039
 8147SOL    HW135900   4.295   3.751  16.467  0.9129 -0.2925  0.9732
 8147SOL    HW235901   4.316   3.607  16.428 -1.2542  0.4358 -1.7384
 8148SOL     OW35902   2.041   1.853  11.694 -0.1658 -0.3823 -0.1754
 8148SOL    HW135903   1.972   1.839  11.759 -0.3101  0.5457 -0.1305
 8148SOL    HW235904   1.998   1.895  11.620  2.5650  1.3625 -0.7591
 8149SOL     OW35905   2.405   3.022   9.263 -0.5501  0.3362 -0.7953
 8149SOL    HW135906   2.448   3.056   9.184 -0.8812 -2.5357 -2.2158
 8149SOL    HW235907   2.436   2.931   9.262 -0.8190  0.2651 -2.9205
 8150SOL     OW35908   4.653   4.593  10.905  0.1722 -0.6577 -0.3882
 8150SOL    HW135909   0.001   4.656  10.915  1.1391 -1.6288 -1.2435
 8150SOL    HW235910   4.660   4.539  10.984 -0.9568  0.6302  0.6053
 8151SOL     OW35911   2.693   4.233   2.556 -0.4110 -0.3621 -0.3549
 8151SOL    HW135912   2.723   4.311   2.603  0.2250  0.2948 -1.8318
 8151SOL    HW235913   2.635   4.274   2.492 -1.2022  0.9520  1.1928
 8152SOL     OW35914   1.095   0.876   4.633 -0.0665 -0.1901  0.1136
 8152SOL    HW135915   1.126   0.933   4.703 -1.1572  2.3919 -1.5245
 8152SOL    HW235916   1.049   0.807   4.681  0.1949  2.0752  3.6122
 8153SOL     OW35917   1.568   1.546  11.621  0.2863 -0.3628 -0.1920
 8153SOL    HW135918   1.655   1.580  11.598  1.1609 -1.5179  1.3437
 8153SOL    HW235919   1.585   1.522  11.713  1.4513  1.3536  0.0345
 8154SOL     OW35920   3.762   2.648   6.304  0.2155 -0.7496 -0.4527
 8154SOL    HW135921   3.767   2.742   6.286 -0.4256  0.2513  4.6524
 8154SOL    HW235922   3.670   2.645   6.331  0.7086  1.2282  1.3833
 8155SOL     OW35923   4.238   0.276   5.465 -0.1493  0.3329  0.1285
 8155SOL    HW135924   4.236   0.234   5.550 -1.0012  0.0029 -0.0591
 8155SOL    HW235925   4.267   0.365   5.487  1.0096 -0.3741  1.4720
 8156SOL     OW35926   2.477   0.161   4.818 -0.4565  0.0669 -0.2011
 8156SOL    HW135927   2.516   0.248   4.811 -0.0504  0.0807  1.9949
 8156SOL    HW235928   2.429   0.164   4.735  0.5327 -0.5380 -0.7875
 8157SOL     OW35929   0.269   4.109   8.276  0.3068  0.4115 -0.1347
 8157SOL    HW135930   0.319   4.141   8.350 -0.2872 -0.7433  0.7655
 8157SOL    HW235931   0.249   4.191   8.231  1.7336  1.1669  0.6279
 8158SOL     OW35932   1.161   4.146   5.884  0.4655 -0.2267 -0.8731
 8158SOL    HW135933   1.131   4.084   5.951 -0.1851 -0.0278 -0.9734
 8158SOL    HW235934   1.255   4.130   5.883  0.5893  0.4264  1.1030
 8159SOL     OW35935   2.438   4.472   9.784 -0.6007  0.3683 -0.1137
 8159SOL    HW135936   2.524   4.510   9.801 -0.8911  1.4681 -1.0574
 8159SOL    HW235937   2.410   4.525   9.710  0.2460  0.0324 -0.6701
 8160SOL     OW35938   0.791   3.254  15.131  0.1938 -0.2154  0.3462
 8160SOL    HW135939   0.759   3.207  15.053  1.4945 -2.5905  1.2602
 8160SOL    HW235940   0.763   3.196  15.201  1.5739 -1.2743  0.0365
 8161SOL     OW35941   1.514   1.140  12.627  0.4840  0.4437  0.3644
 8161SOL    HW135942   1.424   1.120  12.651 -0.0710 -0.2009 -2.2772
 8161SOL    HW235943   1.555   1.124  12.711  0.1800  1.2227  0.6646
 8162SOL     OW35944   0.992   0.699   5.721  0.9342 -0.6576 -0.2185
 8162SOL    HW135945   0.935   0.668   5.650 -0.4109  2.8849 -0.6989
 8162SOL    HW235946   1.063   0.635   5.716  1.5979  0.0583  0.2036
 8163SOL     OW35947   4.570   4.549   0.130 -0.1270 -0.3833 -0.5206
 8163SOL    HW135948   4.541   4.539   0.040 -0.1025 -2.6608 -0.2583
 8163SOL    HW235949   4.644   4.608   0.118  0.7832 -1.4471 -0.1450
 8164SOL     OW35950   3.454   0.890   7.250 -0.0729  0.1826  0.0745
 8164SOL    HW135951   3.403   0.810   7.238 -0.9466  1.1600 -2.5981
 8164SOL    HW235952   3.517   0.843   7.306 -1.6297 -0.0373  1.6287
 8165SOL     OW35953   2.925   3.648  16.660 -0.0290  0.0181 -0.0135
 8165SOL    HW135954   2.851   3.611  16.611 -0.7905  0.3105  0.9140
 8165SOL    HW235955   2.958   3.708  16.594 -0.1349  0.3793  0.2633
 8166SOL     OW35956   3.894   4.294   4.256  0.2674 -0.5919  0.1703
 8166SOL    HW135957   3.922   4.377   4.216  1.1857 -1.0570 -0.1453
 8166SOL    HW235958   3.950   4.302   4.333  0.3495 -0.0825  0.0574
 8167SOL     OW35959   1.499   1.101   4.824  0.6145 -0.1961  0.2532
 8167SOL    HW135960   1.429   1.076   4.884 -1.2612  1.8654 -1.1054
 8167SOL    HW235961   1.513   1.015   4.783 -0.4703 -0.5934  0.7233
 8168SOL     OW35962   1.167   1.189  11.283  0.3862  0.2299 -0.9605
 8168SOL    HW135963   1.106   1.235  11.226 -0.0094 -1.2967 -1.7555
 8168SOL    HW235964   1.205   1.262  11.333 -1.1804  0.8017 -0.6001
 8169SOL     OW35965   1.441   1.046   9.504  0.1593  0.5412  0.2671
 8169SOL    HW135966   1.452   1.029   9.410 -2.1697 -0.6676  0.2305
 8169SOL    HW235967   1.529   1.075   9.529  0.0737 -0.7840  2.0669
 8170SOL     OW35968   3.882   4.375  12.420  0.6287 -0.3845 -0.2913
 8170SOL    HW135969   3.952   4.354  12.483  0.5554  3.8617  1.1623
 8170SOL    HW235970   3.836   4.292  12.406  0.8652 -0.5753  0.0645
 8171SOL     OW35971   3.027   4.621   0.407 -1.0443 -0.0711  0.2775
 8171SOL    HW135972   3.029   4.697   0.349  0.5991  0.2675  0.7904
 8171SOL    HW235973   2.962   4.655   0.469  0.6063  1.5093  1.1403
 8172SOL     OW35974   1.795   2.078  13.566 -0.1539 -0.2960 -0.0696
 8172SOL    HW135975   1.709   2.037  13.576 -0.0230 -0.4007  0.5782
 8172SOL    HW235976   1.837   2.007  13.613  1.1631  0.8658  0.4980
 8173SOL     OW35977   3.954   4.521  15.529 -0.0271 -0.3901  0.0670
 8173SOL    HW135978   3.996   4.440  15.502  0.4699 -0.7893  2.1245
 8173SOL    HW235979   3.984   4.539  15.618 -0.8360 -0.6834  0.3955
 8174SOL     OW35980   3.402   2.598  17.325 -0.1875  0.3981  0.2767
 8174SOL    HW135981   3.333   2.589  17.390 -2.8754  1.0637 -2.4782
 8174SOL    HW235982   3.477   2.558  17.368 -0.7784  0.6412  1.5108
 8175SOL     OW35983   1.607   4.287   2.840  0.3889  0.0320  0.4823
 8175SOL    HW135984   1.530   4.279   2.783 -1.2703  0.2011  2.7088
 8175SOL    HW235985   1.611   4.202   2.883  1.5068  0.0992  0.5021
 8176SOL     OW35986   2.973   2.895   7.336  0.6624 -0.1845 -0.7568
 8176SOL    HW135987   3.000   2.818   7.384  0.4383  1.0005  1.2872
 8176SOL    HW235988   3.048   2.954   7.346  0.8791 -0.3945 -1.1378
 8177SOL     OW35989   1.150   0.746   4.165  0.0696 -0.0498 -0.0819
 8177SOL    HW135990   1.135   0.719   4.255  1.9588 -0.0854  0.2250
 8177SOL    HW235991   1.084   0.816   4.162 -0.7719 -0.8699 -0.4800
 8178SOL     OW35992   3.148   3.523   4.983  0.2037  0.0409 -0.0314
 8178SOL    HW135993   3.233   3.567   4.977  0.8377 -1.2268 -0.2540
 8178SOL    HW235994   3.091   3.589   5.023  1.4915  1.3826 -0.4129
 8179SOL     OW35995   3.956   1.885  11.657  0.1274  0.1224  0.1352
 8179SOL    HW135996   3.971   1.795  11.687  2.3755 -0.1287 -1.7702
 8179SOL    HW235997   3.889   1.862  11.593  0.6575 -4.3750  1.1461
 8180SOL     OW35998   1.831   4.374   2.655 -0.4179  0.0289  0.0190
 8180SOL    HW135999   1.753   4.380   2.711  0.6724  2.2563  1.3107
 8180SOL    HW236000   1.879   4.298   2.685  0.7587  0.2104 -1.4117
 8181SOL     OW36001   3.480   3.303   8.300 -0.5500 -0.2648  0.0076
 8181SOL    HW136002   3.503   3.230   8.241 -0.9134 -1.7268  1.6701
 8181SOL    HW236003   3.533   3.379   8.277  1.6308 -1.5027  0.9245
 8182SOL     OW36004   3.533   0.395   5.390  0.2135  0.5791 -0.0669
 8182SOL    HW136005   3.470   0.467   5.387 -0.6489 -0.2289 -1.4811
 8182SOL    HW236006   3.522   0.380   5.484 -1.8163  1.3780 -0.1891
 8183SOL     OW36007   0.022   3.496   5.093  0.4472 -1.0724  0.0688
 8183SOL    HW136008   0.104   3.543   5.112  0.6966 -0.7364 -1.8527
 8183SOL    HW236009   4.708   3.488   5.181 -1.9658  3.1444 -0.5676
 8184SOL     OW36010   1.687   2.982   3.318  0.0190  0.0598  0.3276
 8184SOL    HW136011   1.661   3.073   3.304 -1.9580 -0.2077  2.1957
 8184SOL    HW236012   1.781   2.976   3.298 -0.5675 -1.9116 -1.8260
 8185SOL     OW36013   2.972   2.355   2.842  0.6567  0.3564 -0.4356
 8185SOL    HW136014   3.031   2.334   2.915 -0.0544 -0.2797 -0.0373
 8185SOL    HW236015   2.917   2.276   2.834  2.4716 -1.2097  2.4399
 8186SOL     OW36016   1.314   4.618  17.635  0.0849  0.2548 -0.1895
 8186SOL    HW136017   1.272   4.653   0.018 -0.2211 -0.9182  0.1852
 8186SOL    HW236018   1.244   4.562  17.600  2.1611 -1.7449 -1.1419
 8187SOL     OW36019   2.212   1.167   3.506 -0.4204  0.1410  0.3612
 8187SOL    HW136020   2.189   1.256   3.531  2.3782  0.5756  1.3915
 8187SOL    HW236021   2.263   1.132   3.578  1.5596  0.6383 -0.7983
 8188SOL     OW36022   4.407   2.074   2.772 -0.4848 -0.1769 -0.6042
 8188SOL    HW136023   4.381   2.166   2.773  1.4496  0.3757 -2.7973
 8188SOL    HW236024   4.326   2.033   2.740  2.1467 -3.2863 -3.3396
 8189SOL     OW36025   1.408   3.686  15.183  0.9198  0.1491 -0.5234
 8189SOL    HW136026   1.440   3.604  15.145 -2.4184 -2.3155  1.9752
 8189SOL    HW236027   1.419   3.750  15.113 -1.0980  0.1127 -0.8765
 8190SOL     OW36028   4.275   2.201  11.089 -0.0497 -0.2644  0.0082
 8190SOL    HW136029   4.275   2.108  11.064 -0.7151 -0.4923  0.8903
 8190SOL    HW236030   4.195   2.225  11.043 -0.3644 -0.6633  0.3514
 8191SOL     OW36031   4.417   3.954  11.804  0.2070 -0.2739  0.4167
 8191SOL    HW136032   4.486   3.973  11.740 -0.5811  2.0768  0.2666
 8191SOL    HW236033   4.344   4.008  11.774  0.9388 -1.7048 -3.9481
 8192SOL     OW36034   0.960   0.664  13.332 -0.4548  0.5069  0.2232
 8192SOL    HW136035   0.960   0.569  13.333  2.6554  0.5230  0.6858
 8192SOL    HW236036   1.045   0.683  13.293 -1.1036  1.1981 -0.8713
 8193SOL     OW36037   3.286   1.215  11.919  0.1475 -0.3934 -0.0641
 8193SOL    HW136038   3.302   1.124  11.942 -0.3793 -0.4224  0.1681
 8193SOL    HW236039   3.375   1.250  11.908 -0.1909  0.4554 -0.0615
 8194SOL     OW36040   4.664   1.592   2.775 -0.4566  0.0923 -0.1381
 8194SOL    HW136041   4.652   1.575   2.682 -3.2397 -2.1897  0.6649
 8194SOL    HW236042   4.654   1.687   2.771  1.8384  0.3222 -0.9113
 8195SOL     OW36043   3.576   1.249   3.858 -0.4086  0.8124 -0.6278
 8195SOL    HW136044   3.587   1.266   3.952  0.5281 -1.7239 -0.2635
 8195SOL    HW236045   3.481   1.242   3.851 -0.5808  1.0029  1.4852
 8196SOL     OW36046   0.256   2.532  16.399  0.7350  0.2366  0.4500
 8196SOL    HW136047   0.332   2.473  16.401  1.5053  1.1780 -1.1449
 8196SOL    HW236048   0.287   2.618  16.428  1.7853  0.3119 -0.9498
 8197SOL     OW36049   1.687   2.743   2.478 -0.8526  0.0807  0.0907
 8197SOL    HW136050   1.778   2.735   2.448  0.0420  0.0686  2.7778
 8197SOL    HW236051   1.663   2.670   2.422 -1.4634 -0.8577  1.5939
 8198SOL     OW36052   0.886   2.628  15.873 -0.1970  0.9264 -0.3455
 8198SOL    HW136053   0.796   2.659  15.869 -0.5933 -0.1177  0.7245
 8198SOL    HW236054   0.925   2.698  15.926  0.7105 -0.0814  0.3210
 8199SOL     OW36055   0.370   2.808   3.451  0.2274 -0.0591  0.1600
 8199SOL    HW136056   0.344   2.777   3.538 -0.3535 -0.9499 -0.3257
 8199SOL    HW236057   0.414   2.731   3.413 -2.7497 -2.4474  1.5369
 8200SOL     OW36058   2.833   2.132   2.713 -0.0495  0.2043 -0.1941
 8200SOL    HW136059   2.853   2.051   2.759 -0.1907  0.1116 -0.2979
 8200SOL    HW236060   2.860   2.117   2.622  0.0942  0.0689 -0.1284
 8201SOL     OW36061   1.258   1.655   8.335  0.3303 -0.1352  0.4079
 8201SOL    HW136062   1.288   1.682   8.248  0.2283 -2.7399 -0.4373
 8201SOL    HW236063   1.312   1.577   8.346 -1.7268 -1.4947  0.6269
 8202SOL     OW36064   1.585   2.498   3.665  0.4021  0.2668  0.4521
 8202SOL    HW136065   1.552   2.414   3.698  2.9717 -1.2398 -0.8242
 8202SOL    HW236066   1.600   2.473   3.574  0.6552  0.3727  0.4640
 8203SOL     OW36067   1.889   3.937  15.434 -0.9795 -0.0612  0.0696
 8203SOL    HW136068   1.796   3.955  15.444 -0.9070  0.7032 -0.7411
 8203SOL    HW236069   1.884   3.867  15.369  1.0377 -1.3623  1.3019
 8204SOL     OW36070   2.942   1.329  14.594 -0.1899  0.2745  0.2689
 8204SOL    HW136071   2.966   1.350  14.504 -1.8620 -0.8678 -0.4496
 8204SOL    HW236072   3.014   1.366  14.645 -0.7452  2.7946 -0.8146
 8205SOL     OW36073   2.039   1.646   3.123 -0.6882  0.5128  0.3986
 8205SOL    HW136074   2.054   1.601   3.040  1.1349  0.9257  0.5078
 8205SOL    HW236075   1.999   1.731   3.105  0.4640  0.8446 -0.5785
 8206SOL     OW36076   2.853   4.210   7.544  0.1144 -0.6301 -0.3723
 8206SOL    HW136077   2.834   4.237   7.455  1.0923  1.4229  0.0374
 8206SOL    HW236078   2.873   4.123   7.510  1.0682 -0.4626 -0.2381
 8207SOL     OW36079   2.511   1.657   1.358 -0.1143 -0.7238  0.5401
 8207SOL    HW136080   2.597   1.660   1.400 -0.0455 -3.5806  0.6383
 8207SOL    HW236081   2.538   1.694   1.274  1.3134 -3.4373 -0.2238
 8208SOL     OW36082   2.081   2.094  10.523 -0.0530 -0.2724 -0.1834
 8208SOL    HW136083   2.036   2.175  10.502  1.3608  0.5026 -0.2430
 8208SOL    HW236084   2.155   2.120  10.578  0.8429 -1.1610 -0.9665
 8209SOL     OW36085   4.204   2.586   0.847 -0.9351 -0.0618  0.0524
 8209SOL    HW136086   4.221   2.614   0.757 -1.8562 -0.8696 -0.3735
 8209SOL    HW236087   4.170   2.670   0.878  1.3255  0.8532  0.0999
 8210SOL     OW36088   4.496   1.816   7.632  0.3344 -0.3316 -0.5788
 8210SOL    HW136089   4.572   1.780   7.587  0.1283 -0.9428 -0.4435
 8210SOL    HW236090   4.528   1.898   7.669 -2.1530  0.6516 -0.5429
 8211SOL     OW36091   3.683   3.385   3.135  0.2083 -0.0495  0.0050
 8211SOL    HW136092   3.714   3.419   3.051 -1.0050 -0.5945 -0.6557
 8211SOL    HW236093   3.719   3.457   3.186  0.1134  0.2095 -0.2959
 8212SOL     OW36094   4.034   1.103   4.610 -0.4242 -0.4686  0.4348
 8212SOL    HW136095   4.045   1.008   4.607 -0.2242 -0.4443  0.4037
 8212SOL    HW236096   4.127   1.121   4.593 -0.4313 -0.6807  0.1737
 8213SOL     OW36097   1.115   2.573   6.664 -0.3499 -0.2269  0.2356
 8213SOL    HW136098   1.135   2.491   6.618  0.4145 -0.4588  0.9664
 8213SOL    HW236099   1.108   2.539   6.753 -2.3635 -1.2801 -0.3229
 8214SOL     OW36100   3.004   4.702  14.820 -0.0931  1.0115 -0.9767
 8214SOL    HW136101   3.012   4.686  14.914  2.0903  0.3577 -1.2706
 8214SOL    HW236102   3.089   0.016  14.797  0.5060  0.8569  0.9871
 8215SOL     OW36103   1.676   3.765  16.543  0.0708 -0.5699 -0.3129
 8215SOL    HW136104   1.590   3.722  16.553 -0.6488  1.1047  0.8019
 8215SOL    HW236105   1.735   3.689  16.545 -0.1486 -0.7234  0.9125
 8216SOL     OW36106   1.219   1.279   8.838 -0.5103  0.2586 -0.1155
 8216SOL    HW136107   1.223   1.313   8.927 -0.1603 -2.2609  0.8528
 8216SOL    HW236108   1.192   1.190   8.859 -1.9173  1.0398  1.3232
 8217SOL     OW36109   1.308   2.122   7.271 -0.1567  0.0642  0.2483
 8217SOL    HW136110   1.394   2.104   7.233  0.5397  0.8387  1.4695
 8217SOL    HW236111   1.264   2.166   7.197 -0.8623  0.3274  0.8276
 8218SOL     OW36112   3.081   2.406   0.999 -0.4760  0.0081  0.3693
 8218SOL    HW136113   3.104   2.407   0.906 -0.8313 -0.6906  0.2703
 8218SOL    HW236114   3.014   2.474   1.006 -1.6180 -1.1833  1.1295
 8219SOL     OW36115   2.090   3.851  11.505 -0.4516  0.5036 -0.8562
 8219SOL    HW136116   2.171   3.895  11.529  0.0503 -0.3808 -0.9274
 8219SOL    HW236117   2.130   3.771  11.473 -1.6979  0.7173 -2.9179
 8220SOL     OW36118   0.055   0.623   3.517 -0.0574  0.0214 -0.1279
 8220SOL    HW136119   0.141   0.640   3.479  0.7392  0.5581  1.8648
 8220SOL    HW236120   0.085   0.561   3.584  0.7831 -0.1719 -0.6749
 8221SOL     OW36121   0.612   1.154   7.604 -0.5404  0.1455 -0.3649
 8221SOL    HW136122   0.615   1.249   7.616  1.2567  0.0179  0.2286
 8221SOL    HW236123   0.523   1.154   7.569 -1.0005 -0.1244  0.7992
 8222SOL     OW36124   3.520   3.738  11.064  0.3834 -0.1063  0.5682
 8222SOL    HW136125   3.615   3.733  11.067  0.5370  1.6142 -1.6799
 8222SOL    HW236126   3.499   3.687  10.986  0.7932 -2.1802  1.8165
 8223SOL     OW36127   3.149   3.881   2.476 -0.7651 -0.2562  0.1696
 8223SOL    HW136128   3.091   3.806   2.465 -0.5546 -0.3244 -0.4702
 8223SOL    HW236129   3.230   3.840   2.507  0.1974  1.8609  0.4631
 8224SOL     OW36130   2.950   3.366   3.833  0.4216  0.4242  0.5196
 8224SOL    HW136131   2.869   3.392   3.878 -1.1943 -0.0739 -2.1154
 8224SOL    HW236132   2.931   3.360   3.740  0.5826  0.8925  0.4544
 8225SOL     OW36133   0.357   1.202   7.535 -0.2203 -0.4303 -0.4594
 8225SOL    HW136134   0.288   1.269   7.535 -0.2821 -0.4931 -0.9046
 8225SOL    HW236135   0.336   1.172   7.624  2.2475  0.8801  0.5500
 8226SOL     OW36136   0.594   3.444   3.258  0.1605 -0.0316 -0.3186
 8226SOL    HW136137   0.673   3.404   3.293 -0.1205 -0.3976 -0.0927
 8226SOL    HW236138   0.559   3.377   3.200  2.0019 -1.2596 -0.0092
 8227SOL     OW36139   2.453   4.361  16.098  0.1088  0.0473 -0.1711
 8227SOL    HW136140   2.466   4.455  16.113  0.8358  0.0434 -0.7544
 8227SOL    HW236141   2.360   4.349  16.117  0.7800 -1.3595  2.1999
 8228SOL     OW36142   0.160   3.754   6.324  0.3624  0.1058  0.1948
 8228SOL    HW136143   0.105   3.676   6.321  0.7081 -0.1296 -0.0575
 8228SOL    HW236144   0.235   3.723   6.375  0.9251 -0.8710 -1.2533
 8229SOL     OW36145   3.274   4.072   8.299 -0.3878  0.1889 -0.0528
 8229SOL    HW136146   3.348   4.074   8.360 -0.9189  0.4869  0.5867
 8229SOL    HW236147   3.314   4.027   8.225 -1.8871 -0.2958 -0.5589
 8230SOL     OW36148   3.293   3.905  12.386 -0.1192 -0.2183 -0.3528
 8230SOL    HW136149   3.242   3.858  12.452  1.3015  0.7607  1.4248
 8230SOL    HW236150   3.225   3.967  12.358 -0.0987  0.4240  1.0059
 8231SOL     OW36151   0.971   1.193   8.019  0.5250  0.1057 -0.8821
 8231SOL    HW136152   0.965   1.139   7.940  0.4096  0.4317 -1.0943
 8231SOL    HW236153   1.040   1.258   8.009  0.2164  0.4507 -0.7684
 8232SOL     OW36154   0.323   2.505   6.363 -0.2916 -0.8269 -0.0888
 8232SOL    HW136155   0.293   2.575   6.304  1.1190 -0.3406 -0.2337
 8232SOL    HW236156   0.278   2.430   6.326  0.6719 -0.3416 -2.2816
 8233SOL     OW36157   1.669   3.448   4.365  0.3175 -0.6533  0.0572
 8233SOL    HW136158   1.669   3.424   4.272 -0.0399  2.6597 -0.8070
 8233SOL    HW236159   1.627   3.377   4.412  1.3760 -2.6118 -1.9923
 8234SOL     OW36160   2.662   3.452   7.327  0.0632 -0.3176  0.4280
 8234SOL    HW136161   2.691   3.384   7.388 -1.8263 -0.8171  0.7772
 8234SOL    HW236162   2.741   3.477   7.279 -0.7022  1.5479  0.1698
 8235SOL     OW36163   2.728   1.557   2.518  0.1263 -0.3016 -0.2494
 8235SOL    HW136164   2.800   1.497   2.497  1.1536  0.2065  1.7800
 8235SOL    HW236165   2.715   1.606   2.437 -3.0327 -1.9523 -0.7259
 8236SOL     OW36166   2.587   0.915   8.539 -0.1122  0.0347  0.0629
 8236SOL    HW136167   2.607   0.867   8.458 -0.7913 -1.0283  0.5203
 8236SOL    HW236168   2.512   0.969   8.515 -0.5655 -0.6798 -0.1574
 8237SOL     OW36169   3.471   0.021   4.927  0.0663 -0.7290  0.1763
 8237SOL    HW136170   3.470   0.018   4.831  0.2110 -1.3320  0.1894
 8237SOL    HW236171   3.377   0.014   4.945 -0.1634 -1.7689 -1.4253
 8238SOL     OW36172   1.626   0.727   3.422 -0.1838 -0.0041  0.0890
 8238SOL    HW136173   1.679   0.723   3.501 -1.3454 -0.1760  0.8573
 8238SOL    HW236174   1.602   0.820   3.425 -2.2925 -0.4478 -2.5141
 8239SOL     OW36175   0.365   1.391   9.476 -0.5139  0.1749  0.0865
 8239SOL    HW136176   0.331   1.301   9.474 -1.8445  0.7022 -1.6613
 8239SOL    HW236177   0.322   1.424   9.554 -0.0825 -1.7709  1.1498
 8240SOL     OW36178   2.880   3.331   1.747  0.5156  0.3762 -0.3351
 8240SOL    HW136179   2.824   3.405   1.770  0.4812 -0.5844  2.7882
 8240SOL    HW236180   2.970   3.356   1.767  1.2483 -1.7617 -0.9323
 8241SOL     OW36181   1.314   2.475   3.933 -0.3085  0.0709  0.4297
 8241SOL    HW136182   1.359   2.539   3.989  0.6617  1.3181 -1.7629
 8241SOL    HW236183   1.380   2.407   3.921 -1.5726 -1.3402  1.6387
 8242SOL     OW36184   2.614   2.714   8.688 -0.2161 -0.0448  0.0286
 8242SOL    HW136185   2.557   2.646   8.723 -1.7475  1.1150 -0.1653
 8242SOL    HW236186   2.622   2.767   8.767  2.4046 -1.2941  0.5839
 8243SOL     OW36187   0.340   1.740  13.590 -0.7334  0.4172 -0.2254
 8243SOL    HW136188   0.330   1.684  13.513  1.0754 -1.8093  1.1454
 8243SOL    HW236189   0.286   1.688  13.649 -2.2239  2.0834 -0.1430
 8244SOL     OW36190   4.040   3.235   8.578 -0.0264 -0.6964 -0.2604
 8244SOL    HW136191   3.948   3.253   8.598  0.4295  0.4647  0.7900
 8244SOL    HW236192   4.078   3.230   8.666 -0.6941 -0.1176  0.0641
 8245SOL     OW36193   3.800   1.123   4.771  0.4224  0.0762  0.0102
 8245SOL    HW136194   3.789   1.207   4.728 -1.1647  0.8034  1.8757
 8245SOL    HW236195   3.884   1.095   4.734  0.6405  0.0329  0.5254
 8246SOL     OW36196   1.831   0.134  15.332 -0.0745  0.3511 -0.6093
 8246SOL    HW136197   1.796   0.199  15.393  0.7107  3.5995 -3.6377
 8246SOL    HW236198   1.919   0.171  15.324  0.0295  0.8510  2.6422
 8247SOL     OW36199   0.150   4.206   2.370 -0.0273 -0.2678 -0.1968
 8247SOL    HW136200   0.153   4.298   2.397 -0.8066  0.3379 -2.1558
 8247SOL    HW236201   0.058   4.181   2.376  0.4441 -1.9700  0.0237
 8248SOL     OW36202   1.262   0.220   4.650 -0.3831 -0.0014  0.7055
 8248SOL    HW136203   1.260   0.271   4.731  1.5238  0.7497  0.2889
 8248SOL    HW236204   1.269   0.290   4.585 -0.6774  1.4132  2.2010
 8249SOL     OW36205   4.586   1.456  16.534 -0.2462 -0.0712  0.0351
 8249SOL    HW136206   4.546   1.372  16.513 -0.4989  0.0984 -0.1582
 8249SOL    HW236207   4.681   1.440  16.531 -0.2210 -0.6663  4.0750
 8250SOL     OW36208   4.414   4.090   8.564  0.1303 -0.8699 -0.0325
 8250SOL    HW136209   4.393   4.143   8.640  1.0664 -0.2365 -0.2039
 8250SOL    HW236210   4.331   4.063   8.524 -0.8581  0.1363  1.3633
 8251SOL     OW36211   3.465   0.367   7.103 -0.0007 -0.2629  0.3391
 8251SOL    HW136212   3.463   0.323   7.188  1.8891 -0.8176  0.0925
 8251SOL    HW236213   3.396   0.433   7.107  1.9569  1.8644 -1.1033
 8252SOL     OW36214   2.257   3.367   1.166  0.2051 -0.3883  0.5435
 8252SOL    HW136215   2.331   3.403   1.215  1.0942  0.6043 -1.4960
 8252SOL    HW236216   2.193   3.438   1.174 -0.4237 -0.6500 -2.0241
 8253SOL     OW36217   4.274   2.692   0.594 -0.7551 -0.1014  0.3255
 8253SOL    HW136218   4.335   2.765   0.579 -0.9272 -0.0735 -0.2461
 8253SOL    HW236219   4.317   2.635   0.530  0.7660  1.4737 -0.0880
 8254SOL     OW36220   4.650   2.496   7.569  0.6169  0.5877 -0.0462
 8254SOL    HW136221   4.719   2.462   7.626  1.3100 -0.5496 -1.5575
 8254SOL    HW236222   4.610   2.562   7.625  0.0538  1.5638 -1.5897
 8255SOL     OW36223   0.118   0.721   1.484 -0.8466 -0.3006  0.3904
 8255SOL    HW136224   0.061   0.735   1.409 -1.3210 -0.8839  0.6420
 8255SOL    HW236225   0.047   0.705   1.547 -1.1732 -2.0411 -0.4272
 8256SOL     OW36226   2.568   3.615   2.060  0.5559 -0.4980  0.0915
 8256SOL    HW136227   2.588   3.522   2.069 -0.2476 -0.8248 -1.5025
 8256SOL    HW236228   2.474   3.623   2.074  0.3969 -0.8246 -0.7629
 8257SOL     OW36229   1.198   3.645   5.933 -0.3038 -0.2109  0.4350
 8257SOL    HW136230   1.215   3.714   5.869 -2.2573  0.8624  1.0518
 8257SOL    HW236231   1.224   3.572   5.878 -2.1280  1.6560 -2.9284
 8258SOL     OW36232   2.067   0.661   1.239 -0.1302 -0.1668 -0.3401
 8258SOL    HW136233   2.116   0.585   1.268  0.3176 -1.0731 -3.4561
 8258SOL    HW236234   2.015   0.671   1.319 -0.1928  1.7118 -0.6075
 8259SOL     OW36235   1.745   3.140   2.941  0.2069 -0.5772  0.2386
 8259SOL    HW136236   1.672   3.178   2.891 -0.1696  1.6315  2.4349
 8259SOL    HW236237   1.715   3.157   3.031  0.5529  0.3317  0.1877
 8260SOL     OW36238   0.190   4.419   6.410 -0.2716 -0.5128  0.0221
 8260SOL    HW136239   0.216   4.351   6.472 -0.5817  1.1439  1.9817
 8260SOL    HW236240   0.275   4.449   6.377 -0.3578 -0.1463  0.1318
 8261SOL     OW36241   4.286   4.179   0.388  0.1516 -0.5237  0.4621
 8261SOL    HW136242   4.329   4.260   0.359 -0.3477 -0.7808 -1.0166
 8261SOL    HW236243   4.274   4.191   0.482  2.0027 -1.8548  0.8714
 8262SOL     OW36244   3.279   3.255   3.296  0.2619 -0.3233 -0.4987
 8262SOL    HW136245   3.366   3.237   3.331  0.1935  0.8591  0.2781
 8262SOL    HW236246   3.294   3.334   3.245  1.9683 -1.1002 -1.1965
 8263SOL     OW36247   4.077   1.883   2.462  0.3285  0.3160  0.3259
 8263SOL    HW136248   4.113   1.894   2.374  0.1809 -1.1015  0.0883
 8263SOL    HW236249   4.062   1.977   2.477  2.2380  0.9789 -1.9235
 8264SOL     OW36250   1.652   0.455   2.408 -0.5635  0.0003 -0.0976
 8264SOL    HW136251   1.715   0.383   2.405 -1.1455 -0.3847 -2.7571
 8264SOL    HW236252   1.588   0.425   2.344 -2.1318  2.5886  0.2719
 8265SOL     OW36253   3.305   3.160   8.679 -0.2246  0.0426 -0.0919
 8265SOL    HW136254   3.390   3.163   8.635 -1.1516  0.6037 -1.8462
 8265SOL    HW236255   3.300   3.248   8.716 -2.7046  0.9485 -2.5475
 8266SOL     OW36256   0.730   1.534   1.180  0.3098 -0.1939  0.2821
 8266SOL    HW136257   0.786   1.526   1.102 -2.0880  1.2490 -1.5783
 8266SOL    HW236258   0.675   1.459   1.155  0.4843 -0.1697 -0.1656
 8267SOL     OW36259   2.143   3.770   5.474  0.0524  0.0195  0.1526
 8267SOL    HW136260   2.229   3.799   5.443  1.3286 -3.3618  0.5150
 8267SOL    HW236261   2.156   3.775   5.569 -1.2318  1.1680  0.2594
 8268SOL     OW36262   3.988   3.886   0.681  0.2344  0.3608 -0.4480
 8268SOL    HW136263   4.017   3.902   0.770  1.2060 -1.7910 -0.3898
 8268SOL    HW236264   4.078   3.886   0.650  0.4560 -2.2131  0.2322
 8269SOL     OW36265   1.923   0.134   4.676 -0.9357 -0.0746 -0.5069
 8269SOL    HW136266   1.997   0.107   4.729  0.8729  0.3450 -2.8305
 8269SOL    HW236267   1.893   0.052   4.637  2.0438 -1.5778  0.3799
 8270SOL     OW36268   3.625   4.429   6.684 -0.4771  0.1499  0.1512
 8270SOL    HW136269   3.654   4.419   6.594  2.6391  0.7429  1.0855
 8270SOL    HW236270   3.530   4.427   6.674 -0.5152 -0.7287  0.6938
 8271SOL     OW36271   0.664   3.648   8.496 -0.1595 -0.0382  0.7620
 8271SOL    HW136272   0.588   3.649   8.439  0.7330  1.4051 -0.4376
 8271SOL    HW236273   0.739   3.690   8.452 -1.8397  1.1911 -0.9098
 8272SOL     OW36274   1.099   1.843   0.334 -0.1401 -0.1016 -0.2739
 8272SOL    HW136275   1.106   1.836   0.238 -0.9557  1.6002 -0.4685
 8272SOL    HW236276   1.165   1.907   0.360 -0.4259 -0.2767  0.8452
 8273SOL     OW36277   1.027   4.074   8.913 -0.2270 -0.0599  0.2666
 8273SOL    HW136278   0.931   4.080   8.914 -0.3434 -1.7908  0.0203
 8273SOL    HW236279   1.050   4.052   9.003 -0.0643 -2.1281 -0.2696
 8274SOL     OW36280   0.835   1.459  16.921  0.4648 -0.2250 -0.3969
 8274SOL    HW136281   0.793   1.473  17.006  1.3837 -3.3322  0.5650
 8274SOL    HW236282   0.854   1.550  16.898  1.6797 -0.6653 -1.1286
 8275SOL     OW36283   1.624   0.656  12.860 -0.3520  0.2783 -0.3332
 8275SOL    HW136284   1.692   0.686  12.921  0.0411 -0.2160 -0.5262
 8275SOL    HW236285   1.653   0.689  12.775  0.1413  1.6095  0.3465
 8276SOL     OW36286   3.354   2.947  14.594 -0.5330  0.3002  1.0996
 8276SOL    HW136287   3.445   2.921  14.579 -1.0295 -0.9811  0.3131
 8276SOL    HW236288   3.313   2.866  14.625 -1.7656  0.7739  0.6948
 8277SOL     OW36289   4.366   3.974   5.181  0.2479  0.2474  0.1785
 8277SOL    HW136290   4.280   3.933   5.168  0.4272  0.6467 -2.2738
 8277SOL    HW236291   4.412   3.892   5.201  1.6297  0.2852 -2.7504
 8278SOL     OW36292   0.905   2.681   6.386  0.0042  0.0083  0.2764
 8278SOL    HW136293   0.831   2.627   6.416  1.5726 -0.6347  2.9920
 8278SOL    HW236294   0.985   2.631   6.401  1.3118  1.9955 -0.0883
 8279SOL     OW36295   2.395   4.418   4.423 -0.0961 -0.2310  0.1451
 8279SOL    HW136296   2.326   4.440   4.360 -0.6534 -0.6770  0.6026
 8279SOL    HW236297   2.415   4.505   4.458 -1.2303  0.4441 -0.8805
 8280SOL     OW36298   0.942   0.056   7.027  0.2471 -0.1211 -0.0126
 8280SOL    HW136299   0.957   0.025   6.938 -2.2441 -1.9618  0.2173
 8280SOL    HW236300   0.864   0.001   7.033  0.9896 -1.4038 -2.1268
 8281SOL     OW36301   0.630   2.198   3.892 -0.2348  0.4288 -0.2757
 8281SOL    HW136302   0.706   2.241   3.932 -0.2722  1.3475 -1.1888
 8281SOL    HW236303   0.674   2.123   3.850  0.7848 -0.5275  2.5135
 8282SOL     OW36304   4.237   4.450   8.144 -0.2664  0.8613 -0.0295
 8282SOL    HW136305   4.303   4.518   8.157  1.8147 -1.4622  1.4832
 8282SOL    HW236306   4.252   4.393   8.220  1.2291  2.4809  0.8818
 8283SOL     OW36307   2.238   4.211   7.663 -0.3589  0.2153 -0.3709
 8283SOL    HW136308   2.199   4.296   7.683 -0.8533  0.0131 -0.4747
 8283SOL    HW236309   2.256   4.174   7.750  0.1053 -1.2070 -1.0652
 8284SOL     OW36310   4.580   0.641  16.737 -0.0869  0.3797  0.2398
 8284SOL    HW136311   4.596   0.548  16.726  0.4667  0.4579  0.3894
 8284SOL    HW236312   4.660   0.672  16.781  1.5766 -1.6414 -1.3480
 8285SOL     OW36313   3.756   0.124   4.873  0.3866  0.4769  0.2924
 8285SOL    HW136314   3.767   0.099   4.965 -0.0876 -0.9029 -0.0289
 8285SOL    HW236315   3.736   0.217   4.884 -0.6582  0.4122 -1.0729
 8286SOL     OW36316   2.032   1.646   8.218 -0.5507 -0.0340 -0.9175
 8286SOL    HW136317   1.956   1.606   8.261 -0.0942  0.4819  0.3816
 8286SOL    HW236318   2.022   1.735   8.250 -1.6185 -0.7720  0.8510
 8287SOL     OW36319   1.463   0.053   5.960 -0.3663 -0.4508 -0.0639
 8287SOL    HW136320   1.453   0.002   6.040  0.6961  0.9876  0.9909
 8287SOL    HW236321   1.437   0.138   5.995 -0.1827 -0.6103  0.4617
 8288SOL     OW36322   1.281   4.050   0.333  0.6176 -0.1659 -0.0715
 8288SOL    HW136323   1.284   4.000   0.251 -0.0166  0.2418 -0.3361
 8288SOL    HW236324   1.191   4.082   0.330  0.9781  0.8362 -0.2816
 8289SOL     OW36325   0.791   2.992   2.115  0.6326  0.3837  0.0019
 8289SOL    HW136326   0.766   3.080   2.086  0.3470  0.0769 -0.6659
 8289SOL    HW236327   0.780   2.945   2.033  1.1507  0.4429 -0.1002
 8290SOL     OW36328   3.556   2.219   2.542  0.0247  0.0055  0.2477
 8290SOL    HW136329   3.632   2.191   2.592 -0.2362  3.2630  2.5182
 8290SOL    HW236330   3.546   2.148   2.479 -1.3439  0.6706 -0.3131
 8291SOL     OW36331   2.807   1.922   0.971  0.2774  0.2112 -0.2185
 8291SOL    HW136332   2.847   2.007   0.949 -0.0310  0.8792  1.8321
 8291SOL    HW236333   2.864   1.847   0.951 -1.1365 -0.7702 -0.5303
 8292SOL     OW36334   3.486   2.686   8.905 -0.0571 -0.5536 -0.3526
 8292SOL    HW136335   3.432   2.677   8.826 -2.4559 -1.1750  1.3544
 8292SOL    HW236336   3.455   2.605   8.946 -0.2948  0.6650  1.8770
 8293SOL     OW36337   0.939   3.974  13.282 -0.0673 -0.4291  0.4763
 8293SOL    HW136338   0.984   4.058  13.288  1.6266 -1.2043 -1.2572
 8293SOL    HW236339   1.007   3.911  13.260  2.9978  3.0906 -0.1545
 8294SOL     OW36340   2.500   4.081   9.000  0.2042  0.5917 -0.1503
 8294SOL    HW136341   2.413   4.111   8.974 -0.1291  0.8188  1.2622
 8294SOL    HW236342   2.557   4.155   8.979 -0.4849  1.6205  1.6315
 8295SOL     OW36343   2.643   3.656   8.572  0.1597 -0.5865  0.4167
 8295SOL    HW136344   2.620   3.707   8.650  1.5639  1.1788 -0.3273
 8295SOL    HW236345   2.557   3.617   8.556  0.4414 -0.3184 -1.7306
 8296SOL     OW36346   1.661   1.638   8.603 -0.3852  0.1997 -0.3389
 8296SOL    HW136347   1.645   1.558   8.553 -0.3632 -1.4953  2.3056
 8296SOL    HW236348   1.576   1.669   8.633  1.3176  2.2653  2.4622
 8297SOL     OW36349   0.387   2.653   7.806  0.3983  0.1505 -0.5659
 8297SOL    HW136350   0.434   2.589   7.753 -0.2120  0.5512 -1.6008
 8297SOL    HW236351   0.309   2.604   7.832  2.0487 -2.7442 -1.0133
 8298SOL     OW36352   2.665   0.654  16.084 -0.6547  0.2536 -0.0969
 8298SOL    HW136353   2.614   0.671  16.004  0.3536 -1.6050 -1.1316
 8298SOL    HW236354   2.729   0.597  16.043  1.7921  2.6690  0.3723
 8299SOL     OW36355   0.751   3.371   7.945  0.4986  0.8127 -0.3694
 8299SOL    HW136356   0.825   3.422   7.977 -0.2632  0.8638  1.2864
 8299SOL    HW236357   0.778   3.346   7.856  0.2124 -0.7333 -0.0147
 8300SOL     OW36358   4.632   1.737   3.964  0.0735 -0.3871  0.1422
 8300SOL    HW136359   4.702   1.681   3.997  0.0540 -0.6491 -0.2540
 8300SOL    HW236360   4.686   1.794   3.909  0.7098  0.1172  1.3072
 8301SOL     OW36361   2.493   4.566   0.983  0.4798 -0.3480  0.7469
 8301SOL    HW136362   2.564   4.546   0.922 -0.5168 -1.8617  0.0874
 8301SOL    HW236363   2.513   4.510   1.057 -4.0029 -1.1461  1.3608
 8302SOL     OW36364   3.144   0.538   7.488 -0.5613 -0.7388  0.7498
 8302SOL    HW136365   3.065   0.557   7.438  0.1324 -1.3832 -0.6170
 8302SOL    HW236366   3.172   0.620   7.528 -0.8689 -0.5731  0.6233
 8303SOL     OW36367   1.591   3.592   6.777 -0.1419  0.3841  0.3141
 8303SOL    HW136368   1.683   3.617   6.781  0.0081 -0.1895  0.3682
 8303SOL    HW236369   1.565   3.661   6.716  0.6975 -0.1154 -0.6012
 8304SOL     OW36370   0.933   3.966   1.828  0.2546  0.0044  0.2095
 8304SOL    HW136371   0.995   3.999   1.893  0.3082  0.1075  0.1080
 8304SOL    HW236372   0.978   4.009   1.754  1.2408 -1.1866  0.1139
 8305SOL     OW36373   1.076   4.402  16.365  0.1600 -0.0754  0.2519
 8305SOL    HW136374   1.062   4.394  16.460 -0.5989 -0.9267  0.0637
 8305SOL    HW236375   0.989   4.424  16.333  0.6614 -0.7510 -1.5656
 8306SOL     OW36376   4.687   4.549   5.413  0.6092 -0.6782 -0.1108
 8306SOL    HW136377   4.592   4.557   5.406  0.5807 -2.0944 -1.3149
 8306SOL    HW236378   4.713   4.479   5.354 -0.7066 -1.0182 -0.2706
 8307SOL     OW36379   2.076   1.740   1.711  0.3198 -0.5272  0.2025
 8307SOL    HW136380   2.151   1.681   1.710  0.7467  0.0062  0.9148
 8307SOL    HW236381   1.999   1.687   1.688 -1.4522  1.5980  1.2679
 8308SOL     OW36382   2.315   3.944   4.560 -0.5520  0.0588 -0.4567
 8308SOL    HW136383   2.355   4.014   4.611  1.0165 -1.0337 -0.1669
 8308SOL    HW236384   2.348   3.962   4.472 -0.5837 -0.5912 -0.6073
 8309SOL     OW36385   2.018   2.254   9.388 -0.3898  0.1307  0.2463
 8309SOL    HW136386   2.059   2.174   9.419  1.6462  1.2208  0.3570
 8309SOL    HW236387   1.982   2.235   9.301 -1.0118  0.4438  0.4316
 8310SOL     OW36388   2.322   4.189   2.319  0.3632  0.4433  0.1077
 8310SOL    HW136389   2.248   4.219   2.266 -2.0600 -0.6886  2.8820
 8310SOL    HW236390   2.285   4.111   2.360  1.2940  1.6662  3.3360
 8311SOL     OW36391   4.593   3.037   7.201 -0.0220 -0.1695  0.1046
 8311SOL    HW136392   4.630   3.007   7.118 -0.3035 -0.1828 -0.0138
 8311SOL    HW236393   4.505   3.070   7.186 -0.0278 -0.8477 -1.2759
 8312SOL     OW36394   3.314   3.713  11.264  0.0831  0.5583  0.5836
 8312SOL    HW136395   3.406   3.715  11.237 -0.2182  1.4708 -0.3418
 8312SOL    HW236396   3.274   3.637  11.221 -0.9871 -0.2683  3.0501
 8313SOL     OW36397   2.527   3.971   1.647  0.3372  0.5038 -0.3369
 8313SOL    HW136398   2.532   4.038   1.715 -0.6877 -0.1732  0.4012
 8313SOL    HW236399   2.477   3.907   1.698  1.9023 -1.0958 -0.8005
 8314SOL     OW36400   3.391   3.015   7.721  0.1808  0.5423 -0.2956
 8314SOL    HW136401   3.394   3.064   7.804 -2.0580 -0.7150  0.5424
 8314SOL    HW236402   3.485   3.014   7.706  0.2954  3.7851  0.1444
 8315SOL     OW36403   4.303   3.017   8.712  0.2062 -0.1389  0.0448
 8315SOL    HW136404   4.361   3.093   8.706 -0.3590  0.2847 -0.0158
 8315SOL    HW236405   4.231   3.057   8.761  0.6933 -1.3425  1.7509
 8316SOL     OW36406   3.428   0.237   1.731 -0.8556 -0.1945 -0.5163
 8316SOL    HW136407   3.418   0.282   1.815  0.5447  0.3241 -0.6295
 8316SOL    HW236408   3.379   0.158   1.754 -4.2305  2.3097  1.0758
 8317SOL     OW36409   3.462   4.465   5.260  0.3648  0.4458  0.5474
 8317SOL    HW136410   3.445   4.397   5.195  0.6770  2.2145 -1.3632
 8317SOL    HW236411   3.394   4.527   5.236  0.5724  0.0036 -1.1367
 8318SOL     OW36412   1.846   0.332   7.192  0.3446 -0.4693 -0.2873
 8318SOL    HW136413   1.790   0.264   7.230 -1.1622  0.6138 -0.5688
 8318SOL    HW236414   1.912   0.275   7.154  3.5194  2.1993  1.1971
 8319SOL     OW36415   1.570   1.075   7.462  0.2177  0.0610  0.0314
 8319SOL    HW136416   1.590   1.111   7.548 -0.0612  0.2163  0.0327
 8319SOL    HW236417   1.542   1.153   7.414 -0.1384  1.3837  2.4109
 8320SOL     OW36418   0.250   4.451   0.190 -0.2950 -0.1300  0.6695
 8320SOL    HW136419   0.205   4.367   0.193  2.2836 -1.5060  0.6861
 8320SOL    HW236420   0.333   4.420   0.154 -1.8847 -0.3803 -2.8443
 8321SOL     OW36421   1.209   1.864   6.446 -0.6665 -0.3935  0.1863
 8321SOL    HW136422   1.181   1.949   6.412  4.1394  1.0393 -0.2040
 8321SOL    HW236423   1.121   1.830   6.462 -1.9367  3.0482  0.3888
 8322SOL     OW36424   0.748   0.290  10.302 -0.1677  0.0397 -0.3052
 8322SOL    HW136425   0.753   0.385  10.303 -1.3776  0.1480 -3.1688
 8322SOL    HW236426   0.838   0.257  10.302  0.6771  2.3314 -0.5794
 8323SOL     OW36427   1.914   3.928  13.982  0.9530 -0.3836  0.2395
 8323SOL    HW136428   1.928   3.873  14.059 -0.9331 -0.5155  0.4829
 8323SOL    HW236429   1.973   3.885  13.920  1.8808  0.9086  0.2406
 8324SOL     OW36430   3.867   2.534   5.717  0.3007  0.2290 -0.1546
 8324SOL    HW136431   3.903   2.523   5.805  1.2651 -0.4592 -0.6332
 8324SOL    HW236432   3.826   2.621   5.716  2.2748  1.1722  1.2607
 8325SOL     OW36433   0.462   1.404  15.837  0.3349 -0.8165 -0.5374
 8325SOL    HW136434   0.486   1.367  15.753  0.3000 -0.3969 -0.7309
 8325SOL    HW236435   0.407   1.479  15.812 -0.1319 -0.9527  0.0830
 8326SOL     OW36436   1.942   1.033   1.594  0.7507 -0.1206  0.1515
 8326SOL    HW136437   2.001   0.959   1.581  0.6563  0.3089 -2.6729
 8326SOL    HW236438   1.975   1.069   1.676 -0.7549 -1.4626  1.3550
 8327SOL     OW36439   4.068   0.242   3.736 -0.3631 -0.0852 -0.0201
 8327SOL    HW136440   4.016   0.303   3.788  0.1512 -0.4553  0.9274
 8327SOL    HW236441   4.139   0.228   3.798  0.2923  1.9614 -0.3065
 8328SOL     OW36442   1.593   3.075  15.481  0.4275  0.5498 -0.1332
 8328SOL    HW136443   1.612   3.160  15.439  0.0016 -0.1353 -1.7128
 8328SOL    HW236444   1.666   3.018  15.455 -1.7758 -1.3306 -2.1857
 8329SOL     OW36445   2.331   1.503   1.240  0.4265  0.0253  0.1449
 8329SOL    HW136446   2.396   1.538   1.301 -0.9716  0.2058  1.5374
 8329SOL    HW236447   2.281   1.583   1.221  2.2564  1.0130 -0.5546
 8330SOL     OW36448   3.242   2.745   3.975  0.9121  0.6896 -0.1629
 8330SOL    HW136449   3.330   2.758   3.939  1.2281  1.7638  0.9855
 8330SOL    HW236450   3.250   2.815   4.041 -2.3266  0.1431  0.7941
 8331SOL     OW36451   2.921   2.496   3.162  0.4918 -0.1214 -0.0530
 8331SOL    HW136452   2.839   2.470   3.205  1.1975  2.2378  2.7196
 8331SOL    HW236453   2.957   2.408   3.154  0.5265  0.0906 -2.0688
 8332SOL     OW36454   4.503   4.063   1.844  0.2676  0.7371 -0.1466
 8332SOL    HW136455   4.424   4.077   1.791 -0.6120 -0.7247  0.7937
 8332SOL    HW236456   4.577   4.054   1.783 -0.1651 -1.2052 -0.3833
 8333SOL     OW36457   4.241   4.102   1.748  0.2762  0.8371 -0.1890
 8333SOL    HW136458   4.196   4.112   1.832 -0.2953  0.6303 -0.4724
 8333SOL    HW236459   4.171   4.080   1.686 -0.7274 -1.9383  1.9663
 8334SOL     OW36460   1.740   4.534   4.326  0.3174  0.0524  0.1044
 8334SOL    HW136461   1.676   4.473   4.290  1.4079 -0.7559 -0.4913
 8334SOL    HW236462   1.763   4.583   4.247 -0.6387  0.2017 -0.0784
 8335SOL     OW36463   2.961   2.106  12.229 -0.5496  0.2362  0.5266
 8335SOL    HW136464   2.913   2.028  12.258  0.4641 -0.1842  1.0434
 8335SOL    HW236465   2.987   2.084  12.140  1.6254  1.3643  0.8967
 8336SOL     OW36466   2.881   4.314   0.728 -0.0611  0.2910  0.2373
 8336SOL    HW136467   2.862   4.243   0.668  3.0454 -1.5405  1.4538
 8336SOL    HW236468   2.930   4.380   0.679 -1.0196  1.1568  0.4402
 8337SOL     OW36469   2.107   2.790  13.285 -0.4652 -0.6932  0.0796
 8337SOL    HW136470   2.014   2.773  13.271 -0.2565  1.1560 -3.4937
 8337SOL    HW236471   2.098   2.869  13.339 -1.9955 -0.2670 -0.7941
 8338SOL     OW36472   3.975   1.486   5.199 -0.5745 -0.7000  0.2434
 8338SOL    HW136473   4.051   1.543   5.212 -1.9969  1.2717 -0.0322
 8338SOL    HW236474   3.899   1.545   5.203 -1.0373 -1.1727 -1.7594
 8339SOL     OW36475   2.406   0.274  15.234 -0.2289 -0.1638 -0.3412
 8339SOL    HW136476   2.454   0.356  15.218 -0.4357 -0.3318 -1.8320
 8339SOL    HW236477   2.314   0.301  15.240  0.4829  2.4107 -0.8207
 8340SOL     OW36478   0.556   1.336   3.474  0.5539  0.2018  0.0520
 8340SOL    HW136479   0.463   1.325   3.451  0.6015 -0.0304 -0.0219
 8340SOL    HW236480   0.561   1.268   3.541  0.0520  0.1700  0.0624
 8341SOL     OW36481   2.745   3.015   6.716  0.2451 -0.5384  0.1954
 8341SOL    HW136482   2.787   3.099   6.698 -0.5571 -0.5346 -1.6193
 8341SOL    HW236483   2.654   3.046   6.720  0.3325 -0.3630  0.8615
 8342SOL     OW36484   4.329   2.359   8.541  0.1232 -0.4019 -0.1454
 8342SOL    HW136485   4.281   2.304   8.479 -1.9307 -1.0644  2.0391
 8342SOL    HW236486   4.404   2.306   8.568  2.2177  2.8349  0.4080
 8343SOL     OW36487   4.345   0.469   2.743  0.0499 -0.3184 -0.1848
 8343SOL    HW136488   4.432   0.479   2.782 -0.4612 -1.3522  1.1923
 8343SOL    HW236489   4.313   0.559   2.746 -0.3751 -0.4985  0.4254
 8344SOL     OW36490   2.547   2.902  17.648 -0.4654  0.8656  1.0294
 8344SOL    HW136491   2.482   2.882  17.581 -1.9329  0.4144  2.6014
 8344SOL    HW236492   2.627   2.923  17.599 -0.7152 -1.1692 -0.2730
 8345SOL     OW36493   0.638   0.399  12.897 -0.0506  0.3206  0.0153
 8345SOL    HW136494   0.720   0.373  12.855  0.4010  1.4323  0.2314
 8345SOL    HW236495   0.624   0.491  12.877 -0.0603  0.0798 -1.0639
 8346SOL     OW36496   3.322   1.159   4.971 -0.1173  0.4943 -0.0483
 8346SOL    HW136497   3.233   1.190   4.962 -0.1985  0.1643 -0.4062
 8346SOL    HW236498   3.368   1.192   4.894  1.6833 -2.7296 -0.3817
 8347SOL     OW36499   3.847   3.719   8.826 -0.0668  0.5009 -0.1999
 8347SOL    HW136500   3.924   3.773   8.846 -0.1747  0.3779  0.5404
 8347SOL    HW236501   3.892   3.640   8.796  0.9658  0.7347  0.7385
 8348SOL     OW36502   1.339   2.545   3.226 -0.1721 -0.0347 -0.2243
 8348SOL    HW136503   1.417   2.531   3.280  0.9588 -0.7720 -2.0363
 8348SOL    HW236504   1.340   2.641   3.217  0.3003  0.0666  0.9281
 8349SOL     OW36505   0.340   3.296   5.691  0.2599  0.6295 -0.4588
 8349SOL    HW136506   0.313   3.279   5.781  0.1558 -1.7800 -0.9225
 8349SOL    HW236507   0.267   3.354   5.667 -1.3114 -1.1459  0.0133
 8350SOL     OW36508   4.207   3.262  11.224 -0.6737 -0.6037 -0.4841
 8350SOL    HW136509   4.235   3.281  11.134 -0.2152  1.3540  0.0672
 8350SOL    HW236510   4.171   3.174  11.213 -1.5522 -0.4125  0.8850
 8351SOL     OW36511   2.611   1.599   7.116 -0.0889  0.5713  0.2642
 8351SOL    HW136512   2.548   1.640   7.175 -1.5509 -0.1196 -0.8269
 8351SOL    HW236513   2.581   1.646   7.039 -0.1304  0.9349  0.5030
 8352SOL     OW36514   1.929   1.897   3.139 -0.3036  0.9723  0.0426
 8352SOL    HW136515   1.967   1.984   3.124 -1.1015  1.4379  0.7212
 8352SOL    HW236516   1.864   1.895   3.069  2.1260 -2.2309 -2.0745
 8353SOL     OW36517   1.788   0.747   7.817  0.1453  0.2970  0.2357
 8353SOL    HW136518   1.757   0.802   7.744  3.2528  0.4127 -0.9685
 8353SOL    HW236519   1.709   0.740   7.871  1.5549 -1.9821  1.9373
 8354SOL     OW36520   4.623   0.873   2.777  0.2815 -0.2253  0.0209
 8354SOL    HW136521   4.671   0.951   2.747 -0.6658  0.6413  0.7344
 8354SOL    HW236522   4.680   0.848   2.850 -0.9466 -2.1188  0.3301
 8355SOL     OW36523   1.471   2.647  16.326  0.3803  0.2193 -0.1366
 8355SOL    HW136524   1.439   2.612  16.409  1.3795  1.0861  0.6074
 8355SOL    HW236525   1.557   2.680  16.352  0.4761 -0.3291  0.2442
 8356SOL     OW36526   1.129   0.534   1.877 -0.1194  0.4724  0.2407
 8356SOL    HW136527   1.102   0.625   1.862  0.7779  0.4000 -1.7472
 8356SOL    HW236528   1.142   0.486   1.796 -1.3541 -0.0153  0.3236
 8357SOL     OW36529   1.197   1.402   3.344  0.6490  0.6671 -0.3658
 8357SOL    HW136530   1.126   1.369   3.400  1.5150 -0.8838 -0.2104
 8357SOL    HW236531   1.193   1.346   3.267 -1.3764 -0.0675  0.2744
 8358SOL     OW36532   2.619   4.290   4.463 -0.4248 -0.0343  0.4038
 8358SOL    HW136533   2.675   4.321   4.392 -1.5868 -1.1634 -1.0303
 8358SOL    HW236534   2.532   4.313   4.429 -0.0456 -1.1561 -1.3450
 8359SOL     OW36535   2.868   2.653   2.730  0.4008  0.2156 -0.5769
 8359SOL    HW136536   2.842   2.704   2.807 -0.8346  1.8636 -2.0605
 8359SOL    HW236537   2.813   2.576   2.740 -2.2940  1.8898 -2.2745
 8360SOL     OW36538   3.479   1.553   9.280  0.0749  0.1162 -0.0301
 8360SOL    HW136539   3.475   1.461   9.256 -0.4887  0.3898 -0.9726
 8360SOL    HW236540   3.396   1.567   9.326  0.0689  0.7364 -0.2311
 8361SOL     OW36541   4.069   0.053   5.918  0.8064  0.3036 -0.2094
 8361SOL    HW136542   4.150   0.042   5.967  0.2554 -0.6565  0.4715
 8361SOL    HW236543   4.102   0.012   5.838  1.4589  2.1124 -0.8689
 8362SOL     OW36544   0.038   3.036   6.641  0.0445 -0.0207 -0.1189
 8362SOL    HW136545   0.121   3.027   6.593  0.7067 -2.7972  1.5091
 8362SOL    HW236546   0.041   2.956   6.693 -2.0039 -1.7128 -2.5802
 8363SOL     OW36547   3.214   4.252   6.447  0.4622  0.3227 -0.8004
 8363SOL    HW136548   3.248   4.210   6.368 -2.1677  0.1441 -1.8485
 8363SOL    HW236549   3.122   4.266   6.423 -0.2937  1.2331  2.6961
 8364SOL     OW36550   4.509   4.452   7.918  0.4449 -0.2540  0.5290
 8364SOL    HW136551   4.530   4.485   8.005 -1.7648 -0.3592  1.1204
 8364SOL    HW236552   4.583   4.394   7.898 -0.7122 -1.0468 -1.4563
 8365SOL     OW36553   0.401   0.418  10.914 -0.2687 -0.3183 -0.1876
 8365SOL    HW136554   0.415   0.392  11.005  3.6245  0.6128 -0.5067
 8365SOL    HW236555   0.474   0.479  10.905 -1.0856  0.8125  0.9747
 8366SOL     OW36556   0.064   1.836  11.171 -0.9979 -0.3637  0.6542
 8366SOL    HW136557   4.713   1.865  11.118  0.6588  2.6285 -0.0403
 8366SOL    HW236558   0.101   1.770  11.113  0.6084  1.9549 -0.9706
 8367SOL     OW36559   1.914   0.047   9.725  0.4395  0.2473  0.5515
 8367SOL    HW136560   1.897   4.681   9.754  2.4972 -0.2648  0.2092
 8367SOL    HW236561   1.833   0.072   9.681  1.0514 -0.7452 -1.1401
 8368SOL     OW36562   1.235   2.898   2.801  0.2165  0.7240  0.2353
 8368SOL    HW136563   1.301   2.871   2.864  1.2302 -0.1115 -1.1737
 8368SOL    HW236564   1.264   2.986   2.778 -2.1295  1.2003 -0.9470
 8369SOL     OW36565   2.829   0.730   6.278 -0.3770 -0.0127  0.0767
 8369SOL    HW136566   2.792   0.809   6.238 -0.6845 -0.4452 -0.4973
 8369SOL    HW236567   2.759   0.688   6.328  0.1541 -2.0055 -0.8425
 8370SOL     OW36568   3.237   2.821   3.691  0.1996 -0.0592  0.4650
 8370SOL    HW136569   3.188   2.895   3.655 -0.8077 -0.6646  0.5671
 8370SOL    HW236570   3.323   2.835   3.652  0.7797 -1.7123  1.1656
 8371SOL     OW36571   1.183   1.164  15.138  0.2179 -0.2701  0.2159
 8371SOL    HW136572   1.210   1.172  15.046 -3.6170 -0.1245 -0.9037
 8371SOL    HW236573   1.162   1.252  15.170 -2.0871 -0.5126 -0.6562
 8372SOL     OW36574   0.922   0.308  16.336  0.0293 -0.1250  0.9234
 8372SOL    HW136575   1.007   0.351  16.325 -1.1227  1.1705 -2.9150
 8372SOL    HW236576   0.866   0.383  16.356 -0.2883 -0.2879  0.6511
 8373SOL     OW36577   3.796   2.512   6.806 -0.0690 -0.2899 -0.4121
 8373SOL    HW136578   3.875   2.481   6.849 -1.0581 -1.6339  0.4263
 8373SOL    HW236579   3.728   2.465   6.854 -0.1000  1.1782  0.9729
 8374SOL     OW36580   1.156   2.970   7.859 -0.2398  0.3025 -0.0070
 8374SOL    HW136581   1.122   3.017   7.936  0.3044  2.3828 -1.0488
 8374SOL    HW236582   1.112   3.009   7.783 -0.0625  0.8889  0.1920
 8375SOL     OW36583   2.670   3.956  10.654 -0.3398  0.0015 -0.2717
 8375SOL    HW136584   2.749   3.989  10.612 -0.0591 -3.2672 -2.3221
 8375SOL    HW236585   2.707   3.907  10.728 -1.6533  0.9417  1.0038
 8376SOL     OW36586   2.802   4.072  16.391  0.4571  0.2130  0.3686
 8376SOL    HW136587   2.832   4.030  16.310 -0.9664  0.3440 -0.2108
 8376SOL    HW236588   2.777   4.155  16.351  1.9245  0.0620 -0.8927
 8377SOL     OW36589   1.850   2.185  15.643  0.2930 -0.1734  0.4341
 8377SOL    HW136590   1.811   2.135  15.715 -1.8068 -0.6089 -0.9881
 8377SOL    HW236591   1.775   2.207  15.588  1.6248 -0.8675 -1.6827
 8378SOL     OW36592   1.806   1.501   5.568  0.4108  0.5548  0.1410
 8378SOL    HW136593   1.816   1.511   5.662  0.1444 -1.8024  0.4177
 8378SOL    HW236594   1.748   1.572   5.540 -0.5188 -0.2702 -0.0180
 8379SOL     OW36595   1.946   3.807   3.680  0.3242 -0.1558  0.0254
 8379SOL    HW136596   1.864   3.805   3.729 -0.8765 -4.2855 -2.1566
 8379SOL    HW236597   1.923   3.777   3.592  0.5263  2.4903 -0.9062
 8380SOL     OW36598   4.397   0.327   3.436  0.0541 -0.3098  0.0536
 8380SOL    HW136599   4.472   0.323   3.377  2.0586  0.6664  2.5425
 8380SOL    HW236600   4.418   0.417   3.461  1.7849 -1.6776  3.4259
 8381SOL     OW36601   0.775   2.873  12.052  0.1299  0.5766  0.5344
 8381SOL    HW136602   0.713   2.928  12.005 -0.5517 -0.6452  0.0186
 8381SOL    HW236603   0.735   2.877  12.139 -0.5778  1.5203  0.1632
 8382SOL     OW36604   3.463   3.852  13.759  0.0385 -0.2407 -0.0184
 8382SOL    HW136605   3.462   3.827  13.667 -1.9446  1.3027 -0.4241
 8382SOL    HW236606   3.516   3.932  13.754  0.1223 -0.3519 -0.8450
 8383SOL     OW36607   2.293   4.270   3.941 -0.6858  0.4840 -0.0867
 8383SOL    HW136608   2.215   4.221   3.917 -0.3115 -0.5287  0.7648
 8383SOL    HW236609   2.257   4.291   4.027 -2.2392  1.1040 -0.8859
 8384SOL     OW36610   0.660   2.251   1.177 -0.1472 -0.7841 -0.2735
 8384SOL    HW136611   0.584   2.298   1.212 -0.4154 -3.1565  2.2495
 8384SOL    HW236612   0.630   2.161   1.170  0.1842 -0.9374  0.2753
 8385SOL     OW36613   2.651   1.847   6.306 -0.3823  0.0338  0.2137
 8385SOL    HW136614   2.639   1.940   6.327 -0.7928  0.7186 -3.0144
 8385SOL    HW236615   2.635   1.807   6.391 -0.3472  1.1111  0.7336
 8386SOL     OW36616   2.307   3.560   3.989  0.1615  0.2811 -0.0497
 8386SOL    HW136617   2.231   3.535   3.936  0.8342 -2.0992  0.1007
 8386SOL    HW236618   2.364   3.485   3.975 -0.3297  0.1106 -1.2230
 8387SOL     OW36619   1.916   0.616   4.755  0.3314 -0.5874  0.3851
 8387SOL    HW136620   1.888   0.526   4.739 -0.1112 -0.0836 -1.6724
 8387SOL    HW236621   1.995   0.608   4.701 -0.3769 -2.1565 -0.4233
 8388SOL     OW36622   0.291   2.514  10.032  0.1993  0.2012  0.3202
 8388SOL    HW136623   0.302   2.607  10.012  1.8807  0.3775  2.0196
 8388SOL    HW236624   0.380   2.489  10.005  0.0175 -0.1903  0.0865
 8389SOL     OW36625   1.718   2.014  12.723 -0.0216  0.2870  0.0171
 8389SOL    HW136626   1.783   2.082  12.741 -1.8399  2.5538 -2.0419
 8389SOL    HW236627   1.752   1.951  12.787 -0.5579 -0.3691 -0.3393
 8390SOL     OW36628   3.504   0.711   4.288 -0.1323  0.0329 -0.1215
 8390SOL    HW136629   3.411   0.690   4.276  0.0231 -1.6247  1.6190
 8390SOL    HW236630   3.507   0.789   4.233  0.0274 -0.1550 -0.3805
 8391SOL     OW36631   3.793   1.572  10.356 -0.1277 -0.1628  0.0481
 8391SOL    HW136632   3.769   1.612  10.272 -0.6380 -2.6018 -0.9927
 8391SOL    HW236633   3.716   1.589  10.410  0.9865  0.7413  1.3410
 8392SOL     OW36634   2.900   0.895   7.797 -0.4230  0.3223  0.3264
 8392SOL    HW136635   2.832   0.960   7.815 -0.1857 -0.6968  4.8479
 8392SOL    HW236636   2.871   0.822   7.851  0.7328 -0.5093 -0.1705
 8393SOL     OW36637   2.134   3.256   5.090  0.9446  0.6867 -0.1250
 8393SOL    HW136638   2.221   3.227   5.062  0.2124 -2.9031  1.2929
 8393SOL    HW236639   2.117   3.311   5.013  0.9296  0.5352 -0.2294
 8394SOL     OW36640   0.776   0.262  12.316 -0.9789  0.1397 -0.1787
 8394SOL    HW136641   0.821   0.320  12.378  2.1857  0.8714 -3.1433
 8394SOL    HW236642   0.794   0.179  12.360 -1.0363 -0.2355 -0.8611
 8395SOL     OW36643   4.678   0.096   8.982  0.1960 -0.3725  0.2393
 8395SOL    HW136644   4.661   0.098   8.888  0.4100  0.1357  0.2108
 8395SOL    HW236645   0.048   0.118   8.989  0.1062  0.1596 -0.2441
 8396SOL     OW36646   4.655   3.760   2.384 -0.3679  0.4375  0.0320
 8396SOL    HW136647   4.707   3.727   2.457 -2.6227 -0.9133  1.0162
 8396SOL    HW236648   4.698   3.728   2.304 -1.3205 -0.0689 -0.2831
 8397SOL     OW36649   3.387   4.243   7.167 -0.3831  0.0589  0.0345
 8397SOL    HW136650   3.423   4.192   7.239 -2.4862  1.4214  2.0510
 8397SOL    HW236651   3.304   4.268   7.206  0.1960  0.2247  1.1730
 8398SOL     OW36652   1.169   0.699  17.414 -0.1455 -0.3081 -0.2880
 8398SOL    HW136653   1.209   0.615  17.438 -2.0620 -0.7187  1.4809
 8398SOL    HW236654   1.207   0.713  17.327  2.3845 -2.3365  0.4717
 8399SOL     OW36655   4.022   2.160   6.396  0.6267 -0.2013 -0.2080
 8399SOL    HW136656   4.001   2.232   6.456  1.4235 -0.6589  0.6232
 8399SOL    HW236657   4.018   2.089   6.459  1.7564 -0.8679 -0.8942
 8400SOL     OW36658   1.740   0.063   6.144 -0.0163 -0.4845 -0.0282
 8400SOL    HW136659   1.735   0.075   6.238  1.1765 -0.8341  0.0802
 8400SOL    HW236660   1.751   0.153   6.111  1.7074  0.0433  2.0213
 8401SOL     OW36661   4.503   1.472   0.826  0.0799 -0.2678  0.6255
 8401SOL    HW136662   4.498   1.423   0.743 -0.7088 -0.1774  0.6144
 8401SOL    HW236663   4.586   1.518   0.813 -0.7757  0.9693 -0.4869
 8402SOL     OW36664   4.617   0.541   8.339 -0.5879  0.1668 -0.0672
 8402SOL    HW136665   4.572   0.563   8.420  0.0091  1.0847  0.0156
 8402SOL    HW236666   4.662   0.460   8.365 -0.5941  0.3963  0.6325
 8403SOL     OW36667   2.724   2.892  14.367  0.4922 -0.1587  0.2755
 8403SOL    HW136668   2.809   2.882  14.411 -0.8558  1.4729  3.2116
 8403SOL    HW236669   2.737   2.836  14.290 -0.2739  0.3494 -0.2190
 8404SOL     OW36670   3.026   0.128  15.277 -0.4369  0.2739  0.0844
 8404SOL    HW136671   3.017   0.215  15.240  0.4304  0.0391 -0.6973
 8404SOL    HW236672   3.018   0.076  15.197  0.7358 -1.1234  0.8762
 8405SOL     OW36673   2.473   3.711   5.880  0.5176 -0.4618  0.1984
 8405SOL    HW136674   2.500   3.666   5.799 -1.8728 -2.1425  0.3470
 8405SOL    HW236675   2.453   3.638   5.939 -1.9843 -0.3701 -0.5643
 8406SOL     OW36676   3.973   0.519   8.176 -0.0338  0.6995  0.2198
 8406SOL    HW136677   3.909   0.587   8.159 -0.6898 -0.1299 -0.6543
 8406SOL    HW236678   4.044   0.573   8.211  0.5332  0.0552  0.0872
 8407SOL     OW36679   3.097   3.052  17.016 -0.3761  0.0846 -0.1581
 8407SOL    HW136680   3.158   2.980  17.029 -1.2862 -0.1438  2.8125
 8407SOL    HW236681   3.014   3.005  17.025 -0.1238 -0.4408 -0.5932
 8408SOL     OW36682   0.115   3.948   2.164 -0.4218 -0.0289  0.2485
 8408SOL    HW136683   0.043   3.922   2.107  0.3850  0.8823 -1.1806
 8408SOL    HW236684   0.103   4.042   2.177  1.5415 -0.0046  1.9716
 8409SOL     OW36685   1.428   2.028  11.796 -0.1450 -0.5957  0.3416
 8409SOL    HW136686   1.474   1.996  11.718 -1.2921 -0.1822 -0.5024
 8409SOL    HW236687   1.343   2.026  11.751  0.6237  2.2320 -1.2294
 8410SOL     OW36688   3.660   2.131   4.633 -0.2435  0.0531 -0.1779
 8410SOL    HW136689   3.696   2.199   4.576  0.8510 -0.9902 -0.7214
 8410SOL    HW236690   3.725   2.061   4.632 -2.6565 -2.1348 -2.2293
 8411SOL     OW36691   1.407   0.592   6.990  0.4361 -0.1026  0.1084
 8411SOL    HW136692   1.475   0.559   6.931 -0.6084  0.2893 -1.3270
 8411SOL    HW236693   1.465   0.645   7.045 -0.3230  0.2815  0.5394
 8412SOL     OW36694   3.574   4.637   8.071  0.0685  0.0260 -0.2426
 8412SOL    HW136695   3.525   4.719   8.065 -0.3654 -0.1873  0.3934
 8412SOL    HW236696   3.566   4.611   7.979 -0.4835  0.5914 -0.3558
 8413SOL     OW36697   0.737   4.062   4.562  0.2059  0.2892  0.3763
 8413SOL    HW136698   0.737   4.064   4.466  0.7804  3.1482  0.4317
 8413SOL    HW236699   0.672   3.995   4.584 -0.1928  1.2102  2.0265
 8414SOL     OW36700   3.804   3.088   5.448 -0.6492 -0.8400  0.0622
 8414SOL    HW136701   3.832   2.998   5.462  1.5148 -0.3887 -1.3238
 8414SOL    HW236702   3.736   3.079   5.381 -2.3694 -0.0499  1.6948
 8415SOL     OW36703   3.371   1.922   4.222 -0.1782  0.4505 -0.1031
 8415SOL    HW136704   3.397   1.986   4.289 -2.5880  0.2443  1.0515
 8415SOL    HW236705   3.401   1.959   4.140 -0.5184  0.8112 -0.0693
 8416SOL     OW36706   4.252   1.477   4.517  0.4382  0.1300  0.2267
 8416SOL    HW136707   4.290   1.526   4.590  1.1879  0.9078 -0.6914
 8416SOL    HW236708   4.309   1.505   4.445  0.3831 -0.3939 -0.0205
 8417SOL     OW36709   3.206   2.794   9.177  0.3481 -0.0418 -0.6291
 8417SOL    HW136710   3.249   2.865   9.130 -0.3008  0.6208 -0.2250
 8417SOL    HW236711   3.236   2.714   9.134  0.8206  0.6150 -1.5229
 8418SOL     OW36712   3.419   1.977  11.007 -0.2831 -0.1947  0.1646
 8418SOL    HW136713   3.344   1.966  11.065 -0.8724  0.4420 -0.4718
 8418SOL    HW236714   3.443   1.885  11.015  0.7121  0.1569  1.1630
 8419SOL     OW36715   0.291   3.644   7.105  0.0429  0.5510  0.0575
 8419SOL    HW136716   0.374   3.597   7.101 -0.3713 -0.0763 -1.2767
 8419SOL    HW236717   0.312   3.723   7.056  0.3203  0.1870 -0.4134
 8420SOL     OW36718   1.359   0.356   6.078 -0.5287 -0.0049  0.4096
 8420SOL    HW136719   1.382   0.359   6.171 -1.5035  1.1453  0.5981
 8420SOL    HW236720   1.372   0.450   6.065 -2.6963  0.3318  0.7942
 8421SOL     OW36721   2.024   0.648  10.985  0.6157 -0.4101 -0.1624
 8421SOL    HW136722   1.959   0.578  10.985 -0.0412  0.1874  2.1030
 8421SOL    HW236723   1.975   0.728  11.000  1.2724 -0.2392  1.1625
 8422SOL     OW36724   2.631   4.115  15.280  0.0270 -0.0315  0.3139
 8422SOL    HW136725   2.538   4.098  15.266  0.1924  1.0944 -2.1149
 8422SOL    HW236726   2.658   4.077  15.197  1.4955  1.2954  0.1805
 8423SOL     OW36727   3.083   3.818   7.832 -0.0023  0.3778 -0.0394
 8423SOL    HW136728   3.106   3.756   7.762 -2.6826  0.8946 -1.4117
 8423SOL    HW236729   3.130   3.894   7.798 -0.4381  1.1504  1.0812
 8424SOL     OW36730   3.591   1.215  13.455  0.2105 -0.2723  0.1842
 8424SOL    HW136731   3.664   1.164  13.419 -0.1975 -0.2676 -0.6731
 8424SOL    HW236732   3.572   1.156  13.528  0.8409 -0.8510 -0.1198
 8425SOL     OW36733   4.492   0.787   6.654  0.6861 -0.3644  0.4742
 8425SOL    HW136734   4.577   0.796   6.697  0.6073 -0.5692  0.6737
 8425SOL    HW236735   4.486   0.691   6.657 -3.3852 -0.1347  0.3903
 8426SOL     OW36736   3.744   3.335  10.545 -0.2442 -0.0438  0.2000
 8426SOL    HW136737   3.733   3.405  10.610  3.5730  0.3233  0.4816
 8426SOL    HW236738   3.763   3.385  10.466  1.8434  1.4173  1.6104
 8427SOL     OW36739   2.143   4.224   4.183 -0.0966 -0.2344  0.2178
 8427SOL    HW136740   2.184   4.154   4.233 -0.3508 -0.7813 -0.3499
 8427SOL    HW236741   2.070   4.242   4.242 -0.7475 -0.0026 -0.6580
 8428SOL     OW36742   4.576   1.226   0.939  0.1690  0.0803 -0.0593
 8428SOL    HW136743   4.561   1.319   0.919 -1.9434 -0.3090 -0.2946
 8428SOL    HW236744   4.492   1.195   0.907  0.7233 -0.9273 -0.5341
 8429SOL     OW36745   1.785   3.850  14.961  0.4222 -0.0140 -0.4347
 8429SOL    HW136746   1.872   3.889  14.968 -0.0362  1.1320 -1.0413
 8429SOL    HW236747   1.737   3.925  14.925  0.9296  0.9109  0.8509
 8430SOL     OW36748   1.386   0.296   6.618  0.2065  0.6090 -0.5910
 8430SOL    HW136749   1.356   0.330   6.702  0.1110 -0.5758 -0.1481
 8430SOL    HW236750   1.300   0.278   6.580 -0.5128  0.3928  1.1211
 8431SOL     OW36751   4.625   1.774   0.501  0.3433  0.3003  0.1527
 8431SOL    HW136752   4.694   1.827   0.540 -0.8455  0.8129  1.5937
 8431SOL    HW236753   4.669   1.749   0.420 -2.0504  0.3493 -1.1893
 8432SOL     OW36754   0.718   0.565   7.412  0.0295  0.2669  0.3064
 8432SOL    HW136755   0.760   0.491   7.368 -1.7431 -0.5072 -0.0567
 8432SOL    HW236756   0.645   0.522   7.455  0.4566 -1.8567 -1.1114
 8433SOL     OW36757   0.952   4.104  11.807 -0.1146 -0.1978 -0.4427
 8433SOL    HW136758   0.873   4.056  11.784  0.8053 -2.5540  1.3390
 8433SOL    HW236759   0.975   4.053  11.885 -0.3668  1.2781  0.6077
 8434SOL     OW36760   1.817   4.228  17.375 -0.6095  0.4276 -0.4004
 8434SOL    HW136761   1.903   4.222  17.417 -1.3541  0.6821  1.1674
 8434SOL    HW236762   1.755   4.211  17.445 -0.1190 -0.7330 -0.2431
 8435SOL     OW36763   0.787   1.472   3.729 -0.0729  0.2782 -0.4099
 8435SOL    HW136764   0.718   1.522   3.686 -0.4181 -1.0800 -1.4299
 8435SOL    HW236765   0.781   1.527   3.807 -0.7115  0.5815 -0.6744
 8436SOL     OW36766   1.721   2.438   8.340  0.1704 -0.0013 -0.2023
 8436SOL    HW136767   1.757   2.427   8.429  0.1238 -4.5858 -0.7413
 8436SOL    HW236768   1.628   2.446   8.362 -0.1949  0.3166 -1.8793
 8437SOL     OW36769   1.935   1.428   7.431 -0.0892  0.6726 -0.3568
 8437SOL    HW136770   2.022   1.458   7.459 -0.4007  0.6402  0.6593
 8437SOL    HW236771   1.893   1.512   7.452 -1.9273 -0.3075 -0.1365
 8438SOL     OW36772   1.813   2.439   0.436 -0.4527 -0.3750 -0.0512
 8438SOL    HW136773   1.885   2.481   0.483  0.1539 -1.6976  0.1848
 8438SOL    HW236774   1.750   2.440   0.508  0.3612 -2.4434  0.6651
 8439SOL     OW36775   1.202   4.154   8.005  0.1949 -0.2743  0.2209
 8439SOL    HW136776   1.116   4.162   7.964  0.8368  2.5631 -0.5377
 8439SOL    HW236777   1.181   4.197   8.088  0.2511  0.2524 -0.0378
 8440SOL     OW36778   2.104   4.533   6.297  0.0590 -0.1906  0.1779
 8440SOL    HW136779   2.048   4.515   6.372  1.5586 -1.6139  0.9608
 8440SOL    HW236780   2.181   4.498   6.342 -0.2008  0.1264  0.8691
 8441SOL     OW36781   3.157   1.514   1.656 -0.0013 -0.5794 -1.1289
 8441SOL    HW136782   3.113   1.591   1.692  2.4122  0.3607 -0.2104
 8441SOL    HW236783   3.235   1.532   1.708 -0.2295  0.6040 -1.1895
 8442SOL     OW36784   2.731   1.009  16.056  0.0457 -0.0774 -0.7002
 8442SOL    HW136785   2.818   1.048  16.057  0.1309 -0.2829 -0.2673
 8442SOL    HW236786   2.742   0.942  16.123 -2.7494  1.5026  1.3834
 8443SOL     OW36787   4.551   3.879   3.862  0.0706 -0.6574 -0.2955
 8443SOL    HW136788   4.505   3.849   3.784 -1.5268  1.0001  0.0065
 8443SOL    HW236789   4.631   3.828   3.848  1.0486  0.2713  1.9841
 8444SOL     OW36790   2.034   4.081  17.209 -0.3594 -0.1357 -0.2427
 8444SOL    HW136791   2.042   4.049  17.119  0.5421 -1.4527  0.3079
 8444SOL    HW236792   1.944   4.113  17.216 -0.5766 -0.5425 -1.0698
 8445SOL     OW36793   0.607   2.167   7.247 -0.3732  0.1779 -0.1771
 8445SOL    HW136794   0.661   2.218   7.187  0.3992  0.8815  1.1165
 8445SOL    HW236795   0.559   2.115   7.182 -1.6417 -0.5730  1.3718
 8446SOL     OW36796   1.523   3.801  13.122 -0.4868  0.0647 -0.5393
 8446SOL    HW136797   1.469   3.879  13.133  3.0537  2.3334  0.9942
 8446SOL    HW236798   1.504   3.780  13.031 -0.7678  1.4895 -0.8053
 8447SOL     OW36799   3.424   0.338   7.874 -0.3003  0.6688  0.5545
 8447SOL    HW136800   3.344   0.391   7.874 -1.3626 -0.9308 -0.3371
 8447SOL    HW236801   3.421   0.291   7.790  0.7875 -1.5376  1.7714
 8448SOL     OW36802   2.673   4.282   3.369  0.1249 -0.6437 -0.0371
 8448SOL    HW136803   2.683   4.310   3.460 -1.7210 -3.7068  1.0774
 8448SOL    HW236804   2.766   4.281   3.348  0.3460  0.0833  0.8570
 8449SOL     OW36805   0.702   0.702  15.232  0.1836 -0.4020  0.1412
 8449SOL    HW136806   0.625   0.646  15.227 -0.0356  0.1249 -2.0832
 8449SOL    HW236807   0.738   0.680  15.147  1.7135  0.1368  0.6425
 8450SOL     OW36808   0.583   1.983  13.378  0.3852 -0.1550  0.0575
 8450SOL    HW136809   0.632   1.921  13.433  2.2365  0.0139 -1.4188
 8450SOL    HW236810   0.645   2.056  13.367 -0.2803  0.0556 -2.3168
 8451SOL     OW36811   1.184   2.549  15.868 -0.4067 -0.3619  0.4719
 8451SOL    HW136812   1.200   2.626  15.813 -1.5289 -0.9275 -0.6717
 8451SOL    HW236813   1.269   2.535  15.908  0.9019 -0.3578 -2.2909
 8452SOL     OW36814   3.412   4.401   3.007  0.1822 -0.3593  0.0290
 8452SOL    HW136815   3.365   4.325   3.042 -1.2368 -0.9218 -3.0136
 8452SOL    HW236816   3.484   4.346   2.978 -1.3392 -0.9031 -2.8182
 8453SOL     OW36817   0.570   1.409  11.045 -0.4305  0.1571  0.0280
 8453SOL    HW136818   0.647   1.463  11.024  0.3419 -0.1891  1.9951
 8453SOL    HW236819   0.542   1.379  10.958  1.0435 -1.6977  0.1834
 8454SOL     OW36820   0.306   3.919   5.743 -0.1346  0.0968  0.3657
 8454SOL    HW136821   0.326   3.977   5.669 -0.1834  0.2994  0.5095
 8454SOL    HW236822   0.363   3.968   5.804  0.0478 -0.5071  0.6763
 8455SOL     OW36823   1.554   1.842   1.904 -0.2413  0.2747 -0.3545
 8455SOL    HW136824   1.565   1.758   1.859 -0.9504  0.2028 -0.3932
 8455SOL    HW236825   1.566   1.901   1.830  1.4282 -1.6468 -1.6304
 8456SOL     OW36826   1.675   0.083   3.561  0.1126 -0.3566  0.3348
 8456SOL    HW136827   1.671   0.155   3.625 -0.4241 -1.6283  1.7213
 8456SOL    HW236828   1.625   0.127   3.492 -1.9840 -0.9533  1.4583
 8457SOL     OW36829   0.038   4.488   2.051 -0.0421 -0.3940  0.1898
 8457SOL    HW136830   4.691   4.528   2.102 -0.0098 -0.3756  0.2209
 8457SOL    HW236831   0.042   4.405   2.099 -1.1073 -1.0640 -0.8966
 8458SOL     OW36832   3.110   2.135   2.578 -0.2129 -0.7512 -0.3206
 8458SOL    HW136833   3.060   2.172   2.506 -0.7279  0.8547  0.8552
 8458SOL    HW236834   3.061   2.163   2.655 -0.5391  1.6667 -1.4033
 8459SOL     OW36835   0.042   4.502   2.872  0.1916  0.1549  0.1481
 8459SOL    HW136836   4.714   4.538   2.944 -0.9931 -1.2225  0.0036
 8459SOL    HW236837   0.099   4.445   2.923 -0.5214  0.1427  0.9320
 8460SOL     OW36838   2.873   0.767   6.812  0.7401  0.4215 -0.1754
 8460SOL    HW136839   2.888   0.841   6.871  2.1463 -0.0621  0.0548
 8460SOL    HW236840   2.941   0.713   6.851  1.8096  1.5265 -0.4966
 8461SOL     OW36841   1.854   3.993   8.851 -0.2948 -0.7847  0.4975
 8461SOL    HW136842   1.887   4.048   8.780 -0.2599  0.2114  1.2931
 8461SOL    HW236843   1.768   4.033   8.862 -0.6631 -1.3563 -0.2796
 8462SOL     OW36844   0.174   3.324   0.014 -0.1655 -0.4986  0.3698
 8462SOL    HW136845   0.208   3.283  17.630 -0.0003 -0.9521  0.6732
 8462SOL    HW236846   0.185   3.254   0.079 -0.1912 -0.1071  0.7998
 8463SOL     OW36847   3.721   4.555   0.829  0.1111  0.2062  0.0205
 8463SOL    HW136848   3.633   4.583   0.805 -0.1948  0.2472  1.1682
 8463SOL    HW236849   3.711   4.543   0.924 -1.8467 -2.2118 -0.5157
 8464SOL     OW36850   4.395   2.350   6.591 -0.0076 -0.5717 -0.5146
 8464SOL    HW136851   4.376   2.259   6.612 -0.4693 -0.5797 -0.9732
 8464SOL    HW236852   4.428   2.344   6.501  1.5060 -3.1855  0.2045
 8465SOL     OW36853   0.127   2.622   4.323  0.1958 -0.7837  0.1390
 8465SOL    HW136854   0.165   2.708   4.337  1.3979 -1.0234 -1.7053
 8465SOL    HW236855   0.117   2.600   4.416 -0.8488  0.3822  0.3053
 8466SOL     OW36856   4.236   2.066   4.173  0.3146  0.3609  0.1448
 8466SOL    HW136857   4.206   2.071   4.082  3.0441  0.5581 -0.7449
 8466SOL    HW236858   4.251   1.971   4.174 -0.9318  0.1470 -1.0101
 8467SOL     OW36859   0.976   3.446   6.800 -0.1656 -0.2959 -0.3947
 8467SOL    HW136860   1.001   3.354   6.800  1.0426  0.0450  0.8596
 8467SOL    HW236861   1.042   3.477   6.739  1.9415 -0.8051  1.6502
 8468SOL     OW36862   2.026   0.489   5.646 -0.1363 -0.0408 -0.4411
 8468SOL    HW136863   2.037   0.394   5.645 -1.5525 -0.1917 -1.1072
 8468SOL    HW236864   1.974   0.492   5.727  2.2985  2.4667  1.0488
 8469SOL     OW36865   0.162   2.668   7.293 -0.0280  0.5757 -0.5274
 8469SOL    HW136866   0.217   2.613   7.349  0.9000  1.1215 -0.9167
 8469SOL    HW236867   0.211   2.654   7.213  0.6695  1.6179 -0.2840
 8470SOL     OW36868   4.344   2.621   6.589 -0.1729  0.1338  0.8442
 8470SOL    HW136869   4.424   2.672   6.600  0.8330 -1.2929  0.0959
 8470SOL    HW236870   4.367   2.539   6.544  1.6538  0.5520  1.0357
 8471SOL     OW36871   2.721   3.815   7.099  0.5151 -0.2652 -0.6696
 8471SOL    HW136872   2.817   3.816   7.097  0.5910  0.2436  2.4936
 8471SOL    HW236873   2.701   3.881   7.166 -0.2607 -1.6013  0.4174
 8472SOL     OW36874   3.937   2.939   9.396  0.0866  0.4724 -0.6061
 8472SOL    HW136875   3.986   2.909   9.319 -1.2249 -0.9489 -0.8862
 8472SOL    HW236876   3.956   3.033   9.395  3.1479 -0.0406  4.6244
 8473SOL     OW36877   1.159   3.729  12.983 -0.2079 -0.0499 -0.1572
 8473SOL    HW136878   1.246   3.713  12.947  1.1714  1.4795  2.5075
 8473SOL    HW236879   1.165   3.824  12.992 -1.8824  0.2582 -2.5152
 8474SOL     OW36880   3.144   1.246   1.875 -0.5392 -0.0626 -0.4198
 8474SOL    HW136881   3.064   1.256   1.823 -1.3954 -0.6971  0.7598
 8474SOL    HW236882   3.158   1.151   1.883  0.1175  0.1608  1.0466
 8475SOL     OW36883   0.068   2.359   1.414 -0.0900  0.1250  0.0286
 8475SOL    HW136884   0.094   2.420   1.345 -2.5452  0.8377 -0.2419
 8475SOL    HW236885   0.105   2.277   1.382  0.7213  0.7778 -0.7065
 8476SOL     OW36886   3.832   4.536   9.457 -0.2251  0.0046 -0.2051
 8476SOL    HW136887   3.897   4.467   9.445 -1.1978 -0.3875 -3.0311
 8476SOL    HW236888   3.764   4.479   9.492  1.0366 -1.8436 -0.7898
 8477SOL     OW36889   1.771   3.828   7.101  0.1443 -0.0275 -0.3300
 8477SOL    HW136890   1.706   3.799   7.166  2.0422 -2.7954  0.3278
 8477SOL    HW236891   1.812   3.902   7.145 -0.7238 -0.4146  1.1397
 8478SOL     OW36892   1.673   2.401   1.896 -0.2128 -0.0915 -0.1913
 8478SOL    HW136893   1.605   2.418   1.831 -0.2537 -2.6164 -0.8099
 8478SOL    HW236894   1.751   2.400   1.840  0.4096  0.7872  0.6551
 8479SOL     OW36895   1.304   3.100  10.664 -0.1559 -0.1833  0.1072
 8479SOL    HW136896   1.216   3.138  10.667  1.5025  3.3906  2.4713
 8479SOL    HW236897   1.356   3.179  10.653  1.2466 -1.0714  0.4267
 8480SOL     OW36898   0.623   2.818   6.020  0.4359  0.3183  0.1878
 8480SOL    HW136899   0.656   2.752   6.082  2.5189  1.2591  0.0750
 8480SOL    HW236900   0.596   2.892   6.073  0.4510  0.3046  0.2148
 8481SOL     OW36901   1.922   2.927   5.417 -0.0068 -0.6601 -0.3682
 8481SOL    HW136902   1.959   2.968   5.338  1.4434  0.5879  0.9768
 8481SOL    HW236903   1.908   3.004   5.473 -1.4798 -0.4886 -0.9578
 8482SOL     OW36904   2.523   3.139   3.599 -0.9098 -0.0666 -1.1905
 8482SOL    HW136905   2.565   3.115   3.681 -0.9963  0.2397 -1.0546
 8482SOL    HW236906   2.596   3.144   3.538 -0.6271 -1.5958 -0.9697
 8483SOL     OW36907   1.652   4.123   4.398 -0.3913 -0.2389 -0.4463
 8483SOL    HW136908   1.621   4.035   4.375  0.6763 -0.3134 -1.6018
 8483SOL    HW236909   1.608   4.183   4.338  0.7148 -1.1858 -2.2148
 8484SOL     OW36910   3.709   3.786   5.650  0.7496 -0.0554 -0.1666
 8484SOL    HW136911   3.641   3.727   5.683  0.0287  0.1644 -1.2436
 8484SOL    HW236912   3.763   3.799   5.728  0.9746 -1.1101 -0.1428
 8485SOL     OW36913   3.882   2.106   3.675  0.0622 -0.7128  0.3285
 8485SOL    HW136914   3.964   2.143   3.643 -0.7109  0.4685 -0.2997
 8485SOL    HW236915   3.842   2.183   3.715  0.6792 -0.4595  0.4634
 8486SOL     OW36916   0.277   4.459   7.903  0.7602  0.3924 -0.1236
 8486SOL    HW136917   0.265   4.390   7.839  2.0145 -0.2779  0.3599
 8486SOL    HW236918   0.370   4.479   7.900  1.2008 -1.3062  1.6947
 8487SOL     OW36919   2.840   1.399   8.501 -0.6633  0.0920  0.4607
 8487SOL    HW136920   2.785   1.338   8.549 -1.1615 -0.4244 -0.7596
 8487SOL    HW236921   2.780   1.442   8.439  1.0886  0.7834 -0.7730
 8488SOL     OW36922   4.085   3.397   7.956 -0.2019 -0.1170 -0.4558
 8488SOL    HW136923   4.011   3.377   8.014 -1.2516 -0.1941 -1.8025
 8488SOL    HW236924   4.161   3.378   8.009  0.1401 -0.1883 -0.9716
 8489SOL     OW36925   3.132   3.728   2.040  0.2583  0.1561 -0.0031
 8489SOL    HW136926   3.056   3.672   2.022  0.3538 -0.1337  0.5101
 8489SOL    HW236927   3.107   3.818   2.021 -0.1979 -0.3513 -1.8573
 8490SOL     OW36928   2.595   1.931   3.955  0.0749  0.3128 -0.2774
 8490SOL    HW136929   2.512   1.979   3.959 -1.1381 -1.7513 -0.7594
 8490SOL    HW236930   2.569   1.870   3.887  1.0180 -1.0295  0.5496
 8491SOL     OW36931   4.170   0.628   1.399  0.6017  0.6328 -0.1553
 8491SOL    HW136932   4.260   0.625   1.365  1.0468 -1.7046  1.1824
 8491SOL    HW236933   4.171   0.561   1.467  2.1083 -0.6794 -1.4605
 8492SOL     OW36934   4.496   0.709   2.419  0.0692  0.2804  0.2608
 8492SOL    HW136935   4.533   0.709   2.331  1.5001 -0.2371  0.8530
 8492SOL    HW236936   4.434   0.636   2.418 -1.7361  1.7782  2.3338
 8493SOL     OW36937   4.524   2.488   8.251  0.0854  0.0958 -0.0731
 8493SOL    HW136938   4.506   2.481   8.157  0.8812  1.5195 -0.3379
 8493SOL    HW236939   4.449   2.542   8.276 -0.1616 -0.1908 -0.1941
 8494SOL     OW36940   2.566   1.143   6.912 -0.3468 -0.4049 -0.3545
 8494SOL    HW136941   2.648   1.168   6.870  0.8312 -0.1091  2.1317
 8494SOL    HW236942   2.536   1.231   6.934 -0.0925  0.0686 -1.9068
 8495SOL     OW36943   3.310   3.577  14.564  0.1195  0.1289  0.1977
 8495SOL    HW136944   3.225   3.555  14.602 -1.0330  1.0933 -1.8175
 8495SOL    HW236945   3.356   3.593  14.646 -2.8066 -0.8187  1.9965
 8496SOL     OW36946   1.580   1.538   1.530  0.6001  0.8986  0.4599
 8496SOL    HW136947   1.568   1.512   1.438 -2.2733 -2.4254  1.7537
 8496SOL    HW236948   1.673   1.516   1.532  0.5903  1.0182  1.7286
 8497SOL     OW36949   1.968   2.787   7.902 -0.7043  0.6939 -0.0690
 8497SOL    HW136950   1.904   2.777   7.972 -0.8149  1.3862 -0.0714
 8497SOL    HW236951   1.913   2.768   7.826 -1.1213 -1.6549  0.8486
 8498SOL     OW36952   1.067   1.060   5.980 -0.2187 -0.1227  1.0728
 8498SOL    HW136953   1.147   1.046   6.032  1.4144 -1.6697 -1.8716
 8498SOL    HW236954   1.080   1.132   5.918 -0.2711 -1.1429 -0.1159
 8499SOL     OW36955   0.309   1.287   4.097 -0.1898  0.5162 -0.1133
 8499SOL    HW136956   0.280   1.370   4.058  1.1929  0.6345 -0.8783
 8499SOL    HW236957   0.383   1.275   4.037 -0.6236 -1.0544 -0.3205
 8500SOL     OW36958   3.953   0.275   2.355 -0.9349 -0.3039  0.2174
 8500SOL    HW136959   3.919   0.219   2.285 -1.7765  0.5319 -0.0379
 8500SOL    HW236960   3.954   0.360   2.310  0.3028  0.2922  1.3812
 8501SOL     OW36961   3.651   1.980  14.440 -0.3783 -0.1844 -0.5087
 8501SOL    HW136962   3.578   2.036  14.411  0.1945  1.9826  2.1858
 8501SOL    HW236963   3.707   1.994  14.364  0.3736  1.9632  0.4539
 8502SOL     OW36964   1.417   1.694   0.124 -0.3804  0.2751 -0.6822
 8502SOL    HW136965   1.372   1.628   0.071  0.8241 -1.9850  1.1290
 8502SOL    HW236966   1.495   1.701   0.070  1.1508  0.8006  1.6356
 8503SOL     OW36967   3.190   3.596   2.877 -0.4989 -0.7190  0.0045
 8503SOL    HW136968   3.094   3.596   2.878 -0.4972  0.5467  0.8507
 8503SOL    HW236969   3.205   3.671   2.935 -1.2369  1.1311 -2.1848
 8504SOL     OW36970   2.046   3.608   2.445 -0.2853 -0.7168 -0.2900
 8504SOL    HW136971   2.130   3.654   2.446 -0.8194  0.2660 -0.1999
 8504SOL    HW236972   1.995   3.654   2.512  2.0517 -2.0730  2.4697
 8505SOL     OW36973   4.471   0.508   6.685 -0.6659 -0.4244  0.2024
 8505SOL    HW136974   4.523   0.453   6.627 -0.7463  1.4798 -1.6804
 8505SOL    HW236975   4.405   0.441   6.703  1.0503 -2.6736 -1.9086
 8506SOL     OW36976   2.262   1.680  11.733 -0.3425 -0.4745  0.1319
 8506SOL    HW136977   2.213   1.644  11.806 -0.4386  0.3428  0.4791
 8506SOL    HW236978   2.196   1.729  11.683 -1.6238 -1.6447  0.6970
 8507SOL     OW36979   1.241   2.620   3.672 -0.3507  0.1618  0.0923
 8507SOL    HW136980   1.234   2.596   3.764  2.7925 -0.0793  0.2685
 8507SOL    HW236981   1.333   2.595   3.660  0.2904  2.3186  0.4178
 8508SOL     OW36982   4.516   3.631  14.562 -0.1274 -0.0280 -0.5511
 8508SOL    HW136983   4.498   3.690  14.635 -1.5371 -1.1471  0.0000
 8508SOL    HW236984   4.612   3.634  14.569 -0.2030  0.5039  0.3309
 8509SOL     OW36985   2.854   2.315   6.533  0.3442 -0.2612  0.2390
 8509SOL    HW136986   2.848   2.223   6.507 -2.7944 -0.2389  0.9030
 8509SOL    HW236987   2.949   2.317   6.538  0.3060  3.1911 -1.1002
 8510SOL     OW36988   3.485   4.591   5.921  0.1044  0.1578  0.1128
 8510SOL    HW136989   3.465   4.497   5.921 -0.8477  0.3573  0.2495
 8510SOL    HW236990   3.549   4.597   5.992 -1.8562  1.3686  1.7889
 8511SOL     OW36991   1.298   3.140  16.834  0.6287 -0.3998  0.5350
 8511SOL    HW136992   1.385   3.176  16.848 -0.5919  2.5982  0.3524
 8511SOL    HW236993   1.323   3.065  16.780  1.4044  1.6401 -1.9647
 8512SOL     OW36994   2.737   1.077   4.180 -0.0826 -0.0351  0.4752
 8512SOL    HW136995   2.767   0.987   4.196  0.9732  0.4227  1.1115
 8512SOL    HW236996   2.643   1.075   4.196 -0.0141  0.7396  0.9436
 8513SOL     OW36997   3.137   0.631  12.649 -0.8739 -0.0303 -0.0453
 8513SOL    HW136998   3.137   0.682  12.567 -1.2539 -0.2639 -0.1908
 8513SOL    HW236999   3.223   0.646  12.686 -0.0381 -1.3273 -1.4763
 8514SOL     OW37000   2.908   4.597   8.354  0.5451  0.1901  0.2316
 8514SOL    HW137001   2.990   4.637   8.326  1.2395  1.0880  3.4569
 8514SOL    HW237002   2.837   4.645   8.311  0.8411 -1.1488 -1.6931
 8515SOL     OW37003   3.180   0.228   3.419  0.0427  0.7913 -0.1345
 8515SOL    HW137004   3.106   0.205   3.363 -1.3585  2.4725  1.0421
 8515SOL    HW237005   3.253   0.229   3.357  0.5284 -0.4585  0.4087
 8516SOL     OW37006   0.260   0.018   5.955  0.4545  0.1978 -0.7845
 8516SOL    HW137007   0.244   0.101   5.909  0.6573 -1.1629 -3.3033
 8516SOL    HW237008   0.176   4.697   5.939 -0.4557  0.6027  2.7592
 8517SOL     OW37009   4.196   2.588   5.834 -0.0025  0.1820  0.3591
 8517SOL    HW137010   4.165   2.608   5.746 -1.7699  1.3404  1.2255
 8517SOL    HW237011   4.281   2.555   5.807 -0.5940 -1.9832  1.1045
 8518SOL     OW37012   1.680   0.926  17.075  0.0999  0.1759  0.4128
 8518SOL    HW137013   1.675   0.845  17.126  1.2199 -0.3747 -0.3439
 8518SOL    HW237014   1.721   0.902  16.992  1.9857  1.5936  0.9435
 8519SOL     OW37015   4.387   0.410   5.812 -0.3107  0.3269  0.7911
 8519SOL    HW137016   4.353   0.462   5.885  1.5785  0.8651  1.2893
 8519SOL    HW237017   4.308   0.367   5.778  1.2067 -1.5757 -0.3504
 8520SOL     OW37018   0.162   4.299  15.010  0.0658 -0.1759 -0.5435
 8520SOL    HW137019   0.212   4.218  14.997  0.2905  0.0956 -1.3740
 8520SOL    HW237020   0.095   4.302  14.942 -0.8185  0.7809  0.3684
 8521SOL     OW37021   2.326   0.399  11.635  0.4828 -0.5038 -0.1408
 8521SOL    HW137022   2.392   0.338  11.666  0.6759  0.6391  1.6927
 8521SOL    HW237023   2.275   0.348  11.572 -0.5030 -2.1890  2.0322
 8522SOL     OW37024   4.561   0.976  16.634 -0.3791  0.0047  0.1761
 8522SOL    HW137025   4.577   1.008  16.723 -1.0604  3.0983 -0.8004
 8522SOL    HW237026   4.550   1.064  16.596 -0.5014 -0.5702 -1.1110
 8523SOL     OW37027   1.169   4.477   3.175 -0.4201  0.7397  0.2237
 8523SOL    HW137028   1.128   4.544   3.121  0.4826  0.5106 -0.7409
 8523SOL    HW237029   1.090   4.460   3.225  0.3998  1.0346  1.6344
 8524SOL     OW37030   2.260   1.506   8.523  0.1445  0.1910 -0.1502
 8524SOL    HW137031   2.286   1.530   8.434  1.0663  2.3617  0.7162
 8524SOL    HW237032   2.342   1.471   8.557 -0.2376  0.1103  0.6975
 8525SOL     OW37033   4.103   3.848   6.598  0.1361 -0.6198  0.2792
 8525SOL    HW137034   4.189   3.890   6.605 -0.1994  0.2771 -0.9809
 8525SOL    HW237035   4.114   3.794   6.520  1.4224 -1.3572  0.9566
 8526SOL     OW37036   0.485   1.238   8.652 -0.3903 -0.6317 -0.5365
 8526SOL    HW137037   0.511   1.200   8.736  1.0635 -0.1129 -0.7632
 8526SOL    HW237038   0.560   1.246   8.594  0.3033 -1.9129  0.1710
 8527SOL     OW37039   1.056   4.559   0.575 -0.5149 -0.1860 -0.4365
 8527SOL    HW137040   1.051   4.639   0.522  0.2626  0.5780  0.6508
 8527SOL    HW237041   1.127   4.587   0.632  0.2738 -0.4028 -1.3016
 8528SOL     OW37042   3.898   1.218   1.342 -0.1115 -0.0913 -0.1368
 8528SOL    HW137043   3.980   1.227   1.292 -0.9885  1.7243 -1.2537
 8528SOL    HW237044   3.846   1.158   1.289  0.5003 -1.8525  1.2565
 8529SOL     OW37045   0.956   3.198   1.867  0.2733  0.3519 -0.0698
 8529SOL    HW137046   1.029   3.201   1.930  0.7870 -1.5968 -0.5621
 8529SOL    HW237047   0.877   3.198   1.920  1.2768  0.4360  1.4447
 8530SOL     OW37048   2.954   4.019  12.994 -0.5708  0.0978 -0.0424
 8530SOL    HW137049   2.918   3.942  12.948 -3.6475  1.1763  0.5566
 8530SOL    HW237050   2.894   4.036  13.066 -1.6211  0.1139 -0.9113
 8531SOL     OW37051   1.545   1.300   5.700 -0.1765  0.0867  0.2833
 8531SOL    HW137052   1.511   1.331   5.615  0.2099  2.8842  1.1357
 8531SOL    HW237053   1.471   1.258   5.743 -0.6089  0.5533 -0.0034
 8532SOL     OW37054   2.189   1.426   6.141  0.6072 -0.7112  0.3066
 8532SOL    HW137055   2.155   1.508   6.178  1.4159  0.5574 -1.7496
 8532SOL    HW237056   2.281   1.429   6.170  1.1119  1.3704 -1.4939
 8533SOL     OW37057   2.934   3.618   8.994 -0.2143 -0.5806  0.4434
 8533SOL    HW137058   2.848   3.618   9.034 -0.3775 -1.7442  0.0822
 8533SOL    HW237059   2.986   3.584   9.066 -1.7311  1.0591  2.2986
 8534SOL     OW37060   2.136   3.189   5.931 -0.1051 -0.4770  0.5988
 8534SOL    HW137061   2.132   3.109   5.878  0.1531  0.0155 -0.1660
 8534SOL    HW237062   2.229   3.198   5.952 -0.1933  1.5567  0.0999
 8535SOL     OW37063   1.186   0.229   7.053  0.1202 -0.2785 -0.2155
 8535SOL    HW137064   1.102   0.184   7.043 -0.0715  0.0414 -0.0208
 8535SOL    HW237065   1.198   0.205   7.145 -0.4514  0.2309 -0.0093
 8536SOL     OW37066   1.473   2.836   1.953  0.8461  0.3535 -0.0252
 8536SOL    HW137067   1.546   2.776   1.967  1.1152  0.7899  0.4600
 8536SOL    HW237068   1.410   2.781   1.907 -0.5604  0.2212  2.0428
 8537SOL     OW37069   4.507   0.053   6.705  0.0748  0.4661 -0.2199
 8537SOL    HW137070   4.461   0.078   6.785 -3.3809 -0.9641 -1.7457
 8537SOL    HW237071   4.576   0.004   6.748  0.7853  1.4319 -0.2682
 8538SOL     OW37072   1.315   3.201   3.736  1.0035  0.0556  0.6648
 8538SOL    HW137073   1.299   3.135   3.668  0.6190  0.4368  0.3808
 8538SOL    HW237074   1.288   3.148   3.811 -3.0743  1.3736  0.1051
 8539SOL     OW37075   3.069   0.838  11.715  0.0595 -0.6042  0.0679
 8539SOL    HW137076   3.155   0.881  11.714  0.3429 -1.1181  2.3949
 8539SOL    HW237077   3.092   0.750  11.687  0.8711  0.1055 -1.5151
 8540SOL     OW37078   0.558   2.746   4.219  0.1318 -0.1482 -0.1866
 8540SOL    HW137079   0.623   2.730   4.151  0.1288 -0.2600 -0.1632
 8540SOL    HW237080   0.553   2.660   4.261  0.5678  0.4586  1.1090
 8541SOL     OW37081   4.143   0.993   7.035  0.2691  0.2484  0.0349
 8541SOL    HW137082   4.120   0.968   6.946  0.6613  0.3692 -0.1023
 8541SOL    HW237083   4.237   1.000   7.018 -0.0639  1.0062 -1.4477
 8542SOL     OW37084   1.478   0.554   0.006  0.1109  0.3750  0.3213
 8542SOL    HW137085   1.401   0.583  17.652  0.0803 -0.0694  0.1138
 8542SOL    HW237086   1.458   0.460   0.007  3.1181 -0.2597 -0.9019
 8543SOL     OW37087   0.562   0.502   0.883 -0.1671  0.0640 -0.5938
 8543SOL    HW137088   0.538   0.574   0.825 -1.2409  0.0635 -0.1617
 8543SOL    HW237089   0.531   0.424   0.837 -0.1046  0.4245 -1.2476
 8544SOL     OW37090   3.061   2.026   9.796 -0.1520  0.5574  0.6356
 8544SOL    HW137091   3.122   1.966   9.839  0.4041  0.9606  0.4024
 8544SOL    HW237092   3.040   1.969   9.722  1.5887 -0.8951  1.2526
 8545SOL     OW37093   1.695   4.723   7.309 -0.0653 -0.5878  0.0466
 8545SOL    HW137094   1.652   0.062   7.369 -1.8559  0.1983 -2.0586
 8545SOL    HW237095   1.649   4.643   7.334  2.1887 -1.8923 -0.0190
 8546SOL     OW37096   2.405   3.012  14.981  0.6033 -0.4900  0.3394
 8546SOL    HW137097   2.374   3.096  14.947  0.9144 -1.8054 -3.2330
 8546SOL    HW237098   2.330   2.991  15.037  1.2955 -0.0854  1.4138
 8547SOL     OW37099   2.344   1.740   5.086  0.2717  0.0194  0.0168
 8547SOL    HW137100   2.332   1.646   5.102  2.3331 -0.4701 -1.3405
 8547SOL    HW237101   2.277   1.768   5.023 -1.1885 -1.4386  0.8884
 8548SOL     OW37102   2.635   1.272   6.089  0.3047 -0.0014 -0.1056
 8548SOL    HW137103   2.585   1.191   6.098  0.7226 -0.2060  0.3443
 8548SOL    HW237104   2.677   1.288   6.173  0.4474 -0.5021 -0.0818
 8549SOL     OW37105   3.700   2.456   1.020 -0.2498 -0.4150 -0.3779
 8549SOL    HW137106   3.678   2.474   1.111 -0.6455 -3.7057  0.1737
 8549SOL    HW237107   3.788   2.419   1.029  0.4506  1.0168 -1.3722
 8550SOL     OW37108   0.409   4.206   1.580 -0.0699  0.0202 -0.1751
 8550SOL    HW137109   0.480   4.240   1.635 -1.4320  0.1069  1.5278
 8550SOL    HW237110   0.399   4.116   1.612  1.6756 -0.1537 -0.0960
 8551SOL     OW37111   4.431   1.578   4.976 -0.3111 -0.0762 -0.6210
 8551SOL    HW137112   4.345   1.604   4.943 -1.2162 -0.9841  1.0551
 8551SOL    HW237113   4.494   1.585   4.903  1.2982 -3.7477  0.4273
 8552SOL     OW37114   4.384   3.140  15.600  0.3635  0.1069 -0.5527
 8552SOL    HW137115   4.442   3.207  15.636  0.4448 -1.5371  2.3655
 8552SOL    HW237116   4.371   3.084  15.676  0.2147  0.3843 -0.3707
 8553SOL     OW37117   0.594   2.151  12.172  0.4224  0.5918  0.3920
 8553SOL    HW137118   0.673   2.166  12.225  0.5440 -0.8318  0.6035
 8553SOL    HW237119   0.619   2.152  12.080 -0.0742  1.5623  0.2683
 8554SOL     OW37120   3.709   2.246   8.153  0.1580 -0.3663 -0.4925
 8554SOL    HW137121   3.638   2.243   8.216  0.3461  0.1949 -0.2535
 8554SOL    HW237122   3.780   2.284   8.204  0.4955 -0.3033 -1.0056
 8555SOL     OW37123   1.184   2.954  13.341  0.0516 -0.1385  0.3118
 8555SOL    HW137124   1.208   3.041  13.372 -2.0375  1.5847 -2.9050
 8555SOL    HW237125   1.118   2.967  13.273 -0.8515 -0.4082  1.1277
 8556SOL     OW37126   3.024   1.199   3.736  0.1952 -0.2986  0.1426
 8556SOL    HW137127   2.964   1.195   3.812 -0.9034 -1.3109 -0.7748
 8556SOL    HW237128   2.967   1.211   3.660 -3.4720  0.3679  2.9652
 8557SOL     OW37129   2.932   2.530   3.536 -0.5489  0.6528 -0.0613
 8557SOL    HW137130   2.869   2.599   3.554 -0.3768  0.8110 -0.0701
 8557SOL    HW237131   3.004   2.583   3.502  0.0398 -0.4863 -0.5787
 8558SOL     OW37132   0.158   4.491   2.396  0.7487  0.1885  0.1026
 8558SOL    HW137133   0.089   4.547   2.359  0.1634  0.9391  2.3302
 8558SOL    HW237134   0.164   4.536   2.481 -1.8227 -0.7616  0.7930
 8559SOL     OW37135   2.231   0.995  14.219 -0.6636 -0.0306  0.2774
 8559SOL    HW137136   2.174   0.918  14.222  1.1656 -1.4606 -1.7468
 8559SOL    HW237137   2.305   0.953  14.175 -2.2794 -1.5572 -1.0110
 8560SOL     OW37138   1.250   0.029   2.615 -0.2606 -0.3016  0.0467
 8560SOL    HW137139   1.284   0.099   2.560 -0.9170  0.4420  0.6034
 8560SOL    HW237140   1.265   4.680   2.554  1.1325  0.2118 -0.2142
 8561SOL     OW37141   1.658   0.060  11.691 -0.2572  0.1705 -0.2757
 8561SOL    HW137142   1.586   0.110  11.732  0.2182 -1.5676  2.7208
 8561SOL    HW237143   1.663   0.120  11.617 -3.1254  1.4589  0.5582
 8562SOL     OW37144   3.031   2.898  12.734 -0.5201  0.3411 -0.1389
 8562SOL    HW137145   2.992   2.840  12.668  1.3527 -2.3018  1.0879
 8562SOL    HW237146   3.016   2.980  12.687  1.5273  0.0607 -1.3033
 8563SOL     OW37147   1.383   2.638   7.104  0.2647  0.7060 -0.0433
 8563SOL    HW137148   1.387   2.723   7.060 -0.7123  0.9915  0.4392
 8563SOL    HW237149   1.376   2.666   7.196  0.3891  0.7250 -0.0396
 8564SOL     OW37150   0.400   1.453   8.490 -0.5392  0.3611  0.3730
 8564SOL    HW137151   0.398   1.399   8.568 -0.6350 -1.3602 -0.8171
 8564SOL    HW237152   0.409   1.390   8.418 -0.1531 -0.7975  1.4435
 8565SOL     OW37153   1.579   1.558   7.892 -0.2571  0.1731 -0.0145
 8565SOL    HW137154   1.505   1.505   7.863  0.1706 -0.3700 -0.1206
 8565SOL    HW237155   1.541   1.606   7.965  1.6970  0.2418  0.9709
 8566SOL     OW37156   3.643   4.706   4.340  0.2259 -0.0576 -0.7830
 8566SOL    HW137157   3.728   0.011   4.371 -0.7920  1.7836  0.3017
 8566SOL    HW237158   3.667   4.631   4.285  2.0187  1.0894 -1.5667
 8567SOL     OW37159   3.440   0.743  10.620  0.0380  0.4939 -0.1156
 8567SOL    HW137160   3.475   0.782  10.540  1.7248 -0.1038  0.3081
 8567SOL    HW237161   3.468   0.812  10.681  2.7485  0.4932 -1.3354
 8568SOL     OW37162   4.168   2.150   1.667  0.0081  0.3850  0.1955
 8568SOL    HW137163   4.251   2.139   1.620  0.3850  0.0516  0.9351
 8568SOL    HW237164   4.203   2.177   1.752  0.3589  0.3031  0.0761
 8569SOL     OW37165   1.451   3.338   8.758 -0.5347  0.1471 -0.3372
 8569SOL    HW137166   1.546   3.347   8.763 -0.6426 -0.4007  2.2736
 8569SOL    HW237167   1.445   3.243   8.761  1.2596  0.0774  0.5734
 8570SOL     OW37168   1.746   0.619  12.248 -0.1347  0.0083  0.3634
 8570SOL    HW137169   1.751   0.564  12.170  1.8055  1.1558 -0.3095
 8570SOL    HW237170   1.651   0.609  12.261 -0.3986 -0.0433 -1.6850
 8571SOL     OW37171   3.092   0.902   3.381 -0.6509 -0.8169 -0.1585
 8571SOL    HW137172   3.142   0.826   3.351 -0.2834  0.4340 -2.6959
 8571SOL    HW237173   3.121   0.894   3.472 -1.2870  0.0326  0.1182
 8572SOL     OW37174   3.629   2.107  10.819 -0.8533  0.5538  0.1069
 8572SOL    HW137175   3.710   2.124  10.869  0.4717  0.8050 -2.1199
 8572SOL    HW237176   3.596   2.035  10.872  1.1180 -1.5650 -1.5101
 8573SOL     OW37177   1.708   1.272   2.362  0.1507  0.4355 -0.6664
 8573SOL    HW137178   1.631   1.269   2.305  1.1801 -0.3877 -2.0143
 8573SOL    HW237179   1.769   1.337   2.327  0.4772  0.4997  0.0209
 8574SOL     OW37180   2.570   0.409   5.841 -0.0477 -0.1644 -0.4994
 8574SOL    HW137181   2.563   0.376   5.930  1.3192 -0.9167 -0.6696
 8574SOL    HW237182   2.663   0.403   5.819  0.0438  0.1059 -0.1635
 8575SOL     OW37183   1.473   3.448   7.351 -0.2207 -0.0102 -0.5527
 8575SOL    HW137184   1.436   3.536   7.353 -0.6978 -0.1590 -2.3353
 8575SOL    HW237185   1.511   3.445   7.439 -0.0560  0.7207 -0.6014
 8576SOL     OW37186   1.891   1.486   5.308  0.2658 -0.7962  0.4255
 8576SOL    HW137187   1.875   1.488   5.402 -1.0859  1.0535  0.1814
 8576SOL    HW237188   1.949   1.412   5.291  0.7844 -0.1662 -0.5936
 8577SOL     OW37189   0.523   3.162   2.287  0.1741  0.4205  0.1229
 8577SOL    HW137190   0.562   3.249   2.296 -1.4074  0.9280  1.8717
 8577SOL    HW237191   0.568   3.123   2.361  0.5575  0.6594  0.0157
 8578SOL     OW37192   4.441   3.368   7.791 -0.5607 -0.0894  0.0754
 8578SOL    HW137193   4.363   3.326   7.754 -0.8581 -0.5205  1.1900
 8578SOL    HW237194   4.408   3.457   7.795  0.6615  0.2390  3.1062
 8579SOL     OW37195   4.020   2.677   0.529  0.2265  0.6441  0.5534
 8579SOL    HW137196   3.991   2.759   0.490 -3.2157 -0.4350  0.8511
 8579SOL    HW237197   4.109   2.683   0.563  0.7233  0.5640 -0.7122
 8580SOL     OW37198   3.445   4.432  13.873 -0.3492  0.1607 -0.3774
 8580SOL    HW137199   3.351   4.436  13.889 -0.4788 -1.5034 -0.7316
 8580SOL    HW237200   3.473   4.398  13.959  0.6789  0.4913 -0.5829
 8581SOL     OW37201   0.140   0.059   3.590  0.1916  0.3845  0.0344
 8581SOL    HW137202   0.200   4.718   3.552 -0.7657 -2.3681  3.1396
 8581SOL    HW237203   0.056   0.014   3.581 -0.4005  1.4956 -0.0156
 8582SOL     OW37204   0.412   3.306  17.304  0.2315 -0.4006 -0.0683
 8582SOL    HW137205   0.386   3.342  17.388 -1.6188 -0.7011 -0.4947
 8582SOL    HW237206   0.384   3.378  17.247  2.8151  1.3322  0.8789
 8583SOL     OW37207   1.924   1.963  11.484 -0.1527 -0.0686 -0.1340
 8583SOL    HW137208   1.875   1.961  11.402 -2.5670 -1.4119  1.3529
 8583SOL    HW237209   1.903   2.053  11.508 -0.8458  0.1590 -1.6472
 8584SOL     OW37210   2.091   3.864  13.790  0.0144 -0.5398  0.1778
 8584SOL    HW137211   2.147   3.843  13.864 -1.9109  0.2337  1.8691
 8584SOL    HW237212   2.140   3.938  13.754  0.9271 -0.4856  1.5534
 8585SOL     OW37213   0.339   3.638   6.477  0.3854  0.4798  0.2346
 8585SOL    HW137214   0.378   3.606   6.395  0.3426 -1.1177  0.8499
 8585SOL    HW237215   0.375   3.570   6.533 -1.5261  0.3022  1.2275
 8586SOL     OW37216   3.599   4.491   4.100 -0.1079  0.1006 -0.3241
 8586SOL    HW137217   3.537   4.489   4.028 -1.0225 -1.7110  0.5094
 8586SOL    HW237218   3.676   4.495   4.044 -0.3645  2.1784 -0.5177
 8587SOL     OW37219   1.633   2.470  16.985  0.3887 -0.0208  0.3801
 8587SOL    HW137220   1.671   2.438  16.904 -0.2551  0.4636 -0.1150
 8587SOL    HW237221   1.717   2.482  17.030  1.3012 -0.5983 -1.1889
 8588SOL     OW37222   4.450   1.023  14.504  0.3556 -0.1242  0.2417
 8588SOL    HW137223   4.381   1.001  14.442  0.1406 -1.2415  0.8834
 8588SOL    HW237224   4.457   1.118  14.498  0.1207 -0.0155  1.5217
 8589SOL     OW37225   2.452   1.249   3.320  0.2505 -0.4188  0.5400
 8589SOL    HW137226   2.499   1.169   3.295 -2.2778 -1.7811  0.0521
 8589SOL    HW237227   2.450   1.282   3.230 -0.2242  0.0653  0.7287
 8590SOL     OW37228   3.083   2.892   6.967 -0.7856 -0.3978  0.3714
 8590SOL    HW137229   3.174   2.869   6.987 -0.6546  1.5569  2.0517
 8590SOL    HW237230   3.074   2.965   7.029  0.4231  1.5663 -1.7523
 8591SOL     OW37231   3.960   4.527   8.097 -0.2887 -0.2979  0.0198
 8591SOL    HW137232   4.049   4.501   8.074  0.1784 -0.6508  2.2418
 8591SOL    HW237233   3.987   4.585   8.169  3.2611 -1.3442 -0.4631
 8592SOL     OW37234   1.574   3.591   2.110 -0.0736  0.0383  0.6330
 8592SOL    HW137235   1.649   3.558   2.158  0.3053 -0.0965 -0.0478
 8592SOL    HW237236   1.538   3.651   2.176  1.8303 -0.5826  2.2426
 8593SOL     OW37237   2.727   0.438   2.933  0.0815  0.0132  0.4027
 8593SOL    HW137238   2.802   0.479   2.976  0.1333  0.0142  0.3125
 8593SOL    HW237239   2.660   0.496   2.967  0.1679 -0.0035  0.6027
 8594SOL     OW37240   3.758   4.307   9.672 -0.0709 -0.3494  0.3869
 8594SOL    HW137241   3.748   4.269   9.584  2.0185 -0.3990  0.1722
 8594SOL    HW237242   3.705   4.385   9.654 -0.4315 -0.0935  2.5615
 8595SOL     OW37243   2.985   1.543   0.391  0.9104  0.3251 -0.3989
 8595SOL    HW137244   3.005   1.516   0.302  1.5770 -1.4955  0.2976
 8595SOL    HW237245   2.898   1.580   0.372  1.5671  1.6581 -0.7872
 8596SOL     OW37246   0.761   2.856   2.858  0.2038 -0.1681 -0.0498
 8596SOL    HW137247   0.783   2.840   2.766  1.5293  1.4395  0.0057
 8596SOL    HW237248   0.832   2.816   2.908  0.6456 -0.3644 -0.8474
 8597SOL     OW37249   2.785   1.147   6.349  0.7785 -0.0610 -0.1778
 8597SOL    HW137250   2.843   1.214   6.313 -0.2743  0.9055 -0.1020
 8597SOL    HW237251   2.825   1.128   6.434  0.7105  3.0581  0.5738
 8598SOL     OW37252   0.829   2.872   8.035  0.0299 -0.3137  0.3022
 8598SOL    HW137253   0.898   2.937   8.051  0.8236 -1.5608  1.9041
 8598SOL    HW237254   0.818   2.837   8.123  0.8640 -0.8703  0.1924
 8599SOL     OW37255   1.288   3.329  15.072  0.2886  0.2604  0.3641
 8599SOL    HW137256   1.337   3.301  14.995 -1.1092 -1.3634  0.0551
 8599SOL    HW237257   1.280   3.262  15.140 -0.2967  1.6580  1.6986
 8600SOL     OW37258   1.317   0.255   8.174  0.5362  0.5063 -0.7570
 8600SOL    HW137259   1.382   0.192   8.206  0.4068  1.1534  0.7591
 8600SOL    HW237260   1.317   0.310   8.252  3.4283  2.3189 -2.0198
 8601SOL     OW37261   4.012   3.404   4.789  0.7900  0.7859 -0.0796
 8601SOL    HW137262   3.948   3.336   4.766  0.4440  0.7642  0.9278
 8601SOL    HW237263   3.957   3.469   4.834 -0.4776  0.8625 -1.7211
 8602SOL     OW37264   3.246   3.344   8.449  0.0534 -0.0729  0.1394
 8602SOL    HW137265   3.199   3.339   8.366 -0.4401 -0.4384  0.4400
 8602SOL    HW237266   3.333   3.328   8.413 -0.3965 -3.0594  0.3934
 8603SOL     OW37267   3.326   1.732  11.204  0.3212 -0.0090  0.0056
 8603SOL    HW137268   3.336   1.639  11.184 -2.4414 -0.5990  1.4311
 8603SOL    HW237269   3.233   1.738  11.182  1.4129  1.9186 -4.0191
 8604SOL     OW37270   2.804   4.029   2.425  0.6817 -0.4395 -0.0254
 8604SOL    HW137271   2.726   4.034   2.369 -1.0165  0.4857  2.3994
 8604SOL    HW237272   2.791   4.101   2.487 -1.2963  0.0524 -1.0044
 8605SOL     OW37273   3.851   2.113  15.308  0.2894 -0.5994  0.2042
 8605SOL    HW137274   3.942   2.087  15.295  0.8351  1.1110  0.5486
 8605SOL    HW237275   3.826   2.060  15.383 -0.2962 -0.4087  0.1453
 8606SOL     OW37276   4.391   0.183   8.810  0.2214 -0.3850 -0.1927
 8606SOL    HW137277   4.374   0.246   8.880 -1.1187  0.0169 -0.8812
 8606SOL    HW237278   4.483   0.202   8.791  0.0273 -0.0734 -0.8298
 8607SOL     OW37279   3.757   3.298  15.451 -0.6212  0.1991 -0.3059
 8607SOL    HW137280   3.705   3.227  15.489  0.0315 -1.7528 -3.0809
 8607SOL    HW237281   3.835   3.284  15.504 -0.5333  2.5690  0.1953
 8608SOL     OW37282   0.659   1.390  12.399 -0.4532 -0.2504  0.1379
 8608SOL    HW137283   0.694   1.393  12.310  0.0675 -1.0885  0.3223
 8608SOL    HW237284   0.690   1.303  12.423  0.9642  0.0063 -0.7786
 8609SOL     OW37285   1.667   2.661  16.512  0.2072  0.3157 -0.1643
 8609SOL    HW137286   1.624   2.581  16.541 -0.5580  1.2482  1.2566
 8609SOL    HW237287   1.754   2.629  16.488 -0.4330 -2.1888  0.8740
 8610SOL     OW37288   1.766   3.523  10.652 -0.0899 -0.2730 -0.3279
 8610SOL    HW137289   1.683   3.565  10.675  0.4575  0.3920  0.4560
 8610SOL    HW237290   1.738   3.485  10.568  0.4813  0.3913 -0.8271
 8611SOL     OW37291   4.140   2.460   4.788  0.4154 -0.0425 -0.7579
 8611SOL    HW137292   4.182   2.422   4.711  0.9177  0.4773 -0.7426
 8611SOL    HW237293   4.184   2.544   4.802  0.2698 -0.0324 -0.3475
 8612SOL     OW37294   3.484   3.543   5.966 -0.2419  0.0462  0.5192
 8612SOL    HW137295   3.474   3.634   5.993  1.9356  0.4055  0.1011
 8612SOL    HW237296   3.558   3.546   5.906 -1.0088  1.9285 -0.3213
 8613SOL     OW37297   3.035   1.407   6.789  0.5161  0.0353 -0.1457
 8613SOL    HW137298   3.065   1.492   6.758 -0.3266 -0.3597 -2.0101
 8613SOL    HW237299   3.019   1.344   6.719 -0.9526  0.5235 -0.2466
 8614SOL     OW37300   1.866   4.109  13.166  0.5318 -0.0511 -0.1676
 8614SOL    HW137301   1.881   4.170  13.238 -0.3638 -0.9599  0.8023
 8614SOL    HW237302   1.834   4.036  13.219 -0.8581 -1.3936 -2.8548
 8615SOL     OW37303   3.211   3.071   2.973  0.4749  0.3865 -0.5359
 8615SOL    HW137304   3.262   3.123   3.036 -0.0171 -1.0148  1.0399
 8615SOL    HW237305   3.197   3.133   2.902  0.5391  1.0910  0.0695
 8616SOL     OW37306   0.796   0.752   2.263  0.0288 -0.2487  0.4217
 8616SOL    HW137307   0.849   0.699   2.203 -1.3747 -0.0581 -0.9854
 8616SOL    HW237308   0.717   0.699   2.269  0.0974 -0.5279 -1.1232
 8617SOL     OW37309   4.110   3.554   2.316  0.2037  0.4617  0.2689
 8617SOL    HW137310   4.102   3.536   2.410 -0.8094 -0.4703 -0.0062
 8617SOL    HW237311   4.043   3.622   2.310 -0.6078  0.0112  3.8699
 8618SOL     OW37312   2.996   4.412  12.201 -0.2213 -0.5597 -0.1074
 8618SOL    HW137313   2.987   4.400  12.107 -1.2751 -0.7240  0.0154
 8618SOL    HW237314   3.089   4.436  12.204 -0.5139  0.8726 -2.1558
 8619SOL     OW37315   2.421   3.267   1.768 -0.3217  0.1036 -0.0292
 8619SOL    HW137316   2.336   3.224   1.774 -0.7413  1.0367  0.8727
 8619SOL    HW237317   2.472   3.196   1.805 -1.2398 -1.7094 -2.2786
 8620SOL     OW37318   0.127   1.263   7.948 -0.1838  0.0903  0.3204
 8620SOL    HW137319   0.142   1.357   7.955 -0.1991  0.2114 -1.1940
 8620SOL    HW237320   0.042   1.262   7.905  0.5503  3.5279 -1.2036
 8621SOL     OW37321   2.500   4.153  14.957 -0.3010 -0.3266  0.2975
 8621SOL    HW137322   2.432   4.130  14.894  0.5734  0.0042 -0.7542
 8621SOL    HW237323   2.538   4.225  14.907 -1.8407  0.4995  0.3273
 8622SOL     OW37324   1.136   1.762   5.979 -0.2609  0.3478 -0.1759
 8622SOL    HW137325   1.107   1.798   5.895  0.4439 -0.9237 -0.9551
 8622SOL    HW237326   1.101   1.673   5.989 -3.8889  1.4048 -3.4708
 8623SOL     OW37327   3.018   1.332   5.974  0.2050  0.0221  0.2195
 8623SOL    HW137328   2.992   1.299   5.888  0.0657 -0.9600  0.6433
 8623SOL    HW237329   3.076   1.407   5.960  1.0197 -1.0066 -1.8770
 8624SOL     OW37330   1.774   3.240  10.065 -0.0823 -0.4042 -0.4916
 8624SOL    HW137331   1.761   3.303   9.995  0.7760  1.6559  1.2170
 8624SOL    HW237332   1.792   3.291  10.143 -1.2381 -0.3840 -0.2479
 8625SOL     OW37333   2.891   1.498  13.317  0.3787  0.8414  0.0784
 8625SOL    HW137334   2.891   1.592  13.300  0.2414  0.7501 -0.4286
 8625SOL    HW237335   2.967   1.471  13.265 -1.2610 -2.8717 -0.4216
 8626SOL     OW37336   2.108   3.188   4.095 -0.6888  0.2738 -0.5949
 8626SOL    HW137337   2.157   3.243   4.157  0.6233 -1.9304  0.2980
 8626SOL    HW237338   2.133   3.098   4.112  1.7936  0.9802 -0.4567
 8627SOL     OW37339   1.752   2.815   4.427 -0.1993  0.3017  0.3778
 8627SOL    HW137340   1.810   2.739   4.418 -1.7836 -1.0208  1.2649
 8627SOL    HW237341   1.773   2.851   4.514  1.5612 -1.3549  0.6291
 8628SOL     OW37342   4.317   1.426  16.829  0.3766  0.1870  0.6185
 8628SOL    HW137343   4.274   1.375  16.759  1.4759  1.8954 -1.3080
 8628SOL    HW237344   4.403   1.385  16.829  1.3787  2.3073  1.2015
 8629SOL     OW37345   4.565   1.452   3.855 -0.2372  0.2020 -0.6220
 8629SOL    HW137346   4.607   1.502   3.925  0.3416  1.4392 -1.8692
 8629SOL    HW237347   4.557   1.512   3.782 -0.1333 -1.8547 -2.3244
 8630SOL     OW37348   3.447   3.786   3.022  0.1294 -0.4007  0.0550
 8630SOL    HW137349   3.352   3.794   3.015 -0.0219 -1.3353  0.9738
 8630SOL    HW237350   3.468   3.859   3.079 -0.1531  0.6046 -1.1247
 8631SOL     OW37351   2.786   2.472   2.253 -0.1064  0.0604 -0.6177
 8631SOL    HW137352   2.811   2.530   2.325  0.6303  0.8994 -1.5632
 8631SOL    HW237353   2.695   2.495   2.235 -0.5690 -0.7344  0.6316
 8632SOL     OW37354   4.719   1.634   0.797  0.1922 -0.0121  0.8975
 8632SOL    HW137355   4.695   1.690   0.871 -2.4444 -1.5877  1.2301
 8632SOL    HW237356   0.042   1.691   0.736  1.3342 -2.8834 -0.8601
 8633SOL     OW37357   3.452   1.789   8.125  0.1284  0.1298  0.1470
 8633SOL    HW137358   3.490   1.751   8.046  0.5065 -3.2002  1.9390
 8633SOL    HW237359   3.510   1.858   8.156  0.8075  0.3956 -1.7217
 8634SOL     OW37360   1.375   0.370  11.411  0.0517 -0.4620  0.3644
 8634SOL    HW137361   1.400   0.416  11.491 -1.7252 -0.0103  0.6540
 8634SOL    HW237362   1.449   0.392  11.355 -1.4404 -0.6557 -1.6577
 8635SOL     OW37363   4.348   4.590   3.841  0.3368 -0.0624 -0.4559
 8635SOL    HW137364   4.293   4.543   3.778 -0.1338 -2.0818  1.4855
 8635SOL    HW237365   4.279   4.628   3.895 -2.2398 -2.0452 -2.3577
 8636SOL     OW37366   3.718   2.413   8.762  0.1699 -0.1459 -0.6917
 8636SOL    HW137367   3.799   2.422   8.812  0.0437 -1.5976 -0.2544
 8636SOL    HW237368   3.739   2.456   8.679 -1.8853  0.3449 -0.9677
 8637SOL     OW37369   4.412   2.519   4.071  0.1000 -0.2195  0.9701
 8637SOL    HW137370   4.339   2.532   4.131  0.6752 -1.3343  1.9078
 8637SOL    HW237371   4.418   2.608   4.035 -0.3856 -0.2478  0.8217
 8638SOL     OW37372   0.035   1.511  12.676  0.1532 -0.1187  0.7748
 8638SOL    HW137373   4.679   1.465  12.703 -0.7394  0.8873 -0.0775
 8638SOL    HW237374   0.040   1.587  12.734  0.3640  0.0625  0.5209
 8639SOL     OW37375   3.157   3.831  12.646 -0.5858  0.2838  0.3974
 8639SOL    HW137376   3.184   3.910  12.693 -2.6805  0.2931  1.5824
 8639SOL    HW237377   3.062   3.831  12.663 -0.3490  0.7881  1.7162
 8640SOL     OW37378   0.063   2.146   6.462 -0.4216  0.0210 -0.0791
 8640SOL    HW137379   0.074   2.162   6.555  1.3445  0.9382 -0.4569
 8640SOL    HW237380   4.707   2.197   6.447 -1.1672 -0.8410  0.9026
 8641SOL     OW37381   1.838   4.599   3.473  0.1772 -0.1762 -0.0258
 8641SOL    HW137382   1.785   4.669   3.511 -1.8017 -0.0796 -2.9752
 8641SOL    HW237383   1.785   4.577   3.396  0.2557  2.4161 -0.8237
 8642SOL     OW37384   0.504   4.457   1.062 -0.1549  0.4735 -0.5278
 8642SOL    HW137385   0.487   4.439   1.154 -1.2994 -0.6738 -0.9628
 8642SOL    HW237386   0.499   4.553   1.065 -1.2258  0.4056 -0.0474
 8643SOL     OW37387   3.004   3.119  12.587  0.2912 -0.3634 -0.3091
 8643SOL    HW137388   2.926   3.138  12.534  1.6091  0.9071 -1.7912
 8643SOL    HW237389   3.070   3.184  12.563 -1.5745  1.1959 -1.2939
 8644SOL     OW37390   1.273   3.662   7.495  0.1294  0.9423  0.2245
 8644SOL    HW137391   1.273   3.749   7.534  0.1621  0.9292  0.2545
 8644SOL    HW237392   1.313   3.679   7.409 -0.6409  2.3803  0.1614
 8645SOL     OW37393   4.715   3.390   6.573 -0.1667  0.0968 -0.1742
 8645SOL    HW137394   0.070   3.370   6.521 -0.9531  0.1164 -1.3832
 8645SOL    HW237395   0.015   3.481   6.591 -1.0625  0.1995  0.4553
 8646SOL     OW37396   4.121   2.664   7.064 -0.1192 -0.3522 -0.2344
 8646SOL    HW137397   4.106   2.570   7.062 -1.2418 -0.1553 -0.9536
 8646SOL    HW237398   4.072   2.687   7.143  0.3933 -1.2217  0.3364
 8647SOL     OW37399   0.448   2.350   4.923  0.0467  0.2758  0.0032
 8647SOL    HW137400   0.404   2.271   4.955  0.5102 -0.2929 -0.7682
 8647SOL    HW237401   0.475   2.389   5.006 -1.4587  1.9818 -0.3162
 8648SOL     OW37402   2.172   2.358   7.426  0.6434 -0.0989 -0.2472
 8648SOL    HW137403   2.228   2.424   7.386  0.9564  0.0548  0.4372
 8648SOL    HW237404   2.168   2.298   7.352  0.1322  0.4775 -0.6884
 8649SOL     OW37405   4.621   0.774   6.371  0.0797 -0.9357 -0.2621
 8649SOL    HW137406   4.573   0.812   6.444  0.9979 -0.6231  0.1810
 8649SOL    HW237407   4.707   0.770   6.412 -0.8543 -0.4375  1.7110
 8650SOL     OW37408   1.379   4.579   4.542 -0.4414  0.1793  0.4964
 8650SOL    HW137409   1.326   4.522   4.486  0.1158  1.2842 -1.1668
 8650SOL    HW237410   1.382   4.513   4.611  0.9193 -0.7630 -0.4546
 8651SOL     OW37411   1.837   2.456   4.772  0.6514 -0.3535 -0.3341
 8651SOL    HW137412   1.798   2.489   4.852 -1.6085  0.6996 -1.8601
 8651SOL    HW237413   1.824   2.362   4.766  0.6875 -0.4138  0.5851
 8652SOL     OW37414   3.262   2.854  13.201 -0.5497 -0.0321  0.5069
 8652SOL    HW137415   3.181   2.815  13.233 -0.1129 -2.3208 -1.2610
 8652SOL    HW237416   3.229   2.908  13.130 -0.7057  0.8342  1.2302
 8653SOL     OW37417   0.977   4.410  11.288 -0.0007 -0.0709 -1.1233
 8653SOL    HW137418   0.980   4.405  11.383 -0.9987 -1.6467 -1.1679
 8653SOL    HW237419   1.061   4.372  11.261 -0.3270 -0.9424 -0.8891
 8654SOL     OW37420   2.851   4.667   2.335 -0.0304  0.5116  0.4621
 8654SOL    HW137421   2.879   0.017   2.279 -1.1813  0.7705  0.2232
 8654SOL    HW237422   2.839   4.600   2.268 -0.4029 -0.0108  1.0529
 8655SOL     OW37423   0.979   0.289  15.918  0.2026  0.8349  0.1361
 8655SOL    HW137424   1.043   0.264  15.986  1.5048 -0.2579 -1.4981
 8655SOL    HW237425   1.020   0.240  15.847  1.3411  0.9549  0.6969
 8656SOL     OW37426   4.714   3.973  17.646  0.4562 -0.1896 -0.3397
 8656SOL    HW137427   4.699   3.883  17.674 -0.5813 -0.0043 -0.3002
 8656SOL    HW237428   0.076   3.988  17.688 -0.3051  0.6448  0.9247
 8657SOL     OW37429   3.361   2.307   0.534  0.3726  0.1103  0.2262
 8657SOL    HW137430   3.308   2.243   0.488  3.4966 -1.8547 -0.6176
 8657SOL    HW237431   3.441   2.295   0.483 -0.0083 -1.6060  0.0437
 8658SOL     OW37432   0.409   0.780   4.278  0.0664  0.0749 -0.0365
 8658SOL    HW137433   0.462   0.762   4.356 -0.8569 -3.7306 -0.2540
 8658SOL    HW237434   0.331   0.731   4.305 -0.3157  0.8545  0.2738
 8659SOL     OW37435   2.437   2.152   9.223 -0.3976 -0.1829 -0.0570
 8659SOL    HW137436   2.393   2.231   9.256 -1.9848 -1.6953  1.4609
 8659SOL    HW237437   2.362   2.094   9.210  0.1149 -0.7815 -0.3096
 8660SOL     OW37438   0.206   0.442   5.761 -0.9162 -0.6637  0.0905
 8660SOL    HW137439   0.113   0.437   5.780 -0.4570 -0.0294  2.4579
 8660SOL    HW237440   0.224   0.349   5.747  0.8865 -0.4513  0.9790
 8661SOL     OW37441   2.034   2.442   6.059  0.2979  0.2861  0.0691
 8661SOL    HW137442   2.040   2.412   6.150  0.6437  0.0438 -0.0308
 8661SOL    HW237443   2.068   2.531   6.070 -0.2163  0.4996 -0.1023
 8662SOL     OW37444   2.451   2.543   8.838 -0.3562  0.1455  0.2770
 8662SOL    HW137445   2.479   2.564   8.927 -0.6405  1.5832  0.0259
 8662SOL    HW237446   2.380   2.482   8.856  1.5988 -2.2590 -0.2267
 8663SOL     OW37447   4.413   3.060   2.995  0.3462  0.9068 -0.0005
 8663SOL    HW137448   4.470   3.040   3.069  0.8867 -1.7087 -1.1451
 8663SOL    HW237449   4.383   3.150   3.006  1.9881  1.2657  1.4704
 8664SOL     OW37450   3.163   2.194   5.955 -0.6350 -0.4261 -0.4694
 8664SOL    HW137451   3.181   2.154   6.040 -2.6096 -1.9465 -0.7852
 8664SOL    HW237452   3.135   2.113   5.912  0.4584 -0.3724 -1.2934
 8665SOL     OW37453   4.235   1.305   5.477  0.4660  0.0379  0.0011
 8665SOL    HW137454   4.281   1.223   5.492 -0.6063 -0.7173 -0.8290
 8665SOL    HW237455   4.166   1.299   5.543  0.2227  1.8173 -0.0951
 8666SOL     OW37456   2.546   1.321   2.072 -0.0768  0.0806  0.2405
 8666SOL    HW137457   2.610   1.309   2.143 -0.9755  0.4943  1.1323
 8666SOL    HW237458   2.470   1.274   2.106 -0.4012  0.6692  0.3446
 8667SOL     OW37459   1.209   3.922   7.599  0.4800 -0.4236  0.4598
 8667SOL    HW137460   1.166   3.960   7.675  0.4958 -0.1042  0.3089
 8667SOL    HW237461   1.165   3.961   7.524 -0.0421 -1.5674  0.1685
 8668SOL     OW37462   0.348   2.257  16.709  0.9773  0.1477 -0.2811
 8668SOL    HW137463   0.391   2.231  16.791  1.4386 -1.3195 -0.9835
 8668SOL    HW237464   0.255   2.237  16.725  0.3518  3.0713 -0.3863
 8669SOL     OW37465   3.643   2.388   5.006 -0.5302  0.3247  0.3748
 8669SOL    HW137466   3.725   2.400   5.054 -1.5960  0.0596  2.2570
 8669SOL    HW237467   3.652   2.304   4.959 -0.8141  1.1316 -1.1306
 8670SOL     OW37468   3.633   4.602  15.285 -0.6472  0.5152 -0.2673
 8670SOL    HW137469   3.641   4.626  15.378 -0.8175 -0.6545  0.0435
 8670SOL    HW237470   3.547   4.640  15.268 -0.1803  0.8622 -1.8299
 8671SOL     OW37471   1.559   0.198  16.978  0.0259 -0.1004 -0.5181
 8671SOL    HW137472   1.581   0.107  16.999 -1.1188 -0.5038 -1.0695
 8671SOL    HW237473   1.463   0.194  16.968  0.0416  0.4658 -0.8802
 8672SOL     OW37474   4.452   1.025   1.147  0.3301  0.0940 -0.3258
 8672SOL    HW137475   4.435   1.042   1.240 -0.4879  1.9830 -0.8222
 8672SOL    HW237476   4.361   1.025   1.117 -0.1792 -2.6590  1.2110
 8673SOL     OW37477   0.292   2.698   6.103 -0.3480  0.9130 -0.0308
 8673SOL    HW137478   0.344   2.739   6.171  0.0637 -2.4114  1.6473
 8673SOL    HW237479   0.215   2.755   6.100  0.4464  2.0560  1.1315
 8674SOL     OW37480   1.047   3.896   8.251 -0.1846 -0.1675 -0.4400
 8674SOL    HW137481   1.099   3.940   8.318 -0.0476  0.4584 -0.9561
 8674SOL    HW237482   0.976   3.955   8.227 -0.7148 -1.3149 -1.6892
 8675SOL     OW37483   3.852   3.431   8.119  0.1641 -0.5088 -0.3102
 8675SOL    HW137484   3.775   3.481   8.147  0.0581 -1.0766  0.4011
 8675SOL    HW237485   3.851   3.350   8.170  1.2656 -0.8146 -0.7731
 8676SOL     OW37486   2.016   1.807  17.088  0.3529 -0.1354  0.2707
 8676SOL    HW137487   1.972   1.821  17.004  0.5074  0.1191  0.2320
 8676SOL    HW237488   1.941   1.765  17.131  0.1655 -1.4094 -1.3174
 8677SOL     OW37489   4.569   3.403  11.159  0.3157 -0.1690  0.4271
 8677SOL    HW137490   4.616   3.427  11.079  1.0653  0.5796  1.0764
 8677SOL    HW237491   4.481   3.391  11.124  0.3193  0.2371  0.2769
 8678SOL     OW37492   2.518   1.905  11.097 -0.5987 -0.2075  0.0398
 8678SOL    HW137493   2.530   1.838  11.164  1.4158  0.7250  0.6046
 8678SOL    HW237494   2.560   1.980  11.139  1.0819 -1.6905  1.0136
 8679SOL     OW37495   2.142   4.230   4.956  0.3933 -0.1595 -0.9519
 8679SOL    HW137496   2.222   4.253   4.908 -0.1295  2.0257 -0.7784
 8679SOL    HW237497   2.116   4.144   4.923 -0.3264 -0.7449  1.1869
 8680SOL     OW37498   3.617   4.225   3.561 -0.0839  0.2436  0.1826
 8680SOL    HW137499   3.685   4.161   3.581  0.8957  1.4130  0.6240
 8680SOL    HW237500   3.621   4.250   3.468 -0.4921  0.4109  0.2117
 8681SOL     OW37501   0.217   1.866   2.430 -0.1947  0.4866 -0.3474
 8681SOL    HW137502   0.295   1.856   2.484 -0.1947 -0.5616 -0.5556
 8681SOL    HW237503   0.169   1.783   2.430  1.3719 -0.4079  1.3842
 8682SOL     OW37504   4.576   1.680   8.439 -0.5327  0.0163  0.4595
 8682SOL    HW137505   4.628   1.599   8.445 -1.4256 -0.6011 -0.0720
 8682SOL    HW237506   4.630   1.747   8.479 -1.3212  0.2653  1.0965
 8683SOL     OW37507   2.466   2.026   6.580 -0.0805 -0.4871 -0.3507
 8683SOL    HW137508   2.515   2.063   6.506 -2.1345  1.0176 -0.9669
 8683SOL    HW237509   2.522   1.950   6.593 -0.0366 -0.7274 -1.9745
 8684SOL     OW37510   2.131   3.958   4.847  0.0067 -0.0491  0.1899
 8684SOL    HW137511   2.170   3.880   4.887  1.0636 -0.7963 -2.2958
 8684SOL    HW237512   2.139   3.936   4.754  0.2562 -0.2169  0.2522
 8685SOL     OW37513   2.962   0.830   4.149 -0.2221  0.0142 -0.0899
 8685SOL    HW137514   2.900   0.793   4.086  4.0985 -1.7384 -3.2599
 8685SOL    HW237515   3.048   0.804   4.118 -1.1640 -1.2995 -1.5931
 8686SOL     OW37516   2.625   2.393  16.591  0.0477  0.0872 -0.0220
 8686SOL    HW137517   2.681   2.430  16.660 -1.0085  1.8318 -0.1068
 8686SOL    HW237518   2.685   2.349  16.531 -0.6298  0.5944 -1.0812
 8687SOL     OW37519   1.519   2.207   4.237  0.1595 -0.0561  1.1724
 8687SOL    HW137520   1.480   2.274   4.293 -0.5497  0.0907  0.4962
 8687SOL    HW237521   1.591   2.169   4.289 -0.7133 -1.7703  1.1083
 8688SOL     OW37522   3.690   4.536  12.324  0.3337  0.0739  0.2016
 8688SOL    HW137523   3.632   4.529  12.400  0.9905 -0.5907  0.6460
 8688SOL    HW237524   3.765   4.482  12.351  1.1431  0.4504 -1.2904
 8689SOL     OW37525   1.499   3.601  17.431 -0.2793 -0.1349  0.6295
 8689SOL    HW137526   1.479   3.513  17.461 -0.3013 -0.1065  0.6987
 8689SOL    HW237527   1.488   3.589  17.337  0.5379  3.7244  0.0370
 8690SOL     OW37528   0.079   0.558  12.904  0.2641 -0.0501 -0.0966
 8690SOL    HW137529   0.125   0.606  12.836 -1.5220  1.8929  0.0686
 8690SOL    HW237530   0.066   0.635  12.960 -3.0942 -1.4602  1.0792
 8691SOL     OW37531   1.102   0.024   4.373 -0.3531  0.2224  0.2988
 8691SOL    HW137532   1.026   0.016   4.314 -0.2814 -1.4882  0.4191
 8691SOL    HW237533   1.157   0.089   4.330 -0.7320 -0.1516 -0.7594
 8692SOL     OW37534   2.588   0.935   0.647 -0.1601  0.0390 -0.6353
 8692SOL    HW137535   2.669   0.979   0.622  0.7182 -0.8978  0.5936
 8692SOL    HW237536   2.619   0.849   0.675  3.5302  1.5099 -0.1796
 8693SOL     OW37537   4.276   0.546   5.471  0.0416  0.1341 -0.5436
 8693SOL    HW137538   4.238   0.591   5.547  3.6199 -0.3708  1.5532
 8693SOL    HW237539   4.358   0.594   5.464  1.4135 -2.1292 -0.2211
 8694SOL     OW37540   4.166   0.537  14.046 -0.0483  0.0073 -0.5009
 8694SOL    HW137541   4.230   0.475  14.081 -0.3170  0.3456  0.5968
 8694SOL    HW237542   4.219   0.616  14.055 -2.9289  2.2878 -3.5237
 8695SOL     OW37543   4.491   1.301   7.121  0.0913  0.5671 -0.2796
 8695SOL    HW137544   4.488   1.211   7.153  4.5862  0.4396 -0.2301
 8695SOL    HW237545   4.562   1.300   7.056  0.9020 -3.2175  0.6523
 8696SOL     OW37546   1.835   0.473   6.634  0.0457  0.6947 -0.5468
 8696SOL    HW137547   1.851   0.566   6.624  1.5013  0.3127 -1.7544
 8696SOL    HW237548   1.880   0.438   6.557  1.2445 -0.9857  0.9131
 8697SOL     OW37549   3.180   4.362   7.306  0.1229 -0.3266  0.5616
 8697SOL    HW137550   3.115   4.292   7.296 -1.8085  1.7923 -1.8173
 8697SOL    HW237551   3.137   4.406   7.379  0.0016  0.8221 -0.1992
 8698SOL     OW37552   4.316   3.867  17.664  0.0228 -0.5614  0.2159
 8698SOL    HW137553   4.393   3.826  17.624 -0.6703  0.4933 -2.2189
 8698SOL    HW237554   4.345   3.957  17.682  2.0170 -0.5102 -3.1699
 8699SOL     OW37555   4.360   1.591   5.745 -0.8143  0.2417 -0.1554
 8699SOL    HW137556   4.421   1.583   5.818  0.2116 -0.1842 -1.0493
 8699SOL    HW237557   4.391   1.525   5.683  0.4517 -0.2771  1.0300
 8700SOL     OW37558   0.922   0.071   4.828 -0.1553  0.3424 -0.4597
 8700SOL    HW137559   0.894   0.068   4.736 -0.7872 -2.4864 -0.1715
 8700SOL    HW237560   1.002   0.019   4.832  0.0404  0.7424  0.6630
 8701SOL     OW37561   0.584   0.768   6.487 -0.1906 -0.3046  0.4589
 8701SOL    HW137562   0.604   0.805   6.401 -1.6625 -0.8324 -0.1139
 8701SOL    HW237563   0.490   0.751   6.490 -0.2117 -0.2682  0.0412
 8702SOL     OW37564   4.323   2.085   5.267 -0.2449 -0.0037  0.2046
 8702SOL    HW137565   4.406   2.038   5.281  0.7669  1.8161  0.3290
 8702SOL    HW237566   4.317   2.091   5.171  0.4291 -0.5968  0.1255
 8703SOL     OW37567   0.043   2.828   3.135 -0.1886 -0.2327  0.0671
 8703SOL    HW137568   0.002   2.799   3.053  2.1616 -0.7645 -0.9007
 8703SOL    HW237569   0.124   2.861   3.098 -1.2685  0.6254 -1.5301
 8704SOL     OW37570   2.882   3.203   8.901 -0.5746 -0.6528  0.0970
 8704SOL    HW137571   2.855   3.277   8.955 -0.9373  1.4601 -2.9909
 8704SOL    HW237572   2.955   3.164   8.950 -0.0656  0.7020  0.4197
 8705SOL     OW37573   4.454   4.129   7.976  0.6382  0.3180 -0.3290
 8705SOL    HW137574   4.497   4.180   8.045  0.5090 -0.8570  0.6147
 8705SOL    HW237575   4.363   4.139   8.005  0.8919  0.6418  0.3617
 8706SOL     OW37576   3.512   4.279   1.348 -0.5015 -0.2375 -0.0593
 8706SOL    HW137577   3.446   4.293   1.416  1.0487 -0.9394  1.5971
 8706SOL    HW237578   3.474   4.310   1.266  0.3959  1.0743  0.0174
 8707SOL     OW37579   1.869   0.382   4.154  0.1573  0.0454  0.4501
 8707SOL    HW137580   1.836   0.342   4.074 -2.3204  3.3596 -0.2052
 8707SOL    HW237581   1.792   0.434   4.177 -0.4399 -0.9088  0.5695
 8708SOL     OW37582   4.629   2.131   0.142  0.0106 -0.4251  0.5688
 8708SOL    HW137583   4.716   2.091   0.142  0.3223  0.2563  0.2967
 8708SOL    HW237584   4.572   2.060   0.172 -3.9851  0.5812 -4.6378
 8709SOL     OW37585   3.782   1.910  11.899  0.8242  0.1790 -0.1792
 8709SOL    HW137586   3.869   1.941  11.925  1.0632 -0.7869  0.1535
 8709SOL    HW237587   3.739   1.893  11.982  0.1277  0.0077 -0.5743
 8710SOL     OW37588   1.308   0.847   6.631  0.3651 -0.0317 -0.4545
 8710SOL    HW137589   1.230   0.848   6.577  1.0788  0.4995 -1.4789
 8710SOL    HW237590   1.278   0.823   6.719 -0.6488  2.3124 -0.1518
 8711SOL     OW37591   1.277   0.784   0.744 -0.0369  0.2027  0.1355
 8711SOL    HW137592   1.265   0.876   0.767 -1.2514 -0.1675  0.9717
 8711SOL    HW237593   1.203   0.747   0.792 -0.1178 -0.2757 -0.3513
 8712SOL     OW37594   0.920   2.708  14.839 -0.0521  0.0173  0.7832
 8712SOL    HW137595   1.006   2.701  14.799 -0.7552 -0.2849 -0.7043
 8712SOL    HW237596   0.887   2.786  14.792 -2.2049 -0.3968  1.5852
 8713SOL     OW37597   4.539   0.528   8.605 -0.5449 -0.0834  0.3921
 8713SOL    HW137598   4.487   0.591   8.655  0.2309  0.1433  0.9152
 8713SOL    HW237599   4.619   0.517   8.656 -0.1902  1.4850  0.1674
 8714SOL     OW37600   3.274   3.185  15.327 -0.4972  0.3788  0.2093
 8714SOL    HW137601   3.364   3.157  15.342 -0.8103 -0.8819 -0.2612
 8714SOL    HW237602   3.229   3.102  15.340  1.2940  0.0360  4.3022
 8715SOL     OW37603   2.178   3.680   6.005  0.0426  0.1084 -0.0888
 8715SOL    HW137604   2.091   3.645   5.987  1.2409 -2.2402 -1.3752
 8715SOL    HW237605   2.152   3.760   6.051  1.3897  1.4949 -1.7341
 8716SOL     OW37606   3.924   3.671  10.819  0.5903  0.0544 -0.7928
 8716SOL    HW137607   3.983   3.728  10.770  0.9811  0.0712 -0.3077
 8716SOL    HW237608   3.913   3.719  10.901  1.1319  1.7492 -1.7193
 8717SOL     OW37609   0.845   4.521   7.783 -0.2171 -0.0002  0.0976
 8717SOL    HW137610   0.858   4.533   7.689 -1.0935 -1.0390 -0.1560
 8717SOL    HW237611   0.932   4.540   7.819 -0.0284  0.9631 -0.8695
 8718SOL     OW37612   2.180   0.488   3.519 -0.9534  0.1203  0.0819
 8718SOL    HW137613   2.106   0.545   3.498 -0.8792  0.2702  0.2297
 8718SOL    HW237614   2.240   0.501   3.445  0.3811 -0.2007  1.1047
 8719SOL     OW37615   2.828   2.370   0.289  0.4027 -0.1056  0.3668
 8719SOL    HW137616   2.764   2.440   0.298  0.9108  0.7013 -2.3759
 8719SOL    HW237617   2.776   2.291   0.308 -1.2284  1.1764  1.2111
 8720SOL     OW37618   3.809   0.178   3.076 -0.0990  0.2162 -0.2315
 8720SOL    HW137619   3.827   0.224   3.158 -2.4726 -0.8029  0.8625
 8720SOL    HW237620   3.809   0.252   3.015  0.3498 -0.1171 -0.6375
 8721SOL     OW37621   2.331   3.678   4.572 -0.4668 -0.2149  0.5871
 8721SOL    HW137622   2.355   3.649   4.660 -0.1364 -0.8615  0.2802
 8721SOL    HW237623   2.334   3.773   4.584 -0.8141 -0.1492  0.1297
 8722SOL     OW37624   0.108   3.412   3.395  0.3341 -0.1398  0.3301
 8722SOL    HW137625   0.192   3.413   3.443  0.0284  0.4860  0.8510
 8722SOL    HW237626   0.117   3.494   3.346 -0.0676  0.2440  0.9058
 8723SOL     OW37627   1.275   2.845   8.934  0.2379  0.0304  0.3528
 8723SOL    HW137628   1.288   2.917   8.997  2.7489 -3.2877  3.6129
 8723SOL    HW237629   1.195   2.870   8.887  0.3362  0.6780  0.5286
 8724SOL     OW37630   4.287   0.242   4.797  0.8847  0.3089 -0.0511
 8724SOL    HW137631   4.235   0.162   4.793 -1.2386  1.6302  1.1148
 8724SOL    HW237632   4.371   0.204   4.771  1.3368  0.0778  1.7426
 8725SOL     OW37633   2.370   1.379   3.645 -0.1424  0.2034  0.0782
 8725SOL    HW137634   2.287   1.425   3.638 -1.5100 -2.3505 -0.5217
 8725SOL    HW237635   2.370   1.345   3.735  1.0241 -0.5932 -0.2177
 8726SOL     OW37636   3.356   3.304   6.976  0.2255 -0.1884  0.5967
 8726SOL    HW137637   3.309   3.285   6.895 -1.6668 -0.0319  1.6674
 8726SOL    HW237638   3.323   3.232   7.030  3.7336 -0.4873  2.3278
 8727SOL     OW37639   4.501   4.562   5.769  0.7301 -0.0758 -0.2405
 8727SOL    HW137640   4.487   4.546   5.675 -1.9270  0.1655  0.1067
 8727SOL    HW237641   4.422   4.524   5.809  1.1365 -0.6674 -0.0010
 8728SOL     OW37642   0.438   0.406  16.976 -0.5461 -0.6871 -0.6616
 8728SOL    HW137643   0.372   0.378  17.039 -0.0988  1.3454  0.7067
 8728SOL    HW237644   0.388   0.442  16.903  1.1200  2.0984 -0.4016
 8729SOL     OW37645   0.151   3.499  12.731 -0.0710 -0.0091 -0.1958
 8729SOL    HW137646   0.148   3.490  12.636 -0.6169 -0.4770 -0.1333
 8729SOL    HW237647   0.062   3.529  12.746  0.2308 -0.2192  2.1015
 8730SOL     OW37648   1.255   2.477  16.499  0.0759  0.5959  0.3962
 8730SOL    HW137649   1.236   2.429  16.418  1.1367 -0.3964  0.7351
 8730SOL    HW237650   1.170   2.517  16.515  0.2362  0.7788  0.7918
 8731SOL     OW37651   4.050   2.381   7.070  0.1864  0.2095 -0.1278
 8731SOL    HW137652   3.993   2.309   7.042  1.0754  0.0766 -1.5949
 8731SOL    HW237653   4.121   2.358   7.010  1.1984 -2.6363  2.1385
 8732SOL     OW37654   3.033   2.185   3.113 -0.4555  0.6832  0.5128
 8732SOL    HW137655   3.018   2.165   3.205  0.1621  1.6517  0.8157
 8732SOL    HW237656   3.128   2.191   3.107 -0.4333  0.0063  0.0944
 8733SOL     OW37657   2.573   2.273   7.110  0.0443  0.3580  0.0148
 8733SOL    HW137658   2.586   2.356   7.156 -2.4315 -0.1473  1.6413
 8733SOL    HW237659   2.652   2.224   7.129  0.0787 -0.1039 -1.2740
 8734SOL     OW37660   3.167   3.807   3.034  0.4089  0.5643  0.7563
 8734SOL    HW137661   3.159   3.815   3.129  1.9635 -0.2332  0.9450
 8734SOL    HW237662   3.106   3.880   3.021 -0.6860 -0.3968  0.4812
 8735SOL     OW37663   4.394   2.251  16.157  0.1941 -0.1808  0.0781
 8735SOL    HW137664   4.360   2.286  16.075 -0.7964 -0.7030  0.2606
 8735SOL    HW237665   4.424   2.166  16.125  2.6579  0.4884  0.6368
 8736SOL     OW37666   0.825   0.776  13.541  0.5365 -0.1599  0.2580
 8736SOL    HW137667   0.859   0.719  13.473  0.3345  0.1705 -0.1167
 8736SOL    HW237668   0.737   0.737  13.542 -0.3740  1.9303  3.5950
 8737SOL     OW37669   0.230   1.116  11.133 -0.2950  0.2490 -0.7275
 8737SOL    HW137670   0.250   1.202  11.169 -1.8037  0.7524 -1.1314
 8737SOL    HW237671   0.299   1.062  11.174 -1.6695 -2.2078 -1.6229
 8738SOL     OW37672   1.602   3.731  14.323 -0.2736  0.5470 -0.0739
 8738SOL    HW137673   1.661   3.747  14.250  3.6103  0.3832  3.0750
 8738SOL    HW237674   1.591   3.825  14.337  1.2616  0.7559 -0.2840
 8739SOL     OW37675   3.117   2.142  14.834 -0.1635  0.1250  0.2325
 8739SOL    HW137676   3.083   2.058  14.804  1.3431 -0.5434  0.4064
 8739SOL    HW237677   3.177   2.160  14.761 -1.8869  0.0122 -1.2202
 8740SOL     OW37678   4.705   0.120  14.664 -0.1443 -0.5756  0.3665
 8740SOL    HW137679   0.002   0.202  14.620 -0.6827  0.2931  1.7387
 8740SOL    HW237680   0.056   0.124  14.724 -2.6555  0.9607  3.3817
 8741SOL     OW37681   3.567   2.768   4.285 -0.5251  0.2162 -0.4988
 8741SOL    HW137682   3.568   2.674   4.269  1.0737  0.4826 -1.9336
 8741SOL    HW237683   3.662   2.780   4.277 -0.2246 -0.8444  1.5222
 8742SOL     OW37684   0.962   4.424   6.716 -0.0158  0.8419  0.3057
 8742SOL    HW137685   0.951   4.336   6.680 -0.1655  2.7610 -4.3640
 8742SOL    HW237686   0.955   4.420   6.811  0.0513  0.6839  0.3048
 8743SOL     OW37687   4.632   4.070   2.311  0.5347  0.2534  0.4179
 8743SOL    HW137688   4.648   3.981   2.343 -2.0314 -0.5814 -0.5910
 8743SOL    HW237689   4.537   4.057   2.311  0.8460 -2.1312  0.1725
 8744SOL     OW37690   2.785   1.028   6.619 -0.2347 -0.1899 -0.2520
 8744SOL    HW137691   2.699   0.997   6.590 -0.3625  0.6461 -0.7482
 8744SOL    HW237692   2.803   0.967   6.691  0.4903 -1.8763 -1.8507
 8745SOL     OW37693   0.811   2.593   7.055 -0.3047  0.3934  0.4204
 8745SOL    HW137694   0.833   2.660   7.120 -2.5340 -0.3657  1.9612
 8745SOL    HW237695   0.852   2.624   6.974 -1.3631 -0.3476 -0.3996
 8746SOL     OW37696   0.229   3.950  12.460 -0.4102 -0.4856  0.0099
 8746SOL    HW137697   0.312   3.994  12.477 -0.6752  0.6995 -1.7357
 8746SOL    HW237698   0.179   3.980  12.536 -0.5202 -1.5816  0.3559
 8747SOL     OW37699   3.532   4.104   4.589  0.2662 -0.1551 -0.1196
 8747SOL    HW137700   3.454   4.112   4.644 -0.4778  2.5493 -1.5790
 8747SOL    HW237701   3.577   4.030   4.630 -1.2105 -2.0187 -1.8752
 8748SOL     OW37702   2.145   2.611   8.161  0.5152 -0.6810 -0.1439
 8748SOL    HW137703   2.091   2.650   8.230  2.6422  2.0874 -0.0299
 8748SOL    HW237704   2.085   2.587   8.091  0.2226  2.9638 -1.1689
 8749SOL     OW37705   0.938   1.449  14.790 -0.4020 -0.0648  0.3422
 8749SOL    HW137706   0.955   1.364  14.751 -1.2494 -0.2971  0.5013
 8749SOL    HW237707   0.915   1.506  14.717  2.2444 -0.7296 -1.0246
 8750SOL     OW37708   1.041   3.923   6.833 -0.5793 -0.1755 -0.8588
 8750SOL    HW137709   1.041   3.860   6.905  1.7249  0.4879 -0.2743
 8750SOL    HW237710   1.133   3.948   6.827 -0.4369 -0.9415 -1.8033
 8751SOL     OW37711   3.330   3.372   0.672  0.2667 -0.1407 -0.0377
 8751SOL    HW137712   3.393   3.331   0.731 -0.0168  0.9040  1.0086
 8751SOL    HW237713   3.276   3.300   0.640  1.4862 -0.6257 -0.9899
 8752SOL     OW37714   1.633   2.320   4.970 -0.3558 -0.0898  0.1137
 8752SOL    HW137715   1.683   2.254   4.922  0.6178 -0.1383  1.2073
 8752SOL    HW237716   1.696   2.334   5.041 -1.6018  1.9854  0.8014
 8753SOL     OW37717   0.819   1.018   6.084  0.0949  0.1832 -0.1495
 8753SOL    HW137718   0.911   1.037   6.066  0.1851  0.3449  0.4924
 8753SOL    HW237719   0.774   1.068   6.016  0.2545 -0.6850 -0.8882
 8754SOL     OW37720   4.429   2.558   2.968 -0.2996 -0.3060  0.5689
 8754SOL    HW137721   4.443   2.510   3.050  0.9816  1.5318  1.4308
 8754SOL    HW237722   4.334   2.572   2.973 -0.3825 -0.5567 -0.2698
 8755SOL     OW37723   2.216   2.932   4.973 -0.4008 -0.0639  0.2147
 8755SOL    HW137724   2.262   2.967   5.049  0.0021 -0.0757 -0.0242
 8755SOL    HW237725   2.247   2.843   4.959 -1.4571 -0.5197  0.7775
 8756SOL     OW37726   0.669   2.260   6.798 -0.3567  0.0337  0.0333
 8756SOL    HW137727   0.637   2.308   6.874 -0.7590 -0.4840  0.1912
 8756SOL    HW237728   0.692   2.185   6.853  2.2641  2.4940  2.3352
 8757SOL     OW37729   1.345   1.273   4.657  0.4117  0.0630 -0.4628
 8757SOL    HW137730   1.394   1.228   4.726  1.7594  2.4561  0.1096
 8757SOL    HW237731   1.397   1.241   4.583  1.5186 -3.2228  1.7005
 8758SOL     OW37732   1.935   1.693   5.945  0.3271 -0.4715 -0.5625
 8758SOL    HW137733   1.986   1.617   5.916  0.1816 -0.5877 -0.5153
 8758SOL    HW237734   2.008   1.741   5.984  0.2051 -1.2238  0.5957
 8759SOL     OW37735   2.295   3.032   2.319 -0.2745  0.3561  0.1953
 8759SOL    HW137736   2.231   3.046   2.388  0.5918  2.8489  0.4652
 8759SOL    HW237737   2.323   2.942   2.336 -0.3736  0.4470  0.8363
 8760SOL     OW37738   3.251   4.618   7.242 -0.2749  0.0507  0.6644
 8760SOL    HW137739   3.216   4.535   7.273 -0.5279 -0.0715  0.0519
 8760SOL    HW237740   3.194   4.627   7.166  2.2664 -2.3331 -1.5129
 8761SOL     OW37741   3.458   2.598   5.027  0.0064  0.0778 -0.0628
 8761SOL    HW137742   3.481   2.637   5.111  0.4377  1.3932 -0.7898
 8761SOL    HW237743   3.515   2.521   5.024  0.1200  0.2346 -1.8880
 8762SOL     OW37744   3.818   1.059   9.536 -0.9049  0.2174 -0.1726
 8762SOL    HW137745   3.771   1.102   9.465 -2.3530 -0.5865  0.3236
 8762SOL    HW237746   3.789   0.969   9.526 -1.3371  0.3844 -0.4117
 8763SOL     OW37747   0.650   3.698   3.273 -0.1486 -0.7560 -0.1287
 8763SOL    HW137748   0.627   3.606   3.285 -2.4387 -0.1829 -0.1180
 8763SOL    HW237749   0.683   3.718   3.360  0.0155  0.3523 -0.4380
 8764SOL     OW37750   4.117   1.236   3.008 -0.2581 -0.0374  0.1819
 8764SOL    HW137751   4.101   1.182   2.930  0.4839  0.5627 -0.3881
 8764SOL    HW237752   4.067   1.316   2.992  2.2618  1.7198  1.1120
 8765SOL     OW37753   4.295   0.302   6.358  0.0583  0.3468  0.0297
 8765SOL    HW137754   4.335   0.273   6.440 -2.1453  1.5886  1.5541
 8765SOL    HW237755   4.369   0.345   6.315  1.0165 -3.2809 -1.8687
 8766SOL     OW37756   4.617   0.703   8.955 -0.2150  0.7017  0.3714
 8766SOL    HW137757   4.649   0.627   9.004  0.6378  0.9365  0.1816
 8766SOL    HW237758   4.569   0.746   9.026 -1.2958  0.2654 -0.0976
 8767SOL     OW37759   0.942   3.350  15.323  0.2387  0.2281 -0.1688
 8767SOL    HW137760   1.023   3.381  15.282 -0.0858  0.9152 -0.2839
 8767SOL    HW237761   0.889   3.325  15.248 -2.7485 -0.0067  2.0429
 8768SOL     OW37762   4.171   0.264   4.401  0.8828  0.0594 -0.3080
 8768SOL    HW137763   4.095   0.320   4.413  0.6299 -0.2068 -0.6724
 8768SOL    HW237764   4.236   0.322   4.362  2.2703 -2.0778 -1.1642
 8769SOL     OW37765   2.773   3.414   6.221 -0.2781  0.0197 -0.2064
 8769SOL    HW137766   2.712   3.373   6.160  0.7856  0.2931 -1.4513
 8769SOL    HW237767   2.827   3.463   6.159 -0.5413 -1.1453 -1.3349
 8770SOL     OW37768   1.938   3.857  13.377 -0.3990 -0.1578 -0.9807
 8770SOL    HW137769   1.843   3.851  13.371 -0.4793 -1.6595  1.9203
 8770SOL    HW237770   1.942   3.942  13.419  0.0689 -0.2534 -0.8288
 8771SOL     OW37771   1.459   1.808   6.341  0.1431 -0.3634  0.2035
 8771SOL    HW137772   1.487   1.892   6.378 -1.0563 -0.2635  0.8776
 8771SOL    HW237773   1.372   1.794   6.377 -0.3315 -0.2795 -0.8903
 8772SOL     OW37774   3.578   0.483   9.969  0.3654 -0.0982  0.0746
 8772SOL    HW137775   3.489   0.449   9.975  0.9715 -1.2565  2.5913
 8772SOL    HW237776   3.562   0.541   9.894 -1.0487 -2.1292 -1.2035
 8773SOL     OW37777   1.800   4.178  17.033  0.0083  0.5566 -0.0662
 8773SOL    HW137778   1.729   4.215  17.086 -0.1616  0.3938 -0.1831
 8773SOL    HW237779   1.870   4.244  17.034  0.5813 -0.0714  0.9808
 8774SOL     OW37780   3.363   0.825   9.604  0.3450  0.2011 -0.0804
 8774SOL    HW137781   3.272   0.823   9.634  0.5801 -1.5294  0.5040
 8774SOL    HW237782   3.381   0.919   9.595 -2.1850  0.6511 -0.4845
 8775SOL     OW37783   3.266   1.728   6.349  0.2536 -0.5090 -0.1341
 8775SOL    HW137784   3.333   1.790   6.379 -0.0999 -0.7577  1.1653
 8775SOL    HW237785   3.205   1.783   6.300 -1.4136 -1.6169  0.7233
 8776SOL     OW37786   0.515   4.314  12.342 -0.8130  0.1650 -0.5762
 8776SOL    HW137787   0.490   4.240  12.398  1.9583  0.5878  1.2691
 8776SOL    HW237788   0.436   4.364  12.360 -0.3121  1.0223 -0.7500
 8777SOL     OW37789   0.502   4.562   4.727 -0.5633 -0.2114  0.6521
 8777SOL    HW137790   0.466   4.606   4.804 -1.1938 -2.5930  1.7037
 8777SOL    HW237791   0.557   4.499   4.773 -1.3915 -0.8900  0.7133
 8778SOL     OW37792   4.580   2.840   8.237  0.0472  0.2776 -0.0960
 8778SOL    HW137793   4.522   2.822   8.164  1.2090 -0.0225 -0.9412
 8778SOL    HW237794   4.523   2.886   8.299  2.2131  2.5608  0.2088
 8779SOL     OW37795   1.180   2.594   9.224 -0.0217 -0.4337 -0.3247
 8779SOL    HW137796   1.164   2.554   9.309 -1.9811  1.0070 -0.0066
 8779SOL    HW237797   1.088   2.608   9.200  0.1970  1.5589 -0.0034
 8780SOL     OW37798   1.158   4.037   4.853  0.2623  0.7453 -1.1001
 8780SOL    HW137799   1.122   3.950   4.874 -1.0726  1.7913  0.8925
 8780SOL    HW237800   1.235   4.044   4.909 -1.4537 -0.7226  1.4217
 8781SOL     OW37801   1.040   3.468  16.470  0.2614  0.4697 -0.3046
 8781SOL    HW137802   1.129   3.461  16.507  0.3391 -1.7726 -0.8668
 8781SOL    HW237803   0.991   3.525  16.529 -1.0691 -3.8514  2.7720
 8782SOL     OW37804   3.627   4.411   4.373 -0.2720 -0.1248  0.2767
 8782SOL    HW137805   3.716   4.378   4.387  1.3632  3.4339 -2.0761
 8782SOL    HW237806   3.627   4.419   4.278  1.2126  0.7588  0.3593
 8783SOL     OW37807   3.389   3.651  12.960 -0.4948  0.9790  0.1188
 8783SOL    HW137808   3.333   3.595  12.905  0.2975  2.9411 -2.7130
 8783SOL    HW237809   3.318   3.704  12.997 -1.5525  0.3391 -0.9511
 8784SOL     OW37810   1.303   0.609   8.403 -0.3490  0.4180 -0.4997
 8784SOL    HW137811   1.379   0.658   8.371  0.7532 -1.5104 -0.8437
 8784SOL    HW237812   1.276   0.636   8.491  1.1202  1.7630 -0.4607
 8785SOL     OW37813   4.266   3.631   8.197  0.5720  0.1537 -0.3763
 8785SOL    HW137814   4.360   3.633   8.179  0.6704  0.5397  0.1840
 8785SOL    HW237815   4.235   3.563   8.137 -1.3185  0.6166  0.0958
 8786SOL     OW37816   1.436   4.691   5.718 -0.4307  0.3145  0.0427
 8786SOL    HW137817   1.442   0.005   5.806  2.4581 -0.9056  0.3749
 8786SOL    HW237818   1.407   4.604   5.745  3.3232 -1.5026 -1.8352
 8787SOL     OW37819   2.725   3.026   5.356  0.7030  0.4425 -0.6073
 8787SOL    HW137820   2.756   2.954   5.301 -2.4562  0.6963 -2.7436
 8787SOL    HW237821   2.806   3.072   5.379  1.1462 -0.2089 -0.8424
 8788SOL     OW37822   0.442   4.218   2.379 -0.2911 -0.1664 -0.3763
 8788SOL    HW137823   0.461   4.182   2.292  1.1245  1.4954 -0.7656
 8788SOL    HW237824   0.348   4.201   2.382 -0.5298  0.8942 -1.6784
 8789SOL     OW37825   2.983   4.186   5.321  0.3072 -0.0641  0.3948
 8789SOL    HW137826   3.035   4.123   5.371 -0.8903  0.2995  2.1053
 8789SOL    HW237827   3.030   4.269   5.324  0.2229 -0.0416  1.0630
 8790SOL     OW37828   1.950   3.032   3.249  0.4189 -0.2600 -0.0184
 8790SOL    HW137829   1.942   3.126   3.233  1.4884 -0.3256 -0.9430
 8790SOL    HW237830   1.997   3.036   3.333  0.2552 -0.8435  0.1044
 8791SOL     OW37831   2.467   4.503   5.381  0.4037  0.0345  0.2321
 8791SOL    HW137832   2.428   4.458   5.455 -0.2470 -0.0396 -0.1574
 8791SOL    HW237833   2.533   4.548   5.434 -0.6828  0.5289  1.1546
 8792SOL     OW37834   0.059   2.066   1.933 -0.0130 -0.4126 -0.0638
 8792SOL    HW137835   0.079   2.012   2.009 -0.7885  2.3092  2.0844
 8792SOL    HW237836   0.010   2.003   1.880 -0.6217  0.7329 -0.8566
 8793SOL     OW37837   4.697   3.545  14.015  0.1571  0.1623  0.0735
 8793SOL    HW137838   4.620   3.526  13.961 -0.7156  1.7981  0.7447
 8793SOL    HW237839   4.717   3.634  13.986 -0.8494  0.4383  0.2266
 8794SOL     OW37840   3.620   4.625   3.728  0.0656 -0.2353  0.2706
 8794SOL    HW137841   3.712   4.617   3.752  0.5554  0.8868 -1.2335
 8794SOL    HW237842   3.630   4.699   3.668 -2.1198  0.0038  0.1737
 8795SOL     OW37843   3.866   0.952   5.886 -1.1449 -0.1244  0.2980
 8795SOL    HW137844   3.813   1.018   5.841  0.3617 -0.0782 -1.3895
 8795SOL    HW237845   3.826   0.938   5.972  0.0243 -0.5602  0.7749
 8796SOL     OW37846   4.496   1.986   0.363 -0.1439  0.1469 -0.0590
 8796SOL    HW137847   4.484   2.078   0.388 -3.4532 -0.6441  1.3007
 8796SOL    HW237848   4.519   1.941   0.444 -1.9049  0.9932  0.9213
 8797SOL     OW37849   3.877   2.552   2.988  0.2776 -0.7922 -0.4274
 8797SOL    HW137850   3.938   2.533   2.917  1.1121  0.2346  0.0118
 8797SOL    HW237851   3.894   2.469   3.032  1.4129  0.8331  2.2209
 8798SOL     OW37852   2.048   2.750  10.212 -0.0326 -0.1139  0.6582
 8798SOL    HW137853   1.957   2.768  10.188 -0.0954  0.6826  1.4893
 8798SOL    HW237854   2.047   2.746  10.308 -1.1016  0.6505  0.6758
 8799SOL     OW37855   0.159   0.571   2.882  0.0162 -0.1256  0.5690
 8799SOL    HW137856   0.143   0.488   2.927  0.5720  1.2124  3.2192
 8799SOL    HW237857   0.205   0.545   2.802  1.1120 -0.1603  1.2055
 8800SOL     OW37858   1.969   1.780   4.316  0.5036 -0.0757  0.4261
 8800SOL    HW137859   1.890   1.739   4.280 -0.5079  0.5857  1.8832
 8800SOL    HW237860   2.029   1.762   4.243  1.6620  0.7941  1.1545
 8801SOL     OW37861   2.835   0.209   5.380  0.3188  0.3915 -0.0701
 8801SOL    HW137862   2.753   0.170   5.411 -1.7628  2.8899 -2.4099
 8801SOL    HW237863   2.818   0.302   5.395  2.1274  0.5267  1.0560
 8802SOL     OW37864   4.280   3.290   3.827 -0.5022 -0.0862 -0.4148
 8802SOL    HW137865   4.357   3.309   3.772 -0.4263  2.2256  0.4707
 8802SOL    HW237866   4.207   3.324   3.775 -1.1574  0.2009  0.6913
 8803SOL     OW37867   0.741   1.897   7.477 -0.3378 -0.0340 -0.2657
 8803SOL    HW137868   0.717   1.955   7.550  0.1974 -1.0224  0.6956
 8803SOL    HW237869   0.835   1.879   7.485 -0.3453  0.1116  0.1848
 8804SOL     OW37870   3.472   2.529  14.555 -0.4096  0.9741 -0.0431
 8804SOL    HW137871   3.503   2.575  14.633 -0.8361 -0.4333  0.9474
 8804SOL    HW237872   3.482   2.436  14.575 -1.1620  0.9168  0.0561
 8805SOL     OW37873   1.191   4.667   9.548 -0.3945  0.4576  0.8380
 8805SOL    HW137874   1.162   4.665   9.640  0.7999  1.1055  1.2296
 8805SOL    HW237875   1.163   4.580   9.520  1.7228  0.1713 -0.3501
 8806SOL     OW37876   3.847   2.832   3.025 -0.1939  1.0060 -0.3000
 8806SOL    HW137877   3.868   2.740   3.009 -1.5178  0.5347  0.6775
 8806SOL    HW237878   3.775   2.830   3.087 -1.4190 -2.0948 -1.8144
 8807SOL     OW37879   2.710   0.557   8.490 -0.5860 -0.0474 -0.1250
 8807SOL    HW137880   2.777   0.591   8.549 -1.0217 -0.1099  0.4100
 8807SOL    HW237881   2.668   0.483   8.534 -0.1383 -1.2725 -1.7412
 8808SOL     OW37882   0.561   2.370  12.743 -0.2468  0.6057  0.0215
 8808SOL    HW137883   0.597   2.356  12.831  4.2243 -1.1480 -2.1194
 8808SOL    HW237884   0.577   2.291  12.692 -2.7279  0.7833 -1.0190
 8809SOL     OW37885   2.541   3.306   5.228 -0.6446 -0.2125  0.6324
 8809SOL    HW137886   2.602   3.316   5.301  0.7725 -1.0257 -0.4370
 8809SOL    HW237887   2.586   3.236   5.181 -1.7810 -1.4785  1.4251
 8810SOL     OW37888   2.649   4.414   5.826  0.2144  0.1228  0.1806
 8810SOL    HW137889   2.579   4.473   5.852  1.0569 -0.1013  2.9985
 8810SOL    HW237890   2.668   4.362   5.904 -1.7684 -3.7133 -1.8916
 8811SOL     OW37891   0.119   3.898   4.147 -0.6479  0.4724  0.4832
 8811SOL    HW137892   0.060   3.837   4.190 -1.0975 -0.1256 -0.9993
 8811SOL    HW237893   0.140   3.854   4.065  0.8009  2.4406 -0.2294
 8812SOL     OW37894   0.467   0.945   0.511  0.2010 -0.1120  0.1534
 8812SOL    HW137895   0.465   1.028   0.464 -1.7089 -0.6200 -0.6767
 8812SOL    HW237896   0.534   0.897   0.462  2.8010  2.3317  1.2966
 8813SOL     OW37897   4.152   4.659   5.678  0.2676  0.2852 -0.1990
 8813SOL    HW137898   4.192   4.659   5.591 -1.0125  0.1338 -0.7790
 8813SOL    HW237899   4.191   4.577   5.708  0.1791  0.2129 -0.2828
 8814SOL     OW37900   2.871   2.811   4.734  0.2942  0.2826  0.4896
 8814SOL    HW137901   2.791   2.850   4.768  0.6383 -0.0919  1.7417
 8814SOL    HW237902   2.845   2.811   4.642 -1.1720 -0.1747  0.8959
 8815SOL     OW37903   1.147   1.632   8.586 -0.4063 -0.1128  0.1954
 8815SOL    HW137904   1.149   1.642   8.491 -3.4154 -2.5082 -0.1195
 8815SOL    HW237905   1.226   1.581   8.604  0.2623  0.9851  0.3139
 8816SOL     OW37906   2.661   0.112  17.325 -0.3819  0.3292  0.5751
 8816SOL    HW137907   2.612   0.033  17.347 -0.4213  0.4493  0.9167
 8816SOL    HW237908   2.687   0.140  17.413  1.1844  1.3719 -0.2095
 8817SOL     OW37909   1.954   4.523   6.518 -0.2776  0.3828  0.5193
 8817SOL    HW137910   1.881   4.585   6.510  0.5985  0.9867 -2.8809
 8817SOL    HW237911   1.905   4.457   6.567  1.8844 -1.8726 -0.3909
 8818SOL     OW37912   1.980   0.512   6.885 -0.0595  0.0613  0.3114
 8818SOL    HW137913   1.931   0.592   6.904 -1.1471 -0.8049  1.0879
 8818SOL    HW237914   1.934   0.481   6.807 -1.8165 -1.2054  1.8633
 8819SOL     OW37915   3.000   4.402  12.461  0.7022 -0.4513  0.3069
 8819SOL    HW137916   2.962   4.488  12.482  1.3675 -0.2594  0.7281
 8819SOL    HW237917   2.980   4.389  12.369  2.2982  0.1004 -0.1203
 8820SOL     OW37918   4.266   0.580   3.688  0.0436  0.1793 -0.2901
 8820SOL    HW137919   4.236   0.598   3.599  1.3029 -4.0598 -1.6051
 8820SOL    HW237920   4.357   0.604   3.671 -0.8616  3.8782  0.1223
 8821SOL     OW37921   0.273   0.977  10.635 -0.1330  0.4735 -0.6450
 8821SOL    HW137922   0.225   0.952  10.714  1.4247  1.6563  0.6735
 8821SOL    HW237923   0.313   1.061  10.658 -2.9790  0.9775  2.4926
 8822SOL     OW37924   2.576   3.598   2.821  0.3814  0.0474 -0.1843
 8822SOL    HW137925   2.549   3.690   2.823  0.7018  0.1164  1.2009
 8822SOL    HW237926   2.534   3.559   2.898  0.1814  1.0465  0.2071
 8823SOL     OW37927   0.913   1.283   5.380 -0.0650 -0.3632 -0.5548
 8823SOL    HW137928   0.941   1.342   5.450  0.8491 -1.0842 -0.3207
 8823SOL    HW237929   0.933   1.318   5.293  0.7225 -1.8050 -0.9576
 8824SOL     OW37930   1.672   1.590   4.864 -0.1546  0.1588  0.4591
 8824SOL    HW137931   1.696   1.564   4.953 -0.0925  0.7917  0.6274
 8824SOL    HW237932   1.664   1.505   4.822 -0.6490  0.9048 -0.9658
 8825SOL     OW37933   1.988   1.438  12.353  0.1430  0.3934  0.2892
 8825SOL    HW137934   1.932   1.380  12.404  1.3079 -1.3621 -0.3895
 8825SOL    HW237935   2.023   1.376  12.289 -0.8089 -0.1011  0.2531
 8826SOL     OW37936   1.318   1.630   2.166 -0.1260 -0.0877  0.0145
 8826SOL    HW137937   1.271   1.714   2.167 -0.0208 -0.0214 -0.7693
 8826SOL    HW237938   1.409   1.653   2.184 -0.4596  0.2588  1.3131
 8827SOL     OW37939   0.577   4.275  13.212 -0.0928  0.1687  0.3333
 8827SOL    HW137940   0.581   4.189  13.254 -1.5784 -0.1132 -0.1311
 8827SOL    HW237941   0.663   4.270  13.170 -1.5991  1.6145 -2.9501
 8828SOL     OW37942   1.673   3.027   2.285 -0.1860 -0.6924  0.0155
 8828SOL    HW137943   1.668   2.937   2.317 -0.7583 -0.2668  1.1315
 8828SOL    HW237944   1.721   3.009   2.204  1.3331  1.3385  0.4764
 8829SOL     OW37945   0.725   3.188   3.113 -0.6559  0.5303  0.2578
 8829SOL    HW137946   0.688   3.125   3.175  1.1976 -1.3255 -0.5280
 8829SOL    HW237947   0.804   3.212   3.162 -0.8427  0.8886  0.3816
 8830SOL     OW37948   2.750   3.772   4.634 -0.2362 -0.3045 -0.2305
 8830SOL    HW137949   2.774   3.841   4.573  0.6890 -0.4471 -0.0396
 8830SOL    HW237950   2.703   3.822   4.700  1.4320 -0.8316  1.3664
 8831SOL     OW37951   3.925   3.683   4.155 -0.0505  0.1818 -0.2492
 8831SOL    HW137952   3.986   3.755   4.143 -0.4598  0.6856  0.6603
 8831SOL    HW237953   3.991   3.627   4.196 -0.6522  0.5068  1.1621
 8832SOL     OW37954   2.874   1.248  12.430  0.2031 -0.4942 -0.5732
 8832SOL    HW137955   2.836   1.162  12.414 -0.7180 -0.0366 -0.8247
 8832SOL    HW237956   2.794   1.287  12.464  1.0675  0.4030  0.4713
 8833SOL     OW37957   4.584   4.303  11.626  0.2779  0.2968 -0.1233
 8833SOL    HW137958   4.499   4.344  11.616  1.1556  1.7501 -1.4987
 8833SOL    HW237959   4.564   4.213  11.599  0.4133  0.5736 -1.1253
 8834SOL     OW37960   3.833   0.659   2.762  0.1876  0.6085  0.0102
 8834SOL    HW137961   3.908   0.701   2.803  0.4656 -0.3574  0.5108
 8834SOL    HW237962   3.842   0.563   2.761 -1.1658  0.4507  1.1176
 8835SOL     OW37963   3.842   1.841   3.547 -0.0205  0.0186  0.3819
 8835SOL    HW137964   3.867   1.925   3.586 -2.1144  1.5344 -1.5398
 8835SOL    HW237965   3.761   1.829   3.597 -0.4664 -0.4306 -0.4410
 8836SOL     OW37966   1.484   2.084  11.265 -0.0499 -0.1131  0.7435
 8836SOL    HW137967   1.492   2.112  11.174 -0.4163 -0.7429  0.5179
 8836SOL    HW237968   1.404   2.126  11.296 -0.2175  0.5232 -0.5297
 8837SOL     OW37969   2.652   2.817   3.475 -0.6797  0.2915 -0.3125
 8837SOL    HW137970   2.706   2.792   3.399  0.9198 -1.1006  1.2715
 8837SOL    HW237971   2.701   2.770   3.543  0.0665  1.0219 -0.3513
 8838SOL     OW37972   1.700   4.314   0.661  0.5761  0.2098 -0.3412
 8838SOL    HW137973   1.790   4.282   0.662 -0.2114 -2.0977 -3.0262
 8838SOL    HW237974   1.662   4.262   0.732 -1.1798 -1.2840 -2.3655
 8839SOL     OW37975   3.745   0.886   6.124  0.2522  0.7547 -0.3069
 8839SOL    HW137976   3.666   0.836   6.145 -0.3864  1.3882 -1.1739
 8839SOL    HW237977   3.810   0.837   6.174  0.9703  0.4161 -1.5904
 8840SOL     OW37978   0.766   3.343   4.676  0.8158 -0.2505 -0.1140
 8840SOL    HW137979   0.692   3.335   4.617 -0.9670 -0.3433  2.1195
 8840SOL    HW237980   0.754   3.435   4.702 -0.1508  0.0309 -1.5940
 8841SOL     OW37981   1.563   2.513  10.793  0.6892 -0.3810 -0.4414
 8841SOL    HW137982   1.636   2.525  10.855  0.3452 -0.1735 -0.0744
 8841SOL    HW237983   1.491   2.506  10.856 -0.8730  2.0153 -1.9890
 8842SOL     OW37984   0.896   1.199  14.683  0.0064 -0.3533 -0.6820
 8842SOL    HW137985   0.883   1.217  14.590 -1.4119 -1.3266 -0.6702
 8842SOL    HW237986   0.830   1.132  14.702  0.5411 -1.1283 -1.5569
 8843SOL     OW37987   3.720   1.564   8.318  0.5003 -0.2368 -0.3565
 8843SOL    HW137988   3.795   1.563   8.258 -1.5513 -0.8497 -2.8973
 8843SOL    HW237989   3.751   1.635   8.374  2.0308  0.0318 -1.5445
 8844SOL     OW37990   3.671   4.312   6.437  0.0874 -0.0590  0.3279
 8844SOL    HW137991   3.672   4.316   6.341  1.3900 -1.4662  0.2824
 8844SOL    HW237992   3.762   4.333   6.458  0.0816 -1.2467  1.5049
 8845SOL     OW37993   3.179   2.225   8.211  0.3592 -0.1268  0.1050
 8845SOL    HW137994   3.100   2.279   8.212  0.2389 -0.3270  1.4925
 8845SOL    HW237995   3.242   2.295   8.194  0.5414 -0.2105  0.4437
 8846SOL     OW37996   4.479   3.279  13.866 -0.0997 -0.1180 -0.3782
 8846SOL    HW137997   4.487   3.183  13.863  0.0443 -0.2076  2.5584
 8846SOL    HW237998   4.472   3.308  13.775 -2.7803 -0.9443 -0.4268
 8847SOL     OW37999   1.722   0.577  15.370 -0.0711  0.0782  0.1839
 8847SOL    HW138000   1.640   0.595  15.323 -0.1893 -1.8707 -0.3435
 8847SOL    HW238001   1.721   0.615  15.458 -0.0034  2.5642 -0.8671
 8848SOL     OW38002   1.770   0.327  13.860 -0.4181 -0.2765 -0.6515
 8848SOL    HW138003   1.698   0.371  13.906 -0.6985 -1.9557  0.5142
 8848SOL    HW238004   1.773   0.240  13.899  0.9917  0.2574  0.3924
 8849SOL     OW38005   0.304   0.445   3.483 -1.0575  0.1400 -0.5185
 8849SOL    HW138006   0.279   0.374   3.424  2.0282 -0.9390 -0.5466
 8849SOL    HW238007   0.363   0.491   3.423 -1.9916 -1.1487 -2.4162
 8850SOL     OW38008   0.574   0.797   8.905 -0.2585  0.0088  0.0956
 8850SOL    HW138009   0.548   0.795   8.997  3.2343 -2.4911  1.0525
 8850SOL    HW238010   0.528   0.873   8.870 -0.6010 -1.3453 -2.4294
 8851SOL     OW38011   1.003   2.453  16.399  0.0038 -0.1134  0.4140
 8851SOL    HW138012   0.928   2.400  16.427  0.3302 -0.2517  1.0445
 8851SOL    HW238013   0.969   2.505  16.327 -1.1283  1.0933  1.8344
 8852SOL     OW38014   2.052   4.125   5.420 -0.3580  0.7477 -0.3903
 8852SOL    HW138015   2.108   4.200   5.400  0.2376  1.0235  2.2410
 8852SOL    HW238016   2.017   4.158   5.503  1.4542 -0.9982  1.0900
 8853SOL     OW38017   3.426   2.673  12.746  0.5572  0.1772  0.4207
 8853SOL    HW138018   3.433   2.735  12.673  1.9224 -0.4674  0.0063
 8853SOL    HW238019   3.331   2.677  12.750  0.4662 -1.5594 -0.0020
 8854SOL     OW38020   0.117   0.012   4.308 -0.4007  0.8587  0.1839
 8854SOL    HW138021   0.143   0.104   4.303  0.3993  0.6101 -0.2786
 8854SOL    HW238022   0.026   0.028   4.285 -1.1240  0.5117  2.7468
 8855SOL     OW38023   2.831   0.491   3.787  0.3861  0.6918  0.3147
 8855SOL    HW138024   2.781   0.566   3.754  0.0615  0.5457  0.4670
 8855SOL    HW238025   2.771   0.425   3.822 -0.0168  1.3502  0.8518
 8856SOL     OW38026   3.573   2.582   6.661  0.6166  0.2869  0.1488
 8856SOL    HW138027   3.659   2.566   6.699  1.9524  2.1376 -2.0412
 8856SOL    HW238028   3.547   2.667   6.698 -4.0956 -0.6153 -1.1524
 8857SOL     OW38029   0.284   2.113   3.356 -0.0600  0.0272 -0.7031
 8857SOL    HW138030   0.192   2.133   3.369 -0.3401 -0.2859 -2.2346
 8857SOL    HW238031   0.298   2.152   3.270  1.5989  1.1768  0.0757
 8858SOL     OW38032   4.505   0.953   5.930  0.9882  0.5206  0.3941
 8858SOL    HW138033   4.460   1.033   5.906  0.6342  0.1153 -0.2940
 8858SOL    HW238034   4.505   0.911   5.843  0.1125  3.2209 -0.8879
 8859SOL     OW38035   3.767   0.359  12.255  0.8838 -0.0226  0.1148
 8859SOL    HW138036   3.762   0.267  12.281 -1.5741 -0.0347 -0.4062
 8859SOL    HW238037   3.822   0.353  12.177  0.8420  2.1441 -0.0972
 8860SOL     OW38038   3.187   0.539   4.704 -0.2221 -0.1880 -0.3952
 8860SOL    HW138039   3.259   0.564   4.762 -1.8755  0.4067  1.3923
 8860SOL    HW238040   3.168   0.620   4.657  1.9556  0.1217 -0.7682
 8861SOL     OW38041   3.684   2.326  16.279 -0.0980  0.1419  0.0142
 8861SOL    HW138042   3.617   2.381  16.238 -2.1976 -0.1828  3.0208
 8861SOL    HW238043   3.747   2.395  16.296  0.2727 -0.1037 -0.3662
 8862SOL     OW38044   3.338   3.530   9.811 -0.2068  0.2645 -0.1153
 8862SOL    HW138045   3.362   3.614   9.850  0.4348  0.4151 -0.8210
 8862SOL    HW238046   3.276   3.485   9.868  0.8205 -1.0432 -0.0266
 8863SOL     OW38047   3.760   2.591   1.340 -0.2998  0.6627  0.2504
 8863SOL    HW138048   3.741   2.685   1.339 -0.1527  0.7063  2.4459
 8863SOL    HW238049   3.793   2.601   1.429 -0.6771 -1.8424  0.6533
 8864SOL     OW38050   2.790   4.449  10.037  0.1701 -0.2489  0.0015
 8864SOL    HW138051   2.762   4.523   9.982  0.6146  1.5151  2.1490
 8864SOL    HW238052   2.702   4.416  10.057 -0.0440 -0.7101 -1.7328
 8865SOL     OW38053   1.309   2.876  16.418  0.2881  0.0968 -0.4546
 8865SOL    HW138054   1.285   2.930  16.342  0.0174  0.0610 -0.3944
 8865SOL    HW238055   1.398   2.908  16.432 -0.7416  2.4580  0.5344
 8866SOL     OW38056   3.481   2.491   6.121  0.5336 -0.3160  0.0623
 8866SOL    HW138057   3.475   2.550   6.196 -1.4514 -0.6728  0.1759
 8866SOL    HW238058   3.395   2.449   6.116 -0.3051  1.4968 -0.6323
 8867SOL     OW38059   3.882   3.765  10.373  0.4374  0.8847 -0.5047
 8867SOL    HW138060   3.833   3.791  10.451 -1.5240  1.2598 -1.8705
 8867SOL    HW238061   3.968   3.800  10.399 -0.4968  0.8669  2.5751
 8868SOL     OW38062   3.798   4.716   3.288 -0.0374 -0.1152  0.5731
 8868SOL    HW138063   3.824   0.038   3.208 -0.0421  0.1937  0.7483
 8868SOL    HW238064   3.852   4.636   3.283  1.0314  0.6175  0.4460
 8869SOL     OW38065   2.980   0.289  16.473  0.3949 -0.5185 -0.5314
 8869SOL    HW138066   2.951   0.310  16.384  0.7467 -1.5107 -0.8835
 8869SOL    HW238067   2.899   0.324  16.510  0.5011 -0.6884 -0.1420
 8870SOL     OW38068   4.629   0.146   2.506  0.0109  0.7508 -0.0023
 8870SOL    HW138069   4.668   0.143   2.594 -0.4087 -0.9250  0.1209
 8870SOL    HW238070   4.539   0.122   2.525 -0.4884  1.2684 -1.7381
 8871SOL     OW38071   0.674   1.949   5.032 -0.3334  0.6916 -0.0376
 8871SOL    HW138072   0.682   1.916   5.121  0.9548 -0.6706 -0.6701
 8871SOL    HW238073   0.607   1.889   4.999  0.2789 -1.4951  2.7112
 8872SOL     OW38074   3.258   2.572  16.855 -0.7043 -0.0778  0.1995
 8872SOL    HW138075   3.240   2.488  16.811  2.3510  0.1321 -1.4863
 8872SOL    HW238076   3.273   2.539  16.943 -0.0393 -1.4426 -0.4276
 8873SOL     OW38077   4.636   2.295  15.657 -0.0909  0.3076  0.1212
 8873SOL    HW138078   4.607   2.356  15.590  3.5977  0.1470 -1.6322
 8873SOL    HW238079   4.550   2.263  15.683 -0.5878  2.2836  0.9380
 8874SOL     OW38080   2.840   3.689  15.167 -0.7702  0.2490 -0.1690
 8874SOL    HW138081   2.757   3.705  15.122 -0.7129 -0.3523 -0.4873
 8874SOL    HW238082   2.891   3.653  15.094  0.1968  0.8817  0.1933
 8875SOL     OW38083   3.991   0.930   4.028  0.4603  0.3918 -0.0466
 8875SOL    HW138084   4.070   0.983   4.043 -0.9639  3.0033 -1.8342
 8875SOL    HW238085   3.999   0.867   4.099  0.7327 -0.2463 -0.6501
 8876SOL     OW38086   0.127   2.013  17.692 -0.2174  0.0562  0.3948
 8876SOL    HW138087   0.216   1.977   0.002 -0.6211 -0.9544  0.4115
 8876SOL    HW238088   0.138   2.086  17.631  2.0464  0.2499  1.0250
 8877SOL     OW38089   3.593   1.077   9.714  0.4417  0.2053 -0.1321
 8877SOL    HW138090   3.668   1.136   9.719  0.6356  0.0968 -1.8365
 8877SOL    HW238091   3.520   1.096   9.773  1.3558 -1.6696  1.6052
 8878SOL     OW38092   2.276   2.926  16.531  0.1284  0.0723  0.5510
 8878SOL    HW138093   2.197   2.970  16.564 -1.6318 -1.5766 -1.5122
 8878SOL    HW238094   2.238   2.878  16.458  1.4075  0.4135 -0.3270
 8879SOL     OW38095   2.274   2.036   3.418 -0.2635 -0.2625  0.3179
 8879SOL    HW138096   2.230   2.087   3.486  0.2250  1.8537 -0.9394
 8879SOL    HW238097   2.238   1.950   3.437  0.0865 -0.8339 -1.6249
 8880SOL     OW38098   0.820   1.004  13.331 -0.6295  0.1460  0.2055
 8880SOL    HW138099   0.730   1.004  13.362 -0.7465 -0.5005 -0.1485
 8880SOL    HW238100   0.866   0.956  13.400 -0.1097  1.8960  1.1025
 8881SOL     OW38101   4.652   4.513  17.316  0.0534 -0.0093 -0.1430
 8881SOL    HW138102   4.634   4.525  17.223 -0.4447  2.4752  0.2640
 8881SOL    HW238103   4.629   4.421  17.327 -0.0908  0.2592  1.7626
 8882SOL     OW38104   0.729   3.072  15.313 -0.1423  0.4823  0.1083
 8882SOL    HW138105   0.654   3.055  15.370  0.8319  2.0401  1.8607
 8882SOL    HW238106   0.767   2.985  15.302 -0.8055 -0.1143  2.5936
 8883SOL     OW38107   3.629   2.099   7.680 -0.0406 -0.1816 -0.8314
 8883SOL    HW138108   3.644   2.123   7.589  1.2004  0.9776 -0.3238
 8883SOL    HW238109   3.682   2.168   7.720 -2.5418  1.4222 -0.3155
 8884SOL     OW38110   2.368   4.484  13.480 -0.9730  0.3409  0.5675
 8884SOL    HW138111   2.380   4.523  13.566  0.1455  0.8583  0.1805
 8884SOL    HW238112   2.440   4.517  13.425 -0.0917 -0.4855  1.2401
 8885SOL     OW38113   3.602   4.593  16.006 -0.0898 -0.3659  0.4231
 8885SOL    HW138114   3.634   4.669  16.054  1.7054 -0.5264 -0.5217
 8885SOL    HW238115   3.509   4.608  15.991  0.1534  0.1341 -0.6133
 8886SOL     OW38116   2.921   2.380   8.566 -0.1882  0.4421  0.2257
 8886SOL    HW138117   2.964   2.297   8.548 -1.2169  0.3774 -1.9781
 8886SOL    HW238118   2.947   2.430   8.488 -1.0949 -0.2599 -0.5316
 8887SOL     OW38119   4.365   1.518   4.216 -0.7222  0.4083  0.4400
 8887SOL    HW138120   4.330   1.559   4.137 -0.0042 -0.1722 -0.1719
 8887SOL    HW238121   4.438   1.580   4.219 -0.6171  0.3016  0.0780
 8888SOL     OW38122   1.103   2.126   4.137 -0.3659 -0.6957 -0.2394
 8888SOL    HW138123   1.166   2.083   4.079  2.0935  3.8119 -0.8945
 8888SOL    HW238124   1.073   2.052   4.189  0.2674 -1.1909 -0.5681
 8889SOL     OW38125   0.516   2.544   4.395  0.1050  0.4163  0.0167
 8889SOL    HW138126   0.492   2.472   4.336  1.3343  0.7528 -0.8984
 8889SOL    HW238127   0.505   2.506   4.482  1.2614 -2.3947 -1.0542
 8890SOL     OW38128   4.687   0.333   2.100 -0.0112  0.0643  0.3877
 8890SOL    HW138129   4.599   0.297   2.109 -1.4485  2.6434 -3.1099
 8890SOL    HW238130   0.006   0.255   2.066  1.3193  2.2866 -3.1124
 8891SOL     OW38131   3.147   4.526   7.964  0.1480 -1.1576 -0.6061
 8891SOL    HW138132   3.214   4.588   7.994 -1.2757 -0.4719  1.1492
 8891SOL    HW238133   3.194   4.480   7.894  0.2734  0.2581 -1.4653
 8892SOL     OW38134   0.399   1.817  15.181  0.2544  0.0258 -0.1215
 8892SOL    HW138135   0.417   1.896  15.130  1.7616  1.4795  2.6625
 8892SOL    HW238136   0.320   1.848  15.226 -0.0546  0.4877 -0.9932
 8893SOL     OW38137   1.380   1.395   7.002  0.2866 -0.1816 -0.3336
 8893SOL    HW138138   1.385   1.308   6.962  0.8717  0.4952 -1.7269
 8893SOL    HW238139   1.285   1.384   7.014  0.2502 -0.6995 -1.0676
 8894SOL     OW38140   2.499   1.262   7.938 -0.3115  0.1844 -0.1884
 8894SOL    HW138141   2.462   1.175   7.925  1.7889 -0.4807 -1.7638
 8894SOL    HW238142   2.426   1.322   7.924 -0.9168 -0.4932  0.0880
 8895SOL     OW38143   3.899   2.233  16.446  0.2273 -0.2374 -0.3863
 8895SOL    HW138144   3.838   2.267  16.381  1.8937  0.3478 -1.6333
 8895SOL    HW238145   3.945   2.170  16.391 -0.0168  1.2343 -2.2632
 8896SOL     OW38146   3.146   4.196  16.300 -0.6592  0.4551 -0.6304
 8896SOL    HW138147   3.156   4.103  16.282  0.2989  0.5901 -0.8083
 8896SOL    HW238148   3.100   4.208  16.384 -2.1004  0.4742 -1.4205
 8897SOL     OW38149   0.586   0.214   3.889  0.3270  0.1773  0.2314
 8897SOL    HW138150   0.523   0.157   3.846  0.4651 -0.5683  1.0156
 8897SOL    HW238151   0.631   0.146   3.939  1.8230  1.3404  0.4726
 8898SOL     OW38152   0.804   2.228   5.870  0.7077 -0.2935  0.0640
 8898SOL    HW138153   0.845   2.227   5.784 -1.8325  2.0735 -1.1739
 8898SOL    HW238154   0.771   2.318   5.871 -0.7552 -0.7986 -1.4493
 8899SOL     OW38155   3.922   0.034   7.923  0.6887  0.0593 -0.3134
 8899SOL    HW138156   3.892   0.092   7.993  0.9379 -1.9163  1.4064
 8899SOL    HW238157   3.914   4.674   7.968  1.4547  0.1978  0.0909
 8900SOL     OW38158   0.496   3.857   3.736 -0.7494  0.4976  0.7819
 8900SOL    HW138159   0.469   3.777   3.780 -0.3248 -1.1347 -1.9297
 8900SOL    HW238160   0.428   3.922   3.758  1.3025  2.1012  2.3583
 8901SOL     OW38161   0.447   1.392  16.140  0.5182 -0.7226  0.3878
 8901SOL    HW138162   0.512   1.322  16.140 -2.2484 -3.2674 -1.2588
 8901SOL    HW238163   0.397   1.390  16.058 -1.3559 -0.7485  1.5416
 8902SOL     OW38164   3.575   3.574  14.369 -0.0908  0.0536 -0.8551
 8902SOL    HW138165   3.587   3.479  14.367  2.7334  0.4067  0.0070
 8902SOL    HW238166   3.659   3.602  14.403 -0.4924  0.6456 -0.3482
 8903SOL     OW38167   2.303   1.510   2.498  0.1157 -0.3775  0.2991
 8903SOL    HW138168   2.245   1.444   2.536  0.1288 -0.0008  0.9804
 8903SOL    HW238169   2.375   1.457   2.463  0.0561 -0.4013  0.2118
 8904SOL     OW38170   2.624   2.793   8.948  0.0783  0.1897 -0.5655
 8904SOL    HW138171   2.645   2.841   9.028 -2.0636  0.1459  0.0233
 8904SOL    HW238172   2.703   2.738   8.943  0.3810  0.4970  0.9726
 8905SOL     OW38173   1.076   4.471   2.485 -0.3427 -0.2431  0.5323
 8905SOL    HW138174   1.101   4.412   2.556  0.0753 -2.0277 -1.0987
 8905SOL    HW238175   1.148   4.465   2.422 -1.4145  1.3451 -0.8505
 8906SOL     OW38176   0.687   1.028   3.913 -1.1306  0.2154 -0.1912
 8906SOL    HW138177   0.769   1.061   3.950  0.1979 -0.7896 -2.2892
 8906SOL    HW238178   0.622   1.004   3.980 -1.0058 -2.2901 -0.9826
 8907SOL     OW38179   2.016   4.428   5.081 -0.0472  0.4837  0.2194
 8907SOL    HW138180   2.059   4.352   5.042 -0.0885  0.3699  0.3944
 8907SOL    HW238181   1.969   4.470   5.009 -0.3784 -2.5530 -1.3398
 8908SOL     OW38182   0.381   0.280  15.059 -0.1259 -0.2970  0.0418
 8908SOL    HW138183   0.467   0.263  15.021  0.8383  3.2989  0.6126
 8908SOL    HW238184   0.337   0.195  15.049 -1.2119  0.2386  0.3013
 8909SOL     OW38185   4.599   4.120   0.660 -0.2824 -0.2973  0.4164
 8909SOL    HW138186   4.603   4.194   0.598  0.5800 -1.0403 -0.4191
 8909SOL    HW238187   4.631   4.173   0.733 -0.7366 -0.1812  0.5293
 8910SOL     OW38188   3.595   1.839   6.895  0.0994 -0.6508  0.3520
 8910SOL    HW138189   3.506   1.830   6.859 -0.1316 -0.3794  0.8682
 8910SOL    HW238190   3.605   1.754   6.938 -0.1854 -0.9689 -0.1973
 8911SOL     OW38191   0.107   0.075   2.046  0.2461 -0.1679  0.0299
 8911SOL    HW138192   0.144   0.081   1.958 -2.1494  0.9556 -0.9027
 8911SOL    HW238193   0.139   4.712   2.073 -1.0906 -1.1393 -1.4925
 8912SOL     OW38194   0.909   1.379   2.453 -0.3999 -0.6396  0.4140
 8912SOL    HW138195   0.916   1.423   2.369  0.1497 -0.4169  0.5736
 8912SOL    HW238196   0.995   1.403   2.488  0.1793 -0.2887 -1.2764
 8913SOL     OW38197   0.506   0.613   6.776 -0.1242  0.3792  0.0463
 8913SOL    HW138198   0.563   0.689   6.774  0.5787 -0.1162  0.8890
 8913SOL    HW238199   0.563   0.544   6.740 -3.2775 -1.8593 -0.6748
 8914SOL     OW38200   0.557   4.609  10.707 -0.3275  0.5458  0.6185
 8914SOL    HW138201   0.632   4.570  10.753 -0.1563 -0.6225 -0.6591
 8914SOL    HW238202   0.579   4.602  10.615 -1.2776  2.0208  0.2789
 8915SOL     OW38203   2.577   0.165   5.095  0.0164  0.5774  0.0992
 8915SOL    HW138204   2.668   0.161   5.124 -0.5549 -1.7596  1.5439
 8915SOL    HW238205   2.576   0.162   4.999  1.1128 -2.3419  0.1760
 8916SOL     OW38206   1.870   3.573   3.036  0.5125  0.0912  0.0379
 8916SOL    HW138207   1.935   3.529   3.092  1.9441  1.6888 -0.3555
 8916SOL    HW238208   1.863   3.515   2.961 -0.2359 -3.5854  2.9314
 8917SOL     OW38209   0.978   1.365   5.130  0.0669  0.3174 -0.0781
 8917SOL    HW138210   0.991   1.323   5.045 -1.9438  1.4685 -0.9432
 8917SOL    HW238211   1.022   1.449   5.123 -2.6274  1.7998  0.6919
 8918SOL     OW38212   0.647   3.708   3.554  0.2751  0.1516 -0.3268
 8918SOL    HW138213   0.585   3.771   3.589  0.4303  0.0570  0.1240
 8918SOL    HW238214   0.693   3.684   3.635  0.4995 -2.3497 -1.1869
 8919SOL     OW38215   0.477   4.687   1.908 -0.6046 -0.4306 -0.1633
 8919SOL    HW138216   0.461   0.051   1.872  1.4613  0.0165 -0.0086
 8919SOL    HW238217   0.481   4.703   2.003 -0.5203  0.2584 -0.2838
 8920SOL     OW38218   2.982   4.346  12.731  0.2506 -0.4315  0.0919
 8920SOL    HW138219   2.939   4.339  12.817 -1.7488  3.1331 -0.5943
 8920SOL    HW238220   3.008   4.438  12.729 -2.3593  0.3470  1.4781
 8921SOL     OW38221   1.538   1.746   2.423 -0.0162  0.2727  0.2356
 8921SOL    HW138222   1.473   1.684   2.459 -0.3547  1.7881  2.2331
 8921SOL    HW238223   1.557   1.707   2.338  1.8270  2.1363 -0.1992
 8922SOL     OW38224   3.423   1.120   7.676  0.6673 -0.3046  0.3077
 8922SOL    HW138225   3.462   1.194   7.630 -0.9295 -0.6253 -1.5520
 8922SOL    HW238226   3.370   1.166   7.741  1.5985 -0.2245  1.0241
 8923SOL     OW38227   3.235   3.918  17.418 -0.3409  0.3144 -0.0946
 8923SOL    HW138228   3.142   3.900  17.403 -0.7629  1.3620  1.3027
 8923SOL    HW238229   3.244   4.009  17.443  0.8623 -0.2444  1.4855
 8924SOL     OW38230   3.876   2.103   7.376 -0.3785  0.6203  0.2994
 8924SOL    HW138231   3.920   2.026   7.339 -2.5743 -0.6274  0.2986
 8924SOL    HW238232   3.910   2.095   7.465  1.0413 -2.4913 -0.5231
 8925SOL     OW38233   4.051   0.400   7.191  0.1231  0.2822 -0.9143
 8925SOL    HW138234   3.994   0.333   7.153 -2.0930  0.8511  1.4842
 8925SOL    HW238235   3.999   0.480   7.196 -1.8506 -0.9414 -2.0733
 8926SOL     OW38236   1.066   4.462   6.213  0.1031  0.4953 -0.0981
 8926SOL    HW138237   1.156   4.427   6.213  0.4158  1.3002 -0.0250
 8926SOL    HW238238   1.026   4.420   6.138  0.3756 -0.9200  0.5485
 8927SOL     OW38239   0.248   2.719  15.312 -0.4114 -0.5985  0.0605
 8927SOL    HW138240   0.317   2.696  15.250  0.5595  0.0128  0.9105
 8927SOL    HW238241   0.204   2.783  15.257  0.8995 -0.8807 -1.3186
 8928SOL     OW38242   0.038   0.525   4.189 -0.4369  0.0898 -0.3280
 8928SOL    HW138243   4.708   0.571   4.254  0.7802 -0.8069  1.3188
 8928SOL    HW238244   0.061   0.592   4.125  1.8775 -0.3428  0.0512
 8929SOL     OW38245   3.475   1.260   8.424  0.5124  0.1131 -0.1328
 8929SOL    HW138246   3.490   1.289   8.514 -2.1834 -0.0521  0.3665
 8929SOL    HW238247   3.381   1.240   8.421  1.0783 -2.5125 -0.3153
 8930SOL     OW38248   2.994   3.782  12.226 -0.5235 -0.3601 -0.5482
 8930SOL    HW138249   3.081   3.822  12.226 -1.5313  1.8456  4.8007
 8930SOL    HW238250   2.964   3.810  12.139  2.4912  1.0343 -1.1388
 8931SOL     OW38251   2.404   3.308   9.486 -0.3717 -0.0049 -0.1244
 8931SOL    HW138252   2.406   3.401   9.463 -1.3053 -0.4123 -1.7940
 8931SOL    HW238253   2.454   3.314   9.568  1.4085 -0.0051 -1.2164
 8932SOL     OW38254   1.418   0.289  17.294  0.1508 -0.1544 -0.2615
 8932SOL    HW138255   1.435   0.378  17.262 -1.3071  0.3686  0.4483
 8932SOL    HW238256   1.374   0.255  17.216 -0.0306  2.8137 -1.4885
 8933SOL     OW38257   1.957   0.641   3.467 -0.1576 -0.0540  0.4487
 8933SOL    HW138258   1.904   0.601   3.398 -0.8141 -0.3420  1.1092
 8933SOL    HW238259   1.893   0.649   3.539  0.2972  1.4428  0.6855
 8934SOL     OW38260   1.138   1.671   2.878 -0.2506 -0.0608  0.3601
 8934SOL    HW138261   1.175   1.584   2.891 -1.6103 -0.7842 -0.6228
 8934SOL    HW238262   1.053   1.641   2.846  0.4258 -0.4285 -1.0559
 8935SOL     OW38263   0.142   0.331  13.090 -0.2685  0.8629  0.8529
 8935SOL    HW138264   0.144   0.251  13.037 -0.6917  0.4109  1.5068
 8935SOL    HW238265   0.116   0.392  13.022 -1.5324 -0.4333  0.1711
 8936SOL     OW38266   4.122   0.654   6.940 -0.1355 -0.4792 -0.2491
 8936SOL    HW138267   4.216   0.671   6.937  0.1763 -2.3637 -1.3363
 8936SOL    HW238268   4.081   0.724   6.889 -0.3215 -0.6166 -0.2890
 8937SOL     OW38269   0.238   2.725   3.676 -0.0623  0.2847 -0.1414
 8937SOL    HW138270   0.236   2.635   3.708  0.5107 -0.1369 -1.2791
 8937SOL    HW238271   0.150   2.754   3.652  0.8640  2.1400 -1.2896
 8938SOL     OW38272   1.125   3.202   2.067  0.1615  0.1575 -0.1392
 8938SOL    HW138273   1.178   3.281   2.084 -2.9227  2.2491 -0.2954
 8938SOL    HW238274   1.189   3.132   2.082  0.2548  0.3743  0.4689
 8939SOL     OW38275   2.045   0.438   4.369  0.0467 -0.3561 -0.0603
 8939SOL    HW138276   2.114   0.379   4.340 -0.2907 -0.8452  0.1173
 8939SOL    HW238277   1.978   0.429   4.301  0.5323 -0.9966 -0.4508
 8940SOL     OW38278   3.675   2.861   7.029  0.2946 -0.0856  0.6330
 8940SOL    HW138279   3.752   2.913   7.053  1.1015 -0.7038 -0.6283
 8940SOL    HW238280   3.713   2.802   6.964  0.1381  1.0238 -0.4667
 8941SOL     OW38281   3.015   0.727   4.969  0.4682 -0.4703 -0.5499
 8941SOL    HW138282   3.087   0.777   4.930 -0.8110  2.8746  1.3620
 8941SOL    HW238283   2.940   0.746   4.913 -0.0403 -0.4324  0.1490
 8942SOL     OW38284   3.978   1.048   4.302  0.3938  0.1319 -0.2151
 8942SOL    HW138285   3.993   1.082   4.390  3.7966 -0.6443 -0.4881
 8942SOL    HW238286   3.928   1.120   4.264 -0.1054  0.1600  0.4855
 8943SOL     OW38287   0.168   1.380  11.243 -0.0462 -0.3580 -0.4895
 8943SOL    HW138288   0.115   1.347  11.317  1.9877 -0.6619  0.8266
 8943SOL    HW238289   0.217   1.450  11.287  2.3126 -1.5334 -1.3141
 8944SOL     OW38290   3.996   3.775   2.583  0.1014 -0.0482 -0.6330
 8944SOL    HW138291   3.989   3.775   2.488 -0.9504 -0.1009 -0.5531
 8944SOL    HW238292   4.039   3.858   2.604  0.6575 -0.9573  1.8363
 8945SOL     OW38293   3.602   1.999   3.715  0.3074  0.1674 -0.1018
 8945SOL    HW138294   3.568   2.024   3.801 -0.6044 -4.3577  0.8269
 8945SOL    HW238295   3.672   1.939   3.742  0.0250 -0.3885 -0.6112
 8946SOL     OW38296   4.314   1.611   1.744 -0.2724 -0.1300  0.0933
 8946SOL    HW138297   4.273   1.678   1.688  0.0915 -0.5234 -0.6395
 8946SOL    HW238298   4.230   1.589   1.783 -0.1853  0.8481  0.8406
 8947SOL     OW38299   2.031   3.117   1.620 -0.2831 -0.3768 -0.2064
 8947SOL    HW138300   2.105   3.172   1.592 -1.0279  1.7915  2.0633
 8947SOL    HW238301   2.054   3.025   1.605  0.3714 -0.0362 -1.3168
 8948SOL     OW38302   0.121   1.452  14.870  0.2188 -0.4099  0.2614
 8948SOL    HW138303   0.038   1.408  14.852 -1.6008  1.7205  3.4633
 8948SOL    HW238304   0.191   1.390  14.850  0.2726 -0.4339  0.5261
 8949SOL     OW38305   0.545   3.457   6.562 -0.4003  0.1846 -0.3584
 8949SOL    HW138306   0.624   3.502   6.591 -0.9324  0.7541  0.2265
 8949SOL    HW238307   0.573   3.430   6.474  0.1074  2.7263 -1.0004
 8950SOL     OW38308   2.382   4.081   7.473  0.5106 -0.0085 -0.2204
 8950SOL    HW138309   2.341   4.125   7.547  0.7131 -1.3067  0.6492
 8950SOL    HW238310   2.419   4.156   7.426 -1.6134  1.8649  1.0704
 8951SOL     OW38311   0.314   1.751  11.737 -0.0272 -0.1916 -0.0695
 8951SOL    HW138312   0.233   1.711  11.769 -2.1825  3.7390 -0.5517
 8951SOL    HW238313   0.374   1.720  11.805 -0.2036  2.3737  1.2673
 8952SOL     OW38314   3.205   1.704   3.842  0.2875  0.1513  0.1804
 8952SOL    HW138315   3.141   1.758   3.795 -1.4542  0.1796  2.5532
 8952SOL    HW238316   3.146   1.631   3.862 -0.5616  0.2835 -1.7845
 8953SOL     OW38317   1.347   1.097   7.727  0.7813 -0.0241  0.3021
 8953SOL    HW138318   1.396   1.016   7.715  0.0189 -0.3778 -0.5169
 8953SOL    HW238319   1.421   1.158   7.733 -0.2165  1.0266  1.9495
 8954SOL     OW38320   2.272   1.685  17.569  0.0793  0.0054  0.0244
 8954SOL    HW138321   2.328   1.607  17.563 -0.2012 -0.2181  0.2921
 8954SOL    HW238322   2.268   1.707  17.476 -0.2318 -0.3314 -0.0407
 8955SOL     OW38323   0.245   1.529   8.033 -0.1970  0.1188 -0.1536
 8955SOL    HW138324   0.248   1.575   8.117 -0.2422 -0.7872  0.3404
 8955SOL    HW238325   0.329   1.484   8.038 -0.2523  0.0812  0.3977
 8956SOL     OW38326   0.759   2.012   6.911 -0.1208  0.8792 -0.9054
 8956SOL    HW138327   0.711   1.967   6.981  2.2383 -1.7938 -1.0310
 8956SOL    HW238328   0.851   1.988   6.908  0.3322  2.6226 -0.9082
 8957SOL     OW38329   1.918   3.246   5.778 -0.3492  0.0662 -0.4830
 8957SOL    HW138330   1.984   3.228   5.845 -1.0585  1.5923  0.6350
 8957SOL    HW238331   1.835   3.254   5.825 -1.2237  0.1897 -2.0287
 8958SOL     OW38332   3.730   3.795   4.735 -0.0877 -0.0429 -0.3948
 8958SOL    HW138333   3.778   3.875   4.713  0.0755  0.5357  2.0419
 8958SOL    HW238334   3.650   3.832   4.771 -1.7315 -2.3574 -1.6942
 8959SOL     OW38335   3.815   3.486  10.292  0.2802 -0.0609 -0.2636
 8959SOL    HW138336   3.853   3.456  10.209  2.9098  0.1118  0.8527
 8959SOL    HW238337   3.849   3.575  10.299  0.2017 -0.0555  0.0511
 8960SOL     OW38338   2.918   2.485  13.147 -0.7577 -0.1129  0.2989
 8960SOL    HW138339   2.868   2.550  13.098 -1.2508  0.3013  1.3426
 8960SOL    HW238340   3.002   2.494  13.101 -1.1211  0.8019 -0.1932
 8961SOL     OW38341   3.386   3.829  11.490 -0.3117 -0.4902  0.0601
 8961SOL    HW138342   3.332   3.814  11.412 -1.2691  0.1817  0.5846
 8961SOL    HW238343   3.454   3.763  11.478  1.2840  1.4170 -1.2973
 8962SOL     OW38344   4.186   0.267   5.722  0.0848  0.2044 -0.6505
 8962SOL    HW138345   4.099   0.306   5.729  0.6761  1.1828  1.3516
 8962SOL    HW238346   4.171   0.186   5.771  1.2859 -1.4930 -3.0734
 8963SOL     OW38347   0.715   1.235   5.953 -0.5182 -0.2249 -0.3566
 8963SOL    HW138348   0.709   1.294   5.877 -2.0635 -0.5347 -0.4852
 8963SOL    HW238349   0.741   1.296   6.022  0.4101  2.1831 -2.7926
 8964SOL     OW38350   2.455   4.316   5.159  0.8789  0.0341  0.1777
 8964SOL    HW138351   2.449   4.374   5.235  0.8879 -0.3795  0.4967
 8964SOL    HW238352   2.548   4.294   5.167  0.5745 -0.4691  2.4317
 8965SOL     OW38353   2.612   0.377   6.946  0.2667 -0.8558  0.2004
 8965SOL    HW138354   2.531   0.347   6.905  0.4862 -0.0038 -0.8338
 8965SOL    HW238355   2.655   0.291   6.955  1.2876 -0.4441 -0.8987
 8966SOL     OW38356   4.654   3.859   0.580  0.1806  0.0186  0.7472
 8966SOL    HW138357   4.631   3.951   0.597 -0.2731  0.1642 -0.6565
 8966SOL    HW238358   4.600   3.835   0.505  0.9204 -0.4512  0.3603
 8967SOL     OW38359   4.161   1.475   0.657  0.0361 -0.7136 -0.0018
 8967SOL    HW138360   4.118   1.397   0.623 -1.6516 -0.7018  2.0762
 8967SOL    HW238361   4.152   1.459   0.751  1.0984 -0.9922  0.0555
 8968SOL     OW38362   2.225   4.198   8.947  0.0819  0.5703 -0.0432
 8968SOL    HW138363   2.279   4.252   8.890  0.3196 -0.2481 -0.5912
 8968SOL    HW238364   2.181   4.264   9.000 -2.4882  0.5455 -2.1808
 8969SOL     OW38365   0.758   0.852   6.292  0.0903 -0.0202  0.3388
 8969SOL    HW138366   0.843   0.870   6.333  1.6425  1.1600 -3.3412
 8969SOL    HW238367   0.758   0.904   6.212  0.2452  1.8018  1.5218
 8970SOL     OW38368   2.249   1.761   3.424  0.2195 -0.7347  0.5523
 8970SOL    HW138369   2.222   1.726   3.509 -1.0341 -0.9247  0.0726
 8970SOL    HW238370   2.251   1.683   3.368 -2.0680  0.3374 -1.0082
 8971SOL     OW38371   1.806   2.074   8.548  0.0508  0.4792 -0.2186
 8971SOL    HW138372   1.880   2.136   8.552 -0.1593  0.6176  1.2610
 8971SOL    HW238373   1.834   2.013   8.616  0.2675  0.5099 -0.2771
 8972SOL     OW38374   0.112   3.709  17.371  0.0407 -0.2977 -0.2799
 8972SOL    HW138375   0.116   3.704  17.466 -1.6588 -1.7187 -0.2799
 8972SOL    HW238376   0.023   3.738  17.350 -0.2676  0.0200  1.5308
 8973SOL     OW38377   1.475   4.099  14.045 -0.0691 -0.7909  0.1782
 8973SOL    HW138378   1.490   4.020  13.993 -0.3119  0.4098 -1.7034
 8973SOL    HW238379   1.560   4.106  14.089 -0.0139  1.9517 -0.3988
 8974SOL     OW38380   4.711   2.173  10.297  0.0555  0.3503 -0.4766
 8974SOL    HW138381   4.707   2.237  10.368  2.2882 -1.2157  1.0410
 8974SOL    HW238382   0.045   2.226  10.241  2.9845 -1.9626  0.3841
 8975SOL     OW38383   3.724   1.972   9.434  0.0777 -0.0959 -0.2161
 8975SOL    HW138384   3.754   1.933   9.516  0.9307  0.9057 -0.0475
 8975SOL    HW238385   3.766   2.058   9.431 -1.1458  0.4643 -1.3014
 8976SOL     OW38386   1.215   0.951   9.823  0.2552 -0.6110 -0.3563
 8976SOL    HW138387   1.297   0.912   9.793  0.2951 -0.6998 -0.1297
 8976SOL    HW238388   1.198   1.025   9.764  1.2478  0.7253  1.0565
 8977SOL     OW38389   0.549   0.805   5.428 -0.6709  0.4807 -0.0446
 8977SOL    HW138390   0.507   0.773   5.348  0.3453 -0.0215 -0.3698
 8977SOL    HW238391   0.486   0.770   5.491  0.8730 -1.2282  0.5655
 8978SOL     OW38392   1.388   0.737  15.173 -0.1012  0.6183 -0.1575
 8978SOL    HW138393   1.410   0.767  15.261 -1.6486  0.2577  0.3488
 8978SOL    HW238394   1.360   0.817  15.128 -0.0278  1.5181  1.4195
 8979SOL     OW38395   1.441   2.241  12.905  0.2088 -0.4922 -0.4528
 8979SOL    HW138396   1.468   2.228  12.996  0.2726  2.4370 -0.0400
 8979SOL    HW238397   1.397   2.326  12.907 -1.7249 -1.5126 -0.2969
 8980SOL     OW38398   3.779   3.173   7.143 -0.2883  0.5794 -0.2698
 8980SOL    HW138399   3.742   3.237   7.081 -0.0354  1.5014  0.5272
 8980SOL    HW238400   3.827   3.242   7.188 -0.0889  1.6253 -2.0668
 8981SOL     OW38401   1.565   1.010   8.562  0.3200  0.1012 -0.3852
 8981SOL    HW138402   1.550   1.032   8.470  1.6638  2.8406  0.0651
 8981SOL    HW238403   1.653   1.044   8.574 -0.3067  2.0422 -1.1950
 8982SOL     OW38404   4.083   1.639   2.824  0.5310 -0.2898 -0.3830
 8982SOL    HW138405   4.098   1.628   2.918  0.5648  3.5268  0.0318
 8982SOL    HW238406   4.006   1.696   2.820 -0.1226 -1.1585 -0.3535
 8983SOL     OW38407   1.112   3.132   7.659 -0.6505  0.3336 -0.2004
 8983SOL    HW138408   1.204   3.107   7.647 -0.3477  2.1912 -1.6816
 8983SOL    HW238409   1.120   3.206   7.599 -0.1459  1.1545  0.8753
 8984SOL     OW38410   3.081   3.201   9.103 -1.0710 -0.1995  0.1440
 8984SOL    HW138411   3.051   3.170   9.188 -0.5527  0.2818  0.4980
 8984SOL    HW238412   3.128   3.281   9.127  2.7055 -2.8531  1.4510
 8985SOL     OW38413   4.399   1.218   5.901 -0.3645  0.0638 -0.2886
 8985SOL    HW138414   4.322   1.204   5.956 -0.3915 -0.4841 -0.4732
 8985SOL    HW238415   4.425   1.307   5.927 -1.2589  0.7452 -1.7356
 8986SOL     OW38416   2.573   4.086   7.155  0.1018 -0.5383 -0.3154
 8986SOL    HW138417   2.574   4.107   7.062  0.2128  1.0408  0.0288
 8986SOL    HW238418   2.477   4.083   7.162  0.1133  1.0126  0.6353
 8987SOL     OW38419   2.881   0.279   7.504  0.0808 -0.4156 -0.1722
 8987SOL    HW138420   2.852   0.352   7.450  0.1440 -1.1318 -1.1688
 8987SOL    HW238421   2.875   0.314   7.593 -0.5399 -0.6838 -0.1081
 8988SOL     OW38422   3.473   0.776   6.164  0.4381 -0.3418 -0.0331
 8988SOL    HW138423   3.466   0.833   6.241  3.3432 -1.1420  0.7884
 8988SOL    HW238424   3.417   0.813   6.095  0.0969 -0.7636  0.0156
 8989SOL     OW38425   2.545   2.556  11.381  0.5043 -0.0975 -0.1312
 8989SOL    HW138426   2.608   2.499  11.426  0.1786 -0.9830 -0.7984
 8989SOL    HW238427   2.549   2.640  11.426 -1.9543  0.6189 -1.2720
 8990SOL     OW38428   3.880   3.996   9.336  0.3222  0.3509  0.2218
 8990SOL    HW138429   3.813   3.934   9.307 -0.2678  1.3360 -0.5400
 8990SOL    HW238430   3.887   3.978   9.429  0.1995 -1.1416 -0.0645
 8991SOL     OW38431   4.034   4.281  11.039 -0.4731  0.0952 -0.1773
 8991SOL    HW138432   4.000   4.203  11.083 -0.0052 -0.8235 -1.4344
 8991SOL    HW238433   4.032   4.350  11.106 -1.9547  0.0712 -0.1956
 8992SOL     OW38434   3.372   3.836   4.069 -0.4852 -0.5752 -0.7149
 8992SOL    HW138435   3.398   3.895   3.998 -0.5176  0.3311  0.0281
 8992SOL    HW238436   3.401   3.754   4.030 -0.4097 -1.1359  0.5448
 8993SOL     OW38437   4.288   1.275   5.139  0.8056  0.0659  0.2520
 8993SOL    HW138438   4.291   1.267   5.044 -1.7761  1.4920  0.0491
 8993SOL    HW238439   4.284   1.369   5.157  0.0392  0.1731 -0.4825
 8994SOL     OW38440   3.743   3.406  13.660  1.4086 -0.5281 -0.2309
 8994SOL    HW138441   3.811   3.473  13.658  0.5862  0.2164 -3.6080
 8994SOL    HW238442   3.667   3.464  13.668  1.4106 -0.7269  1.2361
 8995SOL     OW38443   2.732   3.653   6.600  0.3915 -0.2588 -0.0378
 8995SOL    HW138444   2.819   3.616   6.614  0.8387  1.4180  1.6116
 8995SOL    HW238445   2.716   3.684   6.689  0.7792 -0.4820  0.1055
 8996SOL     OW38446   4.376   4.037  15.150 -0.5025  0.1014 -0.0684
 8996SOL    HW138447   4.386   3.987  15.069 -0.9989  2.5682 -1.6276
 8996SOL    HW238448   4.440   3.995  15.208 -0.7544 -3.1038 -2.0831
 8997SOL     OW38449   0.117   2.401   7.730 -0.2105  0.6264 -0.0224
 8997SOL    HW138450   0.113   2.457   7.808 -1.3602 -0.0342  0.4068
 8997SOL    HW238451   0.210   2.383   7.724 -0.3410 -1.2910  3.5731
 8998SOL     OW38452   4.048   4.145   4.741 -0.4918 -1.3031 -0.5361
 8998SOL    HW138453   3.996   4.225   4.755  1.2638 -0.3332  0.4710
 8998SOL    HW238454   4.132   4.187   4.758 -0.8073  0.0378 -2.2602
 8999SOL     OW38455   4.048   0.954   6.406 -0.4963  0.1130 -0.3474
 8999SOL    HW138456   4.007   1.031   6.445 -1.2377 -1.0290  1.1245
 8999SOL    HW238457   4.134   0.988   6.379 -0.6787 -0.0111 -1.0770
 9000SOL     OW38458   2.956   3.857  16.498  0.6457  0.2573  0.1789
 9000SOL    HW138459   3.001   3.902  16.569 -1.1254  1.3279  0.6040
 9000SOL    HW238460   2.901   3.924  16.459  0.7204  0.6879  0.8237
 9001SOL     OW38461   3.968   0.945   7.232  0.1089  0.0121  0.2918
 9001SOL    HW138462   4.019   0.977   7.306 -0.9990  0.8122  0.7059
 9001SOL    HW238463   4.027   0.947   7.156 -0.8745 -1.3385 -0.5119
 9002SOL     OW38464   2.076   1.584  11.493  0.3909 -0.3474  0.5150
 9002SOL    HW138465   2.148   1.555  11.550  0.4750 -1.8847 -0.3747
 9002SOL    HW238466   2.075   1.524  11.419  1.7895 -2.5339  2.2622
 9003SOL     OW38467   0.592   2.747   5.117  0.4401  0.0790 -0.1558
 9003SOL    HW138468   0.573   2.829   5.162 -0.6160 -0.1168 -0.2388
 9003SOL    HW238469   0.529   2.692   5.165 -0.7920  0.9849 -0.7538
 9004SOL     OW38470   1.282   4.570  16.407  0.0303 -0.3343  0.4818
 9004SOL    HW138471   1.202   4.533  16.371  1.4945 -3.3275  0.2914
 9004SOL    HW238472   1.332   4.490  16.423  0.1860 -0.4695 -0.6645
 9005SOL     OW38473   2.945   1.901   6.466 -0.3315 -0.1887  0.2167
 9005SOL    HW138474   2.903   1.819   6.441  1.6015 -1.2659  0.5234
 9005SOL    HW238475   2.993   1.923   6.386 -0.1113  0.4394  0.5176
 9006SOL     OW38476   4.250   1.668   0.977 -0.3137  0.6897 -0.4402
 9006SOL    HW138477   4.295   1.739   0.930 -1.2450  1.5644 -0.0236
 9006SOL    HW238478   4.161   1.703   0.972 -0.7588 -0.4651 -0.3847
 9007SOL     OW38479   4.363   4.230   0.829 -0.2072 -0.1448  0.4390
 9007SOL    HW138480   4.321   4.235   0.743 -1.0603 -1.0230  0.8081
 9007SOL    HW238481   4.370   4.324   0.847  1.3225 -0.1415 -0.1773
 9008SOL     OW38482   1.583   2.359   6.196 -0.9396  0.4965 -0.1493
 9008SOL    HW138483   1.562   2.453   6.197  1.2943  0.9838  1.5039
 9008SOL    HW238484   1.531   2.319   6.126  0.1651 -0.3890 -0.4595
 9009SOL     OW38485   4.580   1.303   5.669  0.3502  0.3497 -0.2813
 9009SOL    HW138486   4.547   1.265   5.751 -1.0671 -2.1994 -2.0383
 9009SOL    HW238487   4.499   1.295   5.618  1.3789 -0.0523 -1.8388
 9010SOL     OW38488   1.907   2.844   2.896  0.4315  0.6255 -0.4137
 9010SOL    HW138489   1.930   2.810   2.809  1.0896 -1.7859  0.6976
 9010SOL    HW238490   1.812   2.852   2.893  0.4918  1.4504 -0.1164
 9011SOL     OW38491   3.070   0.579  12.024 -0.3406 -0.0769  0.0810
 9011SOL    HW138492   3.030   0.594  12.109 -0.8078 -0.4013 -0.0804
 9011SOL    HW238493   3.010   0.512  11.991 -0.5851 -0.5889  1.5638
 9012SOL     OW38494   4.222   1.069  10.203 -0.2036  0.3338 -0.0147
 9012SOL    HW138495   4.244   1.029  10.287 -0.7798 -0.5800 -0.2988
 9012SOL    HW238496   4.258   1.009  10.138 -0.6759  2.0832 -1.8926
 9013SOL     OW38497   2.917   1.425   6.214  0.4748  0.0947  0.3872
 9013SOL    HW138498   2.937   1.397   6.124 -2.3941  0.8919 -0.5067
 9013SOL    HW238499   2.995   1.455   6.259  0.0760 -0.9746  1.8023
 9014SOL     OW38500   0.932   0.971  13.693 -0.3596  0.0915  0.3555
 9014SOL    HW138501   0.973   1.028  13.627  1.2575 -1.2632  0.1894
 9014SOL    HW238502   0.890   0.903  13.640  0.2601 -1.3929  1.7695
 9015SOL     OW38503   1.732   4.183   3.608 -0.7405 -0.0667 -0.4435
 9015SOL    HW138504   1.823   4.158   3.595 -0.1181  1.5930  0.7963
 9015SOL    HW238505   1.740   4.260   3.665  0.8694 -0.6518  0.1056
 9016SOL     OW38506   1.387   3.967  16.283  0.3248  0.0465  0.0419
 9016SOL    HW138507   1.341   3.897  16.329  1.5254 -2.2726 -2.3238
 9016SOL    HW238508   1.312   4.021  16.255  0.5360  0.2557 -0.1234
 9017SOL     OW38509   1.691   1.045   2.515 -0.0272  0.0568 -0.8372
 9017SOL    HW138510   1.699   1.124   2.463  2.5734  2.9414  3.9768
 9017SOL    HW238511   1.599   1.049   2.542  0.0580  3.1644 -1.0323
 9018SOL     OW38512   4.362   0.553  16.945 -0.0760  0.6639  0.5620
 9018SOL    HW138513   4.415   0.622  16.984 -0.2442  0.5937  0.9114
 9018SOL    HW238514   4.344   0.579  16.855  1.9765 -0.3326 -0.1430
 9019SOL     OW38515   3.957   0.225  13.829 -0.0599 -0.0393 -0.1688
 9019SOL    HW138516   3.875   0.271  13.844 -0.7044 -1.6867  1.3093
 9019SOL    HW238517   4.007   0.240  13.910  1.6181  0.2990 -1.2622
 9020SOL     OW38518   0.275   3.932   2.456 -0.6264 -0.2090  0.3379
 9020SOL    HW138519   0.264   3.989   2.380  1.4942 -0.0681  0.1445
 9020SOL    HW238520   0.262   3.845   2.418 -0.0450 -0.8099  1.4979
 9021SOL     OW38521   4.710   4.416   0.858  0.2204 -0.4078  0.2394
 9021SOL    HW138522   4.625   4.458   0.874 -1.3062 -2.7201 -1.8000
 9021SOL    HW238523   4.696   4.322   0.865  2.8732 -0.8649 -0.7789
 9022SOL     OW38524   2.321   1.993   2.584 -0.5026 -0.1960 -0.5119
 9022SOL    HW138525   2.375   1.914   2.592  0.4004  0.6159  1.4302
 9022SOL    HW238526   2.273   1.987   2.501  0.9660 -0.0058 -1.3850
 9023SOL     OW38527   4.323   0.788  14.064  0.3845  0.1087 -0.1440
 9023SOL    HW138528   4.410   0.779  14.101  0.8056 -1.1319 -1.4161
 9023SOL    HW238529   4.303   0.875  14.100  0.1048  0.1956 -0.5092
 9024SOL     OW38530   3.071   2.809   4.371 -0.6365  0.9095  0.5408
 9024SOL    HW138531   3.109   2.889   4.410 -0.0663 -0.7610  3.4056
 9024SOL    HW238532   2.991   2.807   4.424 -0.4739  2.2097  0.8511
 9025SOL     OW38533   0.561   3.813  17.402 -0.6668 -0.3350 -0.0885
 9025SOL    HW138534   0.602   3.826  17.316  0.5964 -3.8191 -0.0525
 9025SOL    HW238535   0.618   3.743  17.436  1.2061  1.6676  0.8685
 9026SOL     OW38536   2.471   0.624   4.840 -0.4791  0.4572 -0.7986
 9026SOL    HW138537   2.506   0.542   4.806 -1.1703 -0.7714  1.4102
 9026SOL    HW238538   2.502   0.634   4.930 -0.7079  0.9755 -0.7798
 9027SOL     OW38539   0.774   1.909   2.604  0.3603  0.3876 -0.1234
 9027SOL    HW138540   0.834   1.926   2.532 -0.5238  0.9002 -0.7402
 9027SOL    HW238541   0.825   1.884   2.681 -1.2668 -2.7936 -0.0908
 9028SOL     OW38542   2.656   2.419  14.447 -0.3067  0.0107  0.1165
 9028SOL    HW138543   2.598   2.350  14.480  0.3178 -0.6728 -0.2229
 9028SOL    HW238544   2.623   2.501  14.484  2.0453  2.5198 -3.3820
 9029SOL     OW38545   3.369   0.229  16.113 -0.8322 -0.0652  0.4209
 9029SOL    HW138546   3.276   0.229  16.089 -0.5953 -1.5798 -0.5522
 9029SOL    HW238547   3.389   0.321  16.097 -3.5480  0.2168 -1.3508
 9030SOL     OW38548   3.209   4.069   5.410 -0.2907  0.1513  0.3247
 9030SOL    HW138549   3.279   4.065   5.475 -0.6821 -1.5371  0.6435
 9030SOL    HW238550   3.159   3.991   5.432  1.2609 -1.0538 -0.3932
 9031SOL     OW38551   0.257   0.081   4.035 -0.6350  0.0300  0.1983
 9031SOL    HW138552   0.273   0.082   4.129  1.2022 -0.7795 -0.1058
 9031SOL    HW238553   0.190   0.150   4.039 -1.4317 -0.5872 -2.2986
 9032SOL     OW38554   1.682   3.322   4.106  0.3218  1.1042 -0.5419
 9032SOL    HW138555   1.591   3.333   4.081  0.0220  1.9905  0.9389
 9032SOL    HW238556   1.692   3.230   4.131  2.0303  1.1516 -0.9832
 9033SOL     OW38557   3.558   1.376   5.009  0.1371  0.2810  0.0208
 9033SOL    HW138558   3.581   1.393   5.100  0.1225  0.7060 -0.0575
 9033SOL    HW238559   3.645   1.365   4.969 -0.5567  0.9641 -1.6965
 9034SOL     OW38560   3.550   0.375   3.120 -0.3365  0.0071 -0.4117
 9034SOL    HW138561   3.629   0.429   3.109 -1.3050  0.9659 -2.5594
 9034SOL    HW238562   3.491   0.402   3.050 -1.0773 -2.3658 -0.6971
 9035SOL     OW38563   3.033   4.524   5.121 -0.3477  0.1016 -0.3485
 9035SOL    HW138564   2.995   4.492   5.039 -1.1815  0.4709 -0.1047
 9035SOL    HW238565   2.956   4.556   5.167  1.7389  4.4936  0.1221
 9036SOL     OW38566   2.211   2.146  15.093 -0.4470  0.4855 -0.7398
 9036SOL    HW138567   2.140   2.164  15.031 -1.7768  0.5939  0.8001
 9036SOL    HW238568   2.270   2.220  15.081 -0.6606  0.6606 -0.7175
 9037SOL     OW38569   2.098   0.468   3.831 -0.1519 -0.1248 -0.0053
 9037SOL    HW138570   2.089   0.563   3.841  1.1017 -0.0494  0.4424
 9037SOL    HW238571   2.030   0.446   3.767 -0.7282  2.6291 -0.3208
 9038SOL     OW38572   4.121   3.007   5.573  0.1054 -0.2129  0.2514
 9038SOL    HW138573   4.136   3.067   5.500 -0.6938  0.4807  0.6583
 9038SOL    HW238574   4.095   3.068   5.642  0.3836 -0.7430  0.8267
 9039SOL     OW38575   0.972   3.867   5.179  0.5151  0.6458  0.4805
 9039SOL    HW138576   0.939   3.863   5.090 -0.3296  0.6945  0.7885
 9039SOL    HW238577   1.022   3.788   5.198 -4.4744 -2.5405  0.5749
 9040SOL     OW38578   0.906   3.958   4.033 -0.1086  0.0653  0.2180
 9040SOL    HW138579   0.825   3.958   3.981 -0.2156  1.8691  0.3931
 9040SOL    HW238580   0.908   4.044   4.074  0.2295 -0.7641  1.9107
 9041SOL     OW38581   3.491   3.835   9.552  0.4770  0.1466 -0.3382
 9041SOL    HW138582   3.534   3.761   9.595 -1.7701  0.6785  2.8000
 9041SOL    HW238583   3.402   3.828   9.586  0.5357  2.0964  0.1858
 9042SOL     OW38584   2.303   2.952  11.545  0.3776 -0.1773 -0.2141
 9042SOL    HW138585   2.334   2.902  11.469 -1.3424 -2.7105  0.7537
 9042SOL    HW238586   2.321   2.897  11.622  1.9209  0.7984  0.1162
 9043SOL     OW38587   3.095   3.399  14.623  0.4719 -0.5734  0.2809
 9043SOL    HW138588   3.018   3.430  14.576  2.0011  1.7286 -0.7058
 9043SOL    HW238589   3.150   3.349  14.563  0.7588 -0.6592  0.6102
 9044SOL     OW38590   0.946   0.465  12.208 -0.3771  0.0803 -0.1088
 9044SOL    HW138591   0.918   0.505  12.290  2.7618  0.3944  0.8467
 9044SOL    HW238592   0.882   0.395  12.196  0.2400 -0.0602 -2.6792
 9045SOL     OW38593   0.024   1.708  17.409 -0.5962 -0.0586 -0.0926
 9045SOL    HW138594   4.659   1.691  17.442 -0.3417  1.3141  1.2954
 9045SOL    HW238595   0.021   1.794  17.366 -1.9701 -0.3482 -0.5848
 9046SOL     OW38596   4.258   1.885   9.118  0.0876 -0.1115 -0.3523
 9046SOL    HW138597   4.310   1.892   9.198 -0.6074 -1.6851  0.2401
 9046SOL    HW238598   4.329   1.844   9.068  0.0331 -1.2875  0.5337
 9047SOL     OW38599   0.518   0.197   7.238 -0.0896 -0.2056 -0.5798
 9047SOL    HW138600   0.469   0.235   7.311 -0.9817  1.0020 -1.7995
 9047SOL    HW238601   0.609   0.207   7.267  0.4041 -3.2069 -1.1264
 9048SOL     OW38602   0.291   1.710  14.017 -0.0063 -0.4536  0.3687
 9048SOL    HW138603   0.304   1.728  14.110 -0.3577 -0.5260  0.4303
 9048SOL    HW238604   0.199   1.686  14.011 -0.0834 -0.2822  0.8864
 9049SOL     OW38605   3.137   0.069   0.779 -0.4023  0.2674  0.1847
 9049SOL    HW138606   3.213   0.082   0.836 -1.0436  2.0196  0.6369
 9049SOL    HW238607   3.141   0.146   0.722  0.8837  0.4699  0.5588
 9050SOL     OW38608   1.283   3.256   1.398  0.4226 -0.6758 -0.1444
 9050SOL    HW138609   1.375   3.249   1.373 -0.2553  1.9048 -3.5074
 9050SOL    HW238610   1.259   3.330   1.342  2.2564  2.3906  3.1227
 9051SOL     OW38611   3.602   3.879  16.239  0.7685  0.1717 -0.9034
 9051SOL    HW138612   3.585   3.961  16.193  2.4120 -0.3120 -2.4295
 9051SOL    HW238613   3.519   3.863  16.283  1.1834 -2.4929 -1.0902
 9052SOL     OW38614   1.452   1.463   5.509 -0.2161  0.1294  0.2903
 9052SOL    HW138615   1.434   1.432   5.420 -1.1371  0.5380  0.3237
 9052SOL    HW238616   1.534   1.509   5.491  0.5304  0.2154  3.9859
 9053SOL     OW38617   2.478   0.890  16.122  0.2114 -0.1951  0.3157
 9053SOL    HW138618   2.556   0.937  16.094 -1.0213  1.9515  0.5203
 9053SOL    HW238619   2.513   0.808  16.157  1.0933 -0.4897 -1.2637
 9054SOL     OW38620   0.658   0.103   2.816 -0.3959 -0.1767 -0.0930
 9054SOL    HW138621   0.712   0.181   2.817 -1.3808  0.5100 -0.9644
 9054SOL    HW238622   0.652   0.091   2.721  0.4006  1.8309 -0.3847
 9055SOL     OW38623   3.089   0.383  12.735  0.2671  0.2217  0.0410
 9055SOL    HW138624   3.123   0.473  12.736 -2.1389  1.1209  1.3472
 9055SOL    HW238625   3.170   0.333  12.723 -0.5887 -0.8069 -1.3583
 9056SOL     OW38626   1.317   2.288   3.379  0.2405 -0.0099  0.3182
 9056SOL    HW138627   1.326   2.373   3.422 -0.7959 -0.5728  1.6744
 9056SOL    HW238628   1.408   2.256   3.382  0.3927  0.4251  0.2846
 9057SOL     OW38629   4.362   1.809   6.429 -0.2376 -0.2357 -0.3001
 9057SOL    HW138630   4.281   1.758   6.425 -0.8333  0.7128 -0.1378
 9057SOL    HW238631   4.427   1.739   6.436 -1.8154 -1.6378  0.3089
 9058SOL     OW38632   0.070   0.917   4.429 -0.4311  0.4193 -0.0564
 9058SOL    HW138633   0.072   0.884   4.339 -0.8214 -2.4447  0.9794
 9058SOL    HW238634   0.058   0.828   4.462  0.0005  0.6730  0.7746
 9059SOL     OW38635   2.791   3.844  17.143 -0.1076 -0.0695  0.1093
 9059SOL    HW138636   2.708   3.890  17.157  1.0051  2.3345 -1.1711
 9059SOL    HW238637   2.793   3.822  17.050 -2.2157 -1.7899  0.4784
 9060SOL     OW38638   4.387   3.421   3.599  0.0132  0.0409  0.2179
 9060SOL    HW138639   4.340   3.500   3.573  1.1803  0.7406  0.2150
 9060SOL    HW238640   4.399   3.376   3.515 -1.6113 -0.3568  0.1963
 9061SOL     OW38641   1.331   3.195   7.399  0.6587  0.6105 -0.2792
 9061SOL    HW138642   1.355   3.277   7.357  2.7217  0.3515  0.3648
 9061SOL    HW238643   1.383   3.197   7.480  0.5319 -0.6672 -0.1594
 9062SOL     OW38644   0.399   0.008   6.640  0.1506  0.1882  0.3907
 9062SOL    HW138645   0.324   4.721   6.582  0.8363  3.7280 -1.1206
 9062SOL    HW238646   0.424   4.643   6.669 -2.5308 -1.2994 -1.8605
 9063SOL     OW38647   4.623   1.068   3.628  0.4389  0.2913  0.3721
 9063SOL    HW138648   4.550   1.019   3.589  1.8009 -2.3923  1.1851
 9063SOL    HW238649   4.605   1.159   3.603 -0.4745 -0.2786 -1.0068
 9064SOL     OW38650   3.562   1.735   9.041  0.0627  0.3031  0.2548
 9064SOL    HW138651   3.639   1.763   9.090 -0.4193  1.3062  0.4184
 9064SOL    HW238652   3.514   1.694   9.113 -3.6579  0.5453 -2.0555
 9065SOL     OW38653   4.146   0.849   3.801  0.2246 -0.2433 -0.0914
 9065SOL    HW138654   4.234   0.871   3.833  0.5415  0.0880 -1.2096
 9065SOL    HW238655   4.101   0.856   3.885 -0.6746 -0.9176 -0.5227
 9066SOL     OW38656   1.130   2.861   2.113 -0.4754  0.0534 -0.5289
 9066SOL    HW138657   1.109   2.941   2.160 -0.5809 -0.4578  0.2882
 9066SOL    HW238658   1.121   2.788   2.175  0.1734  0.2122 -0.2454
 9067SOL     OW38659   2.411   2.819   7.957  0.0073 -0.3576  0.8186
 9067SOL    HW138660   2.336   2.778   7.915  1.5623 -0.5344 -1.7940
 9067SOL    HW238661   2.413   2.764   8.036 -1.6369 -2.4822 -0.6363
 9068SOL     OW38662   1.309   0.841   6.951 -0.4784 -0.3352 -0.3735
 9068SOL    HW138663   1.333   0.751   6.975  2.2153  0.7294  0.8058
 9068SOL    HW238664   1.222   0.833   6.991 -1.7305  0.7758 -2.8642
 9069SOL     OW38665   4.413   4.572  10.367 -0.3100 -0.0863 -0.1519
 9069SOL    HW138666   4.481   4.553  10.302  0.8040 -0.3156  1.0860
 9069SOL    HW238667   4.408   4.666  10.353 -0.8900  0.1485  1.6707
 9070SOL     OW38668   0.786   3.591  10.907  0.0165 -0.6133 -0.6032
 9070SOL    HW138669   0.781   3.636  10.991 -1.2042  0.0795 -1.0495
 9070SOL    HW238670   0.755   3.502  10.923  1.5613 -0.8824  0.8770
 9071SOL     OW38671   2.780   3.376  14.905 -0.2179  0.5019 -0.1127
 9071SOL    HW138672   2.869   3.409  14.921  0.3959 -1.1886 -0.0176
 9071SOL    HW238673   2.734   3.459  14.923  0.0114 -0.2988  4.3277
 9072SOL     OW38674   1.483   0.548  14.934 -0.4462 -0.7398 -0.2666
 9072SOL    HW138675   1.422   0.580  14.867  2.9821  1.2282 -2.4364
 9072SOL    HW238676   1.541   0.624  14.945 -0.9138 -0.3267 -0.6577
 9073SOL     OW38677   2.815   2.025   4.149 -0.2574  0.2248  0.2425
 9073SOL    HW138678   2.778   1.972   4.080 -0.1694  0.5012 -0.0166
 9073SOL    HW238679   2.747   2.089   4.169 -2.0228 -1.1609 -1.3149
 9074SOL     OW38680   4.114   3.868   4.086 -0.0618  0.3657 -0.1107
 9074SOL    HW138681   4.123   3.960   4.108  0.4872  0.2865  0.0101
 9074SOL    HW238682   4.095   3.877   3.993  0.1463  0.3737 -0.1540
 9075SOL     OW38683   1.289   4.714   4.111 -0.1398  0.3397  0.0013
 9075SOL    HW138684   1.366   0.046   4.099  2.4182 -2.7010  2.4691
 9075SOL    HW238685   1.317   4.624   4.096  0.0607  0.6961 -1.7479
 9076SOL     OW38686   4.053   2.403   1.616 -0.3897  0.0737  0.4087
 9076SOL    HW138687   4.102   2.321   1.610  0.8135  0.6539  2.4141
 9076SOL    HW238688   4.123   2.467   1.618 -0.6107  0.4394 -2.9475
 9077SOL     OW38689   1.217   0.289   3.389  0.0582 -0.2466  0.1393
 9077SOL    HW138690   1.221   0.274   3.295  2.5845  0.5091  0.1215
 9077SOL    HW238691   1.132   0.334   3.391  0.5127  0.5846  1.0316
 9078SOL     OW38692   3.310   1.598   6.841  0.6231 -0.1682  0.5627
 9078SOL    HW138693   3.395   1.592   6.885  1.4686 -0.4256 -1.1215
 9078SOL    HW238694   3.253   1.565   6.911  1.2038  0.3371  1.2730
 9079SOL     OW38695   2.999   2.117  10.446  0.3280 -0.3016 -0.3188
 9079SOL    HW138696   3.029   2.028  10.465  0.6117 -0.0534  0.4123
 9079SOL    HW238697   2.954   2.136  10.528  1.9911 -2.7477  1.1533
 9080SOL     OW38698   1.066   4.143   9.447 -0.1441  0.0655 -0.0540
 9080SOL    HW138699   1.106   4.130   9.533  1.2504 -0.8327 -0.8272
 9080SOL    HW238700   0.973   4.136   9.468  0.2278 -0.7558  1.2910
 9081SOL     OW38701   2.751   2.651   7.693  0.3138  0.3395 -0.1829
 9081SOL    HW138702   2.843   2.638   7.712  0.9238  2.0938 -1.9631
 9081SOL    HW238703   2.737   2.743   7.715  1.2437  0.3974  0.1484
 9082SOL     OW38704   3.480   0.306   5.642  0.1596 -0.5453  0.4139
 9082SOL    HW138705   3.388   0.329   5.628  0.6635  1.5100  0.4355
 9082SOL    HW238706   3.485   0.233   5.704  1.9448 -0.2601  0.6200
 9083SOL     OW38707   3.388   3.532   7.783  0.1646  0.2548  0.3011
 9083SOL    HW138708   3.432   3.484   7.713 -2.3591 -1.2313 -0.2776
 9083SOL    HW238709   3.294   3.518   7.769  0.7962 -1.1617 -2.4166
 9084SOL     OW38710   2.400   1.607   1.940 -0.1846 -0.0734  0.5017
 9084SOL    HW138711   2.337   1.544   1.973  1.4044 -1.9835 -0.1454
 9084SOL    HW238712   2.392   1.682   1.999  2.1541  0.5324  0.0872
 9085SOL     OW38713   4.493   0.774   5.703  0.0729  0.1704 -0.2444
 9085SOL    HW138714   4.583   0.743   5.711  0.0089 -0.3053 -1.4732
 9085SOL    HW238715   4.463   0.748   5.616 -1.1224  2.0835 -0.4018
 9086SOL     OW38716   1.740   2.151   2.176 -0.8451 -0.4166 -0.4793
 9086SOL    HW138717   1.809   2.208   2.211 -1.6815 -0.1515  0.7302
 9086SOL    HW238718   1.778   2.070   2.209  1.8144  1.8555  2.0007
 9087SOL     OW38719   1.521   3.920   0.774 -0.1085  0.0657  0.3814
 9087SOL    HW138720   1.461   3.848   0.792  0.0347 -0.6560 -2.1161
 9087SOL    HW238721   1.477   3.973   0.708 -1.7557 -1.3768  0.3037
 9088SOL     OW38722   0.093   3.520   0.934 -0.3472  0.1062  0.3548
 9088SOL    HW138723   0.032   3.569   0.880 -0.8314  0.9041  1.6192
 9088SOL    HW238724   0.160   3.505   0.867  1.4640  2.6133  1.6031
 9089SOL     OW38725   2.611   1.795   6.596  0.3034  0.6067 -0.2438
 9089SOL    HW138726   2.696   1.819   6.633 -0.3239  0.8802  1.0180
 9089SOL    HW238727   2.603   1.708   6.636 -0.3602  0.7770 -0.0162
 9090SOL     OW38728   4.348   2.854   2.794 -0.6625 -0.2011 -0.4135
 9090SOL    HW138729   4.405   2.909   2.847  0.4849  0.1304 -1.9745
 9090SOL    HW238730   4.263   2.878   2.831 -0.3332  0.2082  0.0676
 9091SOL     OW38731   2.239   4.341  12.546  0.0923  0.4374  0.0157
 9091SOL    HW138732   2.274   4.291  12.620 -0.1055  0.0381 -0.1648
 9091SOL    HW238733   2.311   4.341  12.483 -0.7258 -1.3368 -0.9062
 9092SOL     OW38734   0.413   3.646   3.889 -0.1423 -0.4980 -0.5314
 9092SOL    HW138735   0.494   3.609   3.923 -0.1682  0.7847  0.9196
 9092SOL    HW238736   0.353   3.616   3.957 -0.2342  1.6933  0.3684
 9093SOL     OW38737   2.947   0.126   1.272 -0.4000  0.8498  0.0928
 9093SOL    HW138738   2.907   0.153   1.354 -3.5622  0.4182 -1.3014
 9093SOL    HW238739   2.921   0.187   1.203 -1.6252  0.4252  0.1812
 9094SOL     OW38740   0.841   3.977   7.513  0.3475  0.1317 -0.3342
 9094SOL    HW138741   0.844   3.979   7.609  3.0958  0.1839 -0.4228
 9094SOL    HW238742   0.923   4.023   7.498  0.3353  1.1924  2.7536
 9095SOL     OW38743   3.153   3.598  10.772 -0.1986 -0.5668 -0.1714
 9095SOL    HW138744   3.174   3.692  10.774 -0.6269 -0.5323  2.3472
 9095SOL    HW238745   3.185   3.566  10.688  0.9797 -0.9500  0.4314
 9096SOL     OW38746   1.901   4.636   0.315 -0.9162  0.0664 -0.2514
 9096SOL    HW138747   1.842   4.649   0.390  1.6325 -2.1186  2.1144
 9096SOL    HW238748   1.925   4.544   0.325 -0.7173  0.3668  2.1528
 9097SOL     OW38749   3.039   2.232  15.552  0.0629 -0.4166 -0.4003
 9097SOL    HW138750   3.079   2.148  15.570 -0.5044 -0.4921  0.5106
 9097SOL    HW238751   2.956   2.215  15.507 -1.2734  2.5225  0.9639
 9098SOL     OW38752   3.021   2.088   8.975 -0.3508  0.4455  0.4465
 9098SOL    HW138753   3.087   2.077   8.907 -0.5797 -2.1946  0.6622
 9098SOL    HW238754   2.968   2.150   8.926 -0.3962 -0.1208 -0.2137
 9099SOL     OW38755   4.136   4.160   7.531 -0.2275  0.0299  0.2798
 9099SOL    HW138756   4.095   4.245   7.516 -0.0905 -0.1954 -1.4447
 9099SOL    HW238757   4.060   4.113   7.566 -0.5629  1.0971  0.9715
 9100SOL     OW38758   0.820   2.166   7.871 -0.0313  0.2772 -0.4548
 9100SOL    HW138759   0.857   2.125   7.950 -2.8410  0.3736  0.9195
 9100SOL    HW238760   0.796   2.256   7.894  0.6350  0.4470 -0.4160
 9101SOL     OW38761   1.477   3.298  10.676 -0.1660 -0.3162  0.3359
 9101SOL    HW138762   1.513   3.335  10.757 -0.8082 -1.3955  1.1167
 9101SOL    HW238763   1.529   3.331  10.603 -0.0880  1.2627  1.1197
 9102SOL     OW38764   2.374   3.635   8.595  0.7207  0.3481  0.1413
 9102SOL    HW138765   2.308   3.694   8.632  1.5404  1.9736 -0.9997
 9102SOL    HW238766   2.308   3.590   8.543 -1.2203  2.0570  1.1462
 9103SOL     OW38767   4.361   3.496  17.428 -0.1797 -0.1604  0.0498
 9103SOL    HW138768   4.375   3.414  17.476  2.0083  0.9074  1.2219
 9103SOL    HW238769   4.317   3.551  17.493  1.5560 -1.2482  2.1744
 9104SOL     OW38770   0.142   4.247   1.577 -0.3670  0.4715  0.0862
 9104SOL    HW138771   0.235   4.265   1.591  0.3389 -2.0132 -1.2684
 9104SOL    HW238772   0.129   4.211   1.489  0.4891  2.3214 -0.7877
 9105SOL     OW38773   4.499   4.579   9.344  0.0628 -0.5712  0.1119
 9105SOL    HW138774   4.447   4.659   9.336 -0.0722 -0.7055 -0.3369
 9105SOL    HW238775   4.546   4.597   9.425  0.5591  0.0560 -0.3157
 9106SOL     OW38776   4.055   2.410   1.316 -0.0199 -0.6833  0.2397
 9106SOL    HW138777   4.083   2.319   1.311 -0.4480 -0.8397  0.6295
 9106SOL    HW238778   4.069   2.432   1.409  0.1475 -2.0254  0.5328
 9107SOL     OW38779   1.876   0.604  14.114  0.2514 -0.0805  0.3635
 9107SOL    HW138780   1.890   0.521  14.159  0.5601 -0.6966 -0.8798
 9107SOL    HW238781   1.952   0.657  14.141 -0.3710  1.4735 -0.9463
 9108SOL     OW38782   1.205   1.353   6.402 -0.0729 -0.6858 -0.5685
 9108SOL    HW138783   1.130   1.384   6.453  1.3030  0.6653  0.6498
 9108SOL    HW238784   1.186   1.260   6.411  0.6525 -0.6896  1.0377
 9109SOL     OW38785   1.202   4.262  16.156  0.2164 -0.3704  0.2740
 9109SOL    HW138786   1.202   4.328  16.087 -1.1668 -1.2270 -0.5345
 9109SOL    HW238787   1.167   4.309  16.233  1.6459 -1.4922  1.6119
 9110SOL     OW38788   0.888   2.375   8.077 -0.2781 -0.3341  0.1604
 9110SOL    HW138789   0.798   2.352   8.101 -0.6168 -1.1544 -1.8575
 9110SOL    HW238790   0.904   2.430   8.154  1.1341  1.0640 -1.1327
 9111SOL     OW38791   2.824   4.703  11.695 -0.4884  0.3586 -0.7049
 9111SOL    HW138792   2.749   0.014  11.647 -0.1551 -0.1040 -1.5506
 9111SOL    HW238793   2.858   4.640  11.631  0.4902  0.4380 -0.2741
 9112SOL     OW38794   3.923   0.703  11.283 -0.0462  0.3967  0.4981
 9112SOL    HW138795   3.944   0.794  11.303  1.1005  1.0538 -3.8341
 9112SOL    HW238796   4.007   0.666  11.309 -0.3208 -0.9822 -0.6135
 9113SOL     OW38797   0.594   0.298   4.960 -0.1307 -0.3398 -0.4286
 9113SOL    HW138798   0.549   0.370   5.003  0.3134 -1.2318  1.5109
 9113SOL    HW238799   0.574   0.306   4.867 -0.9169  0.7494 -0.1581
 9114SOL     OW38800   0.313   2.892   2.999 -0.3814  0.3316 -0.0462
 9114SOL    HW138801   0.313   2.809   2.950 -1.0966  1.0280 -1.2254
 9114SOL    HW238802   0.377   2.865   3.065 -0.6252  0.4156  0.2271
 9115SOL     OW38803   3.369   2.395   6.760 -0.2712 -0.2508 -0.3592
 9115SOL    HW138804   3.425   2.459   6.717 -0.5299 -0.3418 -0.8279
 9115SOL    HW238805   3.285   2.435   6.736 -0.7139 -1.1716 -0.3414
 9116SOL     OW38806   4.250   4.617   1.766  0.3510 -0.5951 -0.5601
 9116SOL    HW138807   4.287   4.666   1.693 -2.0143  1.2083 -0.5801
 9116SOL    HW238808   4.264   4.525   1.741  1.4334 -0.6989  0.4553
 9117SOL     OW38809   3.480   4.206   7.417 -0.4693  0.7732  0.1899
 9117SOL    HW138810   3.543   4.171   7.480 -0.9076  0.0284  0.2102
 9117SOL    HW238811   3.532   4.269   7.368 -1.2161  0.6730 -0.7238
 9118SOL     OW38812   2.388   2.309  17.190 -0.4401  0.4409  0.5689
 9118SOL    HW138813   2.432   2.256  17.256  1.2743  0.4669 -0.5586
 9118SOL    HW238814   2.447   2.289  17.118  0.7463 -0.0714  1.6959
 9119SOL     OW38815   3.212   3.911   5.637  0.1116  0.9143 -0.0170
 9119SOL    HW138816   3.211   3.831   5.690  0.8940  1.0331  0.1805
 9119SOL    HW238817   3.169   3.964   5.704 -1.7646  0.1618 -0.6550
 9120SOL     OW38818   3.336   0.332   7.376  0.1978  0.3431  0.8105
 9120SOL    HW138819   3.281   0.411   7.384 -1.2046 -0.4869 -0.5399
 9120SOL    HW238820   3.264   0.269   7.384  0.4539 -0.2823 -1.9226
 9121SOL     OW38821   0.709   0.132   3.233  0.0101  0.0651 -0.2217
 9121SOL    HW138822   0.750   0.047   3.216  0.8744  0.3812  0.2407
 9121SOL    HW238823   0.678   0.167   3.150 -1.3304 -1.1278 -0.2063
 9122SOL     OW38824   0.821   0.243   1.747  0.0606  0.0358 -0.4279
 9122SOL    HW138825   0.845   0.287   1.666 -1.2760 -0.8194 -1.2755
 9122SOL    HW238826   0.729   0.234   1.721  0.2245  0.2358 -1.0564
 9123SOL     OW38827   3.537   1.140   7.327 -0.2468  0.2775 -0.1392
 9123SOL    HW138828   3.509   1.050   7.309  0.8062 -0.0403 -0.2006
 9123SOL    HW238829   3.618   1.150   7.277  0.2973 -3.0256  0.0373
 9124SOL     OW38830   2.909   1.537   7.809 -0.2350  0.5464 -0.2731
 9124SOL    HW138831   2.995   1.503   7.834 -1.1305 -2.7603 -1.6674
 9124SOL    HW238832   2.852   1.465   7.836 -2.1931  2.1583 -0.1286
 9125SOL     OW38833   3.628   0.952   7.040 -0.0295 -0.1118 -0.2081
 9125SOL    HW138834   3.566   0.938   7.112  1.0577 -0.1737  0.7090
 9125SOL    HW238835   3.657   0.864   7.016 -0.2941 -0.0451 -0.7821
 9126SOL     OW38836   3.718   2.088   6.519  0.0563  0.5005  0.3220
 9126SOL    HW138837   3.690   2.179   6.502  2.0830  0.8613 -1.1130
 9126SOL    HW238838   3.702   2.089   6.613  1.2440 -1.4807  0.5364
 9127SOL     OW38839   3.355   0.353   5.925  0.5983 -0.0065  0.2208
 9127SOL    HW138840   3.349   0.297   6.002 -0.9232  0.6549  0.5835
 9127SOL    HW238841   3.392   0.292   5.861 -1.3582 -1.2752  0.3000
 9128SOL     OW38842   0.197   0.923   8.993  0.2187 -0.0230 -0.1981
 9128SOL    HW138843   0.197   1.002   9.048  0.3487  0.8657 -1.4861
 9128SOL    HW238844   0.178   0.851   9.054 -0.5507 -1.4567 -2.1563
 9129SOL     OW38845   0.767   1.692   8.027  0.7565  0.2072  0.2075
 9129SOL    HW138846   0.834   1.624   8.031 -0.4830 -0.9886  0.7558
 9129SOL    HW238847   0.740   1.706   8.118 -0.1095  0.7903 -0.1349
 9130SOL     OW38848   2.866   4.075   9.567  0.0142 -0.3982  0.0287
 9130SOL    HW138849   2.775   4.062   9.593 -0.1586  1.3645  0.2538
 9130SOL    HW238850   2.896   4.138   9.632 -2.2127 -0.0257  0.6677
 9131SOL     OW38851   2.018   2.961  10.892  0.2979  0.2123  0.0801
 9131SOL    HW138852   2.041   2.931  10.980  0.0537 -0.8650 -0.2188
 9131SOL    HW238853   1.928   2.930  10.879  1.5153 -2.4615 -2.0285
 9132SOL     OW38854   4.390   4.518   7.015 -0.1682  0.6526  0.3568
 9132SOL    HW138855   4.312   4.466   6.996  2.2218 -2.5984 -0.4905
 9132SOL    HW238856   4.370   4.554   7.102  0.1594 -1.7972  1.4342
 9133SOL     OW38857   3.027   1.807   5.101  0.3060 -0.6083  0.2586
 9133SOL    HW138858   3.106   1.778   5.056 -1.3661 -0.3079 -2.8462
 9133SOL    HW238859   3.067   1.837   5.183 -1.6410  3.7653 -0.3762
 9134SOL     OW38860   2.631   3.350   3.222  0.0632 -0.0582 -0.4600
 9134SOL    HW138861   2.570   3.277   3.234  0.3647 -0.2589 -0.1086
 9134SOL    HW238862   2.635   3.357   3.127 -0.4473  1.6930 -0.3471
 9135SOL     OW38863   1.026   3.199  10.907 -0.1571 -0.3125  0.3447
 9135SOL    HW138864   0.934   3.180  10.926  0.0574 -1.1365  0.5753
 9135SOL    HW238865   1.065   3.195  10.994  2.4693  1.0457 -0.7638
 9136SOL     OW38866   2.584   0.566  16.321 -0.3051 -0.0656  0.5554
 9136SOL    HW138867   2.672   0.590  16.351 -0.9056  1.4937  1.0392
 9136SOL    HW238868   2.601   0.583  16.228 -3.1036  0.6536  0.1876
 9137SOL     OW38869   0.723   1.784   0.758  0.2099 -0.1861  0.1652
 9137SOL    HW138870   0.654   1.850   0.749 -0.5246 -0.8070  1.3725
 9137SOL    HW238871   0.776   1.813   0.832  3.0726 -0.6467 -1.6747
 9138SOL     OW38872   3.522   2.843   3.054 -0.1715  0.6622 -0.2296
 9138SOL    HW138873   3.530   2.880   3.142 -0.9447  1.4131 -0.4699
 9138SOL    HW238874   3.501   2.750   3.066 -0.6625  0.7928 -0.0587
 9139SOL     OW38875   0.772   4.083   5.847  0.1192 -0.3135  0.2344
 9139SOL    HW138876   0.682   4.068   5.875 -0.7936  0.0852 -2.4093
 9139SOL    HW238877   0.829   4.032   5.905  0.4660 -0.9260 -0.6458
 9140SOL     OW38878   3.091   0.438   3.598  0.0391  0.3467 -0.4016
 9140SOL    HW138879   3.116   0.373   3.532 -1.8133 -1.3868  0.6268
 9140SOL    HW238880   3.102   0.372   3.666 -0.0461 -1.5164 -2.2192
 9141SOL     OW38881   0.380   3.470   3.454  0.7341 -0.0662  0.3289
 9141SOL    HW138882   0.354   3.558   3.481 -0.6655 -1.6005  4.0365
 9141SOL    HW238883   0.431   3.485   3.374 -0.5070 -1.0471 -0.6342
 9142SOL     OW38884   1.434   3.505   4.693 -0.3583  1.0387 -1.0522
 9142SOL    HW138885   1.409   3.587   4.650  1.0215  2.0701  0.1242
 9142SOL    HW238886   1.376   3.503   4.768 -0.8774  0.1089 -1.4680
 9143SOL     OW38887   0.626   2.543   8.053  0.4672 -0.8445 -0.0321
 9143SOL    HW138888   0.586   2.576   8.134  1.9649 -1.9876  1.1606
 9143SOL    HW238889   0.689   2.614   8.038 -1.2340  0.8134  0.7027
 9144SOL     OW38890   1.376   4.040   3.359  0.3231 -0.0132  0.1846
 9144SOL    HW138891   1.376   4.135   3.347  2.5443  0.1969  1.7048
 9144SOL    HW238892   1.332   4.044   3.444  0.9259  1.1632  0.4373
 9145SOL     OW38893   0.711   1.830   6.699 -0.5055  0.1094 -0.4143
 9145SOL    HW138894   0.692   1.866   6.786 -0.4089  0.8786 -0.7057
 9145SOL    HW238895   0.645   1.880   6.651  1.4339  1.2923 -1.8813
 9146SOL     OW38896   0.671   2.323   0.924  0.1273 -0.1298 -0.1475
 9146SOL    HW138897   0.679   2.305   1.018  0.3888 -0.8011 -0.3033
 9146SOL    HW238898   0.596   2.382   0.934 -0.2881 -0.5738 -0.6668
 9147SOL     OW38899   2.903   0.668   2.436 -0.1625  0.1945 -0.2587
 9147SOL    HW138900   2.880   0.588   2.484  0.0938  0.1563 -0.1982
 9147SOL    HW238901   2.837   0.664   2.367 -1.5268 -1.2392  1.1392
 9148SOL     OW38902   1.812   4.057   8.577  0.0722 -0.0668  0.1495
 9148SOL    HW138903   1.798   3.963   8.563  1.0178 -0.0295 -1.1598
 9148SOL    HW238904   1.905   4.059   8.554  0.5434  0.7351  2.1675
 9149SOL     OW38905   2.213   2.894  16.842 -0.1279 -0.2578 -0.4774
 9149SOL    HW138906   2.291   2.859  16.799  0.4737  1.5811 -0.8419
 9149SOL    HW238907   2.149   2.909  16.771 -0.1934 -1.5002 -0.6953
 9150SOL     OW38908   1.492   0.075   1.958  0.0497  0.4526  0.6263
 9150SOL    HW138909   1.452   0.005   1.907 -1.8023  1.7903  0.2424
 9150SOL    HW238910   1.512   0.137   1.888  1.3891 -1.2824 -0.4977
 9151SOL     OW38911   3.817   3.280  16.437  0.4506  0.0924  0.4587
 9151SOL    HW138912   3.837   3.346  16.504 -1.1463 -0.8567  1.8785
 9151SOL    HW238913   3.731   3.251  16.467 -0.0346  1.4639  0.4287
 9152SOL     OW38914   4.137   2.263   7.928  0.3302  0.1008 -0.1733
 9152SOL    HW138915   4.228   2.236   7.915  0.3193  0.2030 -0.4554
 9152SOL    HW238916   4.146   2.329   7.860 -1.5537 -1.7835 -2.2341
 9153SOL     OW38917   3.787   1.599  14.709 -0.1945 -0.5267  0.4509
 9153SOL    HW138918   3.744   1.680  14.737  0.9014  0.2111 -0.0016
 9153SOL    HW238919   3.874   1.636  14.696  0.1890 -1.5224  0.1761
 9154SOL     OW38920   0.579   3.882   5.554  0.1700 -0.0763  0.1807
 9154SOL    HW138921   0.663   3.862   5.513  0.4349  2.1807 -0.3336
 9154SOL    HW238922   0.602   3.968   5.588  1.3881 -1.1174  1.9523
 9155SOL     OW38923   1.621   2.418   7.466  0.3981 -0.5259 -1.1137
 9155SOL    HW138924   1.543   2.413   7.411 -0.0190 -0.1875 -0.5536
 9155SOL    HW238925   1.663   2.492   7.422 -0.0594 -0.1903 -0.9870
 9156SOL     OW38926   0.056   1.868   6.878  0.0076  0.1390 -0.0002
 9156SOL    HW138927   0.114   1.831   6.945  1.2754  2.3060  0.0927
 9156SOL    HW238928   0.100   1.952   6.866  0.8233 -0.5037 -1.5193
 9157SOL     OW38929   0.754   4.716  13.493 -0.3851  0.6425 -0.4471
 9157SOL    HW138930   0.663   0.014  13.509 -1.0851 -0.6938 -2.6814
 9157SOL    HW238931   0.759   4.650  13.424 -0.3590  0.4718 -0.2824
 9158SOL     OW38932   1.210   4.245   7.673 -0.0339 -0.1167 -0.3853
 9158SOL    HW138933   1.134   4.197   7.704  0.7595 -0.9831  0.2216
 9158SOL    HW238934   1.195   4.268   7.582 -0.6266  3.4736  0.6130
 9159SOL     OW38935   0.862   0.307   2.794 -0.3107 -0.3625  0.1492
 9159SOL    HW138936   0.945   0.273   2.827  0.8300  0.8281 -1.4882
 9159SOL    HW238937   0.833   0.385   2.843  1.1248  0.4506 -0.3085
 9160SOL     OW38938   0.092   3.722  15.513  0.3187 -0.0597  0.1913
 9160SOL    HW138939   0.063   3.640  15.553 -0.8056 -0.1380 -0.7674
 9160SOL    HW238940   0.052   3.769  15.586  3.3360 -0.1025  1.8713
 9161SOL     OW38941   0.351   3.806  14.874  0.3691  0.3014  0.1206
 9161SOL    HW138942   0.293   3.763  14.811  1.4701 -2.4224  0.9341
 9161SOL    HW238943   0.400   3.731  14.908  0.1796  0.5148  0.8615
 9162SOL     OW38944   1.682   0.452   7.516 -0.2168 -0.0529 -0.1774
 9162SOL    HW138945   1.767   0.413   7.497 -0.6812 -0.7732 -0.7719
 9162SOL    HW238946   1.676   0.426   7.608 -1.4660  1.0022  0.0401
 9163SOL     OW38947   3.446   2.415   0.832  0.0361 -0.0628  0.5427
 9163SOL    HW138948   3.406   2.400   0.917 -0.0079 -0.9981  0.3608
 9163SOL    HW238949   3.539   2.404   0.851  0.2467 -1.2644 -1.1817
 9164SOL     OW38950   4.298   3.040   5.037 -0.8573  0.4040  0.1332
 9164SOL    HW138951   4.372   3.040   4.977 -0.4993 -0.5476  0.5757
 9164SOL    HW238952   4.250   3.115   5.002 -1.6055  0.0650  0.4375
 9165SOL     OW38953   1.275   0.026   4.955 -0.1103 -0.1075  0.0464
 9165SOL    HW138954   1.368   0.032   4.975 -0.3555 -2.0758  1.7668
 9165SOL    HW238955   1.258   0.073   4.873 -2.6159 -1.5174 -0.2472
 9166SOL     OW38956   2.651   2.221   5.964 -0.0340 -0.6384 -0.3495
 9166SOL    HW138957   2.621   2.271   6.040  1.9372 -0.1771  0.1358
 9166SOL    HW238958   2.713   2.282   5.922  0.5739 -0.7677  0.3674
 9167SOL     OW38959   4.628   3.028   7.967  0.3289 -0.3147  0.0914
 9167SOL    HW138960   4.610   2.958   8.030 -2.0203  0.9124  0.7540
 9167SOL    HW238961   4.695   3.064   8.025 -0.5017 -0.9925  1.4539
 9168SOL     OW38962   0.662   1.377   5.254  0.2400 -0.3492 -0.5006
 9168SOL    HW138963   0.589   1.346   5.309 -0.4275 -0.5719 -1.5182
 9168SOL    HW238964   0.740   1.356   5.305  1.5206  0.8221 -1.9883
 9169SOL     OW38965   3.317   2.274  17.447  0.2729  0.2697  0.0824
 9169SOL    HW138966   3.230   2.311  17.463 -0.0222 -0.4786  0.1976
 9169SOL    HW238967   3.296   2.206  17.383 -0.8072  1.3113 -0.6635
 9170SOL     OW38968   2.701   0.762  13.173 -0.7010 -0.3729 -0.1210
 9170SOL    HW138969   2.628   0.721  13.126  0.0882 -1.2048 -0.6248
 9170SOL    HW238970   2.764   0.690  13.178 -2.0335 -1.3885  1.9827
 9171SOL     OW38971   4.441   1.354   0.577  0.2297  0.5103  0.1308
 9171SOL    HW138972   4.435   1.286   0.509 -0.9455  1.1806 -0.4418
 9171SOL    HW238973   4.351   1.386   0.582  0.4000  1.1715 -1.2621
 9172SOL     OW38974   1.667   3.825   3.790  0.4935  0.0369 -0.1671
 9172SOL    HW138975   1.626   3.762   3.729 -0.3399 -1.4727  1.9453
 9172SOL    HW238976   1.609   3.898   3.769  0.4133 -0.9156 -3.2547
 9173SOL     OW38977   3.300   0.357   2.016 -0.0475  0.1207  0.0109
 9173SOL    HW138978   3.245   0.279   2.019 -0.3719  0.3029 -1.5319
 9173SOL    HW238979   3.243   0.429   2.040 -1.2565 -1.0147  0.5472
 9174SOL     OW38980   4.138   2.748   8.687  0.1059  0.3260 -0.2703
 9174SOL    HW138981   4.218   2.750   8.634  1.8261 -1.8664  2.2152
 9174SOL    HW238982   4.165   2.769   8.777 -1.5724  0.0063  0.3013
 9175SOL     OW38983   0.182   3.238   1.097  0.3368 -0.7172 -0.5451
 9175SOL    HW138984   0.187   3.333   1.088  0.5610 -0.7029 -0.2883
 9175SOL    HW238985   0.088   3.242   1.111  0.4283  0.8790 -0.4082
 9176SOL     OW38986   4.707   1.051  11.216  0.0043 -0.0755 -0.3705
 9176SOL    HW138987   4.706   1.103  11.296 -1.1313 -1.6821  0.6522
 9176SOL    HW238988   0.062   1.087  11.174  0.7524  0.4686  1.4833
 9177SOL     OW38989   0.312   3.683   4.753  0.0209 -0.0286 -0.4211
 9177SOL    HW138990   0.384   3.729   4.797 -1.4969 -1.8385  3.9774
 9177SOL    HW238991   0.243   3.744   4.776  0.2801 -0.1476  0.7030
 9178SOL     OW38992   0.093   1.124  14.817  0.7678  0.2000 -0.4613
 9178SOL    HW138993   0.028   1.194  14.807 -1.0059 -1.5035 -0.9292
 9178SOL    HW238994   0.038   1.055  14.779 -0.8109  1.7269 -0.9679
 9179SOL     OW38995   2.882   0.625   6.579 -0.3126  0.0373 -0.0346
 9179SOL    HW138996   2.787   0.626   6.567 -0.2853  1.0005 -0.1361
 9179SOL    HW238997   2.891   0.662   6.666 -0.2136 -2.5358  1.0413
 9180SOL     OW38998   2.267   2.838   2.608  0.3484  0.1842 -0.5061
 9180SOL    HW138999   2.247   2.924   2.570 -0.1130 -0.1474 -1.0136
 9180SOL    HW239000   2.352   2.827   2.565  0.2834  2.1187 -1.1598
 9181SOL     OW39001   1.843   4.538   6.192  0.4171 -0.0060  0.1546
 9181SOL    HW139002   1.787   4.615   6.195  0.4813  0.0219  0.6220
 9181SOL    HW239003   1.924   4.570   6.232 -1.2008  2.4421  1.4541
 9182SOL     OW39004   0.675   2.162  16.673 -0.0971  0.4171  0.4720
 9182SOL    HW139005   0.744   2.147  16.737 -0.9562  2.2419  1.8248
 9182SOL    HW239006   0.605   2.134  16.732  0.2876  1.0238  1.2205
 9183SOL     OW39007   3.068   1.139   8.370 -0.4034 -0.1222 -0.1049
 9183SOL    HW139008   2.997   1.130   8.433 -0.9307  0.9624 -0.5464
 9183SOL    HW239009   3.143   1.095   8.412 -1.4131 -1.3738  0.3756
 9184SOL     OW39010   3.135   0.969   3.779  0.3514  0.2334  0.5487
 9184SOL    HW139011   3.211   0.996   3.726 -1.2021  1.1593 -1.2038
 9184SOL    HW239012   3.098   1.056   3.767  0.0748  0.0206 -0.1388
 9185SOL     OW39013   4.426   0.721   1.032 -0.2762  0.1837 -0.0625
 9185SOL    HW139014   4.477   0.797   1.058 -2.5939  1.1904  1.5133
 9185SOL    HW239015   4.405   0.742   0.941 -1.3164  4.0721  1.0933
 9186SOL     OW39016   3.087   4.538   7.517  0.5393 -0.5887 -0.1511
 9186SOL    HW139017   3.037   4.610   7.478 -1.2781 -1.0327  1.3159
 9186SOL    HW239018   3.022   4.498   7.575  2.3687 -0.3065  2.0838
 9187SOL     OW39019   2.281   1.449   7.963 -0.6052  0.1851  0.5174
 9187SOL    HW139020   2.214   1.454   7.896 -0.4045 -0.4196  0.2741
 9187SOL    HW239021   2.328   1.532   7.955 -0.2206 -0.0960 -0.1491
 9188SOL     OW39022   0.707   0.775   0.940 -0.1983 -0.6204  0.4115
 9188SOL    HW139023   0.678   0.809   0.855 -2.2308  1.9709  2.1344
 9188SOL    HW239024   0.630   0.802   0.990  1.0161 -0.2838  2.0897
 9189SOL     OW39025   0.149   4.699   9.911 -0.2847  0.3712 -1.1451
 9189SOL    HW139026   0.157   0.002   9.819  1.3665 -3.3223 -2.0580
 9189SOL    HW239027   0.055   4.678   9.913 -0.2114  0.2427  0.7539
 9190SOL     OW39028   3.758   0.617   4.115  0.0944 -0.0418  0.3481
 9190SOL    HW139029   3.791   0.560   4.185 -3.6065  0.6719  2.6831
 9190SOL    HW239030   3.700   0.682   4.154  0.0586  0.8261 -1.1532
 9191SOL     OW39031   0.835   2.685   9.566  0.3248 -0.1395  0.4523
 9191SOL    HW139032   0.804   2.691   9.476 -1.6595 -2.1776  1.0170
 9191SOL    HW239033   0.759   2.706   9.620  0.1442  0.8269 -0.1877
 9192SOL     OW39034   0.137   2.211   8.937 -0.3735 -0.3155  0.2556
 9192SOL    HW139035   0.083   2.287   8.958  0.8852  1.6216 -3.2713
 9192SOL    HW239036   0.208   2.213   9.001  0.8748 -0.4333 -1.1069
 9193SOL     OW39037   1.639   0.564  16.254 -0.3572 -0.5625 -0.4772
 9193SOL    HW139038   1.730   0.534  16.262 -0.3513  0.7098  4.1187
 9193SOL    HW239039   1.640   0.618  16.332 -0.9476 -1.1112 -0.0913
 9194SOL     OW39040   0.052   1.484   5.507 -0.0483  0.5757 -0.0299
 9194SOL    HW139041   0.048   1.577   5.529 -0.6150 -0.3287  3.7656
 9194SOL    HW239042   4.691   1.452   5.538 -0.3378 -0.0647 -1.4656
 9195SOL     OW39043   4.072   2.628   8.132  0.6038 -0.3918 -0.5132
 9195SOL    HW139044   4.044   2.679   8.207 -0.4203 -0.9037 -0.5427
 9195SOL    HW239045   4.103   2.543   8.165 -0.4756  0.3437  2.3582
 9196SOL     OW39046   3.089   2.648   4.662  0.0568  0.2734 -0.2224
 9196SOL    HW139047   3.044   2.715   4.714  0.6574  0.5225 -0.0204
 9196SOL    HW239048   3.058   2.566   4.700  3.5375 -1.2129 -0.5916
 9197SOL     OW39049   3.138   4.165   1.179  0.1891  0.0924 -0.2132
 9197SOL    HW139050   3.214   4.132   1.130 -0.2770 -0.3037 -0.6706
 9197SOL    HW239051   3.086   4.195   1.104  1.2604 -0.8985 -1.3568
 9198SOL     OW39052   2.341   1.706   0.963 -0.1045  0.6061  0.3465
 9198SOL    HW139053   2.389   1.692   1.044  0.8833 -2.0108 -0.6631
 9198SOL    HW239054   2.385   1.645   0.903  0.5156 -0.0027  1.4048
 9199SOL     OW39055   0.717   2.366   2.651 -0.6800 -0.5649  0.0851
 9199SOL    HW139056   0.812   2.352   2.655 -0.8376 -1.6233  0.0954
 9199SOL    HW239057   0.677   2.286   2.683  0.1554 -0.3527  1.6476
 9200SOL     OW39058   2.716   2.498  16.258 -0.1032  0.1814 -0.0312
 9200SOL    HW139059   2.706   2.407  16.288  0.3503 -0.3288 -1.4211
 9200SOL    HW239060   2.696   2.485  16.165 -0.6520  1.1401 -0.0373
 9201SOL     OW39061   0.079   0.764   5.298 -0.0675 -0.2496 -0.1803
 9201SOL    HW139062   0.105   0.793   5.385  1.0969  0.1547 -0.6627
 9201SOL    HW239063   0.098   0.843   5.246  0.6826  0.7518  1.6264
 9202SOL     OW39064   1.382   3.055   3.214  0.0687 -0.3748  0.0903
 9202SOL    HW139065   1.446   3.076   3.145  0.5836  1.2225  1.0498
 9202SOL    HW239066   1.382   3.135   3.267 -1.9955  0.7369 -1.5664
 9203SOL     OW39067   3.425   1.163   6.638  0.3626 -0.7028  0.3897
 9203SOL    HW139068   3.472   1.190   6.717 -0.7892 -0.9616  1.1766
 9203SOL    HW239069   3.456   1.073   6.638 -3.2877 -1.9646  0.7031
 9204SOL     OW39070   4.519   0.720   5.402  0.0174 -0.3536  0.4613
 9204SOL    HW139071   4.610   0.747   5.389  0.1334 -1.5125 -1.1709
 9204SOL    HW239072   4.515   0.651   5.337  1.2205 -0.2692  0.2929
 9205SOL     OW39073   1.248   1.079  15.826 -0.4228  0.5767 -0.2471
 9205SOL    HW139074   1.225   0.990  15.798  0.7460  0.5933 -1.2416
 9205SOL    HW239075   1.187   1.135  15.779  1.2990  0.9875 -1.9769
 9206SOL     OW39076   2.455   0.456   4.273 -0.1943  0.0392 -0.4993
 9206SOL    HW139077   2.438   0.501   4.190  1.5628  2.3203  0.3875
 9206SOL    HW239078   2.536   0.412   4.249  0.6132 -0.5368  3.3974
 9207SOL     OW39079   0.994   0.326   5.117  1.0449 -0.2099 -0.6188
 9207SOL    HW139080   1.013   0.352   5.207  1.7591 -0.7733 -0.6103
 9207SOL    HW239081   0.941   0.248   5.133 -1.3783  1.7223  0.8077
 9208SOL     OW39082   2.888   1.107  14.440 -0.4565  0.6051 -0.0781
 9208SOL    HW139083   2.922   1.159  14.513  1.3343 -1.7850  0.7511
 9208SOL    HW239084   2.806   1.154  14.420  0.1008  1.9924  0.9173
 9209SOL     OW39085   2.854   0.518   2.063  0.3356 -0.0777  0.6567
 9209SOL    HW139086   2.921   0.582   2.038  0.1833  0.0592  0.5940
 9209SOL    HW239087   2.814   0.558   2.141 -3.1104 -0.7560 -0.7700
 9210SOL     OW39088   3.166   0.041   5.888  0.3203  0.5081  0.2351
 9210SOL    HW139089   3.086   0.069   5.934  0.5870 -1.0586  1.6727
 9210SOL    HW239090   3.138   4.682   5.848 -1.5484  0.8784  0.7565
 9211SOL     OW39091   1.144   0.799  16.084 -0.1013 -0.2492  0.5777
 9211SOL    HW139092   1.138   0.829  15.993  0.3802  0.2790  0.7214
 9211SOL    HW239093   1.139   0.705  16.065  0.5170 -1.1782  5.1358
 9212SOL     OW39094   4.167   2.547  15.245 -0.1988  0.2433 -0.9532
 9212SOL    HW139095   4.239   2.583  15.297  2.1569 -1.4253 -3.0835
 9212SOL    HW239096   4.153   2.479  15.310  0.5303  0.1576 -0.8895
 9213SOL     OW39097   2.010   1.051  12.253  0.0566  0.1370  0.1992
 9213SOL    HW139098   2.102   1.052  12.279 -0.2699  1.3334  1.3367
 9213SOL    HW239099   2.014   1.083  12.163 -1.1211  3.5904  1.3372
 9214SOL     OW39100   0.126   4.435  17.503 -0.3112 -0.4422 -0.4665
 9214SOL    HW139101   0.074   4.385  17.566 -0.1051  1.1151  0.9389
 9214SOL    HW239102   0.067   4.486  17.447  0.1170  1.0296  0.4186
 9215SOL     OW39103   2.389   2.612   8.466 -0.0271 -0.5921  0.2018
 9215SOL    HW139104   2.435   2.537   8.505 -0.2330  1.4880  4.4686
 9215SOL    HW239105   2.328   2.636   8.536 -0.8494 -0.4177 -0.5717
 9216SOL     OW39106   1.612   2.595   1.155  0.5212 -0.2765 -0.4068
 9216SOL    HW139107   1.517   2.588   1.165  0.8055 -3.5259 -0.0265
 9216SOL    HW239108   1.609   2.685   1.121  1.0549 -0.6730 -1.5018
 9217SOL     OW39109   0.790   1.187  14.143  0.3222  0.3214 -0.7508
 9217SOL    HW139110   0.722   1.223  14.086 -1.0904  1.3896  1.6178
 9217SOL    HW239111   0.849   1.139  14.084 -1.2356  0.5336 -2.4984
 9218SOL     OW39112   0.450   0.670   4.039 -0.6112  0.7333 -0.2728
 9218SOL    HW139113   0.445   0.739   4.105 -1.2096  0.2277  0.2043
 9218SOL    HW239114   0.460   0.721   3.958 -1.4818 -0.3174 -1.0258
 9219SOL     OW39115   4.050   2.468   8.612  0.5093 -0.2461  0.5921
 9219SOL    HW139116   4.132   2.419   8.600 -0.0378 -1.8336  3.3883
 9219SOL    HW239117   4.081   2.548   8.655  1.3547 -0.1847 -0.1176
 9220SOL     OW39118   4.038   2.442   3.895 -0.5881  0.1622  0.0776
 9220SOL    HW139119   3.984   2.420   3.819  0.0407 -0.0783 -0.3032
 9220SOL    HW239120   4.025   2.535   3.914 -0.9380  0.3849 -1.2311
 9221SOL     OW39121   2.057   2.564   3.493  0.4062 -0.0466  0.3488
 9221SOL    HW139122   2.088   2.568   3.584 -1.1521 -0.9899  0.9264
 9221SOL    HW239123   2.128   2.520   3.446 -0.2036  0.7543 -1.3066
 9222SOL     OW39124   2.015   2.272   6.693 -0.0496  0.3118  0.0997
 9222SOL    HW139125   1.942   2.317   6.737 -0.0284  0.7467 -0.3058
 9222SOL    HW239126   2.063   2.347   6.659  2.4008 -0.7229  1.2783
 9223SOL     OW39127   2.979   2.838   8.823 -0.4490  0.0938 -0.0051
 9223SOL    HW139128   2.995   2.765   8.763 -1.1101 -0.1674  0.1422
 9223SOL    HW239129   3.065   2.879   8.828 -0.3722  0.0572 -1.0352
 9224SOL     OW39130   2.598   3.077   9.049  0.2138 -0.0599  0.1216
 9224SOL    HW139131   2.692   3.069   9.061 -0.0067  1.2303  2.9429
 9224SOL    HW239132   2.600   3.089   8.954  0.9116 -0.4072  0.0956
 9225SOL     OW39133   3.385   4.618   6.872 -0.3685 -0.3597 -0.2882
 9225SOL    HW139134   3.431   4.535   6.888  1.1655  0.9110  1.8409
 9225SOL    HW239135   3.426   4.670   6.941  0.2678  0.0969 -0.9984
 9226SOL     OW39136   3.217   2.531   6.520  0.2411  0.1327 -0.1254
 9226SOL    HW139137   3.187   2.564   6.605 -1.5289  0.8595 -1.0305
 9226SOL    HW239138   3.171   2.446   6.522  0.4825 -0.0148 -1.1778
 9227SOL     OW39139   0.211   2.049   4.735  0.0542  0.0830 -0.0316
 9227SOL    HW139140   0.139   2.017   4.789 -0.8502  0.7974 -0.7997
 9227SOL    HW239141   0.162   2.090   4.663 -1.6370  0.5166  1.3533
 9228SOL     OW39142   3.317   4.362   8.250 -0.6247 -0.4963 -0.0572
 9228SOL    HW139143   3.297   4.273   8.279 -1.0279 -0.4385 -0.1505
 9228SOL    HW239144   3.381   4.340   8.183  1.0764 -0.6043  1.6136
 9229SOL     OW39145   3.761   2.500   1.932 -0.1326  0.2514  0.1657
 9229SOL    HW139146   3.674   2.539   1.940  0.0280  0.5681  0.3575
 9229SOL    HW239147   3.732   2.419   1.890  0.1492 -0.0202  0.4845
 9230SOL     OW39148   0.139   1.086   4.656  0.5854  0.7790  0.4128
 9230SOL    HW139149   0.102   1.042   4.579  1.3552  0.4505  0.2337
 9230SOL    HW239150   0.129   1.177   4.627 -0.8770 -0.0225 -1.6412
 9231SOL     OW39151   3.493   2.727  11.790 -0.2508 -0.3987 -0.3144
 9231SOL    HW139152   3.551   2.800  11.811 -0.2047 -0.5703  0.1575
 9231SOL    HW239153   3.550   2.670  11.738  0.2306 -0.6509  0.4903
 9232SOL     OW39154   2.202   2.453   7.694  0.1212  0.0607 -0.2149
 9232SOL    HW139155   2.153   2.399   7.632  0.8727  0.0171 -0.7701
 9232SOL    HW239156   2.264   2.390   7.731 -1.1719 -1.6010 -0.8827
 9233SOL     OW39157   4.615   1.306   2.618 -0.3889 -0.0221 -0.6635
 9233SOL    HW139158   4.537   1.277   2.572 -0.2273  0.8920 -1.5301
 9233SOL    HW239159   4.626   1.394   2.582 -0.1207  0.5218  0.7553
 9234SOL     OW39160   4.643   4.548  16.092  0.2287  0.1192  0.4469
 9234SOL    HW139161   0.013   4.565  16.108  0.3863 -0.5512  0.2322
 9234SOL    HW239162   4.601   4.633  16.079 -1.7022 -0.4484  3.0423
 9235SOL     OW39163   2.375   2.339   5.279 -0.5646  0.1512  0.2200
 9235SOL    HW139164   2.467   2.321   5.301 -0.8244  0.1328  1.3229
 9235SOL    HW239165   2.343   2.258   5.319 -3.1196  0.6890 -0.7761
 9236SOL     OW39166   3.105   0.190   5.512 -0.0602 -0.9888 -0.1648
 9236SOL    HW139167   3.160   0.265   5.535 -0.3278 -0.9128  0.2395
 9236SOL    HW239168   3.024   0.233   5.484  0.0168 -0.0513  1.0405
 9237SOL     OW39169   3.567   4.709  12.540  0.1432  0.1393  0.4985
 9237SOL    HW139170   3.643   0.044  12.535  1.1804 -1.3064 -0.4824
 9237SOL    HW239171   3.591   4.643  12.606  0.0071 -0.0598  0.3468
 9238SOL     OW39172   4.589   0.409   0.581  0.5688 -0.6055  0.0238
 9238SOL    HW139173   4.638   0.464   0.520  0.5414 -0.7660 -0.1459
 9238SOL    HW239174   4.503   0.452   0.585 -0.6020 -3.0175  0.9493
 9239SOL     OW39175   3.738   1.139   6.103  0.2112  0.2729  0.9277
 9239SOL    HW139176   3.710   1.127   6.012  0.9397  1.1658  0.5779
 9239SOL    HW239177   3.707   1.052   6.126 -3.8874  1.3789 -0.4493
 9240SOL     OW39178   1.203   4.473   2.796  0.2095  0.1914 -0.5714
 9240SOL    HW139179   1.244   4.556   2.770 -0.2615  0.3575 -0.7948
 9240SOL    HW239180   1.110   4.494   2.810  0.5944  2.7756 -1.7853
 9241SOL     OW39181   3.223   2.880  17.531  0.2563  0.6167 -0.6635
 9241SOL    HW139182   3.228   2.785  17.518 -1.2657  0.3412  0.8042
 9241SOL    HW239183   3.314   2.892  17.559  0.6959 -2.0196 -0.9809
 9242SOL     OW39184   1.767   3.832   6.146  0.5265  0.2953 -0.6754
 9242SOL    HW139185   1.691   3.819   6.089 -0.7698  2.2126  0.6084
 9242SOL    HW239186   1.732   3.805   6.231 -0.0258  3.5284  0.1415
 9243SOL     OW39187   0.246   4.572  11.953 -0.2908  0.1992 -0.3279
 9243SOL    HW139188   0.155   4.600  11.938 -0.2226 -0.0712 -1.2248
 9243SOL    HW239189   0.295   4.642  11.911  0.8954 -0.0787  0.6121
 9244SOL     OW39190   4.651   4.579   9.103  0.0356  0.6869  0.1296
 9244SOL    HW139191   4.611   4.607   9.186  0.8852  1.7326  0.1965
 9244SOL    HW239192   4.648   4.659   9.050  0.1223  1.7675  1.7464
 9245SOL     OW39193   1.963   4.205   0.682  0.5304  0.4295  0.0607
 9245SOL    HW139194   1.999   4.144   0.617  2.7294  0.4556  1.2556
 9245SOL    HW239195   2.045   4.252   0.698  0.0103  1.5769 -0.6178
 9246SOL     OW39196   0.425   1.962  17.292  0.1726 -0.2477  0.8768
 9246SOL    HW139197   0.456   2.051  17.309 -0.8132  0.1603  0.5248
 9246SOL    HW239198   0.330   1.971  17.301  0.0008 -1.7516  0.5341
 9247SOL     OW39199   3.269   1.868   9.118 -0.0279  0.0450 -0.3218
 9247SOL    HW139200   3.338   1.934   9.124  2.2130 -2.2203 -1.4672
 9247SOL    HW239201   3.244   1.874   9.026 -0.1098  4.6630 -0.0108
 9248SOL     OW39202   0.965   2.688   6.077 -0.2058  0.6316  0.3914
 9248SOL    HW139203   1.030   2.620   6.059  0.2434  1.6595 -1.7747
 9248SOL    HW239204   0.959   2.698   6.172 -0.6471 -1.4397  0.5681
 9249SOL     OW39205   1.594   0.175   4.345 -0.0184  0.7921  0.8115
 9249SOL    HW139206   1.558   0.134   4.423  2.0506  0.0290  1.3689
 9249SOL    HW239207   1.674   0.203   4.390  0.9187  0.3662 -0.5901
 9250SOL     OW39208   4.662   0.145   0.610 -0.0333  0.6434  0.4540
 9250SOL    HW139209   0.029   0.175   0.603  0.1000  1.1936  4.4930
 9250SOL    HW239210   4.621   0.230   0.597 -0.9982 -0.2791 -2.4745
 9251SOL     OW39211   0.164   3.818   1.850  0.0459  0.0414  0.2432
 9251SOL    HW139212   0.115   3.849   1.925 -1.6008 -3.6470  0.6967
 9251SOL    HW239213   0.112   3.739   1.834  0.0797  0.6216 -2.7665
 9252SOL     OW39214   3.621   1.425  10.634 -0.0870  0.3256  0.7639
 9252SOL    HW139215   3.604   1.496  10.572 -1.0796 -1.9759 -1.6594
 9252SOL    HW239216   3.540   1.439  10.683 -2.0255 -4.0322 -1.1192
 9253SOL     OW39217   4.289   1.945   1.913  0.1027  0.0377 -0.5090
 9253SOL    HW139218   4.215   1.923   1.857 -0.3084 -0.9702  0.4217
 9253SOL    HW239219   4.290   2.041   1.912 -1.8100  0.0442 -1.9635
 9254SOL     OW39220   3.630   1.836  13.956 -0.2950 -0.2226 -0.1785
 9254SOL    HW139221   3.699   1.835  14.022  0.1561 -0.3405 -0.6517
 9254SOL    HW239222   3.644   1.750  13.916  0.7096 -0.5500  0.8653
 9255SOL     OW39223   0.425   2.799   6.313  0.4275  0.3915  0.4708
 9255SOL    HW139224   0.488   2.729   6.325 -0.8798 -0.8677 -0.0770
 9255SOL    HW239225   0.402   2.813   6.405 -1.6455 -1.7620  0.2696
 9256SOL     OW39226   3.268   3.104   0.609  0.0577  0.6747  0.0521
 9256SOL    HW139227   3.318   3.091   0.690  0.6009 -0.5523 -0.4858
 9256SOL    HW239228   3.186   3.057   0.617  1.2527 -1.1172  1.7470
 9257SOL     OW39229   0.733   4.351   6.016 -0.2182  0.1566  0.1995
 9257SOL    HW139230   0.695   4.377   5.932  0.0449 -0.7343 -0.2034
 9257SOL    HW239231   0.823   4.341   5.983  0.2984 -1.7466  2.2251
 9258SOL     OW39232   3.823   3.242   2.694  0.7637 -0.0696 -0.8365
 9258SOL    HW139233   3.785   3.155   2.699 -0.2993  0.3127 -2.4441
 9258SOL    HW239234   3.777   3.292   2.627 -1.1586  1.8864  1.9373
 9259SOL     OW39235   2.514   3.677  10.008 -0.3043 -0.0745 -0.1395
 9259SOL    HW139236   2.485   3.747   9.950 -2.1781  0.8890  1.9478
 9259SOL    HW239237   2.436   3.623  10.012 -0.5062  0.1602 -1.0804
 9260SOL     OW39238   0.252   1.709   2.061  0.0061  0.3587 -0.3586
 9260SOL    HW139239   0.244   1.631   2.116 -0.0761  0.7057  0.1214
 9260SOL    HW239240   0.161   1.738   2.066  0.3753  0.9879  3.0319
 9261SOL     OW39241   3.035   3.364   6.069 -0.1924 -0.2124  0.2848
 9261SOL    HW139242   3.051   3.270   6.062  0.1804 -0.1354  0.1208
 9261SOL    HW239243   3.033   3.396   5.979 -1.6120  0.2391  0.4763
 9262SOL     OW39244   2.226   0.746   0.385  0.4768 -0.1301  0.3352
 9262SOL    HW139245   2.308   0.697   0.379  0.7941  0.6144 -1.4064
 9262SOL    HW239246   2.237   0.796   0.466  0.1120  2.8686 -1.4784
 9263SOL     OW39247   0.288   1.871   5.163 -0.2485 -0.3087 -0.1259
 9263SOL    HW139248   0.279   1.776   5.151  0.5608 -0.4660  0.5321
 9263SOL    HW239249   0.254   1.879   5.253 -0.2252 -4.3588  0.2500
 9264SOL     OW39250   1.213   4.544   5.890 -0.1612  0.1259 -0.0910
 9264SOL    HW139251   1.278   4.488   5.847  0.0537  0.9171 -0.7955
 9264SOL    HW239252   1.261   4.578   5.966 -1.1517  1.6403 -0.1364
 9265SOL     OW39253   1.287   2.446   2.086  0.0640  0.5128  0.2855
 9265SOL    HW139254   1.361   2.386   2.089 -1.0909 -1.0414 -2.0350
 9265SOL    HW239255   1.296   2.495   2.167 -0.5638  2.5158 -0.8459
 9266SOL     OW39256   2.821   2.231  17.147 -0.1702  0.1156  0.2285
 9266SOL    HW139257   2.728   2.227  17.171 -0.2292  1.1840  0.1767
 9266SOL    HW239258   2.826   2.179  17.066 -0.6310 -0.0770  0.3233
 9267SOL     OW39259   3.035   4.650   7.059  0.3838 -0.2929  0.3976
 9267SOL    HW139260   3.000   4.561   7.057  1.6135 -0.7553 -0.0636
 9267SOL    HW239261   3.056   4.665   6.967 -1.3177 -0.5846 -0.0384
 9268SOL     OW39262   2.527   1.325  12.046 -0.1339  0.1745 -0.0608
 9268SOL    HW139263   2.445   1.295  12.006  0.7045 -2.4334  0.1678
 9268SOL    HW239264   2.540   1.265  12.120 -1.6725 -2.1005 -1.6299
 9269SOL     OW39265   2.361   1.267   4.374  0.1093 -0.3994  0.2665
 9269SOL    HW139266   2.444   1.262   4.422 -0.6004 -0.8759  1.4288
 9269SOL    HW239267   2.325   1.337   4.428 -3.1345 -0.5045 -1.7385
 9270SOL     OW39268   3.374   0.006   5.505 -0.2700 -0.4460 -0.5169
 9270SOL    HW139269   3.295   0.059   5.497 -0.7326 -0.8163  1.5713
 9270SOL    HW239270   3.393   0.015   5.599  0.3773 -2.4237 -0.4382
 9271SOL     OW39271   2.569   3.844  10.226  0.1114 -0.6185  0.0404
 9271SOL    HW139272   2.549   3.781  10.295  0.4357 -2.3970 -1.4820
 9271SOL    HW239273   2.551   3.793  10.147  1.8713  0.3342 -0.9820
 9272SOL     OW39274   0.539   1.864  16.388 -0.3742 -0.4241  0.3847
 9272SOL    HW139275   0.487   1.920  16.447 -0.7396 -0.6169  0.2449
 9272SOL    HW239276   0.472   1.830  16.329  0.3394  0.7409 -1.1243
 9273SOL     OW39277   2.107   1.374   6.839  0.1008 -0.0605 -0.0559
 9273SOL    HW139278   2.141   1.441   6.780 -0.4721  0.3946  0.1311
 9273SOL    HW239279   2.188   1.372   6.890 -0.2083 -0.0765  0.4419
 9274SOL     OW39280   3.086   2.374  11.563 -0.4697 -0.0149 -0.1730
 9274SOL    HW139281   2.994   2.399  11.559  0.0379  1.8576  0.2508
 9274SOL    HW239282   3.116   2.416  11.482 -0.7282 -0.3314 -0.4384
 9275SOL     OW39283   3.609   1.324  10.232 -0.1174  0.0269 -0.3971
 9275SOL    HW139284   3.682   1.336  10.171  0.9937 -0.9811  0.7184
 9275SOL    HW239285   3.636   1.257  10.295  1.8707  0.4865 -0.7631
 9276SOL     OW39286   4.163   3.535   1.622  0.3393  0.5206 -0.3856
 9276SOL    HW139287   4.156   3.631   1.618 -1.7611  0.3999  0.1760
 9276SOL    HW239288   4.256   3.534   1.644  0.0076  0.9166  1.0778
 9277SOL     OW39289   1.816   2.907   2.082  0.7143  0.2190  0.6777
 9277SOL    HW139290   1.897   2.856   2.082 -0.4441 -1.6295 -1.7832
 9277SOL    HW239291   1.757   2.838   2.051  0.4219  0.6810  0.1986
 9278SOL     OW39292   3.734   3.722   3.836 -0.2456  0.1311  0.1517
 9278SOL    HW139293   3.744   3.817   3.837 -2.3602  0.3783 -1.5853
 9278SOL    HW239294   3.638   3.716   3.833 -0.1257 -2.3105  1.6807
 9279SOL     OW39295   3.217   0.645   2.837 -0.8191 -0.2710 -0.5590
 9279SOL    HW139296   3.292   0.663   2.781 -0.7637  0.1336 -0.3559
 9279SOL    HW239297   3.208   0.719   2.897 -2.9500 -0.8695 -0.1390
 9280SOL     OW39298   3.077   0.538  10.417  0.1144  0.1637  0.4896
 9280SOL    HW139299   3.146   0.550  10.352 -2.2816 -0.5776 -2.1993
 9280SOL    HW239300   3.126   0.529  10.498 -0.1500 -2.0352  0.3982
 9281SOL     OW39301   1.796   4.500  16.833 -0.5850 -0.3267 -0.8615
 9281SOL    HW139302   1.811   4.540  16.747 -0.1404 -2.0933 -1.6158
 9281SOL    HW239303   1.873   4.444  16.841 -0.1760  0.5034  0.8278
 9282SOL     OW39304   2.863   0.463   5.800  0.0081  0.1471  0.6417
 9282SOL    HW139305   2.945   0.478   5.845 -0.9615  2.2733  1.6945
 9282SOL    HW239306   2.863   0.372   5.770 -1.0439 -0.2729  1.9418
 9283SOL     OW39307   1.562   1.323   0.196 -0.2273  0.1237  0.5100
 9283SOL    HW139308   1.575   1.267   0.119  0.6285  1.9107 -0.6395
 9283SOL    HW239309   1.468   1.307   0.209 -0.1479 -0.0543  0.8686
 9284SOL     OW39310   3.934   3.988   7.588 -0.0250  0.4447 -0.0218
 9284SOL    HW139311   3.969   3.901   7.567  0.6540  0.5223  0.7664
 9284SOL    HW239312   3.895   3.954   7.668 -0.8623  0.2628 -0.5072
 9285SOL     OW39313   4.369   0.224   0.820 -0.1264  0.1290  0.1531
 9285SOL    HW139314   4.383   0.300   0.763 -1.7230 -0.7739 -1.4717
 9285SOL    HW239315   4.368   0.261   0.908 -0.0428  3.5958 -1.2954
 9286SOL     OW39316   4.545   4.439   7.328  0.6491  0.4806  0.3602
 9286SOL    HW139317   4.601   4.468   7.400 -1.3559 -0.3505  2.2850
 9286SOL    HW239318   4.493   4.378   7.381 -1.8013  3.3077  1.1987
 9287SOL     OW39319   4.167   4.380   5.082  0.1651 -0.0945  0.6477
 9287SOL    HW139320   4.077   4.403   5.105  0.7735  1.6068  1.3352
 9287SOL    HW239321   4.197   4.471   5.074  0.3236 -0.2531 -0.6121
 9288SOL     OW39322   2.699   2.043   3.263  0.2904  0.1899 -0.1735
 9288SOL    HW139323   2.727   2.100   3.335  1.3312  0.3961 -0.7433
 9288SOL    HW239324   2.644   1.979   3.308  0.7764  0.0759  0.2640
 9289SOL     OW39325   3.793   4.483  10.283 -0.6100  0.0223 -0.7454
 9289SOL    HW139326   3.726   4.550  10.264  0.3127  0.7884 -1.3029
 9289SOL    HW239327   3.870   4.540  10.288 -1.3281  0.7586  2.0500
 9290SOL     OW39328   2.155   4.625  16.301  0.0622 -0.2117  0.0246
 9290SOL    HW139329   2.129   4.662  16.216  1.3346 -2.9461 -1.5778
 9290SOL    HW239330   2.214   4.694  16.332  0.6744 -0.1617 -1.2554
 9291SOL     OW39331   1.521   3.113   8.302  0.0623 -0.4906 -0.3293
 9291SOL    HW139332   1.597   3.065   8.335  1.3236  1.4544 -0.3464
 9291SOL    HW239333   1.481   3.059   8.234  0.6548  0.1300 -1.1791
 9292SOL     OW39334   1.855   2.341   2.333 -0.3229 -0.5076  1.0351
 9292SOL    HW139335   1.870   2.411   2.269 -1.4506 -0.6532  0.6167
 9292SOL    HW239336   1.925   2.351   2.397  1.3074 -0.0263 -0.8222
 9293SOL     OW39337   1.395   4.318   3.855  0.1296  0.1168 -0.4743
 9293SOL    HW139338   1.327   4.323   3.789 -1.3666 -0.6725  0.9993
 9293SOL    HW239339   1.347   4.318   3.938 -0.6917  2.7036 -0.9646
 9294SOL     OW39340   2.859   3.633   3.849  0.0286  0.3997  0.2031
 9294SOL    HW139341   2.789   3.580   3.811 -0.2428  1.2282 -0.4268
 9294SOL    HW239342   2.823   3.617   3.937 -1.2210  0.4405 -0.3000
 9295SOL     OW39343   1.526   0.704   4.403  0.5831  0.3632  0.4523
 9295SOL    HW139344   1.446   0.697   4.352  1.3276 -0.1497 -0.6506
 9295SOL    HW239345   1.511   0.787   4.449 -1.5184  0.5421 -0.5662
 9296SOL     OW39346   0.058   1.232  11.437 -0.2097 -0.2178  0.4631
 9296SOL    HW139347   0.105   1.192  11.511  0.2893 -1.7980 -0.6845
 9296SOL    HW239348   4.703   1.258  11.485 -0.1383  0.6266  0.1231
 9297SOL     OW39349   0.648   1.729   8.273  0.3439  0.4393  0.0141
 9297SOL    HW139350   0.575   1.786   8.294 -1.1019 -0.3108 -2.9517
 9297SOL    HW239351   0.642   1.667   8.346  0.2261  0.6435  0.1756
 9298SOL     OW39352   1.585   4.311  16.687  0.9145  0.2750  0.1903
 9298SOL    HW139353   1.665   4.302  16.739  0.4512  0.5795  0.9552
 9298SOL    HW239354   1.555   4.220  16.680  0.8077  0.2030  1.7341
 9299SOL     OW39355   3.964   3.253   6.100  0.1971  0.4840 -0.3101
 9299SOL    HW139356   3.935   3.162   6.112 -1.2388  1.1567  1.3566
 9299SOL    HW239357   4.044   3.231   6.052  1.0856  2.6553  0.1633
 9300SOL     OW39358   0.343   3.970   1.703 -0.0669  0.3302 -0.0049
 9300SOL    HW139359   0.430   3.944   1.734 -0.4476 -1.5038 -0.4450
 9300SOL    HW239360   0.293   3.908   1.756 -0.0369  0.6351  0.3813
 9301SOL     OW39361   2.300   3.539   1.818 -0.4158  0.2030  0.1649
 9301SOL    HW139362   2.352   3.458   1.822 -4.3037 -2.1343  3.1820
 9301SOL    HW239363   2.231   3.518   1.755 -1.9099  0.1586  1.8206
 9302SOL     OW39364   3.922   3.421   9.266 -0.2170 -0.1139 -0.2764
 9302SOL    HW139365   3.845   3.463   9.228 -0.6196  0.3696  1.1055
 9302SOL    HW239366   3.939   3.494   9.325  2.7766  0.4284 -1.7521
 9303SOL     OW39367   1.154   2.837   6.875  0.4828 -0.1492 -0.0031
 9303SOL    HW139368   1.156   2.748   6.912 -1.3132  0.1616  0.8627
 9303SOL    HW239369   1.098   2.880   6.940  0.1170  0.3344 -0.6464
 9304SOL     OW39370   3.340   2.042  14.641 -0.0181 -0.6847 -0.3130
 9304SOL    HW139371   3.393   2.117  14.613  0.7349 -0.4028  1.8861
 9304SOL    HW239372   3.313   2.016  14.553  0.2836 -2.7171  0.1966
 9305SOL     OW39373   0.296   3.970   1.433 -0.1885  0.0495 -0.1559
 9305SOL    HW139374   0.210   3.928   1.437 -1.4243  2.6349  0.3224
 9305SOL    HW239375   0.301   3.967   1.529 -1.7620 -1.3151 -0.1080
 9306SOL     OW39376   4.246   0.482  17.211  0.0079 -0.2149  0.2764
 9306SOL    HW139377   4.286   0.490  17.125 -1.0548  1.3509 -0.0911
 9306SOL    HW239378   4.284   0.554  17.262  0.8666 -0.1188 -0.5080
 9307SOL     OW39379   2.759   2.210   4.698 -0.3439 -0.0578 -0.0534
 9307SOL    HW139380   2.750   2.118   4.724 -0.9972  0.0767  0.1776
 9307SOL    HW239381   2.720   2.250   4.775  0.7085 -0.0341  0.4779
 9308SOL     OW39382   2.928   4.275   3.034  0.1858 -0.3540 -0.1312
 9308SOL    HW139383   2.974   4.358   3.026 -1.1048  0.3455 -0.2588
 9308SOL    HW239384   2.882   4.304   3.113  1.8888  0.3283  0.6026
 9309SOL     OW39385   2.045   1.103  11.949 -0.3581 -0.4660  1.0598
 9309SOL    HW139386   2.075   1.017  11.920 -0.5214 -0.4586  0.8687
 9309SOL    HW239387   2.086   1.162  11.886  0.0463  0.3601  2.0930
 9310SOL     OW39388   4.372   4.338  15.072  0.0432 -0.1461 -0.2580
 9310SOL    HW139389   4.375   4.254  15.117  1.7878  0.0540 -0.0011
 9310SOL    HW239390   4.412   4.316  14.988  0.8932 -0.0550  0.1265
 9311SOL     OW39391   2.178   1.147   6.285 -0.8444 -0.1251 -0.5803
 9311SOL    HW139392   2.197   1.218   6.223  0.9658  0.6873  0.9240
 9311SOL    HW239393   2.090   1.178   6.307 -1.1395 -1.1371 -0.3630
 9312SOL     OW39394   4.401   2.860   3.446 -0.0526  0.5929 -0.0199
 9312SOL    HW139395   4.377   2.879   3.356 -0.7951  1.8618  0.4416
 9312SOL    HW239396   4.476   2.803   3.429 -0.6252 -0.3353  0.5814
 9313SOL     OW39397   4.713   0.999   3.869  0.6272  0.5695  0.5011
 9313SOL    HW139398   4.685   1.032   3.784 -1.1420  0.2071  0.9321
 9313SOL    HW239399   0.084   1.011   3.870  0.8532 -1.1593  0.1734
 9314SOL     OW39400   4.699   0.532  17.103 -0.1998  0.2488  0.8280
 9314SOL    HW139401   4.655   0.617  17.097  1.2465  0.9205 -0.1898
 9314SOL    HW239402   4.641   0.480  17.047 -0.1397  0.2019  0.8101
 9315SOL     OW39403   3.497   2.699   7.782  0.1535  0.1282 -0.3189
 9315SOL    HW139404   3.415   2.715   7.736  0.3017  0.9759 -0.2862
 9315SOL    HW239405   3.513   2.608   7.758  1.5236  0.1699  0.4605
 9316SOL     OW39406   3.378   4.381   1.122 -0.1593  0.1687  0.4560
 9316SOL    HW139407   3.307   4.415   1.068 -0.4383  0.6290  1.1039
 9316SOL    HW239408   3.356   4.290   1.101  1.6944 -0.4387  1.1805
 9317SOL     OW39409   3.628   0.352   8.727 -0.5518  0.1816 -0.4451
 9317SOL    HW139410   3.586   0.273   8.761  1.8570 -0.1387  1.7565
 9317SOL    HW239411   3.648   0.320   8.639 -2.1397  2.2783 -1.5716
 9318SOL     OW39412   4.311   0.145   2.958 -0.5255  0.4595  0.2726
 9318SOL    HW139413   4.263   0.189   3.028  0.4784 -0.1463  1.3387
 9318SOL    HW239414   4.245   0.118   2.894 -1.2053 -4.1693  2.9807
 9319SOL     OW39415   1.382   1.339   4.948 -0.0154 -0.1781  0.5034
 9319SOL    HW139416   1.411   1.427   4.924 -0.4000 -0.0763  0.4158
 9319SOL    HW239417   1.292   1.340   4.917  0.8743  1.1021 -2.0794
 9320SOL     OW39418   0.179   0.723   6.448 -0.1079  0.1936  0.1626
 9320SOL    HW139419   0.182   0.687   6.537  0.1846 -1.4698 -0.5267
 9320SOL    HW239420   0.173   0.641   6.400  2.7169 -0.3272  0.6908
 9321SOL     OW39421   1.380   0.638  15.906 -0.4950  0.3875  0.0158
 9321SOL    HW139422   1.299   0.606  15.865 -0.4788  0.8401 -0.3607
 9321SOL    HW239423   1.413   0.702  15.843 -2.0792  2.0052  0.8419
 9322SOL     OW39424   2.438   0.774   9.238  0.4330  0.1636 -0.5065
 9322SOL    HW139425   2.394   0.754   9.155 -0.6073  2.5565 -0.5278
 9322SOL    HW239426   2.471   0.686   9.258 -2.0780 -1.3597 -3.0603
 9323SOL     OW39427   1.192   3.540   4.479  0.2701  0.9740 -0.0626
 9323SOL    HW139428   1.224   3.608   4.538 -0.3371  1.7119 -0.5931
 9323SOL    HW239429   1.099   3.558   4.466  0.0303  0.1750  0.5362
 9324SOL     OW39430   3.735   3.658  13.465  0.0733  0.3570  0.4432
 9324SOL    HW139431   3.677   3.733  13.455 -2.4541 -1.6348  0.2181
 9324SOL    HW239432   3.790   3.674  13.389  3.4920 -0.3064  2.7792
 9325SOL     OW39433   2.575   3.946   7.906 -0.3813 -0.7137  0.0615
 9325SOL    HW139434   2.553   4.037   7.925  2.7911  0.1026 -0.2216
 9325SOL    HW239435   2.640   3.941   7.836 -0.9150 -1.4902 -0.3835
 9326SOL     OW39436   1.874   1.983  10.654 -0.0064 -0.1475  0.0119
 9326SOL    HW139437   1.942   2.024  10.600  1.0470  0.0912  1.4864
 9326SOL    HW239438   1.858   2.043  10.727 -1.1468 -0.9480  0.4192
 9327SOL     OW39439   4.129   1.603  10.653  0.5566 -0.0116  0.1201
 9327SOL    HW139440   4.125   1.563  10.739  0.4675 -0.3721 -0.0537
 9327SOL    HW239441   4.040   1.637  10.647  0.7541  0.6234  0.8180
 9328SOL     OW39442   0.360   2.204   0.075  0.1606 -0.5113 -0.3694
 9328SOL    HW139443   0.330   2.115   0.089  0.0044 -0.7708 -2.3005
 9328SOL    HW239444   0.452   2.188   0.093  0.7169  1.3235 -1.5185
 9329SOL     OW39445   3.722   4.049   8.231  0.2502 -0.5858  0.5136
 9329SOL    HW139446   3.694   4.098   8.153 -0.3388 -0.9326  0.5052
 9329SOL    HW239447   3.815   4.069   8.224 -0.2261  1.2339 -0.7411
 9330SOL     OW39448   4.608   3.602   7.780 -0.3566 -0.2925  0.1605
 9330SOL    HW139449   4.564   3.664   7.722  2.2375  2.2254  0.9058
 9330SOL    HW239450   4.609   3.528   7.719 -0.0850 -0.9929  1.0218
 9331SOL     OW39451   0.673   4.229   2.785 -0.0136  0.7896 -0.1343
 9331SOL    HW139452   0.730   4.164   2.824 -1.2744 -0.1208  0.1993
 9331SOL    HW239453   0.623   4.174   2.724  2.9476 -0.4519 -1.4352
 9332SOL     OW39454   2.958   3.852   9.214  0.1420  0.3350  0.5375
 9332SOL    HW139455   2.869   3.888   9.219 -0.1398 -0.6602  2.7978
 9332SOL    HW239456   2.951   3.809   9.128  2.6967  0.9100  0.0393
 9333SOL     OW39457   1.673   0.162  13.157 -0.1672  0.2272  0.3319
 9333SOL    HW139458   1.608   0.100  13.126 -0.1919  0.9290 -1.0325
 9333SOL    HW239459   1.747   0.101  13.164  0.8518  1.4695  0.4623
 9334SOL     OW39460   4.004   1.927   9.043  0.2070 -0.1769  0.0693
 9334SOL    HW139461   4.097   1.932   9.063  0.1618  0.7333  0.0844
 9334SOL    HW239462   3.983   1.838   9.071  2.3607  0.2334  2.9781
 9335SOL     OW39463   1.418   2.491  11.057 -0.1663  0.0431  0.6132
 9335SOL    HW139464   1.377   2.410  11.089  1.2727 -0.7037  0.5547
 9335SOL    HW239465   1.491   2.499  11.118  0.7150  4.3889 -0.9928
 9336SOL     OW39466   3.105   0.300   2.965 -0.3256  0.0177 -0.3950
 9336SOL    HW139467   3.189   0.342   2.983 -0.5058  0.7467 -1.2185
 9336SOL    HW239468   3.094   0.250   3.046 -1.7404 -0.9654 -1.1864
 9337SOL     OW39469   3.241   4.457   0.747 -0.3248 -0.2155  0.3667
 9337SOL    HW139470   3.181   4.417   0.684  0.2558  0.0032 -0.3241
 9337SOL    HW239471   3.203   4.443   0.834 -0.6264 -0.0759  0.2563
 9338SOL     OW39472   2.050   3.141   6.446  0.0255  0.7208 -0.9181
 9338SOL    HW139473   2.103   3.216   6.472  1.4388 -0.8452  0.6977
 9338SOL    HW239474   1.963   3.182   6.447  0.2507  1.1925 -0.6114
 9339SOL     OW39475   4.401   1.252   2.460 -0.0734 -0.1108  0.7534
 9339SOL    HW139476   4.398   1.157   2.452  2.1223 -0.1036 -0.3969
 9339SOL    HW239477   4.404   1.281   2.369 -0.2713 -0.8044  0.5271
 9340SOL     OW39478   3.666   4.603   1.749  0.4831  0.0169  0.6122
 9340SOL    HW139479   3.756   4.611   1.779  0.7498 -1.8036  0.3088
 9340SOL    HW239480   3.672   4.568   1.660 -3.3463  1.5746 -0.2459
 9341SOL     OW39481   2.125   0.526   5.057 -0.0553 -0.1282  0.2776
 9341SOL    HW139482   2.209   0.518   5.011 -0.5149 -1.1851 -0.3777
 9341SOL    HW239483   2.131   0.461   5.126 -2.4143 -2.4250 -1.6794
 9342SOL     OW39484   4.317   3.350   8.094  0.0573 -0.0496  0.4404
 9342SOL    HW139485   4.330   3.310   8.180  0.0635 -3.4626 -1.1402
 9342SOL    HW239486   4.409   3.364   8.071 -0.5119  0.2276 -1.7064
 9343SOL     OW39487   3.470   2.475   7.559  0.1278  0.0345 -0.4107
 9343SOL    HW139488   3.420   2.402   7.595  0.5876 -0.1655 -0.1846
 9343SOL    HW239489   3.556   2.435   7.552  1.1992  2.0502  1.2051
 9344SOL     OW39490   2.684   2.419   3.301 -0.2175 -0.4732 -0.2010
 9344SOL    HW139491   2.712   2.352   3.363  1.4903  0.6568  0.2567
 9344SOL    HW239492   2.593   2.398   3.281 -0.5598  0.3932  0.4308
 9345SOL     OW39493   1.553   2.472   3.369  0.1118  0.5168  0.8581
 9345SOL    HW139494   1.578   2.383   3.345  0.5065 -0.1231  3.6606
 9345SOL    HW239495   1.640   2.511   3.383 -0.1622  1.6319 -0.5674
 9346SOL     OW39496   3.463   3.205   2.602 -0.5953  0.1163  0.2266
 9346SOL    HW139497   3.486   3.134   2.662 -2.0447 -1.2832 -0.8371
 9346SOL    HW239498   3.379   3.172   2.568 -0.3348 -1.1232  0.7994
 9347SOL     OW39499   2.362   1.319  11.278 -0.2670  0.1515  0.2909
 9347SOL    HW139500   2.269   1.337  11.288 -0.3209  0.0881 -0.1032
 9347SOL    HW239501   2.402   1.370  11.348 -1.5813  0.7539  0.5947
 9348SOL     OW39502   1.307   2.470   2.405  0.3710  0.2553 -0.4085
 9348SOL    HW139503   1.383   2.411   2.400  0.1841 -0.0963  1.0731
 9348SOL    HW239504   1.283   2.429   2.488  0.7556  1.2384  0.1838
 9349SOL     OW39505   1.291   3.332   5.117  0.0425  0.0453  0.3902
 9349SOL    HW139506   1.359   3.383   5.160 -0.4511 -0.4546  1.7375
 9349SOL    HW239507   1.271   3.272   5.188  0.2198  0.1201  0.5021
 9350SOL     OW39508   2.967   0.565  16.785 -0.0812  0.2440  0.5543
 9350SOL    HW139509   3.052   0.535  16.755 -0.8065  0.4555 -1.7105
 9350SOL    HW239510   2.932   0.491  16.834  0.1282  1.3900  2.4317
 9351SOL     OW39511   3.731   4.335   9.204 -0.0033 -0.0667  1.0005
 9351SOL    HW139512   3.806   4.280   9.179  0.5364  1.0951  0.0859
 9351SOL    HW239513   3.764   4.424   9.192 -0.8113  0.2495  1.1399
 9352SOL     OW39514   0.756   0.771  12.430  0.0761 -0.3903 -0.5726
 9352SOL    HW139515   0.669   0.748  12.396 -0.6788 -1.2199  1.8873
 9352SOL    HW239516   0.801   0.824  12.364  0.0241 -1.6660 -1.6252
 9353SOL     OW39517   4.101   3.038   6.708  0.2266 -0.7980  0.1792
 9353SOL    HW139518   4.188   3.000   6.724 -0.5065 -2.6706 -0.3210
 9353SOL    HW239519   4.075   3.035   6.800 -1.6747 -0.4026 -0.3476
 9354SOL     OW39520   0.911   1.126   2.135  0.7731  0.5019 -0.2272
 9354SOL    HW139521   0.855   1.068   2.187  0.8749 -0.2913 -1.0074
 9354SOL    HW239522   0.851   1.191   2.098  1.1067  0.1624 -1.3460
 9355SOL     OW39523   4.605   4.285   8.954 -0.7060 -0.5334 -0.1785
 9355SOL    HW139524   4.653   4.246   8.882  0.0206  2.3553 -1.2621
 9355SOL    HW239525   4.573   4.359   8.901 -0.2584 -1.9651 -2.4416
 9356SOL     OW39526   2.740   2.660   6.980 -0.4742  0.1440  0.4423
 9356SOL    HW139527   2.758   2.690   6.891  1.2110 -1.8491  0.1159
 9356SOL    HW239528   2.754   2.742   7.029 -0.1566 -0.3810  1.2306
 9357SOL     OW39529   3.832   1.319  14.761  0.5536 -0.2413  0.4427
 9357SOL    HW139530   3.895   1.283  14.823 -0.1308  1.1456  1.9461
 9357SOL    HW239531   3.827   1.410  14.789  0.6967 -0.5235  1.4080
 9358SOL     OW39532   1.807   1.425   8.381 -0.1206 -0.2391 -0.1876
 9358SOL    HW139533   1.864   1.439   8.457  1.8506 -0.5110 -1.6049
 9358SOL    HW239534   1.727   1.401   8.428  0.9125  2.8009  3.0864
 9359SOL     OW39535   0.773   3.237   2.710  0.4309  0.0384  0.5020
 9359SOL    HW139536   0.778   3.178   2.634 -0.2956  1.3519 -0.5671
 9359SOL    HW239537   0.719   3.192   2.774 -0.5827 -0.3276 -0.6059
 9360SOL     OW39538   2.052   0.067   0.126 -0.2305 -0.3230 -0.2872
 9360SOL    HW139539   2.082   0.123   0.198  0.8461 -1.2501 -0.0166
 9360SOL    HW239540   2.000   0.006   0.178  1.5107  0.3955  2.2848
 9361SOL     OW39541   0.286   0.118   6.220  0.5378  0.5191 -0.1485
 9361SOL    HW139542   0.288   0.210   6.193 -2.4564  0.6415  0.0339
 9361SOL    HW239543   0.267   0.075   6.136 -1.0834 -0.1206  0.5419
 9362SOL     OW39544   0.026   4.516   1.749  0.2799  0.3497 -0.4065
 9362SOL    HW139545   0.080   4.438   1.756  0.1453  0.3688  0.8186
 9362SOL    HW239546   4.708   4.522   1.835 -3.7001 -0.1318 -2.2670
 9363SOL     OW39547   3.301   2.069   6.169  0.0517  0.1365  0.5770
 9363SOL    HW139548   3.312   2.115   6.252 -0.1599 -0.2140  0.7966
 9363SOL    HW239549   3.389   2.048   6.139  0.2849  3.9647 -1.3776
 9364SOL     OW39550   2.567   4.444   1.210 -0.5067  0.2340  0.2821
 9364SOL    HW139551   2.658   4.413   1.216 -0.1473  1.2477  0.0652
 9364SOL    HW239552   2.548   4.488   1.293  2.2605  2.0021 -0.0065
 9365SOL     OW39553   2.520   3.358  17.354 -0.5755  1.0244 -0.9089
 9365SOL    HW139554   2.472   3.378  17.273  0.2759  2.1744 -1.1258
 9365SOL    HW239555   2.580   3.292  17.319 -0.0884  0.2617  1.3599
 9366SOL     OW39556   2.966   0.452   5.012  0.0451  0.4691  0.3692
 9366SOL    HW139557   2.926   0.451   5.099 -0.7940  0.3000 -0.0223
 9366SOL    HW239558   2.986   0.544   4.998  2.0730 -0.2746 -1.6987
 9367SOL     OW39559   3.621   1.717   1.832  0.5711 -0.1003  0.3769
 9367SOL    HW139560   3.650   1.711   1.923  0.0927  1.2805  0.6175
 9367SOL    HW239561   3.653   1.804   1.811  0.6480  0.1885  1.6546
 9368SOL     OW39562   0.342   2.999   5.987  0.2010  0.3639  0.5955
 9368SOL    HW139563   0.422   3.009   5.937  0.9216  1.0373  1.8945
 9368SOL    HW239564   0.269   3.008   5.925  0.7321  3.1501  0.4111
 9369SOL     OW39565   3.532   2.105   1.972 -0.1389 -0.3706  0.2965
 9369SOL    HW139566   3.501   2.186   1.931  1.0325  0.3501  0.8386
 9369SOL    HW239567   3.475   2.088   2.048  0.8343 -1.5695  0.7524
 9370SOL     OW39568   2.236   3.341   2.813  0.5188 -0.1309 -0.1698
 9370SOL    HW139569   2.272   3.298   2.736 -0.5866 -1.4613  0.0565
 9370SOL    HW239570   2.256   3.434   2.802 -2.4628  0.4962 -0.1673
 9371SOL     OW39571   3.164   3.250   7.873 -0.1293 -0.0402 -0.2288
 9371SOL    HW139572   3.240   3.262   7.929  0.7206 -2.8216 -0.7663
 9371SOL    HW239573   3.163   3.154   7.867  1.7406 -0.0099 -1.0450
 9372SOL     OW39574   3.235   4.543   2.851  0.3373  0.0064  0.0402
 9372SOL    HW139575   3.302   4.531   2.919  0.1542 -2.0783 -0.1535
 9372SOL    HW239576   3.264   4.477   2.788  0.2638 -0.3995  0.4285
 9373SOL     OW39577   2.435   1.995   5.147 -0.1684  0.1989 -0.3446
 9373SOL    HW139578   2.375   2.002   5.221 -0.8973 -2.0312 -0.7363
 9373SOL    HW239579   2.422   1.903   5.124 -1.2908  0.6350 -1.4623
 9374SOL     OW39580   3.700   3.567  10.690  0.2973  0.3198  0.1081
 9374SOL    HW139581   3.787   3.592  10.722 -0.3586  0.1506  2.0529
 9374SOL    HW239582   3.670   3.655  10.668  2.2118  1.4731  2.0899
 9375SOL     OW39583   4.215   0.905   7.741  0.3516 -0.0261 -0.1742
 9375SOL    HW139584   4.177   0.937   7.659 -1.9355 -1.7101  0.2243
 9375SOL    HW239585   4.182   0.815   7.743 -2.2467  0.8728 -2.4741
 9376SOL     OW39586   4.025   3.815   9.839  0.4875  0.2887 -0.0751
 9376SOL    HW139587   4.071   3.774   9.765  2.1807  0.1042  1.0854
 9376SOL    HW239588   3.993   3.742   9.892  1.5485  0.3877  0.6951
 9377SOL     OW39589   4.040   3.384   3.723  0.0264  0.3535 -0.6770
 9377SOL    HW139590   3.980   3.416   3.790  1.4244  1.5814 -0.0177
 9377SOL    HW239591   4.000   3.419   3.643  3.2049 -0.1612 -2.5108
 9378SOL     OW39592   2.332   2.034   7.276  0.5315 -0.6041 -0.7799
 9378SOL    HW139593   2.323   2.108   7.216 -1.5885 -2.4832 -2.7492
 9378SOL    HW239594   2.239   2.010   7.282  0.1054  1.4460  0.9624
 9379SOL     OW39595   2.103   1.739   3.665  0.4183  0.1560 -0.1529
 9379SOL    HW139596   2.013   1.771   3.655  0.7568  1.0589 -0.2576
 9379SOL    HW239597   2.140   1.783   3.741  0.4319 -0.8837  0.4382
 9380SOL     OW39598   0.942   2.388   8.848 -0.1405 -0.1426  0.6432
 9380SOL    HW139599   0.977   2.329   8.781 -3.1779 -0.1075 -0.9905
 9380SOL    HW239600   0.938   2.323   8.918  0.5875 -0.7368  0.1382
 9381SOL     OW39601   3.734   3.569   1.428  0.0504  0.0541 -0.0794
 9381SOL    HW139602   3.796   3.605   1.492 -2.6447  2.8623  0.9584
 9381SOL    HW239603   3.691   3.646   1.392  2.1248  1.8739  1.3991
 9382SOL     OW39604   1.529   1.289   7.265 -0.1325  0.0088  0.3877
 9382SOL    HW139605   1.534   1.261   7.174  0.0893 -0.4124  0.5267
 9382SOL    HW239606   1.598   1.355   7.264 -0.3225  0.1974 -0.0832
 9383SOL     OW39607   2.939   2.196   0.881 -0.2716 -0.3799 -0.5253
 9383SOL    HW139608   2.963   2.277   0.927  0.6370  0.2163 -2.0758
 9383SOL    HW239609   2.868   2.220   0.822 -0.6415  1.3179  0.5866
 9384SOL     OW39610   3.942   3.642   9.416  0.8962  0.1768  0.2205
 9384SOL    HW139611   3.967   3.638   9.508 -0.6046 -1.2745  0.5543
 9384SOL    HW239612   3.989   3.719   9.383 -0.0378  0.4196 -0.5534
 9385SOL     OW39613   1.560   1.906   5.251 -0.4205 -0.4765  0.0951
 9385SOL    HW139614   1.637   1.905   5.195 -0.5805  1.8117 -0.1553
 9385SOL    HW239615   1.546   1.998   5.275 -0.2759 -0.4192 -0.0429
 9386SOL     OW39616   0.718   0.452   9.514  0.2739 -0.7040 -0.3090
 9386SOL    HW139617   0.641   0.450   9.571  1.0163 -1.2655  0.6634
 9386SOL    HW239618   0.761   0.368   9.530 -0.7693 -1.1684  0.0289
 9387SOL     OW39619   0.684   0.933   0.293  0.3568  0.3980 -0.1158
 9387SOL    HW139620   0.721   0.932   0.381 -1.2994  1.0282  0.5905
 9387SOL    HW239621   0.765   0.923   0.243  1.6997  3.9552  1.3497
 9388SOL     OW39622   1.799   3.445   9.273  0.5961 -0.3190 -0.2351
 9388SOL    HW139623   1.873   3.477   9.220  2.3114  0.5916  2.7344
 9388SOL    HW239624   1.832   3.362   9.307  0.0826 -0.5747 -0.3707
 9389SOL     OW39625   0.352   2.118   4.999 -0.2628  0.2302 -0.2117
 9389SOL    HW139626   0.339   2.035   5.045 -1.2593  0.5830  0.1449
 9389SOL    HW239627   0.306   2.110   4.916 -0.1856  2.1038 -0.4275
 9390SOL     OW39628   3.655   3.745   2.083 -0.1122 -0.1305  0.3355
 9390SOL    HW139629   3.675   3.816   2.144  0.1409 -1.1545  1.4638
 9390SOL    HW239630   3.578   3.788   2.045 -0.0083  0.4953  0.8328
 9391SOL     OW39631   3.065   0.738   5.695  0.6850  0.0212 -0.7679
 9391SOL    HW139632   3.036   0.651   5.666 -1.7860  0.0542  1.6293
 9391SOL    HW239633   3.064   0.728   5.790  0.0542 -0.3099 -0.8114
 9392SOL     OW39634   0.022   1.902  11.731  0.8726  0.0281  0.3723
 9392SOL    HW139635   0.059   1.884  11.645 -0.9234  1.5238 -0.6971
 9392SOL    HW239636   0.049   1.828  11.785  2.5268  0.9662  0.8419
 9393SOL     OW39637   1.931   0.575   7.950 -0.6754  0.5843  0.4009
 9393SOL    HW139638   1.875   0.627   7.891 -0.8681 -0.4004 -0.2961
 9393SOL    HW239639   1.887   0.576   8.035 -2.2332 -1.9456 -0.3479
 9394SOL     OW39640   4.273   3.592   7.692 -0.3047 -0.4919 -0.4557
 9394SOL    HW139641   4.337   3.586   7.622  1.1593 -1.4941  0.9682
 9394SOL    HW239642   4.209   3.641   7.641  0.2156 -0.1758 -0.8127
 9395SOL     OW39643   1.300   0.204   2.416  0.0034 -0.0173  0.5860
 9395SOL    HW139644   1.257   0.169   2.338  0.8514 -0.9602  0.5245
 9395SOL    HW239645   1.327   0.290   2.385 -2.0429  0.6879  0.8293
 9396SOL     OW39646   2.626   4.231  10.225 -0.6247 -0.5297  0.9596
 9396SOL    HW139647   2.618   4.167  10.296 -2.0059  0.1717  1.4559
 9396SOL    HW239648   2.611   4.319  10.260  0.9864  0.3980 -0.7002
 9397SOL     OW39649   0.022   0.980   0.536  0.2046 -0.4277  0.0443
 9397SOL    HW139650   0.003   1.044   0.605 -1.5640  0.6280 -1.3989
 9397SOL    HW239651   4.715   1.039   0.467 -0.1835 -1.6042 -0.7935
 9398SOL     OW39652   3.683   2.334   1.303  0.2769 -0.1104 -0.2813
 9398SOL    HW139653   3.694   2.308   1.394  2.7106 -1.7623 -1.0298
 9398SOL    HW239654   3.715   2.423   1.315 -1.3237  0.6857 -1.9331
 9399SOL     OW39655   0.307   2.578   8.663  0.2302  0.0619 -0.5148
 9399SOL    HW139656   0.232   2.564   8.606  0.1850  0.5079 -0.5645
 9399SOL    HW239657   0.267   2.627   8.734  2.0307  0.7295  0.0585
 9400SOL     OW39658   3.650   3.294   3.972 -0.3096 -0.0401 -0.1641
 9400SOL    HW139659   3.704   3.219   3.947 -1.1822 -0.1541 -1.7359
 9400SOL    HW239660   3.709   3.367   3.950  0.7881 -1.5353 -2.1554
 9401SOL     OW39661   3.671   1.845   3.302  0.3415 -0.4199  0.1679
 9401SOL    HW139662   3.643   1.929   3.338  1.0567 -0.1672  0.1357
 9401SOL    HW239663   3.743   1.835   3.365 -2.5965 -1.7343  3.3257
 9402SOL     OW39664   4.141   3.846   6.993  0.2692 -0.1483  0.4161
 9402SOL    HW139665   4.063   3.865   7.045  0.5084  2.8441 -0.3098
 9402SOL    HW239666   4.105   3.792   6.923  0.6485 -0.3135  0.3465
 9403SOL     OW39667   0.214   0.810   1.791  0.2702  0.0159 -0.3024
 9403SOL    HW139668   0.199   0.870   1.718  0.2905 -0.5492 -0.7653
 9403SOL    HW239669   0.221   0.727   1.745  1.2611 -0.7376  1.1993
 9404SOL     OW39670   2.350   4.374   5.586  0.6883 -0.1916  0.0863
 9404SOL    HW139671   2.411   4.307   5.617  1.1636 -0.5770 -1.6820
 9404SOL    HW239672   2.294   4.374   5.663 -0.9068 -1.3603 -1.0686
 9405SOL     OW39673   1.826   2.955  14.852  0.0333  0.0807  0.4324
 9405SOL    HW139674   1.820   2.972  14.758 -1.3597 -0.9430  0.3340
 9405SOL    HW239675   1.921   2.950  14.855  0.0383 -0.0336  0.0051
 9406SOL     OW39676   2.064   0.232   5.687  0.4534  0.2952 -0.5650
 9406SOL    HW139677   2.154   0.260   5.700  0.7074 -0.5274 -0.5435
 9406SOL    HW239678   2.052   0.147   5.729  2.7234 -1.5075 -3.5090
 9407SOL     OW39679   3.325   2.528   9.112 -0.2574  0.1010 -0.5799
 9407SOL    HW139680   3.360   2.457   9.059  0.9175  1.0442 -1.0681
 9407SOL    HW239681   3.381   2.519   9.188 -1.6401 -1.4736  0.2354
 9408SOL     OW39682   3.080   4.259   4.976  0.3788  0.7675  0.3042
 9408SOL    HW139683   3.031   4.188   5.017  0.1826  0.9275  0.3470
 9408SOL    HW239684   3.012   4.315   4.938  1.6878  2.3458  0.2848
 9409SOL     OW39685   0.878   0.400   4.334  0.1457 -0.2382 -0.9705
 9409SOL    HW139686   0.888   0.409   4.239  0.5658 -1.4208 -1.0364
 9409SOL    HW239687   0.952   0.342   4.348 -0.4635 -0.4940  1.1022
 9410SOL     OW39688   0.706   2.348   7.043  0.5211 -0.2690 -0.0614
 9410SOL    HW139689   0.790   2.326   7.004  2.3846  2.8713  2.1671
 9410SOL    HW239690   0.719   2.443   7.052 -0.5283 -0.3143  1.9306
 9411SOL     OW39691   4.424   0.618  15.519  0.0309 -0.7108 -0.3106
 9411SOL    HW139692   4.370   0.574  15.585 -1.3309  0.3106 -0.7456
 9411SOL    HW239693   4.405   0.568  15.440 -2.1261  0.6041 -0.6033
 9412SOL     OW39694   4.127   1.266  12.679 -0.2315 -0.6174  0.2413
 9412SOL    HW139695   4.102   1.350  12.641 -0.2010 -1.5259 -1.7962
 9412SOL    HW239696   4.050   1.253  12.734 -0.6329 -1.4291 -0.5174
 9413SOL     OW39697   0.857   3.097   6.105  0.6885 -0.4215  0.1467
 9413SOL    HW139698   0.892   3.024   6.054  0.4622 -0.5769  0.2100
 9413SOL    HW239699   0.800   3.037   6.154 -0.7066  1.5402  0.9298
 9414SOL     OW39700   2.513   0.700   7.536 -0.0282 -0.0350 -0.0246
 9414SOL    HW139701   2.444   0.635   7.523  0.4652 -0.3645 -1.0085
 9414SOL    HW239702   2.585   0.644   7.567 -0.3750 -0.2389  0.4115
 9415SOL     OW39703   4.190   3.465  11.381 -0.2237 -0.2282 -0.1723
 9415SOL    HW139704   4.281   3.491  11.396  0.0516 -2.1281  1.3541
 9415SOL    HW239705   4.197   3.387  11.326  1.4759 -0.2468  0.0716
 9416SOL     OW39706   3.099   0.779   9.752  0.4811 -0.1712  0.0668
 9416SOL    HW139707   3.173   0.723   9.772  0.1702 -0.0621  1.5308
 9416SOL    HW239708   3.076   0.829   9.830 -1.5731 -0.1936 -0.5225
 9417SOL     OW39709   4.436   0.128  16.778 -0.1861 -0.1953  0.2584
 9417SOL    HW139710   4.453   0.074  16.855 -0.6348  1.3485  1.4263
 9417SOL    HW239711   4.487   0.086  16.709  1.5661  0.9857  0.8487
 9418SOL     OW39712   1.782   3.141   1.693  0.3066  0.3202 -0.0722
 9418SOL    HW139713   1.789   3.237   1.692  1.1835  0.2816  1.8498
 9418SOL    HW239714   1.874   3.120   1.674  0.8487  0.6172  2.2646
 9419SOL     OW39715   3.772   3.981   3.568 -0.1232 -0.1816 -0.1617
 9419SOL    HW139716   3.711   3.921   3.525  0.4868  0.3030 -1.7369
 9419SOL    HW239717   3.791   3.942   3.653 -2.0105  0.2343  0.4610
 9420SOL     OW39718   4.361   4.076  11.444 -0.6307 -0.7738 -0.1512
 9420SOL    HW139719   4.426   4.067  11.514 -0.3208  1.8012 -0.0990
 9420SOL    HW239720   4.340   4.169  11.456  0.5397 -0.6973  1.3215
 9421SOL     OW39721   4.185   0.987   1.063  0.3616  0.3753  0.6495
 9421SOL    HW139722   4.164   0.897   1.087  0.6886 -0.1518 -1.0533
 9421SOL    HW239723   4.157   0.991   0.971 -0.6134  1.9155  1.0022
 9422SOL     OW39724   3.777   2.987   6.685  1.2867  0.5503  0.2043
 9422SOL    HW139725   3.845   2.968   6.620  1.0214  1.3802 -0.3258
 9422SOL    HW239726   3.806   2.925   6.752  1.7521  0.4012 -0.1337
 9423SOL     OW39727   1.818   2.979  10.141  0.4810  0.3876 -0.0030
 9423SOL    HW139728   1.785   3.053  10.089 -0.9615  1.1742  2.0603
 9423SOL    HW239729   1.838   3.021  10.224 -2.7163  3.1645 -0.6306
 9424SOL     OW39730   0.421   3.456   7.280 -1.0770 -0.3419 -0.2233
 9424SOL    HW139731   0.452   3.538   7.242 -0.7692 -0.7135 -0.7660
 9424SOL    HW239732   0.492   3.442   7.343 -0.1416 -0.6371 -1.3236
 9425SOL     OW39733   0.059   4.561   8.062  0.4386 -0.1877  0.9603
 9425SOL    HW139734   0.123   4.552   7.992 -0.2854 -0.4880  0.3412
 9425SOL    HW239735   0.097   4.641   8.099  1.0172  0.3420 -0.7945
 9426SOL     OW39736   1.165   4.174  13.390 -0.3050 -0.3145  0.7829
 9426SOL    HW139737   1.139   4.266  13.395  0.3617 -0.2339  2.8379
 9426SOL    HW239738   1.194   4.154  13.301  0.0930  0.9179  0.6423
 9427SOL     OW39739   2.054   2.626   4.626  0.1789  0.4496 -0.1462
 9427SOL    HW139740   2.104   2.708   4.632  1.2349 -0.5070  4.0492
 9427SOL    HW239741   1.991   2.635   4.698  0.2109  0.8891 -0.1744
 9428SOL     OW39742   4.590   1.832   5.801  0.2027 -0.1177  0.3752
 9428SOL    HW139743   4.502   1.834   5.839  0.5487 -0.4709  1.2029
 9428SOL    HW239744   4.639   1.801   5.877 -2.1866 -2.7165  0.8470
 9429SOL     OW39745   0.601   0.010  17.049  0.2590  0.0423 -0.2429
 9429SOL    HW139746   0.553   4.696  17.124 -1.3897  0.5448 -1.0411
 9429SOL    HW239747   0.603   0.102  17.075  0.8302  0.1674 -0.7455
 9430SOL     OW39748   0.341   0.138   3.781  0.1950  0.3662 -0.1258
 9430SOL    HW139749   0.270   0.156   3.842 -2.2015 -2.4864 -2.0999
 9430SOL    HW239750   0.307   0.076   3.717  0.1348  0.7640 -0.4801
 9431SOL     OW39751   2.699   1.615   6.178  0.0080 -0.1168 -0.0025
 9431SOL    HW139752   2.776   1.573   6.218  0.9317  0.5962 -1.0558
 9431SOL    HW239753   2.691   1.690   6.237 -1.9883  1.6721 -2.5236
 9432SOL     OW39754   3.775   0.967  11.030  0.0680 -0.1930  0.4139
 9432SOL    HW139755   3.844   0.981  10.966 -1.0022  1.1280 -0.4351
 9432SOL    HW239756   3.757   1.058  11.052  0.3449  0.0461 -0.3590
 9433SOL     OW39757   2.806   4.145  14.550  0.3520 -0.0620 -0.0233
 9433SOL    HW139758   2.778   4.210  14.485  0.0610  1.1553  1.3164
 9433SOL    HW239759   2.821   4.194  14.631 -0.4579  0.0652  0.0498
 9434SOL     OW39760   0.166   3.797   3.893 -0.5261  0.0029 -0.2398
 9434SOL    HW139761   0.236   3.744   3.854 -2.0213 -2.2613  0.1352
 9434SOL    HW239762   0.092   3.755   3.849  0.5251 -0.9997 -1.0496
 9435SOL     OW39763   3.895   2.489  10.312 -0.0006 -0.5798  0.3767
 9435SOL    HW139764   3.881   2.495  10.217  1.1869  1.2487  0.2982
 9435SOL    HW239765   3.939   2.570  10.339 -1.7073  0.7730 -0.9306
 9436SOL     OW39766   0.067   3.997   2.666  0.3521  0.1392  0.5231
 9436SOL    HW139767   0.013   4.071   2.693  1.3498  0.3530  1.9338
 9436SOL    HW239768   0.071   4.002   2.570  1.7194  0.2147  0.5800
 9437SOL     OW39769   0.183   1.070   2.925 -0.2510  0.2167  0.8385
 9437SOL    HW139770   0.183   0.975   2.937  1.1588  0.1813  0.5539
 9437SOL    HW239771   0.127   1.075   2.848  0.4392  0.5026  0.3509
 9438SOL     OW39772   2.505   4.055   6.440  0.4003  0.2841 -0.0814
 9438SOL    HW139773   2.410   4.060   6.433  0.2883 -1.2482  0.3353
 9438SOL    HW239774   2.513   3.978   6.497 -0.6889  0.3135  0.1037
 9439SOL     OW39775   1.162   3.658   8.695 -0.0151  0.1103 -0.1148
 9439SOL    HW139776   1.185   3.569   8.667 -0.4952 -0.1873  0.4377
 9439SOL    HW239777   1.227   3.708   8.647 -0.2938  0.5206 -0.0616
 9440SOL     OW39778   0.886   3.680   6.506  0.1721 -0.6038  0.0102
 9440SOL    HW139779   0.803   3.714   6.471  0.3726 -0.5426 -0.4027
 9440SOL    HW239780   0.857   3.643   6.589 -4.2090  0.7411 -0.9412
 9441SOL     OW39781   0.081   2.795   7.618 -0.6861 -0.2874 -0.5680
 9441SOL    HW139782   0.027   2.846   7.557 -0.5952 -2.2953 -2.2928
 9441SOL    HW239783   0.007   2.780   7.677 -0.4195  0.8609  0.0690
 9442SOL     OW39784   0.259   0.859  12.306  0.2577  0.1170 -0.0849
 9442SOL    HW139785   0.166   0.876  12.322  0.1340 -0.7157  0.0943
 9442SOL    HW239786   0.268   0.833  12.215 -0.9973  1.0620 -0.4699
 9443SOL     OW39787   4.289   1.192   4.873 -0.2048  0.1019  0.3107
 9443SOL    HW139788   4.200   1.205   4.841 -0.6569 -0.2217  1.4188
 9443SOL    HW239789   4.335   1.235   4.801  2.4566 -0.9813  1.3635
 9444SOL     OW39790   0.043   0.757   8.226 -0.2343 -0.2775  0.2227
 9444SOL    HW139791   4.710   0.684   8.251  1.4826 -2.5494 -2.6338
 9444SOL    HW239792   4.703   0.825   8.251 -1.4387 -0.3883 -2.5467
 9445SOL     OW39793   3.165   2.324   5.116 -0.0897 -0.1630 -0.4136
 9445SOL    HW139794   3.079   2.281   5.122  0.0434 -0.3376  0.2017
 9445SOL    HW239795   3.211   2.271   5.050  1.9854  1.1784 -0.0397
 9446SOL     OW39796   2.661   2.489   2.726  0.2056 -0.1946  0.0739
 9446SOL    HW139797   2.588   2.517   2.670  0.2201 -0.9602 -0.3290
 9446SOL    HW239798   2.637   2.400   2.750  2.2444 -0.4599  1.1109
 9447SOL     OW39799   4.333   4.534   2.775  0.3272  0.1611  0.4373
 9447SOL    HW139800   4.414   4.585   2.783 -0.1724  1.0208 -0.0681
 9447SOL    HW239801   4.356   4.449   2.812 -1.3976 -0.0863  0.9247
 9448SOL     OW39802   3.804   0.912  10.620  0.4151 -0.5598  0.0997
 9448SOL    HW139803   3.733   0.918  10.685 -1.2808  0.1332 -1.8422
 9448SOL    HW239804   3.824   1.006  10.618 -1.2085 -0.2582 -1.3725
 9449SOL     OW39805   2.234   0.766  11.252 -0.4835 -0.3257 -0.0078
 9449SOL    HW139806   2.163   0.828  11.236  0.7204  0.8375 -0.7824
 9449SOL    HW239807   2.268   0.779  11.340  0.1784  0.9013 -0.4531
 9450SOL     OW39808   4.243   4.367  10.725 -0.6186 -0.4048  0.3213
 9450SOL    HW139809   4.163   4.416  10.740  0.2899  1.1037  0.2348
 9450SOL    HW239810   4.297   4.428  10.675 -2.1476  0.0942 -0.7074
 9451SOL     OW39811   0.555   2.726   4.626 -0.0755 -0.8408  0.1479
 9451SOL    HW139812   0.505   2.789   4.575  1.1185  1.5549  1.9504
 9451SOL    HW239813   0.494   2.654   4.645  1.2780 -1.8465  0.6649
 9452SOL     OW39814   2.518   0.046   5.780 -0.1832 -0.2130  0.2866
 9452SOL    HW139815   2.562   0.090   5.852  0.7348 -0.1768 -0.2996
 9452SOL    HW239816   2.489   4.686   5.818 -0.6748 -0.5990 -0.9168
 9453SOL     OW39817   2.955   4.320   6.379 -0.4005  0.7115 -0.4749
 9453SOL    HW139818   2.867   4.304   6.416 -1.2715  2.5822 -1.7589
 9453SOL    HW239819   2.963   4.409   6.411  2.1471 -0.0160  0.8435
 9454SOL     OW39820   1.317   4.110   4.184  0.8430  0.0730  0.1512
 9454SOL    HW139821   1.407   4.089   4.209  1.0128 -0.9473 -1.3023
 9454SOL    HW239822   1.304   4.058   4.104  1.1389  1.6649 -0.9372
 9455SOL     OW39823   3.077   4.600   3.349  0.4956  0.4288  0.4879
 9455SOL    HW139824   3.142   4.634   3.287 -0.9217  1.8968 -0.1974
 9455SOL    HW239825   2.993   4.641   3.327 -0.4175 -0.0073  3.1710
 9456SOL     OW39826   1.373   3.047   7.690  0.0437 -0.3491  0.0570
 9456SOL    HW139827   1.312   3.008   7.754 -1.1084 -1.7316 -1.8778
 9456SOL    HW239828   1.405   2.962   7.660  2.1680  1.0823 -1.6769
 9457SOL     OW39829   3.462   0.263   5.054  0.1514 -0.3500  0.4473
 9457SOL    HW139830   3.496   0.173   5.057  2.0978  0.3330 -1.7031
 9457SOL    HW239831   3.456   0.274   4.959  0.1718  1.3723  0.6589
 9458SOL     OW39832   1.195   3.155  11.174 -0.2272 -0.4690 -0.1047
 9458SOL    HW139833   1.235   3.196  11.097 -0.7772  1.2159  0.5149
 9458SOL    HW239834   1.251   3.182  11.247  0.3017 -1.4522 -0.1507
 9459SOL     OW39835   0.703   3.203  10.486  0.1679  0.1086 -0.4128
 9459SOL    HW139836   0.690   3.259  10.562  0.2679 -0.8929  0.3395
 9459SOL    HW239837   0.618   3.218  10.443  0.4559 -0.5991 -1.2320
 9460SOL     OW39838   0.034   4.206   5.748  0.5669 -0.2811 -0.1032
 9460SOL    HW139839   4.692   4.193   5.680  2.1151  0.1259 -1.6823
 9460SOL    HW239840   0.061   4.118   5.772 -1.4848 -0.6083  0.9735
 9461SOL     OW39841   2.682   2.606   8.337  0.1605 -0.0807  0.1513
 9461SOL    HW139842   2.743   2.622   8.409  2.2638 -1.0928 -1.4138
 9461SOL    HW239843   2.607   2.663   8.354 -0.5315 -0.9902  0.1663
 9462SOL     OW39844   2.378   0.491   9.379  0.3559  0.0736  0.1046
 9462SOL    HW139845   2.473   0.490   9.393  0.6259  2.7943 -1.3717
 9462SOL    HW239846   2.342   0.443   9.453 -0.0983 -0.6678 -0.5869
 9463SOL     OW39847   2.897   2.843   5.949  0.2394 -0.0755  0.2909
 9463SOL    HW139848   2.986   2.809   5.941 -0.1317 -0.8164 -0.6065
 9463SOL    HW239849   2.909   2.935   5.923 -1.5984  0.5583  1.7001
 9464SOL     OW39850   3.137   0.958  17.030  0.4745 -0.7114 -0.0566
 9464SOL    HW139851   3.132   0.985  17.122 -1.6005  0.4380 -0.5195
 9464SOL    HW239852   3.229   0.932  17.028  0.0963 -2.0734  0.1516
 9465SOL     OW39853   2.430   0.304  14.360 -0.2716 -0.1575  0.3141
 9465SOL    HW139854   2.455   0.319  14.451 -1.1729  2.3714  0.1504
 9465SOL    HW239855   2.515   0.303  14.315 -2.0468  1.6380 -3.0743
 9466SOL     OW39856   1.979   4.291  14.259 -0.2971 -0.2443  0.2388
 9466SOL    HW139857   1.938   4.208  14.282 -1.0988  0.8701  2.8303
 9466SOL    HW239858   1.947   4.353  14.324 -0.3173 -0.4259  0.4010
 9467SOL     OW39859   2.228   2.725   1.350 -0.3965 -0.0464 -0.2589
 9467SOL    HW139860   2.187   2.727   1.263  1.1164 -2.2371 -1.0231
 9467SOL    HW239861   2.268   2.638   1.340  1.1906  0.8338 -1.6379
 9468SOL     OW39862   2.705   0.413   6.288 -0.1524 -0.0617 -0.5615
 9468SOL    HW139863   2.683   0.320   6.282  1.1072 -0.4578  0.7703
 9468SOL    HW239864   2.620   0.442   6.258  0.0795  1.2592  0.0655
 9469SOL     OW39865   0.342   0.525   7.182  0.7409  0.1043 -0.5142
 9469SOL    HW139866   0.268   0.487   7.230  0.5720  0.3832 -0.5547
 9469SOL    HW239867   0.354   0.466   7.108  0.8334  0.1550 -0.5394
 9470SOL     OW39868   1.843   1.858   2.896 -0.6179  0.1194  0.1021
 9470SOL    HW139869   1.927   1.829   2.861 -1.0034 -2.6007  1.4656
 9470SOL    HW239870   1.779   1.831   2.830  1.7064 -3.8716 -0.5428
 9471SOL     OW39871   3.977   4.546   8.489 -0.1187 -0.2363  0.5771
 9471SOL    HW139872   4.015   4.592   8.414 -0.3502  1.3386  1.4151
 9471SOL    HW239873   4.054   4.541   8.546 -0.5675  0.8235  1.2869
 9472SOL     OW39874   3.277   0.042   8.013  0.2282  0.3873 -0.4117
 9472SOL    HW139875   3.233   0.116   8.054  0.9746  0.5361  0.1079
 9472SOL    HW239876   3.253   0.059   7.922  1.0804  1.0375 -0.5072
 9473SOL     OW39877   4.519   3.332  15.742 -0.1445  0.4074 -0.2522
 9473SOL    HW139878   4.451   3.324  15.809 -0.4019  1.9510 -0.3283
 9473SOL    HW239879   4.497   3.413  15.698  0.7860  1.6650  1.5946
 9474SOL     OW39880   4.331   1.668   7.826 -0.1109  0.8016 -0.7810
 9474SOL    HW139881   4.386   1.718   7.767  1.1655 -1.7494 -1.7226
 9474SOL    HW239882   4.399   1.613   7.864 -0.0722  0.8677 -0.7531
 9475SOL     OW39883   3.590   3.388   7.638 -0.1970  0.0252 -0.1910
 9475SOL    HW139884   3.637   3.324   7.692 -1.2608 -0.6204 -0.0358
 9475SOL    HW239885   3.541   3.331   7.578  0.5042  0.8828 -1.5927
 9476SOL     OW39886   0.153   2.999   3.510  0.2230 -0.1643  0.3461
 9476SOL    HW139887   0.212   2.931   3.477  0.1015 -0.0643 -0.0769
 9476SOL    HW239888   0.079   2.941   3.527  0.3044 -0.5562 -0.6487
 9477SOL     OW39889   3.231   0.171   5.180 -0.0452 -0.0435 -0.4749
 9477SOL    HW139890   3.296   0.221   5.130  1.2699 -0.9102  0.3818
 9477SOL    HW239891   3.225   0.222   5.260 -1.8090 -0.7869 -0.1262
 9478SOL     OW39892   3.790   3.624   7.202 -0.1618 -0.5297 -0.1268
 9478SOL    HW139893   3.850   3.680   7.153  0.4383  0.3441  1.6085
 9478SOL    HW239894   3.712   3.621   7.147  1.3708 -2.4395 -2.1894
 9479SOL     OW39895   2.780   2.440   4.505  0.8043  0.3733 -0.0295
 9479SOL    HW139896   2.716   2.482   4.563  1.6923 -2.2600  2.8643
 9479SOL    HW239897   2.820   2.383   4.571 -1.3406  0.6207  1.4877
 9480SOL     OW39898   1.452   2.228   3.991 -0.1547  0.8735 -0.4256
 9480SOL    HW139899   1.415   2.140   3.994  0.6944  0.5072 -0.5777
 9480SOL    HW239900   1.459   2.245   4.085  1.6514 -2.6133  0.0674
 9481SOL     OW39901   4.459   4.399   4.738  0.5117  0.0864  0.1852
 9481SOL    HW139902   4.493   4.486   4.718  2.6834 -0.6783  0.6481
 9481SOL    HW239903   4.537   4.359   4.775  0.8162  0.7857  0.2931
 9482SOL     OW39904   2.031   3.958   7.415 -0.5545 -0.6858 -0.1727
 9482SOL    HW139905   1.994   3.872   7.393 -2.0669  0.0131 -0.3370
 9482SOL    HW239906   2.098   3.933   7.479 -0.8121  0.7200  0.6391
 9483SOL     OW39907   0.870   2.179  16.212  0.0684  0.2898  0.1276
 9483SOL    HW139908   0.855   2.091  16.246  2.1875  0.3391  1.1849
 9483SOL    HW239909   0.836   2.232  16.283  0.4384 -1.6739  1.7552
 9484SOL     OW39910   0.945   2.961   6.403  0.0397  0.1508 -0.6036
 9484SOL    HW139911   0.951   2.866   6.394  0.9034  0.3627 -2.2200
 9484SOL    HW239912   0.861   2.968   6.358  1.5521  0.9012 -3.3292
 9485SOL     OW39913   1.717   2.671   1.959 -0.4434  0.1036  0.3207
 9485SOL    HW139914   1.791   2.669   1.897  1.3950 -0.6220  2.5463
 9485SOL    HW239915   1.695   2.579   1.949 -0.9670  0.5005 -2.2858
 9486SOL     OW39916   1.743   2.709  10.122  0.3206  0.3880 -0.0617
 9486SOL    HW139917   1.731   2.690  10.029  1.6948  0.9804 -0.3629
 9486SOL    HW239918   1.777   2.799  10.121  0.3930  0.3735  1.1470
 9487SOL     OW39919   2.577   4.025   5.439  0.4801  0.1400 -0.5512
 9487SOL    HW139920   2.604   3.986   5.355 -0.3544 -0.1335 -0.7006
 9487SOL    HW239921   2.602   4.115   5.416 -1.0038  0.5021 -0.7588
 9488SOL     OW39922   3.630   3.058  14.269 -0.2867 -0.0086 -0.5265
 9488SOL    HW139923   3.714   3.017  14.289  0.9147  2.6431 -0.1012
 9488SOL    HW239924   3.635   3.038  14.175  0.2640 -0.2406 -0.4468
 9489SOL     OW39925   1.907   4.036  14.258  0.0839  0.0233  0.1170
 9489SOL    HW139926   1.893   4.051  14.165 -0.4826 -0.1081  0.1853
 9489SOL    HW239927   1.892   3.942  14.258  2.5739 -0.3632  3.5790
 9490SOL     OW39928   0.947   3.072  10.489 -0.3807 -0.8975  0.1646
 9490SOL    HW139929   0.855   3.098  10.480 -0.6255 -1.9712 -0.5395
 9490SOL    HW239930   0.975   3.139  10.551  1.0894  1.8627 -3.4977
 9491SOL     OW39931   2.895   3.388  11.176 -0.5171  0.2218  0.1465
 9491SOL    HW139932   2.880   3.311  11.121  0.6929 -0.3979  0.6833
 9491SOL    HW239933   2.931   3.438  11.103 -2.2169  0.0680 -0.7908
 9492SOL     OW39934   3.163   0.826   7.499  0.3066 -0.0361  0.0246
 9492SOL    HW139935   3.256   0.821   7.520 -0.2629  1.9968  3.1692
 9492SOL    HW239936   3.151   0.916   7.531 -3.2903 -0.6344  0.2812
 9493SOL     OW39937   3.087   3.115   4.558 -0.1184  0.0450 -0.2465
 9493SOL    HW139938   3.001   3.115   4.598 -0.2356  2.9039 -0.4524
 9493SOL    HW239939   3.064   3.144   4.469 -0.5882  1.8870  0.4698
 9494SOL     OW39940   1.218   0.532   7.856  0.0247 -0.7872  0.2518
 9494SOL    HW139941   1.303   0.497   7.830  0.8054  1.0778  0.2646
 9494SOL    HW239942   1.234   0.565   7.945  0.4243 -0.7647  0.1725
 9495SOL     OW39943   1.354   2.407   7.358 -0.0443  0.1969  0.3368
 9495SOL    HW139944   1.313   2.334   7.404  0.4772 -0.3353 -0.0461
 9495SOL    HW239945   1.300   2.409   7.279  1.1968 -1.4514 -0.5584
 9496SOL     OW39946   2.051   1.624  15.327  0.3544  0.5777 -0.0559
 9496SOL    HW139947   1.984   1.558  15.308 -0.8176  1.4282  1.1022
 9496SOL    HW239948   2.003   1.705  15.308 -1.7348 -0.6203  0.1433
 9497SOL     OW39949   1.075   1.629   5.108 -0.2263  0.0440  0.2883
 9497SOL    HW139950   1.133   1.690   5.062 -0.2980  1.1449  1.6540
 9497SOL    HW239951   1.064   1.669   5.194  1.9431  0.3035  0.4368
 9498SOL     OW39952   1.352   4.022  13.187 -0.3384 -0.2299  0.2566
 9498SOL    HW139953   1.415   4.061  13.248  0.7273 -0.1158 -0.9185
 9498SOL    HW239954   1.355   4.085  13.115 -1.7283  0.2139  0.5866
 9499SOL     OW39955   3.917   3.431   1.799 -0.3345  0.1001  0.9005
 9499SOL    HW139956   3.948   3.358   1.853 -1.6894 -1.2860 -0.2085
 9499SOL    HW239957   3.997   3.474   1.767 -1.0702  1.0330  0.3167
 9500SOL     OW39958   1.663   3.235   3.185  0.3469 -0.8150 -0.4825
 9500SOL    HW139959   1.598   3.305   3.179 -0.3245 -1.3751  0.2323
 9500SOL    HW239960   1.710   3.254   3.266  0.3662  1.1188 -0.9452
 9501SOL     OW39961   0.681   1.788   3.385  0.3258 -0.6832  0.1544
 9501SOL    HW139962   0.660   1.750   3.300 -2.2870  1.2905 -0.0838
 9501SOL    HW239963   0.647   1.877   3.387 -0.9098 -1.1610  0.5061
 9502SOL     OW39964   2.156   2.095   5.030  0.0118 -0.3829  0.1292
 9502SOL    HW139965   2.179   2.004   5.012 -2.6615 -0.9239 -0.4272
 9502SOL    HW239966   2.234   2.147   5.050  0.0894 -0.5064  0.1490
 9503SOL     OW39967   2.045   3.874   6.154  0.0577  0.1410  0.2739
 9503SOL    HW139968   2.050   3.836   6.242 -1.2934 -2.2723 -0.6852
 9503SOL    HW239969   1.950   3.863   6.146  0.1551  0.1260 -0.7848
 9504SOL     OW39970   2.646   3.680   1.592  0.1034 -0.2361  0.2054
 9504SOL    HW139971   2.568   3.704   1.642  1.6438  0.0431  2.4632
 9504SOL    HW239972   2.638   3.584   1.590  1.9708 -0.3873  0.0538
 9505SOL     OW39973   4.603   2.366   6.419  0.5517  0.3702 -0.4635
 9505SOL    HW139974   4.604   2.461   6.409 -2.5775  0.4642  0.0385
 9505SOL    HW239975   4.573   2.346   6.330  2.1518  0.8536 -1.1015
 9506SOL     OW39976   0.299   0.339   9.272 -0.1327 -0.3734  0.3952
 9506SOL    HW139977   0.224   0.396   9.289  0.0848 -0.6115  2.1271
 9506SOL    HW239978   0.359   0.366   9.340  0.8061 -1.5366  0.0414
 9507SOL     OW39979   1.648   0.907   2.261 -0.2941 -0.1109 -0.0857
 9507SOL    HW139980   1.563   0.884   2.296  0.5317 -1.0624  1.2746
 9507SOL    HW239981   1.680   0.960   2.334 -2.1587  1.0684 -0.1202
 9508SOL     OW39982   3.460   2.075   2.253  0.0924  0.3561 -0.1303
 9508SOL    HW139983   3.518   2.003   2.230 -1.4200 -0.4568 -1.4084
 9508SOL    HW239984   3.396   2.026   2.304 -0.4780  1.7146  0.4859
 9509SOL     OW39985   4.229   0.873   8.994 -0.1250 -0.1145 -0.1905
 9509SOL    HW139986   4.170   0.816   8.946 -1.1192 -0.3835  1.3601
 9509SOL    HW239987   4.169   0.939   9.030 -1.3572 -0.6544 -1.2908
 9510SOL     OW39988   3.090   2.885   2.787  0.3356  0.0148 -0.6204
 9510SOL    HW139989   3.081   2.803   2.835  0.9238  0.9804  1.1179
 9510SOL    HW239990   3.131   2.944   2.850 -2.0232 -1.6902  2.5085
 9511SOL     OW39991   3.174   1.498   7.883 -0.2913  0.5515  0.6370
 9511SOL    HW139992   3.206   1.409   7.898 -1.2416  0.6534  3.3645
 9511SOL    HW239993   3.249   1.524   7.829 -0.1554 -1.0224  0.0746
 9512SOL     OW39994   3.275   4.064   6.200  0.4703  0.1874  0.5287
 9512SOL    HW139995   3.290   3.973   6.226  1.4571  0.6364  1.5293
 9512SOL    HW239996   3.181   4.051   6.184  0.6956 -0.1461 -0.5545
 9513SOL     OW39997   2.022   2.534   9.451 -0.6014  0.1563 -0.6637
 9513SOL    HW139998   2.073   2.523   9.531 -0.6227 -1.1748 -0.8432
 9513SOL    HW239999   2.008   2.443   9.426  0.3558  0.1855 -1.2830
 9514SOL     OW40000   2.039   0.955   2.513  0.3730 -0.2116  0.3362
 9514SOL    HW140001   2.126   0.991   2.532  0.3292 -1.0536  2.2150
 9514SOL    HW240002   2.002   1.040   2.491  4.0615  1.1206 -0.6982
 9515SOL     OW40003   2.423   2.261  15.836 -0.1862  0.4030 -0.3722
 9515SOL    HW140004   2.424   2.166  15.827  1.7154  0.6686 -2.8536
 9515SOL    HW240005   2.426   2.301  15.750  2.6411 -0.5863 -0.7196
 9516SOL     OW40006   3.981   1.909   7.180  0.2556  0.2214  0.6616
 9516SOL    HW140007   3.898   1.941   7.144  1.0095  0.8439 -0.4890
 9516SOL    HW240008   4.043   1.953   7.123  1.5799  0.3793  2.2144
 9517SOL     OW40009   2.091   3.521   1.650  0.1440  0.2440  0.0328
 9517SOL    HW140010   2.057   3.593   1.597  1.2609 -1.5731 -3.1792
 9517SOL    HW240011   2.018   3.462   1.667  2.4752 -2.6148  0.2106
 9518SOL     OW40012   1.991   2.295   5.775  0.3748 -0.7933 -0.1864
 9518SOL    HW140013   2.017   2.281   5.866 -0.2275  0.8008  0.2208
 9518SOL    HW240014   2.032   2.379   5.757  1.2501 -0.6438  2.4927
 9519SOL     OW40015   3.635   2.564   2.617  0.0800  0.8256  0.2372
 9519SOL    HW140016   3.620   2.568   2.711  0.1082  0.5845  0.2517
 9519SOL    HW240017   3.545   2.557   2.586 -0.0245  0.3268  0.6586
 9520SOL     OW40018   1.725   2.150   6.940  1.0043  0.0259 -0.3750
 9520SOL    HW140019   1.688   2.080   6.887 -2.7288  1.4811  0.2698
 9520SOL    HW240020   1.812   2.117   6.961  0.1561 -0.6609  2.0026
 9521SOL     OW40021   3.751   1.451   6.709 -0.6413 -0.7306 -0.1786
 9521SOL    HW140022   3.756   1.388   6.780 -2.0590  0.8119  1.2985
 9521SOL    HW240023   3.708   1.531   6.739 -0.9424 -0.4831 -1.2999
 9522SOL     OW40024   3.162   3.920   0.211  0.1362 -0.4635 -0.0690
 9522SOL    HW140025   3.225   3.848   0.213  2.2526  1.3256 -3.2718
 9522SOL    HW240026   3.203   3.986   0.266  1.6719  0.3431 -2.1877
 9523SOL     OW40027   0.531   3.875   4.089 -0.6340  0.1703 -0.2493
 9523SOL    HW140028   0.471   3.928   4.142  0.5024  0.2338  0.9522
 9523SOL    HW240029   0.527   3.934   4.013  0.5192  1.8971  1.0489
 9524SOL     OW40030   1.788   2.758   7.675  0.3883 -0.0570  0.1869
 9524SOL    HW140031   1.722   2.800   7.620  0.4645 -1.3831 -0.9009
 9524SOL    HW240032   1.834   2.702   7.613 -0.9584 -0.1476 -0.7301
 9525SOL     OW40033   3.758   2.255  13.615  0.1804 -0.0214  0.5279
 9525SOL    HW140034   3.700   2.190  13.656  0.9023 -0.8842  0.2006
 9525SOL    HW240035   3.843   2.229  13.652  0.2066  0.4182  0.7706
 9526SOL     OW40036   1.820   0.351   9.802  0.3048  0.4178  0.6862
 9526SOL    HW140037   1.886   0.414   9.831  0.0145  0.2110  1.8142
 9526SOL    HW240038   1.845   0.329   9.712 -0.1838  0.3845  0.5585
 9527SOL     OW40039   2.964   1.846   3.491  0.9433 -0.5665  0.2732
 9527SOL    HW140040   2.909   1.822   3.565  0.5385  2.9950  1.1499
 9527SOL    HW240041   3.026   1.774   3.491  0.8487 -0.6486 -1.0420
 9528SOL     OW40042   2.627   3.608   9.376  0.0664 -0.3480  0.7740
 9528SOL    HW140043   2.538   3.577   9.364 -0.0828  0.7087 -0.7887
 9528SOL    HW240044   2.609   3.682   9.433  0.2317  0.6670 -0.4976
 9529SOL     OW40045   2.411   4.353   8.823  0.4988 -0.3203 -0.7191
 9529SOL    HW140046   2.393   4.402   8.902 -1.9002 -2.2865 -0.0361
 9529SOL    HW240047   2.489   4.398   8.792 -0.4640  1.9233  0.1405
 9530SOL     OW40048   1.775   1.738   4.653 -0.2211  0.3206 -0.5979
 9530SOL    HW140049   1.733   1.777   4.730  0.9351  1.1463 -0.3771
 9530SOL    HW240050   1.759   1.645   4.665 -1.5813  0.6270 -0.0670
 9531SOL     OW40051   3.424   2.022  12.371 -0.0538 -0.3626  0.0008
 9531SOL    HW140052   3.336   2.032  12.406  0.5254 -2.3927  2.0144
 9531SOL    HW240053   3.465   2.106  12.392 -1.9061  0.6026 -0.2898
 9532SOL     OW40054   1.175   4.460  10.048 -0.4826 -0.2409  0.0583
 9532SOL    HW140055   1.159   4.549  10.080 -1.5021 -0.4864  0.2247
 9532SOL    HW240056   1.115   4.406  10.100 -0.7768  0.8109  0.8092
 9533SOL     OW40057   2.859   1.113   7.256  0.1635 -0.2518 -0.5969
 9533SOL    HW140058   2.865   1.203   7.222  0.2093  0.0162  0.1165
 9533SOL    HW240059   2.836   1.067   7.175 -0.9898  0.2412 -0.5576
 9534SOL     OW40060   2.703   4.278   5.236 -0.4520 -0.6098 -0.8072
 9534SOL    HW140061   2.730   4.366   5.262 -0.4451 -0.7440 -0.3641
 9534SOL    HW240062   2.788   4.234   5.239 -1.7350 -2.9410  0.9795
 9535SOL     OW40063   2.024   1.091   2.201 -0.2889  0.2038 -0.2209
 9535SOL    HW140064   2.076   1.010   2.200 -0.2487  0.2151  0.6349
 9535SOL    HW240065   1.940   1.071   2.159 -0.9509  0.1709  1.1154
 9536SOL     OW40066   0.937   1.223   3.733 -0.0278 -0.3072 -0.2560
 9536SOL    HW140067   0.980   1.240   3.649  0.7486  0.9997  0.4070
 9536SOL    HW240068   0.892   1.307   3.731  0.9377  0.2123 -0.1326
 9537SOL     OW40069   1.314   1.366  10.448  0.5314  1.0176  0.6613
 9537SOL    HW140070   1.376   1.305  10.488 -1.0757 -0.4613  0.9025
 9537SOL    HW240071   1.353   1.390  10.364  0.0984  0.6724  0.3602
 9538SOL     OW40072   4.676   4.632   3.916 -0.2221  0.7110  0.1187
 9538SOL    HW140073   0.001   4.577   3.977  0.9485  1.0498 -0.5008
 9538SOL    HW240074   4.705   4.714   3.956 -3.3969 -0.1437  4.1356
 9539SOL     OW40075   3.648   1.369   3.413 -0.1197 -0.1704  0.7611
 9539SOL    HW140076   3.611   1.441   3.362 -0.5221 -1.1764 -0.3559
 9539SOL    HW240077   3.647   1.413   3.498 -0.8970  2.7827 -0.7556
 9540SOL     OW40078   2.448   3.765   3.863 -0.1912  0.1250 -0.5940
 9540SOL    HW140079   2.520   3.758   3.926  0.7804  3.1006 -1.4038
 9540SOL    HW240080   2.391   3.695   3.896  1.1913  0.0094  1.5926
 9541SOL     OW40081   3.725   2.754   5.698  0.3214 -0.3443  0.6582
 9541SOL    HW140082   3.655   2.818   5.706  0.4964  0.2117 -2.6299
 9541SOL    HW240083   3.781   2.794   5.633 -0.2831 -3.5846 -1.8657
 9542SOL     OW40084   1.752   0.363   7.779 -0.3580 -0.2992  0.0967
 9542SOL    HW140085   1.729   0.273   7.802  5.0332 -1.9454 -1.0538
 9542SOL    HW240086   1.737   0.407   7.863 -2.6744  1.4419 -1.2139
 9543SOL     OW40087   4.387   1.633   0.491  0.0649 -0.4965  0.1387
 9543SOL    HW140088   4.453   1.701   0.507 -1.9988  2.0354 -2.0795
 9543SOL    HW240089   4.418   1.569   0.554  0.2752 -0.1577  0.3787
 9544SOL     OW40090   3.005   3.802   1.707 -0.5269 -0.2799 -0.4283
 9544SOL    HW140091   2.942   3.790   1.636 -1.9425 -1.2487  0.9915
 9544SOL    HW240092   3.069   3.740   1.672 -1.9748 -2.5411  0.9275
 9545SOL     OW40093   1.555   4.174   7.096  0.5693  0.0761 -0.7963
 9545SOL    HW140094   1.554   4.190   7.190 -2.0026 -2.4022 -0.4023
 9545SOL    HW240095   1.626   4.233   7.073  0.4229 -0.7552 -3.3689
 9546SOL     OW40096   0.717   4.231   6.484  0.4559 -0.5350 -0.2125
 9546SOL    HW140097   0.644   4.228   6.545  1.5672 -0.4074  1.1114
 9546SOL    HW240098   0.704   4.315   6.441 -0.9138 -1.3274 -1.3522
 9547SOL     OW40099   2.902   1.584   4.441  0.1917 -1.0231 -0.2131
 9547SOL    HW140100   2.854   1.666   4.442  0.6009 -0.8127  1.9569
 9547SOL    HW240101   2.932   1.574   4.532 -2.4352  0.0861  0.7529
 9548SOL     OW40102   3.491   0.818   3.135 -0.3772  0.1037 -0.7288
 9548SOL    HW140103   3.499   0.895   3.078 -0.9043 -0.4074 -1.4917
 9548SOL    HW240104   3.396   0.811   3.132 -0.3637 -0.0894 -0.7369
 9549SOL     OW40105   2.213   0.001  11.534 -0.1214  0.4946  0.5134
 9549SOL    HW140106   2.294   4.675  11.544 -0.2172  0.8768  3.1586
 9549SOL    HW240107   2.154   4.657  11.568  2.3727 -0.7575  2.3161
 9550SOL     OW40108   1.576   2.990  16.272 -0.1277  0.6942  0.1795
 9550SOL    HW140109   1.586   2.968  16.365  4.0391 -0.0885 -0.4684
 9550SOL    HW240110   1.486   3.022  16.263 -0.5310 -0.3127  0.6045
 9551SOL     OW40111   3.687   1.525   7.283 -0.4801  0.8590  0.1243
 9551SOL    HW140112   3.773   1.484   7.268 -0.1625  1.5849 -0.0192
 9551SOL    HW240113   3.718   1.580   7.354 -0.7288  1.3764 -0.1718
 9552SOL     OW40114   1.807   3.673   3.287  0.1866  0.0333  0.3224
 9552SOL    HW140115   1.834   3.700   3.199  1.2473  1.0494  0.9547
 9552SOL    HW240116   1.732   3.622   3.256  0.9579 -0.6341 -0.4278
 9553SOL     OW40117   3.466   0.793   5.114 -0.0653  0.2693 -0.2954
 9553SOL    HW140118   3.446   0.873   5.162  1.5294  0.8186 -0.5615
 9553SOL    HW240119   3.504   0.830   5.035  2.1531  0.5179  0.8740
 9554SOL     OW40120   0.934   4.344   3.032  0.3229  0.4068 -0.5506
 9554SOL    HW140121   0.860   4.290   3.061  0.5336 -0.4079 -1.5287
 9554SOL    HW240122   0.937   4.386   3.118  4.0718 -1.0498  0.0309
 9555SOL     OW40123   4.054   0.138   4.171  0.3339 -0.1647 -0.0397
 9555SOL    HW140124   4.023   0.222   4.139 -0.2561 -0.5933 -0.5826
 9555SOL    HW240125   4.106   0.182   4.239  1.6356 -2.6510  0.5743
 9556SOL     OW40126   1.194   3.490   8.137 -0.3848 -0.4167 -0.0431
 9556SOL    HW140127   1.254   3.558   8.107 -0.8843  0.1645  0.2809
 9556SOL    HW240128   1.249   3.448   8.203 -2.1181 -0.5763  1.3163
 9557SOL     OW40129   3.910   3.046  10.316  0.2687 -0.7729  0.5537
 9557SOL    HW140130   3.883   3.004  10.234 -0.8626  1.5228 -0.2432
 9557SOL    HW240131   3.821   3.060  10.349 -0.5635  0.0185 -2.0198
 9558SOL     OW40132   0.611   0.481   5.210  0.6168 -0.4403 -0.1748
 9558SOL    HW140133   0.559   0.558   5.187  0.5905  0.2363  2.1183
 9558SOL    HW240134   0.693   0.485   5.161  0.7584 -1.7143 -0.0480
 9559SOL     OW40135   3.890   3.759   2.301  0.1198  0.9774 -0.4693
 9559SOL    HW140136   3.858   3.674   2.271  1.6176  0.0695  0.4840
 9559SOL    HW240137   3.870   3.829   2.239 -1.1741 -0.1279 -1.2932
 9560SOL     OW40138   3.706   1.412   1.004 -0.4124  0.4688 -0.5714
 9560SOL    HW140139   3.719   1.412   1.099 -0.8717  2.6508 -0.4928
 9560SOL    HW240140   3.644   1.340   0.995  0.9792 -0.8774  0.5995
 9561SOL     OW40141   4.326   2.691  14.776  0.0341  0.0575  0.1174
 9561SOL    HW140142   4.319   2.786  14.768  1.1898  0.0875 -0.6568
 9561SOL    HW240143   4.248   2.665  14.825  1.2133  0.2002  2.0848
 9562SOL     OW40144   3.438   4.696   2.172 -0.2157 -0.2545  0.3968
 9562SOL    HW140145   3.406   4.613   2.207  0.6239 -0.0822  1.6121
 9562SOL    HW240146   3.369   0.028   2.208 -1.1812 -1.5184  0.4612
 9563SOL     OW40147   0.220   3.934   7.683 -0.0377  0.1152  0.1602
 9563SOL    HW140148   0.245   3.847   7.712 -0.0154  1.4717  4.2301
 9563SOL    HW240149   0.272   3.988   7.744 -0.6479 -1.0470  1.6990
 9564SOL     OW40150   3.771   0.099   5.656  0.0983 -0.0598 -0.5026
 9564SOL    HW140151   3.711   0.146   5.713 -0.0902 -1.4913  0.4850
 9564SOL    HW240152   3.813   0.168   5.604  1.9239  0.0071  1.0398
 9565SOL     OW40153   1.169   0.094  16.314  0.0267 -0.3944  0.4765
 9565SOL    HW140154   1.219   0.032  16.367  0.0942 -0.0852  0.7764
 9565SOL    HW240155   1.099   0.115  16.376 -1.6246 -0.6686 -1.2988
   4.72335   4.72335  17.69523
