Membrane in water
40155
    1TCq1    O1    1   0.162   3.408  11.636 -0.5655  0.4110  0.2865
    1TCq1    C1    2   0.094   3.311  11.579  0.2057  0.1096  0.7306
    1TCq1    O2    3   0.134   3.252  11.478  0.1523  0.1464  0.6280
    1TCq1    C2    4   4.686   3.369  11.591  0.0563  0.0871 -0.3782
    1TCq1    C3    5   4.617   3.374  11.478 -0.0446  0.1428  0.0998
    1TCq1    C4    6   4.480   3.404  11.491  0.0657 -0.6184 -0.1734
    1TCq1    C5    7   4.424   3.445  11.606  0.2170  0.2105  0.0663
    1TCq1    C6    8   4.511   3.446  11.715  0.1655 -0.3942  0.5209
    1TCq1    C7    9   4.639   3.412  11.712  0.0602  0.0329  0.4564
    1TCq1    C8   10   4.446   3.432  11.841  0.6733  0.4215 -0.3124
    1TCq1    O4   11   4.367   3.518  11.882 -0.2663  0.1096  0.2434
    1TCq1    C9   12   4.392   3.392  11.379 -0.3270  0.1070  0.2176
    1TCq1    O5   13   4.272   3.423  11.397 -0.3422 -0.3744  0.2813
    1TCq1    O6   14   4.436   3.339  11.273 -0.0889  0.0737 -0.0267
    1TCq1    H1   15   0.109   3.453  11.705 -1.0401  0.1216  0.1154
    1TCq1    H2   16   4.664   3.322  11.395  2.2844  0.9849  0.9095
    1TCq1    H3   17   4.318   3.451  11.628 -0.1637 -2.0995 -1.1460
    1TCq1    H4   18   4.686   3.385  11.806 -2.1786 -2.0393  0.9819
    2MPD2     C   19   4.323   3.132  12.238 -1.3273  0.5381 -0.0060
    2MPD2    C1   20   4.304   3.267  12.210 -0.2547 -0.2346 -0.6778
    2MPD2    C2   21   4.347   3.316  12.091  0.0860  0.7355  0.5627
    2MPD2    C3   22   4.388   3.239  11.986 -0.5650  0.5801 -0.1137
    2MPD2    C4   23   4.404   3.103  12.008 -0.3264  0.3151 -0.6991
    2MPD2    C5   24   4.366   3.050  12.134  0.0607 -0.2353 -0.2992
    2MPD2     H   25   4.341   3.424  12.083 -1.0687  0.5161 -1.5708
    2MPD2    H1   26   4.446   3.038  11.932 -0.0361 -1.8370  1.2654
    2MPD2    H2   27   4.286   3.090  12.331 -2.1923  1.5088  0.0807
    2MPD2    H3   28   4.367   2.943  12.150  0.5665 -0.1199  0.4039
    2MPD2     N   29   4.445   3.297  11.870 -0.8466  0.0497  0.0101
    2MPD2    H5   30   4.486   3.227  11.810 -0.9457 -1.0848  1.2721
    2MPD2    N1   31   4.226   3.349  12.293  0.6054 -0.3547  0.2027
    2MPD2    H7   32   4.227   3.447  12.268 -0.2588 -0.0454  1.4072
    3TCq1    O1   33   4.172   4.411  10.804 -0.2477  0.6618  0.1217
    3TCq1    C1   34   4.057   4.353  10.848 -0.3290  0.3399 -0.5023
    3TCq1    O2   35   4.029   4.233  10.840  0.0473  0.1242 -0.0009
    3TCq1    C2   36   3.984   4.440  10.931 -0.0487  0.2226  0.4847
    3TCq1    C3   37   3.995   4.578  10.910  0.3020 -0.7519 -0.0212
    3TCq1    C4   38   3.892   4.662  10.945 -0.2144  0.2549  0.0637
    3TCq1    C5   39   3.789   4.618  11.025 -0.6226 -0.4819  0.2011
    3TCq1    C6   40   3.787   4.481  11.051  0.6282  0.0119 -0.4157
    3TCq1    C7   41   3.879   4.389  11.000  0.3578 -0.4485 -0.1101
    3TCq1    C8   42   3.680   4.424  11.132  0.9184 -0.0956  0.0541
    3TCq1    O4   43   3.680   4.301  11.142 -0.3337 -0.0324  0.2604
    3TCq1    C9   44   3.884   0.074  10.898 -0.5727  0.7763 -0.7240
    3TCq1    O5   45   3.976   0.111  10.817  0.2808  0.6159 -0.3492
    3TCq1    O6   46   3.777   0.135  10.910 -0.4501  0.3319  0.3295
    3TCq1    H1   47   4.189   4.494  10.853 -0.2381  0.7697 -0.0632
    3TCq1    H2   48   4.068   4.631  10.851 -0.2283 -1.5565 -1.4176
    3TCq1    H3   49   3.711   4.689  11.050  0.0704  1.2634 -2.6219
    3TCq1    H4   50   3.865   4.284  11.025 -1.0723  0.4300  2.8751
    4MPD2     C   51   3.193   4.440  11.314 -0.1980 -0.9997 -0.4366
    4MPD2    C1   52   3.237   4.566  11.286 -0.0950  0.1973 -0.0558
    4MPD2    C2   53   3.367   4.581  11.238  0.8384 -0.2724  0.0020
    4MPD2    C3   54   3.454   4.480  11.211 -0.0852 -0.3382 -0.4806
    4MPD2    C4   55   3.408   4.351  11.232  0.2069  0.8095  0.3353
    4MPD2    C5   56   3.279   4.335  11.278 -0.5292 -0.1670 -0.7476
    4MPD2     H   57   3.400   4.681  11.212 -1.6887 -0.1932 -2.8280
    4MPD2    H1   58   3.454   4.257  11.203  2.7547  2.7111 -1.7669
    4MPD2    H2   59   3.100   4.415  11.363  1.4530 -0.8834  2.7082
    4MPD2    H3   60   3.249   4.232  11.295  3.6293 -1.5748 -1.9714
    4MPD2     N   61   3.583   4.514  11.164  0.0308  0.6079  0.8743
    4MPD2    H5   62   3.607   4.611  11.150 -0.0913  0.2506 -1.9580
    4MPD2    N1   63   3.158   4.681  11.308  0.5087  1.0774  0.5195
    4MPD2    H7   64   3.208   0.044  11.306  1.2092  0.6988  1.6221
    5TCq1    O1   65   3.747   1.425  11.266 -0.9430 -0.0246  0.0477
    5TCq1    C1   66   3.826   1.323  11.233 -0.4973 -0.5084 -0.3223
    5TCq1    O2   67   3.788   1.206  11.233  0.3233  0.3243 -0.1420
    5TCq1    C2   68   3.971   1.364  11.247 -0.6583 -0.2576 -0.2918
    5TCq1    C3   69   4.023   1.477  11.191 -0.2447  0.6688  0.4193
    5TCq1    C4   70   4.157   1.493  11.195  0.3407 -0.1972  0.4910
    5TCq1    C5   71   4.235   1.393  11.253 -0.4727  0.1070  0.5853
    5TCq1    C6   72   4.177   1.280  11.317 -0.1144 -0.2454 -0.1884
    5TCq1    C7   73   4.044   1.260  11.308  0.2057 -0.3538 -0.0273
    5TCq1    C8   74   4.268   1.177  11.358 -0.2121 -0.9981  0.8359
    5TCq1    O4   75   4.371   1.167  11.294 -0.0487  0.2825  0.6432
    5TCq1    C9   76   4.216   1.616  11.141  0.6471 -0.5563  0.0551
    5TCq1    O5   77   4.331   1.636  11.189 -0.0800  0.1440  0.5214
    5TCq1    O6   78   4.147   1.686  11.060  0.0281  0.0605  0.4269
    5TCq1    H1   79   3.791   1.511  11.281  0.2060 -0.3381 -1.4338
    5TCq1    H2   80   3.957   1.550  11.145  2.0968  1.8560 -1.0833
    5TCq1    H3   81   4.342   1.412  11.258 -0.7515  1.7464  0.3621
    5TCq1    H4   82   4.008   1.164  11.343  2.1485  0.3714  4.0150
    6MPD2     C   83   4.179   0.864  11.517  0.2558 -0.3448 -0.5960
    6MPD2    C1   84   4.267   0.948  11.461  0.8292  0.2685 -0.4672
    6MPD2    C2   85   4.394   0.905  11.428 -0.5941  0.2599  0.6208
    6MPD2    C3   86   4.434   0.775  11.436 -0.3793 -0.0768  0.4237
    6MPD2    C4   87   4.347   0.686  11.495 -0.2813  0.4860 -0.2296
    6MPD2    C5   88   4.218   0.728  11.528 -0.4853  0.2514 -0.8369
    6MPD2     H   89   4.464   0.978  11.389  0.6778 -1.1813  0.1908
    6MPD2    H1   90   4.371   0.581  11.498  1.4392  0.9198  1.1984
    6MPD2    H2   91   4.082   0.897  11.551  1.2139  2.1467 -0.3230
    6MPD2    H3   92   4.148   0.655  11.567  2.5583 -2.0118  0.3505
    6MPD2     N   93   4.564   0.736  11.390  0.2972  0.0356  0.4638
    6MPD2    H5   94   4.622   0.805  11.344 -1.0658  0.9434  0.1025
    6MPD2    N1   95   4.214   1.076  11.437  0.0085 -0.4354  0.0752
    6MPD2    H7   96   4.127   1.090  11.487 -1.3539 -1.7373 -1.9685
    7TCq1    O1   97   0.533   0.484  14.604 -0.0255  0.1860 -0.1534
    7TCq1    C1   98   0.415   0.535  14.564 -0.1134 -0.5389 -0.1848
    7TCq1    O2   99   0.320   0.564  14.634 -0.6162  0.5599  0.6069
    7TCq1    C2  100   0.390   0.502  14.427 -0.0692  0.0790  0.0642
    7TCq1    C3  101   0.264   0.470  14.403  0.1150 -0.6727 -0.9134
    7TCq1    C4  102   0.232   0.432  14.278  0.0282  0.0822  0.5626
    7TCq1    C5  103   0.321   0.429  14.172  0.4389 -0.6224 -0.2641
    7TCq1    C6  104   0.454   0.468  14.205  0.6161 -0.4551 -0.1017
    7TCq1    C7  105   0.488   0.508  14.331 -0.1191 -0.5159 -0.0405
    7TCq1    C8  106   0.557   0.456  14.108 -0.7099 -0.3323 -0.1212
    7TCq1    O4  107   0.538   0.370  14.025 -0.7908  0.8364  0.2749
    7TCq1    C9  108   0.093   0.402  14.253  0.0770 -0.2108 -0.3490
    7TCq1    O5  109   0.024   0.348  14.342  0.4127  0.0110 -0.1522
    7TCq1    O6  110   0.067   0.367  14.135  0.2657  0.2309  0.2193
    7TCq1    H1  111   0.566   0.424  14.534 -0.4083 -0.6526  0.3860
    7TCq1    H2  112   0.184   0.481  14.476  0.6761  1.8963 -0.6794
    7TCq1    H3  113   0.287   0.404  14.073 -1.8456  2.2859 -0.2140
    7TCq1    H4  114   0.591   0.530  14.357 -0.8987  1.5492  1.2946
    8MPD2     C  115   1.052   0.539  13.970 -0.0435  0.2802 -0.1324
    8MPD2    C1  116   0.967   0.429  13.942  0.0817  0.0316  0.0550
    8MPD2    C2  117   0.836   0.429  13.991  0.5683  0.2021  0.2373
    8MPD2    C3  118   0.797   0.530  14.074 -0.3184  0.0297 -0.8181
    8MPD2    C4  119   0.888   0.619  14.117  0.0347 -0.7551  0.0020
    8MPD2    C5  120   1.016   0.624  14.064  0.7384  0.1622 -0.4293
    8MPD2     H  121   0.771   0.345  13.972  2.7025 -1.2688 -0.5342
    8MPD2    H1  122   0.853   0.688  14.193  0.8804  1.2360 -1.3990
    8MPD2    H2  123   1.155   0.549  13.937  0.5089  1.0267  1.8168
    8MPD2    H3  124   1.083   0.699  14.106  1.5287  0.3359 -2.0121
    8MPD2     N  125   0.668   0.535  14.136 -0.1780 -0.2610  0.4093
    8MPD2    H5  126   0.646   0.611  14.200 -1.7427 -0.9370  0.6913
    8MPD2    N1  127   1.024   0.320  13.880  0.6202 -0.8105  0.0322
    8MPD2    H7  128   1.125   0.325  13.872  0.3963  0.0254 -2.3567
    9TCq1    O1  129   4.714   3.648  10.694  0.0536 -0.1407  0.3749
    9TCq1    C1  130   0.034   3.680  10.817 -0.4552  0.4280  0.1132
    9TCq1    O2  131   0.153   3.717  10.840 -0.6846  0.0149 -0.1086
    9TCq1    C2  132   4.647   3.726  10.901  0.5982  0.3060 -0.5122
    9TCq1    C3  133   4.544   3.640  10.920  0.2605  0.1863 -0.0353
    9TCq1    C4  134   4.454   3.665  11.021 -0.7514 -0.2423 -0.7205
    9TCq1    C5  135   4.469   3.778  11.102 -0.1959 -0.1880  0.0864
    9TCq1    C6  136   4.573   3.861  11.076  0.2099 -0.0817  0.6185
    9TCq1    C7  137   4.662   3.838  10.971  0.4940  0.0512  0.1368
    9TCq1    C8  138   4.590   3.992  11.141  0.9930  0.7620  0.4081
    9TCq1    O4  139   4.667   4.068  11.092 -0.2907  0.0675  0.5277
    9TCq1    C9  140   4.350   3.565  11.047  0.3320  0.1234 -0.1403
    9TCq1    O5  141   4.260   3.587  11.131  0.2017 -0.5079 -0.0259
    9TCq1    O6  142   4.359   3.458  10.983 -0.0123  0.0818  0.3722
    9TCq1    H1  143   4.616   3.651  10.687 -0.1292 -1.2823  2.4831
    9TCq1    H2  144   4.541   3.546  10.867 -0.4221 -0.9890  2.1153
    9TCq1    H3  145   4.389   3.795  11.173 -1.3633 -2.0894 -0.7759
    9TCq1    H4  146   0.004   3.920  10.946 -0.1390  0.7100  0.6372
   10MPD2     C  147   4.597   4.226  11.327  0.0121 -0.6752 -0.2888
   10MPD2    C1  148   4.503   4.126  11.323  0.5906 -0.1821  0.0071
   10MPD2    C2  149   4.396   4.140  11.419 -0.5621  0.4101  0.6566
   10MPD2    C3  150   4.377   4.255  11.493 -0.2059  0.0342  0.2822
   10MPD2    C4  151   4.483   4.347  11.500 -0.1248  0.7701  0.5625
   10MPD2    C5  152   4.592   4.325  11.421  0.2455 -0.0127  0.1595
   10MPD2     H  153   4.325   4.059  11.433  1.0883 -1.2984 -0.9072
   10MPD2    H1  154   4.474   4.427  11.573 -0.0224  0.7643  0.5814
   10MPD2    H2  155   4.684   4.232  11.264  2.5127 -0.5954  3.1565
   10MPD2    H3  156   4.667   4.403  11.418  0.5994 -0.3161  0.9905
   10MPD2     N  157   4.268   4.276  11.588 -0.4406 -0.3083  0.3211
   10MPD2    H5  158   4.278   4.348  11.659  0.8658 -1.9751  1.8261
   10MPD2    N1  159   4.501   4.009  11.242  0.0086 -0.2641  0.2901
   10MPD2    H7  160   4.438   3.935  11.273 -0.2375 -0.2271 -0.1148
   11TCq1    O1  161   0.280   4.574  14.640 -0.6089 -0.3836  0.1656
   11TCq1    C1  162   0.242   4.461  14.579  0.5566 -0.3013  0.4160
   11TCq1    O2  163   0.312   4.358  14.572 -0.3554  0.6283 -0.2603
   11TCq1    C2  164   0.094   4.460  14.579 -0.1822  0.3123  0.9063
   11TCq1    C3  165   0.028   4.573  14.545 -0.3120 -0.0219  0.6885
   11TCq1    C4  166   4.619   4.574  14.518 -0.1126 -0.6516 -0.6814
   11TCq1    C5  167   4.554   4.455  14.527  0.2946  0.0788  0.1672
   11TCq1    C6  168   4.623   4.342  14.556 -0.2889 -0.4312 -0.5784
   11TCq1    C7  169   0.029   4.344  14.591 -0.2985  0.0869  0.6101
   11TCq1    C8  170   4.553   4.213  14.571 -0.4157  0.4311 -0.0942
   11TCq1    O4  171   4.607   4.145  14.658 -0.5374 -0.2791  0.2085
   11TCq1    C9  172   4.552   4.688  14.454  0.2502 -0.5761 -0.3677
   11TCq1    O5  173   4.427   4.687  14.455 -0.6640 -0.4797  0.0329
   11TCq1    O6  174   4.625   0.060  14.412  0.3188 -0.2678  0.4895
   11TCq1    H1  175   0.209   4.639  14.662 -0.0915 -0.5666  2.2865
   11TCq1    H2  176   0.092   4.655  14.513  1.3454 -1.5154  0.2144
   11TCq1    H3  177   4.450   4.445  14.495  0.6770 -0.8639 -0.7874
   11TCq1    H4  178   0.090   4.258  14.615  1.2273  0.3696 -2.2877
   12MPD2     C  179   4.372   3.982  14.563 -0.0438  0.6170 -1.1012
   12MPD2    C1  180   4.406   4.058  14.453 -0.2880 -0.1252  0.6397
   12MPD2    C2  181   4.348   4.018  14.334  0.1888 -0.6430  0.5466
   12MPD2    C3  182   4.275   3.898  14.316  0.0844 -0.4078  0.8158
   12MPD2    C4  183   4.254   3.822  14.430 -0.2266  0.1730 -0.1259
   12MPD2    C5  184   4.312   3.865  14.551  0.0976  0.5931  0.3707
   12MPD2     H  185   4.374   4.076  14.246  3.0273  2.1979  3.2563
   12MPD2    H1  186   4.191   3.734  14.430  1.1897 -0.8431  0.0267
   12MPD2    H2  187   4.408   4.006  14.662 -0.3229 -0.1569 -0.8084
   12MPD2    H3  188   4.289   3.798  14.633  2.6863 -0.3256  0.3560
   12MPD2     N  189   4.212   3.840  14.202 -0.3852 -0.2747 -0.3962
   12MPD2    H5  190   4.163   3.751  14.211 -1.1090  0.1495 -0.1724
   12MPD2    N1  191   4.475   4.184  14.459  0.0093  0.5921  0.0531
   12MPD2    H7  192   4.488   4.237  14.373 -0.6067  2.1402  0.9129
   13TCq1    O1  193   4.033   4.416  10.267  0.1643 -0.6597  0.1863
   13TCq1    C1  194   4.048   4.393  10.404 -0.3799 -0.7225  0.0861
   13TCq1    O2  195   4.116   4.308  10.460 -0.1896 -0.4127 -0.4781
   13TCq1    C2  196   3.942   4.462  10.470 -0.2189  0.2644  1.0713
   13TCq1    C3  197   3.919   4.596  10.463  0.2983  0.2131  0.2359
   13TCq1    C4  198   3.812   4.655  10.527 -0.3986 -0.6661  0.7434
   13TCq1    C5  199   3.741   4.574  10.616  0.2656 -0.0475  0.5966
   13TCq1    C6  200   3.773   4.438  10.625 -0.1686  0.5035  0.4105
   13TCq1    C7  201   3.872   4.380  10.557 -0.4126  0.4112 -0.6113
   13TCq1    C8  202   3.698   4.364  10.719 -0.0244  0.5907  0.0888
   13TCq1    O4  203   3.627   4.434  10.792 -0.8098  0.4003 -0.1576
   13TCq1    C9  204   3.782   0.076  10.517  0.6548 -0.5462  0.5370
   13TCq1    O5  205   3.849   0.149  10.441 -0.0523  0.2634  0.3351
   13TCq1    O6  206   3.694   0.125  10.592  0.2234 -0.2879 -0.3676
   13TCq1    H1  207   3.946   4.453  10.242  0.5214  1.9120  2.8163
   13TCq1    H2  208   3.972   4.651  10.386  0.2436 -1.7189 -1.1912
   13TCq1    H3  209   3.656   4.623  10.662 -0.2077 -0.8653  0.5817
   13TCq1    H4  210   3.898   4.276  10.573 -0.8763  0.4636  0.4589
   14MPD2     C  211   3.569   4.006  10.692 -0.5793 -0.1697  0.6409
   14MPD2    C1  212   3.598   4.131  10.750  0.1304  0.3188  0.0951
   14MPD2    C2  213   3.580   4.138  10.885 -0.3160 -0.4372  0.5231
   14MPD2    C3  214   3.534   4.027  10.962 -0.4667  0.1699  0.2253
   14MPD2    C4  215   3.493   3.915  10.898  0.7368  0.3039 -0.3029
   14MPD2    C5  216   3.520   3.903  10.765  0.4943  0.1259 -0.2861
   14MPD2     H  217   3.615   4.221  10.945 -3.0375  1.0598  0.0808
   14MPD2    H1  218   3.464   3.823  10.946 -2.3057  1.7426  0.5928
   14MPD2    H2  219   3.609   3.980  10.595  0.1864 -1.5924  1.3411
   14MPD2    H3  220   3.508   3.806  10.717 -1.5563 -0.5376  1.5663
   14MPD2     N  221   3.537   4.042  11.103 -0.6425 -0.5587 -0.0529
   14MPD2    H5  222   3.583   4.123  11.144 -1.0748  0.5364 -1.7312
   14MPD2    N1  223   3.679   4.228  10.682 -0.2916 -0.2085  0.7585
   14MPD2    H7  224   3.715   4.192  10.594 -1.8257 -0.6292  0.2930
   15TCq1    O1  225   1.194   3.743   1.794 -0.0826  0.0882  0.2618
   15TCq1    C1  226   1.087   3.687   1.857  0.1391  0.4481  0.1446
   15TCq1    O2  227   0.974   3.701   1.816 -0.0147  0.4694 -0.2134
   15TCq1    C2  228   1.129   3.551   1.872  0.7954 -0.2556  0.1055
   15TCq1    C3  229   1.110   3.499   1.994  0.4513  0.5074 -0.0086
   15TCq1    C4  230   1.184   3.388   2.022 -0.8662  0.3057  0.3763
   15TCq1    C5  231   1.259   3.324   1.932  0.1548  0.3837  0.7090
   15TCq1    C6  232   1.258   3.382   1.807  0.8110 -0.0032  0.0417
   15TCq1    C7  233   1.194   3.491   1.773  0.3602  0.4181 -0.4331
   15TCq1    C8  234   1.351   3.320   1.712  0.6889 -0.3620 -0.5098
   15TCq1    O4  235   1.457   3.281   1.763 -0.1284 -0.1536  0.7637
   15TCq1    C9  236   1.187   3.328   2.157 -0.0546 -0.1725 -0.0965
   15TCq1    O5  237   1.103   3.370   2.242  0.1125  0.1357  0.3144
   15TCq1    O6  238   1.280   3.254   2.177  0.0323  0.0186 -0.7221
   15TCq1    H1  239   1.272   3.709   1.844 -0.2835  1.1446  1.3165
   15TCq1    H2  240   1.049   3.543   2.072  2.4446  0.4887  1.5530
   15TCq1    H3  241   1.321   3.240   1.959 -2.8782 -1.7094  1.2151
   15TCq1    H4  242   1.207   3.532   1.674 -0.3690 -2.4590 -1.7077
   16MPD2     C  243   1.298   3.286   1.334  0.1903 -0.2286 -0.7832
   16MPD2    C1  244   1.374   3.291   1.455 -0.5144 -0.4931 -0.0294
   16MPD2    C2  245   1.506   3.272   1.459 -0.1834  0.9036  0.4684
   16MPD2    C3  246   1.566   3.242   1.338  0.3823  0.2568 -0.5291
   16MPD2    C4  247   1.494   3.255   1.220  0.0162  0.1227  0.2271
   16MPD2    C5  248   1.358   3.277   1.213  0.4238  0.0944 -0.0584
   16MPD2     H  249   1.562   3.281   1.551  1.5667 -0.3345 -0.4820
   16MPD2    H1  250   1.548   3.238   1.128  0.3345 -1.8219  0.7690
   16MPD2    H2  251   1.190   3.282   1.337  0.2419 -0.8032  0.5483
   16MPD2    H3  252   1.307   3.276   1.117 -0.2256 -1.2366  0.2926
   16MPD2     N  253   1.707   3.217   1.335  0.3416  0.8152  0.8432
   16MPD2    H5  254   1.748   3.229   1.428  5.3889 -0.5461 -1.2095
   16MPD2    N1  255   1.303   3.322   1.579 -0.0205 -0.1187  0.5450
   16MPD2    H7  256   1.211   3.363   1.569 -0.0325  0.0956  1.6007
   17TCq1    O1  257   4.298   1.812  10.160  0.5976  0.3752  0.2767
   17TCq1    C1  258   4.380   1.916  10.188  1.1161 -0.1326 -0.3341
   17TCq1    O2  259   4.497   1.931  10.156 -0.3149 -1.0282  0.3594
   17TCq1    C2  260   4.302   2.030  10.208 -0.3690  0.4035 -0.4852
   17TCq1    C3  261   4.212   2.025  10.312  0.0228 -0.5254  0.2727
   17TCq1    C4  262   4.132   2.131  10.322 -0.4320  0.4629 -0.5434
   17TCq1    C5  263   4.153   2.241  10.246 -0.3238 -0.3132 -1.1029
   17TCq1    C6  264   4.268   2.249  10.163  0.5506  0.3007  0.1691
   17TCq1    C7  265   4.338   2.140  10.133  0.9104 -0.6149 -0.0548
   17TCq1    C8  266   4.274   2.351  10.062 -0.0695  0.0008  0.8216
   17TCq1    O4  267   4.165   2.382  10.023 -0.0106  0.3531  0.3270
   17TCq1    C9  268   4.024   2.138  10.421 -0.1892  0.0196 -0.1388
   17TCq1    O5  269   3.983   2.254  10.450  0.6365 -0.2777 -0.4256
   17TCq1    O6  270   4.016   2.041  10.501 -0.2322 -0.2296  0.1646
   17TCq1    H1  271   4.202   1.817  10.178  0.6613  0.7993  0.4794
   17TCq1    H2  272   4.208   1.937  10.376  0.4956 -0.8725 -0.1730
   17TCq1    H3  273   4.088   2.326  10.263  2.5839  2.3948 -3.5259
   17TCq1    H4  274   4.413   2.135  10.055 -0.8324  2.4716 -1.9467
   18MPD2     C  275   4.367   2.535   9.838  0.3523 -0.1198 -0.4175
   18MPD2    C1  276   4.443   2.512   9.951 -0.3286  0.0013 -0.2377
   18MPD2    C2  277   4.567   2.568   9.962  0.6281  0.5006 -0.4750
   18MPD2    C3  278   4.611   2.660   9.866  0.5754  0.1321  0.2924
   18MPD2    C4  279   4.540   2.688   9.756 -0.3580  0.2373 -0.3490
   18MPD2    C5  280   4.417   2.625   9.743 -0.3102  0.7505 -0.9129
   18MPD2     H  281   4.634   2.547  10.045 -2.1210  1.1082  1.9215
   18MPD2    H1  282   4.575   2.763   9.686 -0.2139 -0.4105 -0.9693
   18MPD2    H2  283   4.272   2.487   9.815  0.7989  0.0200 -2.4676
   18MPD2    H3  284   4.356   2.652   9.657 -1.5446 -2.5751 -1.0742
   18MPD2     N  285   4.722   2.737   9.896  0.4931 -0.9173 -0.3053
   18MPD2    H5  286   0.022   2.807   9.826 -1.2219  0.5323  0.5218
   18MPD2    N1  287   4.401   2.411  10.049  0.1346  0.5345  0.3193
   18MPD2    H7  288   4.469   2.398  10.123 -0.0450 -0.0657  0.3766
   19TMC2    C1  289   0.295   4.335  14.237 -0.0919  0.4792  0.2151
   19TMC2    C2  290   0.174   4.395  14.211 -0.4266  0.3642 -0.3154
   19TMC2    C3  291   0.056   4.325  14.211 -0.1430 -0.3087 -1.0438
   19TMC2    C4  292   0.294   4.204  14.271 -0.3933 -0.6304  0.5400
   19TMC2    C5  293   0.176   4.136  14.264  0.8243 -0.0374  0.6022
   19TMC2    C6  294   0.053   4.197  14.241  0.4854  0.5710 -0.0393
   19TMC2     C  295   0.408   4.424  14.267  0.0288  0.3218  0.7352
   19TMC2     O  296   0.382   4.545  14.277  0.3858  0.5785  0.0323
   19TMC2     H  297   0.171   4.499  14.181  0.5560  1.0027  1.7789
   19TMC2    H1  298   0.385   4.157  14.307  0.9169  2.4900  1.2412
   19TMC2    H2  299   4.689   4.140  14.219 -0.0859  1.4030  0.0966
   19TMC2    C7  300   0.182   3.994  14.264 -0.2616 -0.2468  0.3292
   19TMC2    C8  301   4.649   4.385  14.203  0.0959  0.6507  0.3418
   19TMC2    O1  302   0.288   3.939  14.237  0.2657  0.4869 -0.1429
   19TMC2    O2  303   4.557   4.319  14.243 -0.2687 -0.6163 -0.4302
   19TMC2    O5  304   4.658   4.516  14.222 -0.4348 -0.0855  0.0577
   19TMC2    H5  305   4.709   4.559  14.151 -2.2410  2.1896  0.1331
   20MPD2     C  306   0.651   4.523  14.398  0.2597 -0.0843  0.5895
   20MPD2    C1  307   0.646   4.403  14.322 -0.3996  0.6190 -0.1573
   20MPD2    C2  308   0.762   4.327  14.311 -0.2349  1.2120 -0.3629
   20MPD2    C3  309   0.874   4.365  14.375  0.1542 -1.1991 -0.2849
   20MPD2    C4  310   0.874   4.486  14.442  1.0642  0.3276  0.4208
   20MPD2    C5  311   0.765   4.558  14.452 -0.2604  0.2309  0.0997
   20MPD2     H  312   0.755   4.235  14.254 -2.6277  2.0585 -1.4236
   20MPD2    H1  313   0.962   4.513  14.499  1.0856  2.4429 -0.6067
   20MPD2    H2  314   0.575   4.599  14.410  0.2487  0.0591 -0.4694
   20MPD2    H3  315   0.777   4.643  14.519 -0.7730  0.5975 -0.2739
   20MPD2     N  316   0.995   4.295  14.377  0.6403 -0.1557 -0.1492
   20MPD2    H5  317   1.076   4.340  14.418 -0.1098  2.3392 -1.3925
   20MPD2    N1  318   0.526   4.352  14.266 -0.2601  0.2750 -0.6823
   20MPD2    H7  319   0.523   4.265  14.214 -1.6957  0.6886 -1.3201
   21MPD2     C  320   3.511   4.612  14.282  0.6258 -0.5205 -0.3289
   21MPD2    C1  321   3.514   4.471  14.299 -0.4758  0.4742  0.2873
   21MPD2    C2  322   3.408   4.399  14.352 -0.3153  0.0698  0.0074
   21MPD2    C3  323   3.296   4.466  14.388 -0.2593 -0.7226  0.7463
   21MPD2    C4  324   3.292   4.601  14.378 -0.4648  0.6863  0.5519
   21MPD2    C5  325   3.398   4.673  14.329 -0.8749 -0.1877 -0.3896
   21MPD2     H  326   3.432   4.297  14.377  1.5090  0.7692  1.1583
   21MPD2    H1  327   3.193   4.643  14.393 -0.2470  1.5323 -0.3242
   21MPD2    H2  328   3.586   4.678  14.241 -0.5839  0.9945 -0.0944
   21MPD2    H3  329   3.387   0.056  14.333 -1.6371 -0.2781 -0.0545
   21MPD2     N  330   3.191   4.400  14.444  0.2220 -0.8100 -0.0349
   21MPD2    H5  331   3.116   4.460  14.477  0.1794  0.0425 -1.6865
   21MPD2    N1  332   3.636   4.402  14.279  0.2242  0.0269 -0.1433
   21MPD2    H7  333   3.630   4.301  14.280 -0.4533  0.0294 -2.2926
   22TCq2    C1  334   3.181   4.262  14.450 -0.5745  0.2413  0.3856
   22TCq2    O2  335   3.240   4.182  14.380 -0.0027 -0.7111 -0.5238
   22TCq2    C2  336   3.093   4.220  14.556  0.4105 -0.8877 -0.4989
   22TCq2    C3  337   3.142   4.113  14.627 -0.6388 -0.4958  0.4213
   22TCq2    C4  338   3.102   4.094  14.756  0.9899  0.1693  0.3588
   22TCq2    C5  339   3.017   4.182  14.816  0.5443 -0.7344 -0.5307
   22TCq2    C6  340   2.981   4.298  14.747 -0.7043  0.6624  0.0766
   22TCq2    C7  341   3.006   4.305  14.613  1.2911 -0.2937  0.0352
   22TCq2    C8  342   2.925   4.406  14.821  0.0891  0.7233  0.2015
   22TCq2    O4  343   2.954   4.406  14.941  0.6212  0.1356  0.2145
   22TCq2    C9  344   3.143   3.975  14.823 -0.3093  0.2736  0.0301
   22TCq2    O5  345   3.232   3.906  14.764 -0.0972 -0.2228  0.6287
   22TCq2    O6  346   3.102   3.960  14.942 -0.2193 -0.7579 -0.1880
   22TCq2    H2  347   3.227   4.064  14.580 -0.0976  0.8183  0.0478
   22TCq2    H3  348   2.970   4.163  14.911  0.3305 -1.5270 -0.7940
   22TCq2    H4  349   2.970   4.393  14.559  0.8845  0.1314  1.0019
   23MPD2     C  350   4.559   1.332  15.214 -0.2712  0.0304 -0.3346
   23MPD2    C1  351   4.483   1.217  15.237  0.1080  0.0410 -0.3557
   23MPD2    C2  352   4.392   1.174  15.142  0.2034  0.1687  0.3954
   23MPD2    C3  353   4.388   1.244  15.021  0.8430 -0.8008 -0.1601
   23MPD2    C4  354   4.464   1.357  14.999 -0.1252 -0.1541 -0.4578
   23MPD2    C5  355   4.553   1.398  15.093 -0.4934 -1.1262  0.1231
   23MPD2     H  356   4.341   1.083  15.171  1.1596 -0.6683 -0.5225
   23MPD2    H1  357   4.461   1.410  14.904 -1.6680  1.1090  0.3059
   23MPD2    H2  358   4.638   1.364  15.281 -1.6495 -1.8423  2.1634
   23MPD2    H3  359   4.610   1.488  15.077  2.8287 -3.1070  0.9202
   23MPD2     N  360   4.309   1.210  14.911  0.1087  0.0072 -0.2280
   23MPD2    H5  361   4.314   1.262  14.825  1.5815 -0.6957 -0.5648
   23MPD2    N1  362   4.494   1.142  15.358 -0.3089 -0.1196  0.0661
   23MPD2    H7  363   4.453   1.049  15.365  0.4113 -0.4574 -0.2128
   24TCq2    C1  364   4.210   1.114  14.909  0.3240 -0.7915  0.0200
   24TCq2    O2  365   4.191   1.034  15.000 -0.2003  0.4841 -0.4356
   24TCq2    C2  366   4.128   1.104  14.789  0.1412 -0.2657 -0.4657
   24TCq2    C3  367   4.120   1.208  14.699  0.3475 -0.0182  0.0531
   24TCq2    C4  368   4.043   1.189  14.591  0.1296  0.3588  0.0316
   24TCq2    C5  369   3.960   1.080  14.583  0.0203 -0.4562  0.1231
   24TCq2    C6  370   3.962   0.985  14.682  0.4477  0.2062  0.1085
   24TCq2    C7  371   4.052   0.992  14.783 -0.3171 -0.0444 -0.2373
   24TCq2    C8  372   3.898   0.855  14.661 -0.4086 -0.4252 -0.3197
   24TCq2    O4  373   3.943   0.760  14.724  0.2061 -0.3051 -0.2885
   24TCq2    C9  374   4.016   1.298  14.495 -0.3270  0.3880  0.3017
   24TCq2    O5  375   4.120   1.361  14.458 -0.2730 -0.2377 -0.0272
   24TCq2    O6  376   3.901   1.294  14.442 -0.1509  0.0639 -0.2108
   24TCq2    H2  377   4.178   1.299  14.714 -1.6029  1.4797 -1.3800
   24TCq2    H3  378   3.886   1.081  14.504 -0.4722  0.4202  0.5998
   24TCq2    H4  379   4.065   0.913  14.855  1.3183  0.5236  0.0997
   25TMC2    C1  380   3.504   3.174  11.690 -0.0236 -0.1165 -0.0799
   25TMC2    C2  381   3.538   3.303  11.723  0.7044 -0.6810  0.2093
   25TMC2    C3  382   3.449   3.377  11.788  0.1123 -0.3607  0.0448
   25TMC2    C4  383   3.387   3.116  11.731 -0.2981  0.9156 -0.0878
   25TMC2    C5  384   3.301   3.198  11.799  0.2847 -0.6694 -0.2228
   25TMC2    C6  385   3.327   3.326  11.837 -0.1091 -0.4153 -0.0333
   25TMC2     C  386   3.610   3.089  11.634 -0.5066  0.0949 -0.5146
   25TMC2     O  387   3.722   3.142  11.632  0.6981  0.0220  0.2952
   25TMC2     H  388   3.620   3.354  11.673 -0.7476  0.2883 -1.1900
   25TMC2    H1  389   3.365   3.010  11.728  1.5477  0.5171  0.1513
   25TMC2    H2  390   3.255   3.378  11.898  0.1603 -0.4835  0.3454
   25TMC2    C7  391   3.179   3.142  11.858  0.7763 -0.2777  0.5184
   25TMC2    C8  392   3.488   3.495  11.851  0.0515  0.0665 -0.4301
   25TMC2    O1  393   3.151   3.189  11.967 -0.2346  0.8555  0.1407
   25TMC2    O2  394   3.395   3.579  11.871 -0.2101  0.0832  0.0286
   25TMC2    O5  395   3.601   3.485  11.916 -0.1329  0.1225  0.5613
   25TMC2    H5  396   3.667   3.415  11.896  0.9298  1.7395 -1.6506
   26MPD2     C  397   3.759   2.658  11.395  0.0772 -0.1984  0.5865
   26MPD2    C1  398   3.619   2.660  11.394 -0.5737 -0.5315 -0.0059
   26MPD2    C2  399   3.557   2.774  11.449 -0.2602  0.0999 -0.5615
   26MPD2    C3  400   3.631   2.874  11.511  0.0582  0.4017 -0.0293
   26MPD2    C4  401   3.766   2.868  11.514  0.0976  0.6822 -0.2001
   26MPD2    C5  402   3.831   2.762  11.452 -0.3383  0.3046  0.1377
   26MPD2     H  403   3.450   2.786  11.460 -0.2053 -0.2777  0.3619
   26MPD2    H1  404   3.829   2.947  11.554  0.5167  0.5454 -0.5832
   26MPD2    H2  405   3.815   2.581  11.343  1.2130 -1.4029  3.5886
   26MPD2    H3  406   3.939   2.768  11.449 -0.2860 -0.9227 -0.2765
   26MPD2     N  407   3.560   2.984  11.571 -0.1537 -0.4540  0.3105
   26MPD2    H5  408   3.462   2.965  11.557 -0.6040  2.3984 -0.4216
   26MPD2    N1  409   3.555   2.549  11.346  0.0509 -0.2808  0.6452
   26MPD2    H7  410   3.624   2.483  11.313  0.0767  1.7307 -3.3790
   27TMC2    C1  411   2.181   0.170  12.175  0.2784  0.3254  0.4053
   27TMC2    C2  412   2.224   0.163  12.044  0.0244  0.2303 -1.0912
   27TMC2    C3  413   2.344   0.216  12.017  0.8077 -0.2109 -0.1561
   27TMC2    C4  414   2.247   0.238  12.262  0.3368  0.8031 -0.0208
   27TMC2    C5  415   2.373   0.281  12.235 -0.3041  0.3502 -0.4597
   27TMC2    C6  416   2.418   0.280  12.109  0.5330 -0.2638  0.6834
   27TMC2     C  417   2.067   0.093  12.214  0.5417 -0.5420  0.0728
   27TMC2     O  418   2.045   4.719  12.147 -0.7736 -0.1039 -0.2682
   27TMC2     H  419   2.173   0.113  11.963 -1.7453 -1.1327  0.8877
   27TMC2    H1  420   2.210   0.263  12.361 -0.2140  0.0072 -0.0211
   27TMC2    H2  421   2.518   0.317  12.093  0.6912 -0.8289  0.3581
   27TMC2    C7  422   2.444   0.337  12.348 -0.3626 -0.1791 -0.2919
   27TMC2    C8  423   2.369   0.241  11.871 -0.0018  0.7225  0.7826
   27TMC2    O1  424   2.416   0.297  12.460  0.4786  0.3386 -0.1034
   27TMC2    O2  425   2.356   0.156  11.781  0.7662  0.0560  0.0989
   27TMC2    O5  426   2.432   0.359  11.864 -0.2086 -0.1399  0.5540
   27TMC2    H5  427   2.422   0.412  11.946  1.7950 -2.3785  2.2297
   28MPD2     C  428   1.710   4.659  12.535 -0.0297 -0.2974 -0.0833
   28MPD2    C1  429   1.739   0.063  12.570 -0.2427  0.2378 -0.2023
   28MPD2    C2  430   1.835   0.131  12.498 -0.3905  0.0550 -0.4179
   28MPD2    C3  431   1.905   0.066  12.399  0.2037 -0.3398 -0.1956
   28MPD2    C4  432   1.870   4.662  12.362 -0.1209 -0.1280 -0.2095
   28MPD2    C5  433   1.770   4.594  12.428 -0.8119 -0.0369  0.0363
   28MPD2     H  434   1.852   0.234  12.526  1.5069 -0.2576 -0.4454
   28MPD2    H1  435   1.897   4.613  12.269  0.8868  1.1837 -0.5920
   28MPD2    H2  436   1.638   4.595  12.585  1.2922 -2.1139 -0.5058
   28MPD2    H3  437   1.738   4.494  12.400  2.1333 -0.8780 -0.3623
   28MPD2     N  438   2.003   0.143  12.328  0.1405 -0.2234 -0.3810
   28MPD2    H5  439   2.023   0.238  12.360  0.5661 -1.0058  1.6724
   28MPD2    N1  440   1.678   0.114  12.682  0.1304 -0.1494 -0.7875
   28MPD2    H7  441   1.613   0.050  12.728 -0.0010  1.0236  0.6470
   29MPD2     C  442   1.479   2.344  14.219 -0.8814 -0.7044  0.1847
   29MPD2    C1  443   1.566   2.328  14.321 -0.6840 -0.5403 -0.1550
   29MPD2    C2  444   1.615   2.435  14.389  0.0323  0.4879  0.6969
   29MPD2    C3  445   1.571   2.566  14.353  0.0560  0.1981  0.4158
   29MPD2    C4  446   1.490   2.583  14.245  0.4910 -0.8837  0.1995
   29MPD2    C5  447   1.440   2.474  14.187  0.1078  0.2299  0.0889
   29MPD2     H  448   1.689   2.406  14.462  0.6261  0.8351  0.2361
   29MPD2    H1  449   1.448   2.680  14.222 -0.4590 -1.6418 -1.2328
   29MPD2    H2  450   1.447   2.265  14.152 -0.0625 -0.0439 -0.9834
   29MPD2    H3  451   1.377   2.490  14.100 -1.3106  2.1678  1.4916
   29MPD2     N  452   1.624   2.681  14.414  0.0109 -0.2192 -0.2234
   29MPD2    H5  453   1.587   2.768  14.376 -0.5000 -0.4641 -0.2758
   29MPD2    N1  454   1.615   2.203  14.361 -0.8518  0.3732 -0.3401
   29MPD2    H7  455   1.684   2.205  14.435 -1.6005 -0.5499  0.3838
   30TCq2    C1  456   1.690   2.679  14.537 -0.9999  0.4602 -0.6450
   30TCq2    O2  457   1.697   2.591  14.623  0.1554  0.0728  0.0902
   30TCq2    C2  458   1.721   2.809  14.588  0.6137  0.3837 -0.3596
   30TCq2    C3  459   1.721   2.827  14.726  0.0116  0.3128 -0.6151
   30TCq2    C4  460   1.798   2.929  14.773 -0.0177 -0.2756 -0.1584
   30TCq2    C5  461   1.863   3.011  14.685 -0.5072 -0.1438  0.1210
   30TCq2    C6  462   1.857   2.995  14.552  0.5536  0.1411  0.5878
   30TCq2    C7  463   1.789   2.885  14.499  0.1178  0.8215 -0.2664
   30TCq2    C8  464   1.901   3.098  14.463 -0.1659 -0.8155 -0.4645
   30TCq2    O4  465   1.844   3.091  14.358  0.5848  0.5423 -0.2692
   30TCq2    C9  466   1.804   2.959  14.913 -0.4152 -0.7085 -0.1899
   30TCq2    O5  467   1.773   2.866  14.989 -0.1633 -0.5151  0.5073
   30TCq2    O6  468   1.820   3.083  14.936 -0.1351  0.5218  0.0910
   30TCq2    H2  469   1.669   2.772  14.803  1.3128  0.5510  0.4531
   30TCq2    H3  470   1.917   3.095  14.725  0.0544 -0.2930 -0.3111
   30TCq2    H4  471   1.789   2.867  14.392 -0.8325  0.4729 -0.2080
   31MPD2     C  472   4.017   1.519  14.887  0.5204  0.7148 -0.1545
   31MPD2    C1  473   4.106   1.612  14.943  0.2849 -0.0733  0.4065
   31MPD2    C2  474   4.174   1.588  15.067 -0.4615  0.9593  0.0778
   31MPD2    C3  475   4.131   1.477  15.138  0.3378  0.6252 -0.0731
   31MPD2    C4  476   4.044   1.388  15.082  0.6019  0.4696 -0.1345
   31MPD2    C5  477   3.992   1.406  14.955 -0.1425 -0.0946 -0.3537
   31MPD2     H  478   4.238   1.661  15.114 -0.1729  0.5524  0.3108
   31MPD2    H1  479   4.027   1.294  15.134 -0.2065  0.9161  0.4090
   31MPD2    H2  480   3.972   1.525  14.789 -0.0903  1.0077  0.1465
   31MPD2    H3  481   3.932   1.326  14.915  1.4187 -1.2167 -0.4669
   31MPD2     N  482   4.159   1.449  15.271 -0.5498  0.1929  0.6266
   31MPD2    H5  483   4.115   1.368  15.312  1.3995 -1.2763 -0.2114
   31MPD2    N1  484   4.124   1.724  14.855 -0.2228 -0.4432  0.0981
   31MPD2    H7  485   4.098   1.701  14.760  1.3010 -2.1048  0.0806
   32TCq2    C1  486   4.228   1.525  15.365  0.1353  0.0216  0.3643
   32TCq2    O2  487   4.303   1.621  15.356  0.8469 -0.1945  0.1123
   32TCq2    C2  488   4.179   1.499  15.497 -0.1683 -0.1366  0.3071
   32TCq2    C3  489   4.055   1.563  15.528  0.5225 -0.6285  0.3873
   32TCq2    C4  490   4.026   1.583  15.658  1.3400 -0.6796 -0.3365
   32TCq2    C5  491   4.106   1.541  15.755 -0.0905  0.4941 -0.7115
   32TCq2    C6  492   4.227   1.488  15.720  0.0337  1.4968 -0.3383
   32TCq2    C7  493   4.267   1.466  15.595 -0.1607  0.1336  0.3648
   32TCq2    C8  494   4.313   1.435  15.821  0.4400 -0.0275 -0.2259
   32TCq2    O4  495   4.391   1.341  15.794 -0.4027  0.5404 -0.3629
   32TCq2    C9  496   3.894   1.641  15.685 -0.2305  0.0562  0.0054
   32TCq2    O5  497   3.859   1.665  15.806  0.2544  0.8766 -0.3398
   32TCq2    O6  498   3.806   1.634  15.588  0.0806 -0.2998  0.6647
   32TCq2    H2  499   3.996   1.618  15.456 -0.1856 -2.3128 -0.3265
   32TCq2    H3  500   4.085   1.564  15.859 -0.8880  1.6990 -1.1438
   32TCq2    H4  501   4.366   1.432  15.566 -0.0602 -0.3386  1.2601
   33MPD2     C  502   0.403   3.462   9.859 -0.6652 -0.4678  0.2192
   33MPD2    C1  503   0.351   3.358   9.789 -0.5521 -0.4465  0.2562
   33MPD2    C2  504   0.280   3.396   9.673  1.0906  0.0333 -0.5122
   33MPD2    C3  505   0.272   3.529   9.621  0.6406 -0.2527  0.9567
   33MPD2    C4  506   0.341   3.620   9.690  0.1069  0.0520 -0.0629
   33MPD2    C5  507   0.405   3.589   9.805 -0.1367  0.0918 -0.0868
   33MPD2     H  508   0.224   3.325   9.612 -1.2107  0.3084  1.2575
   33MPD2    H1  509   0.351   3.719   9.646  3.4370  0.4466  1.6119
   33MPD2    H2  510   0.440   3.445   9.960 -2.2092 -0.1730  0.8263
   33MPD2    H3  511   0.444   3.676   9.856  0.1057 -0.0295 -0.0642
   33MPD2     N  512   0.223   3.580   9.496  0.3591  0.2066  0.3719
   33MPD2    H5  513   0.210   3.680   9.490 -0.6487  0.1287  1.1721
   33MPD2    N1  514   0.347   3.239   9.861  0.1349 -0.1026  0.3963
   33MPD2    H7  515   0.397   3.237   9.950 -0.9668 -1.1497  0.9830
   34TCq2    C1  516   0.177   3.500   9.398  0.8300 -0.0114 -0.2797
   34TCq2    O2  517   0.176   3.376   9.396 -0.3264  0.4197  0.3761
   34TCq2    C2  518   0.091   3.571   9.302  0.0219 -0.4725  0.1252
   34TCq2    C3  519   4.703   3.506   9.261  0.0054  0.3269 -0.0347
   34TCq2    C4  520   4.607   3.577   9.192 -0.7659 -0.1353 -0.4926
   34TCq2    C5  521   4.630   3.702   9.150 -0.0962 -0.1437 -0.1100
   34TCq2    C6  522   0.023   3.764   9.185 -0.3658  0.3473  0.4264
   34TCq2    C7  523   0.108   3.704   9.268 -0.8883 -0.4152 -0.4268
   34TCq2    C8  524   0.045   3.903   9.159  0.3045 -0.0217 -0.5378
   34TCq2    O4  525   0.127   3.954   9.235  0.2787 -0.1079  0.0559
   34TCq2    C9  526   4.473   3.517   9.175  0.7167  0.6361  0.0381
   34TCq2    O5  527   4.447   3.406   9.234 -0.1889 -0.7342 -0.0892
   34TCq2    O6  528   4.390   3.581   9.098  0.2748 -0.4350 -0.2170
   34TCq2    H2  529   4.695   3.400   9.287 -1.5290  0.6616  0.8361
   34TCq2    H3  530   4.547   3.749   9.099  0.2240 -0.4856 -0.9584
   34TCq2    H4  531   0.194   3.757   9.307 -0.5414 -0.6907 -0.8180
   35MPD2     C  532   1.696   0.616  11.800  0.3740  0.6563 -0.1053
   35MPD2    C1  533   1.649   0.515  11.876  0.1802  0.0595  0.6382
   35MPD2    C2  534   1.554   0.426  11.823 -0.1316 -0.0513 -0.0318
   35MPD2    C3  535   1.494   0.451  11.704  0.0425  0.4240 -0.0014
   35MPD2    C4  536   1.535   0.558  11.629  0.3036 -0.7132  0.3133
   35MPD2    C5  537   1.639   0.637  11.677 -0.0015  0.7493 -0.1528
   35MPD2     H  538   1.520   0.341  11.881  0.0610  0.4938  0.8914
   35MPD2    H1  539   1.485   0.585  11.537 -0.4346 -0.7313  0.7079
   35MPD2    H2  540   1.774   0.686  11.829  0.4728  0.1275  0.9248
   35MPD2    H3  541   1.674   0.724  11.622  1.9831  0.7204  1.0653
   35MPD2     N  542   1.372   0.379  11.669  0.5062 -0.0128 -0.4988
   35MPD2    H5  543   1.351   0.317  11.746  2.7590  0.1201  0.2356
   35MPD2    N1  544   1.720   0.493  11.999  0.3658 -0.5183 -0.2841
   35MPD2    H7  545   1.806   0.547  11.995 -0.9412  1.8857  4.4201
   36TCq2    C1  546   1.277   0.404  11.569 -0.2248 -0.2219 -0.0431
   36TCq2    O2  547   1.272   0.488  11.481  0.3772 -0.4866 -1.0883
   36TCq2    C2  548   1.158   0.316  11.573 -0.6250  0.6318  1.3753
   36TCq2    C3  549   1.056   0.340  11.488  0.0311 -0.0606  0.3389
   36TCq2    C4  550   0.929   0.291  11.509  0.0451 -0.6559  0.0300
   36TCq2    C5  551   0.899   0.218  11.621  0.1126 -0.5652  0.2216
   36TCq2    C6  552   1.000   0.203  11.716 -0.4596  0.1358  0.2947
   36TCq2    C7  553   1.122   0.243  11.688 -0.1908 -0.2150  0.1681
   36TCq2    C8  554   0.967   0.114  11.822  0.2271  0.6700  0.4455
   36TCq2    O4  555   0.859   0.058  11.817  0.0555 -0.1131  0.3661
   36TCq2    C9  556   0.824   0.298  11.417 -0.4392  0.1649  0.7335
   36TCq2    O5  557   0.844   0.334  11.301  0.5877  0.3468  0.1075
   36TCq2    O6  558   0.711   0.242  11.447  0.8493  0.1811 -0.4926
   36TCq2    H2  559   1.075   0.406  11.404  0.7258 -1.4978 -0.6341
   36TCq2    H3  560   0.799   0.178  11.639 -1.2282  1.8078 -1.9429
   36TCq2    H4  561   1.203   0.219  11.757  0.7635 -0.1828 -0.9334
   37TMC2    C1  562   3.275   0.980  11.875  0.2189 -0.1182 -0.3637
   37TMC2    C2  563   3.266   0.969  11.742  0.0880 -0.2398  0.0187
   37TMC2    C3  564   3.371   0.942  11.655 -0.1203 -0.0700 -0.3034
   37TMC2    C4  565   3.397   0.957  11.937  0.7591  0.8298  0.5828
   37TMC2    C5  566   3.505   0.930  11.853 -0.1227 -0.2604 -0.7374
   37TMC2    C6  567   3.495   0.927  11.711  1.1001  0.5329  0.1193
   37TMC2     C  568   3.155   0.990  11.956  0.4206  0.0615 -0.6216
   37TMC2     O  569   3.076   1.081  11.935 -0.0365 -0.0427  0.0719
   37TMC2     H  570   3.173   0.999  11.697 -0.1822 -1.6993 -0.3929
   37TMC2    H1  571   3.407   0.961  12.044 -0.2126 -0.7597  0.7371
   37TMC2    H2  572   3.575   0.933  11.638  1.3254 -0.1195  0.3174
   37TMC2    C7  573   3.628   0.884  11.912 -0.2580  0.1876 -0.1043
   37TMC2    C8  574   3.354   1.024  11.539  0.1583  0.4092  0.7627
   37TMC2    O1  575   3.639   0.888  12.034  0.0861  0.0919  0.0331
   37TMC2    O2  576   3.346   1.147  11.550  0.2168 -0.5027  0.2076
   37TMC2    O5  577   3.273   0.946  11.467 -0.0698 -0.1010  0.3040
   37TMC2    H5  578   3.276   0.857  11.509  1.8124  0.7337  1.8897
   38MPD2     C  579   3.009   0.943  12.445 -0.4037  0.1484  0.2176
   38MPD2    C1  580   3.108   0.851  12.423  0.8547  0.7552 -0.8173
   38MPD2    C2  581   3.165   0.850  12.297 -0.6730 -0.1348  0.3156
   38MPD2    C3  582   3.120   0.934  12.198 -0.1740  0.6667  0.0689
   38MPD2    C4  583   3.022   1.031  12.225 -0.2829  0.4152  0.5666
   38MPD2    C5  584   2.967   1.035  12.349 -0.0339 -0.1817  0.3302
   38MPD2     H  585   3.233   0.771  12.268 -1.1259  0.2606 -1.8699
   38MPD2    H1  586   2.980   1.098  12.150  0.0532  1.1149  0.9984
   38MPD2    H2  587   2.964   0.959  12.542 -0.9477 -0.2939  0.0377
   38MPD2    H3  588   2.896   1.113  12.374 -0.8993 -1.1433  0.8772
   38MPD2     N  589   3.179   0.910  12.068  0.1860  0.6585  0.7464
   38MPD2    H5  590   3.251   0.839  12.066  0.1238  0.6396 -0.7593
   38MPD2    N1  591   3.154   0.770  12.529 -0.2027  0.2826  0.2400
   38MPD2    H7  592   3.233   0.710  12.506 -0.7899 -0.5800  0.4812
   39MPD2     C  593   2.191   2.819   1.459  0.4137 -0.1990  0.3105
   39MPD2    C1  594   2.114   2.896   1.547 -0.4871 -0.1785 -0.3119
   39MPD2    C2  595   1.980   2.914   1.516  0.1176 -0.3626 -0.2967
   39MPD2    C3  596   1.920   2.847   1.413  0.5652  0.3197  0.0866
   39MPD2    C4  597   1.996   2.771   1.327  0.7728  0.1299 -0.7334
   39MPD2    C5  598   2.123   2.748   1.359  0.7464  0.0733  0.1637
   39MPD2     H  599   1.927   2.978   1.585 -0.0935  0.1227 -0.9126
   39MPD2    H1  600   1.943   2.708   1.257 -0.1991 -0.7523  0.8044
   39MPD2    H2  601   2.297   2.803   1.472  0.3182 -1.3236 -0.2986
   39MPD2    H3  602   2.185   2.680   1.301 -0.6642 -2.3762  1.5619
   39MPD2     N  603   1.781   2.859   1.385 -0.2755 -0.9901  0.9183
   39MPD2    H5  604   1.752   2.827   1.293  0.7971  0.3208  0.1192
   39MPD2    N1  605   2.184   2.969   1.648  0.0798  0.4768  0.2838
   39MPD2    H7  606   2.283   2.948   1.656 -0.4514 -2.1890 -0.3652
   40TCq2    C1  607   2.123   3.066   1.730 -0.7093  0.2261  0.1218
   40TCq2    O2  608   2.013   3.119   1.723 -0.2544 -0.0552 -0.1625
   40TCq2    C2  609   2.215   3.139   1.822 -0.2588  0.0542 -0.0097
   40TCq2    C3  610   2.169   3.229   1.913 -0.8090  0.6474  0.0147
   40TCq2    C4  611   2.257   3.294   1.991 -0.1330  0.4814 -1.1317
   40TCq2    C5  612   2.393   3.269   1.976  0.1395  0.2624 -1.3038
   40TCq2    C6  613   2.438   3.173   1.888  0.2398  0.7578  0.1891
   40TCq2    C7  614   2.352   3.108   1.808 -0.3025 -0.0640  0.0756
   40TCq2    C8  615   2.580   3.176   1.866  0.5377 -0.7678  0.1114
   40TCq2    O4  616   2.630   3.081   1.809 -0.0923  0.2072 -0.1394
   40TCq2    C9  617   2.212   3.395   2.082  0.6403 -0.3289  0.5320
   40TCq2    O5  618   2.302   3.440   2.154 -0.0254  1.0509  0.2776
   40TCq2    O6  619   2.092   3.389   2.113 -0.2516 -0.5499 -0.2952
   40TCq2    H2  620   2.063   3.251   1.926 -0.8779  1.4515 -1.8978
   40TCq2    H3  621   2.452   3.323   2.049 -1.5051  0.4060 -0.0760
   40TCq2    H4  622   2.391   3.021   1.756 -0.6354 -0.4340  0.4418
   41TMC2    C1  623   0.006   0.733  13.874  1.5176  0.7497  0.2735
   41TMC2    C2  624   0.137   0.732  13.924 -0.0365 -0.1888 -0.2035
   41TMC2    C3  625   0.239   0.684  13.840  0.2631 -0.5477 -0.1765
   41TMC2    C4  626   4.704   0.689  13.751 -0.5424 -0.9669 -0.6629
   41TMC2    C5  627   0.083   0.639  13.668 -0.1277 -0.6306  0.1585
   41TMC2    C6  628   0.215   0.630  13.714  1.1515 -1.0225  0.4443
   41TMC2     C  629   4.628   0.754  13.972 -0.3368 -0.2093  0.1043
   41TMC2     O  630   4.520   0.740  13.918 -0.2650  0.0204  0.0807
   41TMC2     H  631   0.172   0.766  14.020 -0.1855  0.9924 -0.5643
   41TMC2    H1  632   4.604   0.690  13.709 -0.6424  0.2189 -0.3965
   41TMC2    H2  633   0.295   0.610  13.644  0.0234 -2.0828 -0.5584
   41TMC2    C7  634   0.048   0.591  13.534 -1.0559  0.2244 -0.1332
   41TMC2    C8  635   0.374   0.730  13.883  0.6620  0.4806 -0.5637
   41TMC2    O1  636   4.687   0.661  13.484  0.4384  0.1403 -0.3888
   41TMC2    O2  637   0.389   0.810  13.974 -0.0072 -0.2563  0.1656
   41TMC2    O5  638   0.453   0.624  13.851 -0.1796 -0.0201 -0.6628
   41TMC2    H5  639   0.423   0.573  13.774 -0.2408 -1.4743  0.3231
   42MPD2     C  640   4.462   0.717  14.216  0.2996 -0.0614 -0.4751
   42MPD2    C1  641   4.596   0.741  14.219  0.1507 -1.0371 -0.0002
   42MPD2    C2  642   4.664   0.731  14.340 -0.0357  0.0059  0.0294
   42MPD2    C3  643   4.595   0.678  14.450 -0.1580 -0.2737 -0.2910
   42MPD2    C4  644   4.469   0.634  14.442 -0.7636  0.4082 -0.0225
   42MPD2    C5  645   4.401   0.668  14.327  1.0205 -0.0338 -0.2153
   42MPD2     H  646   0.046   0.752  14.345 -0.2878  0.6101  2.7957
   42MPD2    H1  647   4.410   0.588  14.521  0.9173 -1.4011  0.1745
   42MPD2    H2  648   4.411   0.722  14.120 -2.2801  0.5797  0.9363
   42MPD2    H3  649   4.303   0.629  14.304 -0.3649  2.8884  0.7649
   42MPD2     N  650   4.654   0.645  14.570  0.3242  0.1673 -0.1020
   42MPD2    H5  651   4.595   0.588  14.630 -0.4200  0.8420 -0.1820
   42MPD2    N1  652   4.672   0.773  14.101 -0.5114  0.4333 -0.0155
   42MPD2    H7  653   0.047   0.788  14.115 -0.3553 -2.7355  2.5059
   43MPD2     C  654   2.184   4.407   0.476  0.2151 -0.7451  0.4234
   43MPD2    C1  655   2.225   4.371   0.603  0.5826  0.3017  0.3491
   43MPD2    C2  656   2.152   4.411   0.715 -0.3496  0.5718 -0.1550
   43MPD2    C3  657   2.030   4.477   0.701 -0.5018  0.2606 -0.5234
   43MPD2    C4  658   1.994   4.515   0.575  0.6455 -0.9348  0.0197
   43MPD2    C5  659   2.066   4.477   0.465 -0.0239 -0.3686 -0.5473
   43MPD2     H  660   2.178   4.363   0.809  1.2176  2.0245  0.1605
   43MPD2    H1  661   1.908   4.580   0.566  1.0976 -0.4268 -0.6508
   43MPD2    H2  662   2.234   4.379   0.385 -1.4245  0.5592 -0.8890
   43MPD2    H3  663   2.041   4.509   0.364 -2.1939  0.8663  0.4040
   43MPD2     N  664   1.949   4.513   0.809  0.0317 -0.0476  0.7068
   43MPD2    H5  665   1.863   4.560   0.785 -1.6876 -2.9438  1.1473
   43MPD2    N1  666   2.350   4.299   0.626 -0.3283 -0.2100  0.3098
   43MPD2    H7  667   2.375   4.285   0.724 -1.3692  0.8573  0.7323
   44TCq2    C1  668   1.888   4.620   1.380 -0.2850  0.4387  0.6354
   44TCq2    O2  669   2.008   4.587   1.390 -0.0938 -0.0616  0.0384
   44TCq2    C2  670   1.819   4.593   1.256 -0.1100  0.1220 -0.1357
   44TCq2    C3  671   1.707   4.654   1.212 -0.2184 -0.3033  0.3202
   44TCq2    C4  672   1.675   4.667   1.079 -0.6742  0.7456 -0.0892
   44TCq2    C5  673   1.756   4.619   0.980 -0.3665 -0.2837  0.4431
   44TCq2    C6  674   1.870   4.546   1.028 -0.2763  0.0063  0.3552
   44TCq2    C7  675   1.897   4.532   1.162 -0.8369  0.1606 -0.0494
   44TCq2    C8  676   1.972   4.494   0.941 -0.7806 -0.1306  0.1819
   44TCq2    O4  677   2.069   4.444   0.995 -0.1692  0.0945 -0.1469
   44TCq2    C9  678   1.562   0.023   1.050  0.1594  0.6225 -0.1590
   44TCq2    O5  679   1.532   0.109   1.138 -0.1279 -0.6245  0.6933
   44TCq2    O6  680   1.539   0.044   0.931  0.3512 -0.3651 -0.3953
   44TCq2    H2  681   1.633   4.691   1.281 -0.9179 -0.7285 -0.2054
   44TCq2    H3  682   1.732   4.640   0.877 -0.9719 -0.7608  0.4870
   44TCq2    H4  683   1.981   4.473   1.196 -1.5068 -1.0783 -0.5609
   45TMC2    C1  684   2.837   1.112   9.593  0.9071 -0.0117  0.7855
   45TMC2    C2  685   2.792   1.167   9.474  0.2238  0.9282 -0.1240
   45TMC2    C3  686   2.879   1.235   9.403 -0.4093 -0.3968  0.3265
   45TMC2    C4  687   2.963   1.136   9.639  1.0829  0.1572  0.2241
   45TMC2    C5  688   3.050   1.197   9.559  0.1303 -0.5037  0.2154
   45TMC2    C6  689   3.012   1.254   9.444  0.0316 -0.0575  0.6946
   45TMC2     C  690   2.749   1.042   9.681 -0.3983  0.6607  0.7054
   45TMC2     O  691   2.783   1.045   9.798  0.1970  0.2048  0.7248
   45TMC2     H  692   2.686   1.183   9.462 -0.3813 -1.0090  2.6732
   45TMC2    H1  693   2.991   1.076   9.725  0.7997  2.7836  2.1455
   45TMC2    H2  694   3.077   1.317   9.383 -1.4566 -0.9633 -1.7859
   45TMC2    C7  695   3.186   1.220   9.594 -0.2131 -0.2416 -0.5069
   45TMC2    C8  696   2.837   1.285   9.274 -0.6979  0.2696 -0.0081
   45TMC2    O1  697   3.262   1.272   9.512  0.0268 -0.5505  0.2355
   45TMC2    O2  698   2.880   1.384   9.217  0.2777  0.3662  0.2313
   45TMC2    O5  699   2.731   1.207   9.233 -0.4876 -0.2107 -0.5037
   45TMC2    H5  700   2.709   1.135   9.296 -1.5045  0.2500 -0.3483
   46MPD2     C  701   2.551   0.845   9.800  1.1313 -0.3220 -0.2834
   46MPD2    C1  702   2.550   0.883   9.669  0.5613 -0.2316  0.3949
   46MPD2    C2  703   2.459   0.817   9.581 -0.2451  0.7369 -0.0340
   46MPD2    C3  704   2.365   0.723   9.620  0.2891  0.0395 -0.1353
   46MPD2    C4  705   2.376   0.678   9.750 -0.3554 -0.0226 -0.0749
   46MPD2    C5  706   2.464   0.746   9.834  0.4185 -0.3835  0.3518
   46MPD2     H  707   2.454   0.843   9.476 -3.1075 -1.9977 -0.5595
   46MPD2    H1  708   2.313   0.598   9.786 -0.2201 -0.1093 -0.0319
   46MPD2    H2  709   2.624   0.879   9.871 -0.8028 -0.5873  1.8198
   46MPD2    H3  710   2.475   0.709   9.936  1.1342  1.4121  0.9246
   46MPD2     N  711   2.267   0.676   9.529 -0.0129 -0.0798 -0.4924
   46MPD2    H5  712   2.260   0.723   9.440 -2.5963  0.8853  0.2234
   46MPD2    N1  713   2.644   0.979   9.614  0.6171  0.3361  0.2540
   46MPD2    H7  714   2.634   0.985   9.513 -0.7821  0.3732  0.3986
   47TMC2    C1  715   4.108   1.248   9.666 -0.1954 -0.4024 -0.4134
   47TMC2    C2  716   4.137   1.122   9.620 -0.0857  0.0213  0.0417
   47TMC2    C3  717   4.031   1.058   9.568 -0.4402 -1.1341 -0.6266
   47TMC2    C4  718   3.991   1.316   9.649 -0.0079  0.0242  0.4164
   47TMC2    C5  719   3.893   1.241   9.588  1.4218  0.2139 -0.4521
   47TMC2    C6  720   3.907   1.112   9.552 -0.3686 -0.5527 -0.0923
   47TMC2     C  721   4.220   1.332   9.715 -0.1462 -0.2832 -0.6954
   47TMC2     O  722   4.202   1.431   9.778 -0.0638 -0.0958 -0.2420
   47TMC2     H  723   4.233   1.075   9.642 -0.5034 -0.8174  0.0743
   47TMC2    H1  724   3.984   1.414   9.693  0.5706  0.5371 -0.6370
   47TMC2    H2  725   3.827   1.058   9.503  0.3742 -0.6855 -1.1423
   47TMC2    C7  726   3.784   1.312   9.520  0.1980 -0.0330  0.1467
   47TMC2    C8  727   4.057   0.926   9.504 -0.0790  0.3872  0.1414
   47TMC2    O1  728   3.687   1.242   9.483 -0.5551 -0.0964 -0.6036
   47TMC2    O2  729   3.967   0.850   9.475 -0.7323  0.1900  0.2644
   47TMC2    O5  730   4.180   0.921   9.446 -0.5090  0.3399 -0.1654
   47TMC2    H5  731   4.246   0.987   9.476  1.1579 -0.5244 -1.8976
   48MPD2     C  732   4.478   1.387   9.860 -0.5257  0.8135  0.4906
   48MPD2    C1  733   4.471   1.314   9.747 -0.2925  0.0054 -0.4596
   48MPD2    C2  734   4.584   1.257   9.695  0.1273  0.4774  0.1631
   48MPD2    C3  735   4.708   1.284   9.741  0.3314 -0.1718 -0.5288
   48MPD2    C4  736   4.715   1.363   9.848  0.0014  0.1886 -1.2169
   48MPD2    C5  737   4.603   1.401   9.917  0.4868 -0.5490 -0.1256
   48MPD2     H  738   4.578   1.197   9.604  0.7256 -0.9572  1.0779
   48MPD2    H1  739   0.082   1.401   9.891 -0.7009  0.3397  0.1499
   48MPD2    H2  740   4.397   1.424   9.923 -0.1610  3.1011 -0.3867
   48MPD2    H3  741   4.601   1.448  10.015  0.6317 -0.8511  0.0229
   48MPD2     N  742   0.089   1.209   9.683 -0.6068  0.3077  0.3217
   48MPD2    H5  743   0.065   1.151   9.603  2.5951  1.0227 -1.1488
   48MPD2    N1  744   4.350   1.281   9.681  0.0284  0.4640 -0.0901
   48MPD2    H7  745   4.355   1.204   9.615 -0.1812 -0.2398  0.7161
   49MPD2     C  746   3.905   2.666  11.052 -0.5008 -0.1573  0.2037
   49MPD2    C1  747   3.771   2.707  11.051  0.0874 -0.8258 -0.0833
   49MPD2    C2  748   3.746   2.836  11.094 -0.4360  0.0429  0.5363
   49MPD2    C3  749   3.843   2.924  11.146 -0.1707  0.3332 -0.2125
   49MPD2    C4  750   3.976   2.874  11.147 -1.0667  0.1796  1.2872
   49MPD2    C5  751   4.002   2.753  11.101  0.5188 -0.2474 -0.4656
   49MPD2     H  752   3.642   2.867  11.094 -0.3362  0.3735 -0.5740
   49MPD2    H1  753   4.059   2.941  11.166 -0.7705  0.0823  0.3137
   49MPD2    H2  754   3.933   2.570  11.012  0.6826 -0.2032  1.1296
   49MPD2    H3  755   4.104   2.719  11.088  0.8930  0.4536  0.6468
   49MPD2     N  756   3.823   3.047  11.206 -0.1759  0.4759 -0.4633
   49MPD2    H5  757   3.897   3.087  11.263 -2.5238  0.7927  2.3950
   49MPD2    N1  758   3.661   2.640  10.998  0.1872 -0.6208  0.1325
   49MPD2    H7  759   3.578   2.698  11.004  1.6275  1.4975 -0.5725
   50TCq2    C1  760   3.663   2.518  10.932 -0.6238 -0.7300 -0.7093
   50TCq2    O2  761   3.766   2.456  10.900  0.6514 -0.2576 -0.1635
   50TCq2    C2  762   3.535   2.468  10.894  0.0516  0.1974  0.4901
   50TCq2    C3  763   3.426   2.515  10.955  0.0225  0.5250 -0.0371
   50TCq2    C4  764   3.308   2.452  10.927 -0.1989 -0.0897  0.0894
   50TCq2    C5  765   3.304   2.341  10.835 -0.3216 -0.4132  0.6115
   50TCq2    C6  766   3.422   2.297  10.776  0.8832 -0.3173  1.1430
   50TCq2    C7  767   3.544   2.362  10.803 -0.3236 -0.0416  0.0908
   50TCq2    C8  768   3.412   2.161  10.722 -0.4939 -0.0700  0.2725
   50TCq2    O4  769   3.307   2.104  10.738 -0.4533  0.3841  0.3833
   50TCq2    C9  770   3.182   2.508  10.971  0.2061  0.4158  0.5403
   50TCq2    O5  771   3.079   2.449  10.922  0.1771  0.9621 -0.1682
   50TCq2    O6  772   3.188   2.595  11.067  0.8440 -0.2522 -0.4995
   50TCq2    H2  773   3.431   2.585  11.038  1.3580  0.6258 -0.2072
   50TCq2    H3  774   3.210   2.294  10.813 -0.1550 -0.9599  1.0780
   50TCq2    H4  775   3.633   2.311  10.768 -0.5417 -0.5560  0.2874
   51MPD2     C  776   3.467   3.303   0.734  0.2306  0.3822  0.0924
   51MPD2    C1  777   3.527   3.193   0.797  0.5102 -0.1764  0.2789
   51MPD2    C2  778   3.646   3.210   0.859 -0.4472 -0.2711  0.6881
   51MPD2    C3  779   3.720   3.332   0.860  0.2752  0.9424  0.3275
   51MPD2    C4  780   3.658   3.442   0.810 -0.0899  0.3611 -0.0115
   51MPD2    C5  781   3.538   3.424   0.739  0.0271  0.5575 -0.1550
   51MPD2     H  782   3.694   3.119   0.894 -0.9968 -1.0487 -0.5838
   51MPD2    H1  783   3.718   3.531   0.795 -0.3527  0.5496  0.0438
   51MPD2    H2  784   3.363   3.299   0.704  0.2366  0.2137  0.0966
   51MPD2    H3  785   3.489   3.516   0.707  1.3896  1.5663  0.6497
   51MPD2     N  786   3.847   3.344   0.923  0.4468  0.0779 -0.1184
   51MPD2    H5  787   3.899   3.431   0.922  1.5408 -0.5765 -0.2951
   51MPD2    N1  788   3.480   3.061   0.788 -0.9408  0.5759 -0.0925
   51MPD2    H7  789   3.531   2.996   0.847  0.9001  0.2955 -1.9880
   52TCq2    C1  790   3.921   3.240   0.969 -0.8483 -0.3272  0.6762
   52TCq2    O2  791   3.909   3.120   0.940  1.1069  0.2488 -0.2249
   52TCq2    C2  792   4.048   3.294   1.024 -0.3870 -0.8075 -0.0312
   52TCq2    C3  793   4.152   3.209   1.016 -0.3458 -0.3689 -0.1019
   52TCq2    C4  794   4.255   3.223   1.110 -0.9392 -0.0514  0.5541
   52TCq2    C5  795   4.251   3.320   1.204  0.0229 -0.6876  1.2272
   52TCq2    C6  796   4.141   3.401   1.212 -0.4882 -0.0452 -1.0873
   52TCq2    C7  797   4.033   3.388   1.121  0.1446  0.7187  0.5564
   52TCq2    C8  798   4.136   3.512   1.298  0.3159  0.0514  0.4499
   52TCq2    O4  799   4.242   3.571   1.307 -0.9029 -0.3912  0.8055
   52TCq2    C9  800   4.361   3.125   1.117  0.1735 -0.3049 -0.8717
   52TCq2    O5  801   4.464   3.165   1.182  0.1898 -0.1181 -0.4324
   52TCq2    O6  802   4.339   3.011   1.074  0.1501 -0.2308 -0.0499
   52TCq2    H2  803   4.156   3.130   0.942 -2.7894 -0.1693 -0.4683
   52TCq2    H3  804   4.331   3.330   1.277 -0.7442  1.7081  1.7481
   52TCq2    H4  805   3.943   3.445   1.136 -1.2714 -1.4149  0.1713
   53TMC2    C1  806   4.134   0.695  12.318 -0.6944  0.3918  0.4762
   53TMC2    C2  807   4.238   0.689  12.410 -0.3968  1.1170  1.0381
   53TMC2    C3  808   4.218   0.726  12.538  0.1453  0.2352  0.6192
   53TMC2    C4  809   4.013   0.740  12.363  0.2937  0.4524 -0.4498
   53TMC2    C5  810   3.992   0.762  12.498  0.3170 -0.0384 -0.3284
   53TMC2    C6  811   4.096   0.746  12.591 -0.1081 -0.0515 -0.6623
   53TMC2     C  812   4.167   0.689  12.175  0.6258  0.9187  0.6361
   53TMC2     O  813   4.244   0.604  12.136  0.6441 -0.2784 -0.4228
   53TMC2     H  814   4.337   0.666  12.372 -1.2078  2.1378 -1.7337
   53TMC2    H1  815   3.936   0.738  12.287  1.0490  1.1167 -1.2254
   53TMC2    H2  816   4.084   0.765  12.697  1.3983  1.6002 -0.8000
   53TMC2    C7  817   3.857   0.797  12.535 -0.0527  0.7110  0.2343
   53TMC2    C8  818   4.328   0.702  12.629 -0.1649  0.4374 -0.4476
   53TMC2    O1  819   3.780   0.833  12.442 -0.3483  0.2459  0.2459
   53TMC2    O2  820   4.369   0.784  12.710  0.3987 -0.1485  0.0941
   53TMC2    O5  821   4.378   0.576  12.620  0.8241  0.1868 -0.0698
   53TMC2    H5  822   4.318   0.520  12.567  0.7348  2.2377 -2.1458
   54MPD2     C  823   4.085   0.649  11.882 -0.1436 -0.0425 -0.3919
   54MPD2    C1  824   4.040   0.750  11.973 -0.1835  0.1657  0.3166
   54MPD2    C2  825   3.916   0.806  11.950 -0.6722  0.3703  0.5343
   54MPD2    C3  826   3.836   0.769  11.837 -0.4946 -0.5694  0.0057
   54MPD2    C4  827   3.888   0.678  11.751  0.1551 -0.5502  0.3906
   54MPD2    C5  828   4.005   0.623  11.773 -0.2305 -0.1096 -0.2362
   54MPD2     H  829   3.877   0.865  12.031 -1.4696 -0.9409  1.1160
   54MPD2    H1  830   3.829   0.640  11.668 -1.3072  0.4902  0.9533
   54MPD2    H2  831   4.178   0.596  11.896 -0.2638  0.0102  0.6320
   54MPD2    H3  832   4.034   0.543  11.706 -0.5156 -0.8232  0.4958
   54MPD2     N  833   3.712   0.828  11.818  0.8564  0.2845 -0.7771
   54MPD2    H5  834   3.667   0.807  11.729 -1.0724  0.4634  0.1445
   54MPD2    N1  835   4.089   0.777  12.104 -0.2937  0.9897 -0.8090
   54MPD2    H7  836   4.046   0.848  12.162  0.8925  0.8062  0.2951
   55MPD2     C  837   0.332   3.906  17.265  0.3408  0.1326 -0.7596
   55MPD2    C1  838   0.319   3.843  17.383 -0.2011 -0.5284 -0.8524
   55MPD2    C2  839   0.265   3.915  17.494 -0.2990 -0.4774 -0.4132
   55MPD2    C3  840   0.245   4.049  17.487  0.1549  0.1743 -0.9696
   55MPD2    C4  841   0.263   4.112  17.369 -0.0453 -0.2215 -0.6899
   55MPD2    C5  842   0.304   4.038  17.256  0.1012 -0.0864 -0.6197
   55MPD2     H  843   0.244   3.863  17.587  1.4493 -1.5447 -0.6040
   55MPD2    H1  844   0.252   4.219  17.357  3.7359  0.3774  1.1738
   55MPD2    H2  845   0.383   3.851  17.186 -2.1648  1.9951 -3.6442
   55MPD2    H3  846   0.324   4.091  17.163  0.1750  0.0397 -0.5319
   55MPD2     N  847   0.197   4.112  17.605  0.5095 -0.4249  0.6628
   55MPD2    H5  848   0.212   4.067  17.695  0.2463 -2.1269 -0.1448
   55MPD2    N1  849   0.358   3.708  17.389 -0.3760 -0.1840  0.4343
   55MPD2    H7  850   0.387   3.659  17.304 -2.0914  1.7021 -1.2217
   56TCq2    C1  851   0.372   3.639  17.507 -0.3883  0.0730 -0.8337
   56TCq2    O2  852   0.362   3.680  17.620  0.2057  0.1399  0.4203
   56TCq2    C2  853   0.405   3.496  17.493 -0.0936  0.1593  0.0847
   56TCq2    C3  854   0.427   3.440  17.371  0.6406  0.4704 -0.6772
   56TCq2    C4  855   0.423   3.306  17.363  0.2872 -0.1181  0.5581
   56TCq2    C5  856   0.418   3.218  17.471 -0.7115 -0.4253  0.1076
   56TCq2    C6  857   0.404   3.277  17.592  0.6638 -0.5162  0.0456
   56TCq2    C7  858   0.402   3.411  17.601  0.2073 -0.0576  0.2467
   56TCq2    C8  859   0.419   3.185   0.006 -0.2480 -0.0299 -0.3798
   56TCq2    O4  860   0.416   3.066  17.678  0.2525 -0.1740 -0.7724
   56TCq2    C9  861   0.431   3.243  17.232 -0.0684 -0.0590 -0.6980
   56TCq2    O5  862   0.377   3.131  17.215 -0.4988 -0.3363  0.6835
   56TCq2    O6  863   0.495   3.305  17.145  0.5227  0.2296 -1.1775
   56TCq2    H2  864   0.437   3.496  17.279  0.7137 -0.7996 -1.4547
   56TCq2    H3  865   0.409   3.111  17.459  0.1598 -0.6965  1.9723
   56TCq2    H4  866   0.366   3.462  17.690 -0.4923 -0.3389  0.1224
   57TMC2    C1  867   4.031   4.283  13.783 -0.4929 -0.5597  0.0505
   57TMC2    C2  868   4.135   4.311  13.866 -0.1075 -0.5925  0.2964
   57TMC2    C3  869   4.259   4.256  13.834  0.3416  0.1104  0.6582
   57TMC2    C4  870   4.053   4.222  13.668  0.4219 -0.8504  0.2283
   57TMC2    C5  871   4.176   4.174  13.633  0.4612  0.2675 -0.4069
   57TMC2    C6  872   4.274   4.174  13.727  0.7125  0.2958 -0.2929
   57TMC2     C  873   3.899   4.290  13.841 -0.0978  0.1829 -0.3123
   57TMC2     O  874   3.879   4.387  13.909  0.1260  0.1967 -0.1385
   57TMC2     H  875   4.126   4.361  13.961  1.1457  0.9642 -0.4054
   57TMC2    H1  876   3.968   4.218  13.601  0.6722 -1.8434 -0.0201
   57TMC2    H2  877   4.374   4.136  13.711 -0.4756 -3.3764  0.9183
   57TMC2    C7  878   4.182   4.087  13.520  0.3812 -0.5665  0.4382
   57TMC2    C8  879   4.371   4.267  13.926 -0.0171 -0.1940  0.2816
   57TMC2    O1  880   4.264   3.997  13.520 -0.3118  0.7173  0.0399
   57TMC2    O2  881   4.474   4.202  13.922  1.1555  0.1313  0.6270
   57TMC2    O5  882   4.378   4.388  13.994 -0.1740 -0.5353 -0.6231
   57TMC2    H5  883   4.298   4.443  13.980  0.3408  0.0658 -1.2432
   58MPD2     C  884   3.432   4.073  13.912 -0.1596 -0.0319 -0.5917
   58MPD2    C1  885   3.475   4.201  13.941 -0.2486  0.0188  0.4421
   58MPD2    C2  886   3.608   4.233  13.907 -0.2194 -0.4422  0.3625
   58MPD2    C3  887   3.688   4.141  13.838  0.1448  0.6880  0.6427
   58MPD2    C4  888   3.646   4.020  13.810  0.3579  0.1948  0.4733
   58MPD2    C5  889   3.522   3.983  13.848  0.3276 -0.1987 -0.1425
   58MPD2     H  890   3.643   4.328  13.947 -2.0120  0.6153 -0.5990
   58MPD2    H1  891   3.709   3.945  13.763 -1.7724 -2.2675  1.5368
   58MPD2    H2  892   3.335   4.039  13.947 -0.7944  1.0097 -1.3424
   58MPD2    H3  893   3.486   3.884  13.821  1.9766  0.2785 -4.1399
   58MPD2     N  894   3.817   4.179  13.803 -0.0452  0.2891 -0.7576
   58MPD2    H5  895   3.877   4.105  13.767 -0.2065  0.9594 -2.4123
   58MPD2    N1  896   3.394   4.297  14.000 -0.6072 -0.0451  0.2921
   58MPD2    H7  897   3.428   4.392  14.010  1.2608 -0.6924 -0.0185
   59MPD2     C  898   1.147   0.040  13.405  0.6624  0.5227 -0.1582
   59MPD2    C1  899   1.238   4.689  13.334 -0.1393  0.5274 -0.1155
   59MPD2    C2  900   1.375   4.707  13.364 -0.3864  0.0209  0.1257
   59MPD2    C3  901   1.427   0.087  13.442 -0.2471  0.1017 -0.2339
   59MPD2    C4  902   1.329   0.170  13.499  0.9861  0.3327 -0.1772
   59MPD2    C5  903   1.193   0.140  13.481 -0.9533  0.3105  0.4407
   59MPD2     H  904   1.448   4.638  13.323 -0.8271 -0.5000  0.2276
   59MPD2    H1  905   1.353   0.252  13.566  1.1423  0.0153  0.1533
   59MPD2    H2  906   1.041   0.018  13.405  1.0926 -1.5678 -1.1362
   59MPD2    H3  907   1.118   0.193  13.538 -1.2168  1.4880 -1.0080
   59MPD2     N  908   1.565   0.111  13.471 -0.1620 -0.2512 -0.0885
   59MPD2    H5  909   1.586   0.202  13.511  0.8580 -1.9664  3.2910
   59MPD2    N1  910   1.208   4.592  13.238  0.1552 -0.2391 -0.3403
   59MPD2    H7  911   1.288   4.542  13.201 -0.3257 -1.4492  0.2573
   60TCq2    C1  912   1.084   4.573  13.177 -0.5525 -0.6395 -0.4800
   60TCq2    O2  913   0.969   4.610  13.209  0.9564  0.2895  0.5700
   60TCq2    C2  914   1.092   4.492  13.056  0.2741  0.1969 -0.8073
   60TCq2    C3  915   0.980   4.432  13.008  0.7485  0.1566 -0.3303
   60TCq2    C4  916   0.968   4.380  12.877 -0.1531  0.1619 -0.3045
   60TCq2    C5  917   1.071   4.392  12.789  1.0794  0.2851  0.2758
   60TCq2    C6  918   1.184   4.443  12.846 -0.2660  0.0891 -0.1564
   60TCq2    C7  919   1.198   4.500  12.971  0.2302  0.3091  0.2685
   60TCq2    C8  920   1.281   4.490  12.744  0.4313 -0.2799 -0.4539
   60TCq2    O4  921   1.344   4.589  12.773 -0.5782  0.3765  0.4686
   60TCq2    C9  922   0.840   4.335  12.836  0.2604 -0.3443 -0.8321
   60TCq2    O5  923   0.769   4.319  12.934 -0.3527  0.8487 -0.0908
   60TCq2    O6  924   0.838   4.272  12.727 -0.0692  0.4451  0.3712
   60TCq2    H2  925   0.891   4.439  13.070  1.6498 -0.7334  1.0531
   60TCq2    H3  926   1.061   4.379  12.682 -1.3963  3.1267  0.1496
   60TCq2    H4  927   1.294   4.539  13.001 -0.2824 -1.4060  4.1105
   61MPD2     C  928   1.240   1.110  14.880  0.0774 -0.4564  0.2111
   61MPD2    C1  929   1.149   1.160  14.964 -0.3862  0.0346 -1.0283
   61MPD2    C2  930   1.026   1.186  14.906 -0.0806 -0.1528 -0.4170
   61MPD2    C3  931   1.002   1.180  14.764 -0.2902 -0.3127  0.6400
   61MPD2    C4  932   1.102   1.140  14.682 -0.1030  0.0316  0.5411
   61MPD2    C5  933   1.219   1.099  14.747  0.6202 -0.1980 -0.2893
   61MPD2     H  934   0.952   1.238  14.966  0.6125  0.2638  0.0702
   61MPD2    H1  935   1.094   1.132  14.574  0.8418  0.3816  0.4413
   61MPD2    H2  936   1.338   1.078  14.914 -0.2572 -0.2668  1.3479
   61MPD2    H3  937   1.298   1.045  14.696  0.8017 -0.3963  0.1982
   61MPD2     N  938   0.886   1.253  14.717  0.3567  0.0275  1.1349
   61MPD2    H5  939   0.880   1.285  14.620  0.3274 -0.6402  0.9140
   61MPD2    N1  940   1.174   1.190  15.100 -0.6783  0.2781  0.5792
   61MPD2    H7  941   1.100   1.245  15.144 -1.2046 -0.0452  0.0900
   62TCq2    C1  942   1.283   1.153  15.169 -0.0585 -0.8152 -0.1496
   62TCq2    O2  943   1.363   1.060  15.154 -0.0794  0.1819 -0.0019
   62TCq2    C2  944   1.303   1.248  15.276  0.5590  0.5284  0.7367
   62TCq2    C3  945   1.380   1.217  15.387 -0.1463 -0.0393 -0.5386
   62TCq2    C4  946   1.402   1.308  15.484 -0.1383 -0.0070 -0.2221
   62TCq2    C5  947   1.336   1.435  15.475  0.2557  0.5125 -0.3660
   62TCq2    C6  948   1.274   1.466  15.358 -0.1683  0.7628  0.3719
   62TCq2    C7  949   1.252   1.373  15.257 -0.0845 -0.3201  0.8378
   62TCq2    C8  950   1.193   1.591  15.369 -0.4297  0.9103 -0.1248
   62TCq2    O4  951   1.230   1.676  15.448 -0.3569 -0.3769 -0.1940
   62TCq2    C9  952   1.465   1.267  15.608 -0.0113 -0.6438  0.0053
   62TCq2    O5  953   1.430   1.156  15.653  0.5146  0.5573 -0.3310
   62TCq2    O6  954   1.517   1.356  15.680  1.0713 -0.4759  0.1745
   62TCq2    H2  955   1.427   1.120  15.391  0.5560  0.3628  0.7263
   62TCq2    H3  956   1.340   1.492  15.567  1.9031 -0.4815  0.1845
   62TCq2    H4  957   1.227   1.412  15.159 -1.5067 -0.4459  1.1444
   63TMC2    C1  958   0.439   0.594  10.914 -0.1751 -0.3522  0.4711
   63TMC2    C2  959   0.496   0.628  11.031 -0.3745  0.1438 -0.6631
   63TMC2    C3  960   0.601   0.722  11.023  0.8169  0.0732 -0.5821
   63TMC2    C4  961   0.472   0.664  10.801 -0.1326  0.0596 -0.2774
   63TMC2    C5  962   0.579   0.749  10.800 -0.3739  0.6200 -0.3535
   63TMC2    C6  963   0.653   0.776  10.910  0.6183  0.0522  0.7586
   63TMC2     C  964   0.347   0.484  10.918  0.0498  0.8888  0.3728
   63TMC2     O  965   0.300   0.455  11.028  0.0329 -0.1291 -0.1010
   63TMC2     H  966   0.459   0.591  11.126  0.3741 -1.1105 -0.8541
   63TMC2    H1  967   0.413   0.662  10.710  0.0679  0.7113 -0.4193
   63TMC2    H2  968   0.740   0.841  10.917 -0.3907  1.2830  1.7005
   63TMC2    C7  969   0.602   0.820  10.674 -0.1666 -0.4230 -0.3509
   63TMC2    C8  970   0.661   0.785  11.144  0.1322  0.1581 -0.5069
   63TMC2    O1  971   0.503   0.834  10.600  0.1857  0.1274  0.4934
   63TMC2    O2  972   0.699   0.897  11.134 -0.0428 -0.5514  0.7534
   63TMC2    O5  973   0.597   0.738  11.253 -0.8747 -0.7193 -0.9703
   63TMC2    H5  974   0.603   0.640  11.253 -3.0070 -0.8526  0.3998
   64MPD2     C  975   0.094   0.096  10.689  0.6713  0.7192  0.0719
   64MPD2    C1  976   0.146   0.178  10.591 -0.8688  0.4527 -0.3306
   64MPD2    C2  977   0.218   0.289  10.630 -0.5077 -0.2451 -0.5251
   64MPD2    C3  978   0.246   0.317  10.760  0.3896  0.3261 -0.2984
   64MPD2    C4  979   0.193   0.227  10.858  0.1034  0.0547  0.2532
   64MPD2    C5  980   0.109   0.125  10.827 -0.2448  1.0343  0.6522
   64MPD2     H  981   0.263   0.351  10.553  0.6842 -1.7409 -1.0198
   64MPD2    H1  982   0.212   0.242  10.964  0.1677  2.9958 -0.1585
   64MPD2    H2  983   0.051   0.001  10.658 -0.2333  1.5839 -1.3424
   64MPD2    H3  984   0.058   0.065  10.902 -2.7610  4.3586  1.5912
   64MPD2     N  985   0.324   0.430  10.789  0.4444 -0.3700 -0.0181
   64MPD2    H5  986   0.353   0.476  10.703 -0.3059  1.8483  0.9277
   64MPD2    N1  987   0.136   0.153  10.452 -0.7479 -0.4066 -0.2652
   64MPD2    H7  988   0.179   0.222  10.390 -2.3253  0.8077 -0.0048
   65MPD2     C  989   1.804   0.870  15.838 -0.3189 -0.5694  0.6073
   65MPD2    C1  990   1.781   0.853  15.702  1.0402  0.0518  0.1552
   65MPD2    C2  991   1.722   0.741  15.649  0.5003  0.2537  1.1000
   65MPD2    C3  992   1.680   0.644  15.739 -0.0949 -0.2561  0.7936
   65MPD2    C4  993   1.701   0.658  15.870 -0.2831  0.4221 -0.2930
   65MPD2    C5  994   1.747   0.777  15.922 -0.2872 -0.1949  0.5201
   65MPD2     H  995   1.694   0.734  15.544 -1.6820 -1.5904  1.7886
   65MPD2    H1  996   1.666   0.590  15.947 -1.7659  1.6573  0.1407
   65MPD2    H2  997   1.839   0.966  15.873 -0.9560  0.5214 -1.7576
   65MPD2    H3  998   1.758   0.783  16.030  0.2710  1.4117  0.3654
   65MPD2     N  999   1.622   0.520  15.699 -0.6964  0.6405 -0.2678
   65MPD2    H5 1000   1.586   0.459  15.771  0.1337 -1.4057 -1.5705
   65MPD2    N1 1001   1.806   0.956  15.614 -0.3130  0.5108 -0.0806
   65MPD2    H7 1002   1.799   0.925  15.518 -1.6289  1.1145 -0.1820
   66TCq2    C1 1003   1.816   1.090  15.648  0.8415 -0.2903  0.0432
   66TCq2    O2 1004   1.793   1.150  15.753 -0.1056  0.2950  0.8583
   66TCq2    C2 1005   1.846   1.168  15.530 -0.2934 -0.6293  0.3581
   66TCq2    C3 1006   1.911   1.120  15.425 -0.4790  0.2804 -0.2105
   66TCq2    C4 1007   1.928   1.200  15.310 -1.2711 -0.0412 -0.7181
   66TCq2    C5 1008   1.884   1.324  15.308  0.0330 -0.2467  0.1927
   66TCq2    C6 1009   1.811   1.367  15.417 -0.4011  0.1111  0.5213
   66TCq2    C7 1010   1.799   1.294  15.536  0.5018  0.0971  0.0279
   66TCq2    C8 1011   1.764   1.511  15.410  0.1209 -0.3398  0.0815
   66TCq2    O4 1012   1.809   1.577  15.314 -0.1717 -0.2514 -0.1205
   66TCq2    C9 1013   2.005   1.148  15.195 -0.0011 -0.0219  0.4915
   66TCq2    O5 1014   2.048   1.233  15.115 -0.7686  0.9823 -0.1913
   66TCq2    O6 1015   2.007   1.026  15.177 -0.6142 -0.0370  0.0821
   66TCq2    H2 1016   1.953   1.020  15.427 -1.4145 -0.1295 -0.8837
   66TCq2    H3 1017   1.905   1.396  15.231  0.7527 -0.0773  0.5499
   66TCq2    H4 1018   1.723   1.318  15.609  0.4529  0.9424 -0.3078
   67MPD2     C 1019   1.397   4.471  14.202 -0.4971 -0.3142  0.1809
   67MPD2    C1 1020   1.379   4.603  14.229 -0.5643  0.7515 -0.0794
   67MPD2    C2 1021   1.260   4.659  14.217  0.3953  0.3484 -0.1754
   67MPD2    C3 1022   1.147   4.587  14.182  0.3443  0.1348  0.0116
   67MPD2    C4 1023   1.165   4.454  14.163 -0.1240 -0.4331 -0.4873
   67MPD2    C5 1024   1.292   4.397  14.171  0.2986  0.4245 -0.1312
   67MPD2     H 1025   1.253   0.040  14.240  0.6243  0.1979  0.5868
   67MPD2    H1 1026   1.083   4.399  14.119  0.1824 -2.0956  0.9961
   67MPD2    H2 1027   1.494   4.426  14.218 -0.9438 -1.4509 -0.3259
   67MPD2    H3 1028   1.311   4.294  14.142  2.2463  0.2146  1.9305
   67MPD2     N 1029   1.019   4.641  14.171  0.4165  0.4430 -0.3779
   67MPD2    H5 1030   0.942   4.582  14.144  1.1932 -1.6338  1.9115
   67MPD2    N1 1031   1.483   4.687  14.275 -1.1454  0.4135  0.3970
   67MPD2    H7 1032   1.454   0.059  14.276 -1.6847  0.2563 -0.3077
   68TCq2    C1 1033   1.618   4.664  14.296  0.1896 -0.0201 -0.6784
   68TCq2    O2 1034   1.687   4.564  14.274  0.3708 -0.1549  0.1368
   68TCq2    C2 1035   1.680   0.054  14.354  0.6471 -0.7948 -0.5581
   68TCq2    C3 1036   1.603   0.160  14.382 -0.3642  0.1916 -0.6215
   68TCq2    C4 1037   1.649   0.251  14.469 -0.1381 -0.2476 -0.1653
   68TCq2    C5 1038   1.776   0.233  14.524  0.6938  0.5932  0.6714
   68TCq2    C6 1039   1.854   0.126  14.491 -0.1509  1.0988  0.2242
   68TCq2    C7 1040   1.814   0.040  14.391 -0.2979  0.2600  0.5079
   68TCq2    C8 1041   1.968   0.096  14.569 -0.4997 -0.7365  0.6003
   68TCq2    O4 1042   2.059   0.034  14.515  0.0464  0.3647 -0.5649
   68TCq2    C9 1043   1.565   0.366  14.510 -0.3800 -0.1189 -0.3514
   68TCq2    O5 1044   1.448   0.369  14.464  0.0669 -0.4803  0.0338
   68TCq2    O6 1045   1.616   0.448  14.589  0.2304  0.0867  0.7294
   68TCq2    H2 1046   1.496   0.176  14.371  0.0021  2.2281 -1.1715
   68TCq2    H3 1047   1.812   0.318  14.582 -0.3048  2.2893 -1.1801
   68TCq2    H4 1048   1.857   4.667  14.374 -0.1072  0.2049  1.3219
   69TMC2    C1 1049   3.503   1.580  12.206 -0.0229  0.4316  0.8656
   69TMC2    C2 1050   3.438   1.687  12.154 -0.4620 -0.2414 -0.5898
   69TMC2    C3 1051   3.499   1.744  12.043 -0.3214  1.0036  0.0677
   69TMC2    C4 1052   3.626   1.540  12.160  0.3301 -0.1140 -0.1133
   69TMC2    C5 1053   3.681   1.600  12.053  0.6524  0.2178  0.0298
   69TMC2    C6 1054   3.617   1.704  11.995 -0.4218  0.1126  0.0867
   69TMC2     C 1055   3.457   1.519  12.330 -0.1608 -0.0518  0.3314
   69TMC2     O 1056   3.522   1.427  12.367 -0.1422  0.4060 -0.2621
   69TMC2     H 1057   3.332   1.701  12.167 -0.5994 -1.6804 -0.2254
   69TMC2    H1 1058   3.675   1.453  12.203  1.3156  0.8632  0.7380
   69TMC2    H2 1059   3.670   1.765  11.922 -1.3879  1.9187  0.8865
   69TMC2    C7 1060   3.814   1.555  12.017  0.0362 -0.0517 -0.6238
   69TMC2    C8 1061   3.463   1.873  11.999  0.0077  0.2012  0.2414
   69TMC2    O1 1062   3.875   1.494  12.098  0.1106  0.0368  0.2283
   69TMC2    O2 1063   3.490   1.922  11.887  0.0547 -0.9452  0.3544
   69TMC2    O5 1064   3.423   1.940  12.108  0.2272  0.0331 -0.5972
   69TMC2    H5 1065   3.429   1.878  12.184  1.3727 -0.1053 -0.7909
   70MPD2     C 1066   3.234   1.663  12.569 -0.2670 -0.5133  0.2560
   70MPD2    C1 1067   3.334   1.580  12.534  0.1523  0.1693 -0.0848
   70MPD2    C2 1068   3.387   1.497  12.623  0.3484  0.3608 -0.1366
   70MPD2    C3 1069   3.341   1.487  12.754 -0.4672 -0.7807 -0.0962
   70MPD2    C4 1070   3.228   1.561  12.791 -0.1375 -0.3973 -0.5332
   70MPD2    C5 1071   3.178   1.650  12.699  0.3903  0.9444 -0.2472
   70MPD2     H 1072   3.455   1.421  12.588 -0.6014 -1.6146  2.2895
   70MPD2    H1 1073   3.178   1.566  12.887 -1.3030 -0.0692 -1.1648
   70MPD2    H2 1074   3.176   1.724  12.500 -1.2725 -1.1505  0.5309
   70MPD2    H3 1075   3.093   1.711  12.725  1.4617  3.2308 -2.1215
   70MPD2     N 1076   3.400   1.405  12.850 -0.8861 -0.2501  0.3424
   70MPD2    H5 1077   3.341   1.392  12.932  0.4392  0.7729  1.4636
   70MPD2    N1 1078   3.367   1.594  12.398 -0.4677  0.4322 -0.1722
   70MPD2    H7 1079   3.342   1.676  12.344 -0.9370  0.8038  0.6220
   71TMC2    C1 1080   2.604   1.757   1.016  0.8433  0.4423 -0.1922
   71TMC2    C2 1081   2.663   1.638   0.982  0.3039  0.0755 -0.5124
   71TMC2    C3 1082   2.672   1.540   1.075 -0.0994 -0.6222  0.4197
   71TMC2    C4 1083   2.559   1.784   1.140  0.2754  0.3582 -0.0178
   71TMC2    C5 1084   2.572   1.681   1.235 -0.2515 -0.4684  0.1128
   71TMC2    C6 1085   2.629   1.561   1.202 -0.2180  0.2973  0.2478
   71TMC2     C 1086   2.568   1.858   0.919  0.0368  0.5311  0.2464
   71TMC2     O 1087   2.527   1.969   0.960 -0.1454 -0.4178 -0.0128
   71TMC2     H 1088   2.721   1.623   0.892 -2.0908 -1.0597 -1.8619
   71TMC2    H1 1089   2.517   1.879   1.173  0.5348  0.6051 -0.4001
   71TMC2    H2 1090   2.642   1.488   1.281  1.3696 -0.1866 -0.4540
   71TMC2    C7 1091   2.512   1.704   1.358  0.4525 -0.2523  0.7291
   71TMC2    C8 1092   2.728   1.414   1.051 -0.0309  0.4121  0.1873
   71TMC2    O1 1093   2.556   1.642   1.454  0.2303 -0.9029 -0.5242
   71TMC2    O2 1094   2.711   1.322   1.129  0.3176 -0.1799  0.3269
   71TMC2    O5 1095   2.842   1.425   0.986  0.2909  0.4249  0.1171
   71TMC2    H5 1096   2.861   1.515   0.953 -0.3126  0.1973 -0.8567
   72MPD2     C 1097   2.650   2.008   0.428  0.6586  0.4512  0.0424
   72MPD2    C1 1098   2.612   2.080   0.537 -0.3287 -0.6424 -0.0082
   72MPD2    C2 1099   2.597   2.021   0.656  0.5198 -0.1979  0.4468
   72MPD2    C3 1100   2.613   1.884   0.667 -0.1127 -0.1978 -0.2346
   72MPD2    C4 1101   2.653   1.811   0.560  0.6114 -0.1770  0.5335
   72MPD2    C5 1102   2.671   1.874   0.441  0.1916  0.4300  0.0110
   72MPD2     H 1103   2.565   2.077   0.743 -0.9645  1.5826 -1.2442
   72MPD2    H1 1104   2.671   1.704   0.559  0.2994 -0.2304  0.6604
   72MPD2    H2 1105   2.677   2.046   0.330  1.0222  1.0104  0.3604
   72MPD2    H3 1106   2.722   1.816   0.365 -1.5862 -1.7320  0.4589
   72MPD2     N 1107   2.601   1.808   0.790 -0.0432 -0.0940  0.1562
   72MPD2    H5 1108   2.621   1.709   0.794  0.2290 -0.1254 -2.2883
   72MPD2    N1 1109   2.591   2.219   0.536  0.3365 -0.4387  0.0767
   72MPD2    H7 1110   2.555   2.258   0.623  0.3097 -1.5961  0.5834
   73TMC2    C1 1111   0.172   3.890  13.885 -0.9597  0.0607  1.5884
   73TMC2    C2 1112   0.059   3.823  13.932  0.8871 -0.0975  0.3609
   73TMC2    C3 1113   0.020   3.701  13.882 -0.0927 -0.0422 -0.6277
   73TMC2    C4 1114   0.260   3.823  13.806 -0.8178  0.0302  0.7529
   73TMC2    C5 1115   0.230   3.695  13.756  0.3254 -0.5283  0.5286
   73TMC2    C6 1116   0.111   3.638  13.795  0.2327  0.3683  0.2276
   73TMC2     C 1117   0.173   4.036  13.888  0.4302 -0.4252  0.0536
   73TMC2     O 1118   0.093   4.097  13.959  0.2095  0.2147  0.0491
   73TMC2     H 1119   4.719   3.871  14.004 -0.4089  0.0239 -0.8862
   73TMC2    H1 1120   0.360   3.861  13.791 -1.1665  0.2870 -0.9050
   73TMC2    H2 1121   0.072   3.550  13.746  0.1153 -0.4360  1.7745
   73TMC2    C7 1122   0.316   3.638  13.666 -0.2444  0.0193 -0.4451
   73TMC2    C8 1123   4.623   3.636  13.921  0.1174 -0.4988  0.4703
   73TMC2    O1 1124   0.366   3.526  13.690  0.1684 -0.5453 -0.1316
   73TMC2    O2 1125   4.618   3.513  13.916  0.0946  0.0533  0.1651
   73TMC2    O5 1126   4.519   3.724  13.936  0.0045  0.2196  0.3077
   73TMC2    H5 1127   4.538   3.814  13.902 -0.5460  0.0442 -0.4555
   74MPD2     C 1128   0.435   4.456  13.749 -0.0598  0.0735 -0.0647
   74MPD2    C1 1129   0.450   4.361  13.653 -0.6437 -0.6565  0.2497
   74MPD2    C2 1130   0.400   4.231  13.668 -0.2321 -0.2476  0.4620
   74MPD2    C3 1131   0.317   4.209  13.775 -0.4194 -0.3858 -0.1904
   74MPD2    C4 1132   0.295   4.313  13.867 -0.9251 -0.0441 -0.2144
   74MPD2    C5 1133   0.359   4.432  13.858  0.3323 -0.1748  0.1207
   74MPD2     H 1134   0.424   4.150  13.600  3.5664  0.4039  1.0807
   74MPD2    H1 1135   0.228   4.300  13.951 -0.7654  1.1637  0.0941
   74MPD2    H2 1136   0.470   4.558  13.735  0.7399 -0.1649  0.1536
   74MPD2    H3 1137   0.337   4.505  13.935  1.3123  1.1639 -0.8773
   74MPD2     N 1138   0.267   4.082  13.798  0.2939 -0.3451  0.1784
   74MPD2    H5 1139   0.313   4.017  13.736 -2.2473 -2.0665  0.1200
   74MPD2    N1 1140   0.534   4.390  13.537 -0.8951  0.1754  0.2378
   74MPD2    H7 1141   0.587   4.475  13.550  0.3814 -0.4089 -1.1886
   75TCq2    C1 1142   0.992   0.053  14.192 -0.3182 -0.0412  0.2564
   75TCq2    O2 1143   1.061   0.149  14.231 -0.2444  0.1462  0.0360
   75TCq2    C2 1144   0.844   0.072  14.179 -0.2098  0.2677  0.2714
   75TCq2    C3 1145   0.787   0.146  14.278 -0.3564 -0.5919  0.2647
   75TCq2    C4 1146   0.649   0.150  14.284 -0.1340  0.4182  0.5897
   75TCq2    C5 1147   0.573   0.098  14.178  0.4574  0.1447  0.6637
   75TCq2    C6 1148   0.638   0.020  14.084 -0.2442  0.3461  0.5273
   75TCq2    C7 1149   0.773   0.003  14.085  0.3096  0.2359 -0.4774
   75TCq2    C8 1150   0.577   4.723  13.957  0.4010  0.2972  0.5289
   75TCq2    O4 1151   0.631   4.641  13.883  0.0644  0.0319  0.0854
   75TCq2    C9 1152   0.594   0.219  14.396 -0.2418 -0.6463 -0.7504
   75TCq2    O5 1153   0.668   0.298  14.454  0.5013  0.0414 -0.5148
   75TCq2    O6 1154   0.485   0.175  14.437  0.6323  0.3558  0.1209
   75TCq2    H2 1155   0.854   0.205  14.339 -1.8297  1.4588 -0.1405
   75TCq2    H3 1156   0.466   0.107  14.187  0.1758  1.1411 -3.6030
   75TCq2    H4 1157   0.817   4.661  14.013 -0.0847 -0.4443 -0.0786
   76MPD2     C 1158   4.586   0.837  12.432 -0.0680  0.1552 -0.4220
   76MPD2    C1 1159   4.571   0.828  12.294  0.2369 -0.1037 -0.8123
   76MPD2    C2 1160   4.627   0.719  12.235  0.6856 -0.0216 -0.3997
   76MPD2    C3 1161   4.677   0.607  12.301 -0.1828  0.6768 -0.1710
   76MPD2    C4 1162   4.693   0.618  12.436  0.0533  1.1342 -0.5208
   76MPD2    C5 1163   4.645   0.731  12.498  0.6092  0.3163  0.6023
   76MPD2     H 1164   4.634   0.716  12.127 -0.6586  0.0681 -0.4939
   76MPD2    H1 1165   0.015   0.544  12.500  0.5474 -0.8718 -3.2222
   76MPD2    H2 1166   4.549   0.919  12.492  0.5358  0.5589 -0.6069
   76MPD2    H3 1167   4.655   0.742  12.605  0.8246  0.2123  0.5930
   76MPD2     N 1168   4.721   0.490  12.237  0.3586  0.5934  0.1223
   76MPD2    H5 1169   0.046   0.425  12.297 -1.2159  0.4980  1.3340
   76MPD2    N1 1170   4.532   0.938  12.215 -0.2999  0.5552 -0.0069
   76MPD2    H7 1171   4.562   0.941  12.118  0.8477 -0.6601  0.3159
   77TCq2    C1 1172   4.683   0.449  12.110  0.1710  0.9646  0.1251
   77TCq2    O2 1173   4.614   0.498  12.022 -0.3677  0.0215 -0.1508
   77TCq2    C2 1174   0.041   0.335  12.076 -0.1088 -0.0267  0.4536
   77TCq2    C3 1175   0.002   0.258  11.969 -0.3031  0.0149 -0.3099
   77TCq2    C4 1176   0.081   0.173  11.911  0.3811 -0.5375  0.4146
   77TCq2    C5 1177   0.214   0.170  11.941  0.1730  0.9042  0.5974
   77TCq2    C6 1178   0.261   0.257  12.036  0.4047  0.2212 -0.3456
   77TCq2    C7 1179   0.174   0.335  12.114  0.1351  0.3509  0.0376
   77TCq2    C8 1180   0.399   0.241  12.077  0.3111 -0.5162 -0.0323
   77TCq2    O4 1181   0.468   0.180  11.995 -0.1741  0.0821  0.2760
   77TCq2    C9 1182   0.030   0.113  11.789  0.0410  0.7088 -0.6694
   77TCq2    O5 1183   4.631   0.129  11.760  0.2227  0.3897  0.3149
   77TCq2    O6 1184   0.114   0.073  11.699  0.4477 -0.3984 -0.3122
   77TCq2    H2 1185   4.624   0.262  11.937 -0.0028 -0.4357 -1.3318
   77TCq2    H3 1186   0.286   0.109  11.887 -0.9086 -1.3196  1.6897
   77TCq2    H4 1187   0.213   0.401  12.191  0.6828  0.5134 -0.3748
   78MPD1     C 1188   2.395   1.805  17.608 -0.7663 -0.4533  0.1088
   78MPD1    C1 1189   2.419   1.694  17.690 -0.3692  0.4756 -0.1391
   78MPD1    C2 1190   2.394   1.704   0.125 -1.3179 -0.5574  0.2341
   78MPD1    C3 1191   2.337   1.818   0.180 -0.0254  0.4670  0.3461
   78MPD1    C4 1192   2.307   1.925   0.096 -0.1216 -0.0067 -0.5479
   78MPD1    C5 1193   2.340   1.918  17.662 -0.3009 -0.2110  0.8672
   78MPD1     H 1194   2.417   1.626   0.197  0.9206 -0.0833  0.0573
   78MPD1    H1 1195   2.269   2.017   0.139 -2.3756 -0.7580 -0.8972
   78MPD1    H2 1196   2.424   1.805  17.504  0.8746 -3.0272  0.5624
   78MPD1    H3 1197   2.330   2.010  17.604 -0.7570 -1.4739 -1.0674
   78MPD1     N 1198   2.314   1.845   0.318 -0.0632 -0.1348  0.1355
   78MPD1    H5 1199   2.274   1.936   0.338  1.2053  0.6146 -0.7517
   78MPD1    N1 1200   2.480   1.585  17.631  0.2257  0.6752  0.3118
   78MPD1    H6 1201   2.455   1.496  17.673  1.2751  0.6015  0.7645
   78MPD1    H7 1202   2.466   1.575  17.530 -0.3584  2.2793  0.2405
   79TCq2    C1 1203   2.334   1.765   0.426  0.0401  0.4620 -0.6829
   79TCq2    O2 1204   2.361   1.646   0.429  0.3183 -0.5034 -0.2574
   79TCq2    C2 1205   2.301   1.838   0.545  0.3135  0.2112  0.3761
   79TCq2    C3 1206   2.266   1.971   0.535 -0.5465  0.3925 -0.5678
   79TCq2    C4 1207   2.222   2.029   0.654  0.1943  0.5202  0.6077
   79TCq2    C5 1208   2.200   1.953   0.766  0.0696 -0.5980 -0.0620
   79TCq2    C6 1209   2.253   1.827   0.775  0.8471 -0.0327  0.0007
   79TCq2    C7 1210   2.291   1.765   0.659 -0.2050 -0.1802 -0.5482
   79TCq2    C8 1211   2.219   1.733   0.882  0.3143  0.2845 -0.1802
   79TCq2    O4 1212   2.298   1.643   0.897  0.1466  0.1002 -0.5498
   79TCq2    C9 1213   2.173   2.163   0.657  0.1090  0.8248  0.3560
   79TCq2    O5 1214   2.112   2.201   0.759 -0.2935 -0.1024 -0.3779
   79TCq2    O6 1215   2.162   2.215   0.540  0.1157  0.3792 -0.5159
   79TCq2    H2 1216   2.274   2.027   0.442  3.3669  1.0723  0.1560
   79TCq2    H3 1217   2.170   2.009   0.853  1.8722 -0.8602  0.7355
   79TCq2    H4 1218   2.292   1.657   0.661 -0.0926 -0.1754 -0.2311
   80MPD2     C 1219   3.918   0.346  12.519  0.4362 -0.3055  0.7545
   80MPD2    C1 1220   3.833   0.416  12.436  0.0438  0.1659 -0.2996
   80MPD2    C2 1221   3.727   0.492  12.479 -0.3770  0.0207 -0.5723
   80MPD2    C3 1222   3.689   0.482  12.608  0.3765 -0.2344  0.8783
   80MPD2    C4 1223   3.769   0.409  12.697  0.0288  0.4475 -0.2049
   80MPD2    C5 1224   3.874   0.337  12.650  0.1440  0.0883  0.3967
   80MPD2     H 1225   3.682   0.550  12.399  0.8363  2.7290  0.7016
   80MPD2    H1 1226   3.754   0.407  12.804  0.4215  1.9600 -0.1213
   80MPD2    H2 1227   4.007   0.294  12.487  1.1741  0.6664  1.2263
   80MPD2    H3 1228   3.927   0.276  12.723 -2.3319 -0.0742  2.0634
   80MPD2     N 1229   3.559   0.531  12.648  0.2451 -0.7153  0.2804
   80MPD2    H5 1230   3.497   0.576  12.582  0.9071  1.4063  1.1216
   80MPD2    N1 1231   3.858   0.424  12.297  0.5579 -0.3631  0.1193
   80MPD2    H7 1232   3.799   0.477  12.234  2.9781 -1.2061 -2.8692
   81TCq2    C1 1233   3.968   0.368  12.237  0.3066  0.0421  0.5309
   81TCq2    O2 1234   4.073   0.329  12.283  0.1280  0.4089  0.0590
   81TCq2    C2 1235   3.957   0.347  12.096  0.1976  0.0245 -0.3202
   81TCq2    C3 1236   4.069   0.346  12.023  0.4499 -0.3981 -0.1910
   81TCq2    C4 1237   4.070   0.287  11.901 -0.9617 -0.6556 -0.1251
   81TCq2    C5 1238   3.950   0.225  11.862  0.0049 -0.0946  0.8813
   81TCq2    C6 1239   3.842   0.227  11.941 -0.1730  0.7025 -0.6565
   81TCq2    C7 1240   3.841   0.278  12.060 -0.0693  0.8455 -0.2415
   81TCq2    C8 1241   3.743   0.133  11.897  0.0372  0.3782 -0.3924
   81TCq2    O4 1242   3.742   0.104  11.780 -0.0465  0.2916 -0.2812
   81TCq2    C9 1243   4.185   0.291  11.822  0.3908 -0.5790 -0.7237
   81TCq2    O5 1244   4.291   0.334  11.873  0.4316  0.2485  0.0201
   81TCq2    O6 1245   4.167   0.265  11.698  0.8373 -0.1264  0.5648
   81TCq2    H2 1246   4.163   0.380  12.065  0.2271 -1.5985  1.2910
   81TCq2    H3 1247   3.952   0.172  11.767  0.6579 -0.1288  0.9189
   81TCq2    H4 1248   3.747   0.294  12.112 -0.4048 -0.8906 -0.3056
   82MPD2     C 1249   1.683   4.694  10.864 -0.1232 -0.8480 -0.0981
   82MPD2    C1 1250   1.723   4.567  10.840  0.2685 -0.2170 -0.6707
   82MPD2    C2 1251   1.829   4.512  10.902 -0.0440 -0.5001  0.9486
   82MPD2    C3 1252   1.896   4.578  11.003  0.1574 -0.1922  0.4872
   82MPD2    C4 1253   1.848   4.703  11.036 -0.4848 -0.1107 -0.1044
   82MPD2    C5 1254   1.742   0.035  10.969 -0.4973 -0.1592 -0.2664
   82MPD2     H 1255   1.866   4.417  10.866 -0.3692  0.5032 -2.0384
   82MPD2    H1 1256   1.895   0.033  11.117 -4.0510 -1.8402  3.1465
   82MPD2    H2 1257   1.596   0.019  10.823 -1.5410 -2.3581  1.0846
   82MPD2    H3 1258   1.694   0.126  11.004 -0.3525 -0.0934 -0.2386
   82MPD2     N 1259   1.990   4.512  11.086  1.0896 -0.7427 -0.7210
   82MPD2    H5 1260   1.997   4.554  11.179  0.2041  1.0332 -1.4457
   82MPD2    N1 1261   1.648   4.499  10.740  0.1892 -0.0085 -0.7455
   82MPD2    H7 1262   1.576   4.555  10.696 -0.2277  0.9206  1.1147
   83TCq2    C1 1263   2.078   4.417  11.043 -0.2734 -0.6652 -0.4748
   83TCq2    O2 1264   2.105   4.382  10.930  0.4582 -0.1860 -0.1085
   83TCq2    C2 1265   2.163   4.367  11.149  0.2386 -0.0872 -0.3438
   83TCq2    C3 1266   2.299   4.360  11.136 -0.7487  0.2458 -0.4339
   83TCq2    C4 1267   2.368   4.306  11.236 -0.0184  1.2074 -0.1212
   83TCq2    C5 1268   2.310   4.266  11.354  0.2999 -0.3150  0.0113
   83TCq2    C6 1269   2.176   4.274  11.360  0.3004 -1.1481 -0.0381
   83TCq2    C7 1270   2.098   4.325  11.261 -0.4549 -0.2795  0.3798
   83TCq2    C8 1271   2.103   4.194  11.458  0.4943  0.5245 -0.1189
   83TCq2    O4 1272   1.990   4.231  11.493  0.8118  0.6572  0.3067
   83TCq2    C9 1273   2.506   4.269  11.211  0.0422  0.8762  0.0105
   83TCq2    O5 1274   2.556   4.163  11.265  0.5447  0.0992 -0.0864
   83TCq2    O6 1275   2.573   4.346  11.139 -0.3983  0.3106  0.1862
   83TCq2    H2 1276   2.348   4.394  11.045  1.6642 -0.7300  0.4933
   83TCq2    H3 1277   2.375   4.211  11.422  1.6052 -0.0152 -0.9777
   83TCq2    H4 1278   1.992   4.336  11.280 -0.5050 -0.8574  0.4362
   84TCq2    C1 1279   3.706   3.116  11.201  0.1657  0.6934 -0.1352
   84TCq2    O2 1280   3.594   3.083  11.160  0.2244 -0.2472  0.1192
   84TCq2    C2 1281   3.711   3.246  11.260 -0.5476  0.5565  0.3163
   84TCq2    C3 1282   3.820   3.330  11.237  0.3814  0.7770  0.7505
   84TCq2    C4 1283   3.809   3.461  11.270  0.0855 -0.0171 -0.4767
   84TCq2    C5 1284   3.694   3.515  11.328 -0.5651 -0.3125 -0.0447
   84TCq2    C6 1285   3.590   3.437  11.341  0.1762 -0.5633 -0.8904
   84TCq2    C7 1286   3.594   3.302  11.304  0.6830  0.5843 -0.3114
   84TCq2    C8 1287   3.469   3.499  11.406  0.0383 -0.3072  0.1828
   84TCq2    O4 1288   3.479   3.611  11.456 -0.3640  0.0354  0.4803
   84TCq2    C9 1289   3.929   3.542  11.271 -0.7742 -0.9742 -0.2847
   84TCq2    O5 1290   3.925   3.666  11.294  0.4808 -0.8114  0.1592
   84TCq2    O6 1291   4.036   3.477  11.280  0.2115 -0.5349 -0.6634
   84TCq2    H2 1292   3.904   3.290  11.182 -1.5829 -1.9211 -0.2908
   84TCq2    H3 1293   3.695   3.619  11.357  0.0911 -0.0034 -1.1752
   84TCq2    H4 1294   3.509   3.240  11.327  1.3097 -0.1917 -0.1138
   85MPD2     C 1295   3.822   1.692  16.525 -0.3837  0.1526 -0.0514
   85MPD2    C1 1296   3.737   1.725  16.417  0.6361 -0.4790 -0.0244
   85MPD2    C2 1297   3.792   1.805  16.321 -0.3228  0.1008 -0.0415
   85MPD2    C3 1298   3.929   1.839  16.322 -0.0662  0.0142  1.0404
   85MPD2    C4 1299   4.006   1.799  16.420  0.2130  0.1810  0.9570
   85MPD2    C5 1300   3.956   1.732  16.526 -1.1035  0.8254 -0.3498
   85MPD2     H 1301   3.727   1.845  16.244 -0.6507 -1.3949 -0.5423
   85MPD2    H1 1302   4.111   1.825  16.429 -0.2473  2.3547  0.0601
   85MPD2    H2 1303   3.792   1.636  16.613 -0.9054 -0.0225 -0.3449
   85MPD2    H3 1304   4.024   1.699  16.604 -0.5441 -0.5305 -1.4326
   85MPD2     N 1305   3.981   1.914  16.216  0.0833  0.4925 -0.6933
   85MPD2    H5 1306   3.910   1.959  16.158 -0.3698  0.8276  0.1288
   85MPD2    N1 1307   3.606   1.684  16.395 -0.5554 -0.4348  0.2365
   85MPD2    H7 1308   3.557   1.708  16.309  1.5109 -0.2808 -0.8887
   86TCq2    C1 1309   4.119   1.943  16.200 -0.5484  0.0927  0.0561
   86TCq2    O2 1310   4.223   1.907  16.249 -0.1065  0.0200 -0.0850
   86TCq2    C2 1311   4.132   2.055  16.104  0.0700 -0.7862 -0.9219
   86TCq2    C3 1312   4.044   2.159  16.117  0.3639 -0.0309 -0.6800
   86TCq2    C4 1313   4.086   2.277  16.055 -0.7300 -0.2899 -0.2520
   86TCq2    C5 1314   4.195   2.277  15.973 -0.5524  0.1066 -0.9091
   86TCq2    C6 1315   4.278   2.169  15.974  0.6697 -0.0353 -0.6949
   86TCq2    C7 1316   4.252   2.058  16.047  0.0322 -0.7978 -0.5880
   86TCq2    C8 1317   4.387   2.161  15.888 -0.2215  0.3190  0.6189
   86TCq2    O4 1318   4.467   2.076  15.912 -0.6766 -0.4803  0.5951
   86TCq2    C9 1319   3.993   2.386  16.033  0.1201  0.6585 -0.3420
   86TCq2    O5 1320   3.900   2.390  16.119  0.7315 -0.1393 -0.2607
   86TCq2    O6 1321   3.999   2.451  15.928  0.1126 -0.3593 -0.6978
   86TCq2    H2 1322   3.954   2.160  16.176  0.2022  0.7676 -0.9398
   86TCq2    H3 1323   4.203   2.371  15.921 -0.3620  0.0538 -0.9777
   86TCq2    H4 1324   4.310   1.968  16.029  0.5715 -0.4933 -0.3874
   87MPD2     C 1325   1.406   0.472   0.276  0.7118  0.3572 -0.3868
   87MPD2    C1 1326   1.353   0.574   0.355 -0.5116 -0.3322 -0.1624
   87MPD2    C2 1327   1.254   0.661   0.309 -0.5373  0.8273  0.3895
   87MPD2    C3 1328   1.202   0.645   0.181 -0.1842 -0.8207  0.4351
   87MPD2    C4 1329   1.253   0.548   0.098  0.3888 -0.2166 -0.6210
   87MPD2    C5 1330   1.352   0.470   0.150 -0.0673  0.7494 -0.6050
   87MPD2     H 1331   1.197   0.722   0.378 -2.4438 -1.3017  0.7036
   87MPD2    H1 1332   1.220   0.540  17.697  2.2776 -1.1534 -1.1541
   87MPD2    H2 1333   1.476   0.395   0.306  0.8159  0.4626 -0.3575
   87MPD2    H3 1334   1.407   0.392   0.098  0.9670  0.4118  1.0192
   87MPD2     N 1335   1.094   0.724   0.136  0.3712  0.1764  0.0243
   87MPD2    H5 1336   1.028   0.687   0.068 -1.8375  3.3871  0.4158
   87MPD2    N1 1337   1.394   0.580   0.497 -0.2400  0.8180  0.1398
   87MPD2    H7 1338   1.454   0.505   0.530 -0.7997  1.9553  3.6922
   88TCq2    C1 1339   1.355   0.679   0.583  0.3320  0.0649 -0.3228
   88TCq2    O2 1340   1.309   0.794   0.567 -0.2595 -0.3361 -0.2600
   88TCq2    C2 1341   1.420   0.668   0.711  0.5906  0.4213  0.3701
   88TCq2    C3 1342   1.366   0.743   0.810 -0.3044  0.2395 -0.8951
   88TCq2    C4 1343   1.448   0.770   0.919  0.0550 -0.0475 -0.0188
   88TCq2    C5 1344   1.574   0.728   0.935  0.4882 -0.4492 -0.7281
   88TCq2    C6 1345   1.627   0.665   0.827 -1.1644  0.8765  0.8156
   88TCq2    C7 1346   1.555   0.628   0.719  0.3861  0.0057  0.1399
   88TCq2    C8 1347   1.768   0.637   0.822 -0.6288 -0.4705 -0.4493
   88TCq2    O4 1348   1.816   0.617   0.708 -0.2355  0.5960 -0.1145
   88TCq2    C9 1349   1.384   0.842   1.033 -0.2914 -0.2621 -0.8054
   88TCq2    O5 1350   1.447   0.879   1.132  0.4073  0.4182  0.0148
   88TCq2    O6 1351   1.260   0.862   1.027 -0.3621  0.3099 -0.4431
   88TCq2    H2 1352   1.269   0.791   0.805  0.0451  0.8924 -1.4917
   88TCq2    H3 1353   1.620   0.752   1.030  0.9380  0.5013 -1.1832
   88TCq2    H4 1354   1.598   0.579   0.633  0.6723  1.1104 -0.3450
   89MPD2     C 1355   2.869   3.244   1.880 -0.4016 -0.5241  0.0958
   89MPD2    C1 1356   2.769   3.329   1.910 -0.0149  0.2913 -0.8197
   89MPD2    C2 1357   2.803   3.460   1.955 -0.3054 -0.3036 -0.2582
   89MPD2    C3 1358   2.933   3.503   1.969 -0.2906  0.4078  0.0749
   89MPD2    C4 1359   3.031   3.405   1.929 -0.4636 -0.0194 -0.1693
   89MPD2    C5 1360   2.997   3.285   1.885  0.1305  0.0052  0.4649
   89MPD2     H 1361   2.729   3.531   1.991 -2.1733 -0.4941 -3.7108
   89MPD2    H1 1362   3.138   3.424   1.926 -0.2449 -1.2781 -0.4746
   89MPD2    H2 1363   2.853   3.140   1.854  1.6585 -0.3973 -1.7406
   89MPD2    H3 1364   3.073   3.213   1.855 -3.1379 -2.7650 -1.1336
   89MPD2     N 1365   2.956   3.641   1.986 -0.6282 -0.5023  0.4895
   89MPD2    H5 1366   2.877   3.701   2.008  0.4950  0.9917  0.4248
   89MPD2    N1 1367   2.633   3.297   1.895 -0.0511  0.1060 -0.2427
   89MPD2    H7 1368   2.569   3.360   1.941  1.3573  1.3371  0.0236
   90TCq2    C1 1369   3.077   3.704   1.977 -0.0883  0.3594  0.8433
   90TCq2    O2 1370   3.185   3.658   1.961  0.1185  0.0489 -0.2963
   90TCq2    C2 1371   3.077   3.848   1.982 -0.4563  0.6858  0.1342
   90TCq2    C3 1372   2.974   3.920   1.926  0.2729  0.0929  0.5606
   90TCq2    C4 1373   2.981   4.054   1.914 -0.6044 -0.0866 -0.5032
   90TCq2    C5 1374   3.101   4.115   1.939 -0.3984  0.1825 -0.0259
   90TCq2    C6 1375   3.208   4.043   1.981 -0.0089 -0.6933 -0.9863
   90TCq2    C7 1376   3.193   3.910   2.017  0.3701  0.1599  0.4019
   90TCq2    C8 1377   3.330   4.109   2.029  0.2885 -0.0759  0.2121
   90TCq2    O4 1378   3.384   4.075   2.132 -0.2839  0.5786  0.9042
   90TCq2    C9 1379   2.868   4.135   1.877  0.4274  0.2176  0.3197
   90TCq2    O5 1380   2.876   4.244   1.813 -0.1087 -0.0575  0.6234
   90TCq2    O6 1381   2.754   4.077   1.878  0.7963  0.0677  0.6662
   90TCq2    H2 1382   2.883   3.865   1.902  0.4281  0.3125 -0.5331
   90TCq2    H3 1383   3.108   4.222   1.923  0.4447 -0.0148 -0.9903
   90TCq2    H4 1384   3.282   3.850   2.036  0.8692  1.0446  0.8362
   91TMC2    C1 1385   4.220   3.212  16.608  0.4105 -0.5862  0.2081
   91TMC2    C2 1386   4.230   3.242  16.476 -0.1404 -0.1388 -0.0605
   91TMC2    C3 1387   4.115   3.269  16.412 -0.2393  0.1287  0.4693
   91TMC2    C4 1388   4.099   3.188  16.666 -0.2072  0.7456 -0.2786
   91TMC2    C5 1389   3.987   3.197  16.593  0.1256  0.2958  0.8156
   91TMC2    C6 1390   3.989   3.240  16.464 -0.3432  0.2509  0.2052
   91TMC2     C 1391   4.330   3.191  16.690 -0.8485 -0.0931  0.3859
   91TMC2     O 1392   4.321   3.114  16.787 -0.3534  0.0595 -0.7008
   91TMC2     H 1393   4.330   3.252  16.434  1.0070  0.4643  2.7824
   91TMC2    H1 1394   4.097   3.139  16.763 -2.1274 -2.0607 -1.7220
   91TMC2    H2 1395   3.895   3.271  16.420  0.0336  1.7743  0.4625
   91TMC2    C7 1396   3.872   3.128  16.648 -0.0122 -0.2380  0.2584
   91TMC2    C8 1397   4.133   3.302  16.270  0.2832 -0.3091  0.3616
   91TMC2    O1 1398   3.864   3.122  16.770  0.0448 -0.6612  0.1436
   91TMC2    O2 1399   4.231   3.366  16.236  0.3061  0.2298 -0.5200
   91TMC2    O5 1400   4.072   3.207  16.192 -0.7031  0.2315  0.0872
   91TMC2    H5 1401   4.015   3.149  16.247  2.7418 -3.0937  0.1531
   92MPD2     C 1402   4.618   3.127  16.762 -0.1898 -0.1021  0.2077
   92MPD2    C1 1403   4.582   3.214  16.668  0.4251  0.4900  0.4979
   92MPD2    C2 1404   4.674   3.294  16.598 -0.1158  0.5060 -0.2523
   92MPD2    C3 1405   0.084   3.273  16.610 -0.5027 -0.6403  0.7801
   92MPD2    C4 1406   0.131   3.176  16.701 -0.0082 -0.1820 -0.7470
   92MPD2    C5 1407   0.038   3.111  16.780  0.4006  0.1215  0.0320
   92MPD2     H 1408   4.640   3.367  16.526 -1.1553  1.4664  1.2208
   92MPD2    H1 1409   0.234   3.146  16.712  0.3140  1.3206  0.2899
   92MPD2    H2 1410   4.547   3.081  16.830  1.1613  0.6264  2.1051
   92MPD2    H3 1411   0.069   3.024  16.836 -1.2648 -0.3953  0.1362
   92MPD2     N 1412   0.174   3.348  16.529 -0.2477  0.1271  0.3075
   92MPD2    H5 1413   0.134   3.423  16.473 -0.6600 -1.5477 -1.6361
   92MPD2    N1 1414   4.443   3.239  16.637 -0.5350 -0.0049 -0.1033
   92MPD2    H7 1415   4.424   3.316  16.574  0.1334  0.5303  0.3443
   93MPD2     C 1416   0.319   2.475  13.967 -0.1467 -0.3622  0.4481
   93MPD2    C1 1417   0.271   2.606  13.959 -0.4875 -0.4056  1.1314
   93MPD2    C2 1418   0.145   2.613  13.899 -0.6316  0.4106  0.3055
   93MPD2    C3 1419   0.066   2.511  13.862 -0.5651  0.3329  0.3286
   93MPD2    C4 1420   0.107   2.384  13.897  0.7462 -0.6395  0.1084
   93MPD2    C5 1421   0.233   2.372  13.948 -0.2360  0.0844  0.1859
   93MPD2     H 1422   0.110   2.712  13.871 -1.8856 -0.5225 -1.4147
   93MPD2    H1 1423   0.054   2.290  13.889 -1.2090  0.5784 -1.2670
   93MPD2    H2 1424   0.413   2.443  14.011  0.9458  0.6039 -1.2043
   93MPD2    H3 1425   0.266   2.273  13.974  1.9734 -0.1211 -3.4712
   93MPD2     N 1426   4.670   2.539  13.793  0.3107 -0.5020  0.6937
   93MPD2    H5 1427   4.666   2.634  13.757  1.8125 -0.8821 -0.4595
   93MPD2    N1 1428   0.336   2.725  13.988  0.1709  0.3242  0.2251
   93MPD2    H7 1429   0.269   2.799  14.008  1.3597  1.1286  1.2803
   94TCq2    C1 1430   0.473   2.739  14.012  0.3946  0.5181  0.1838
   94TCq2    O2 1431   0.565   2.662  13.995 -0.1247 -0.3611  0.2769
   94TCq2    C2 1432   0.513   2.877  14.027 -0.2414  0.0923 -0.6662
   94TCq2    C3 1433   0.424   2.962  14.086 -1.1849  0.1161  0.1037
   94TCq2    C4 1434   0.462   3.080  14.136 -0.4290  0.7293 -0.1051
   94TCq2    C5 1435   0.594   3.119  14.124 -0.3664 -0.7917  0.5821
   94TCq2    C6 1436   0.681   3.036  14.048 -0.5197  0.5532 -0.1384
   94TCq2    C7 1437   0.642   2.912  14.006 -0.6372 -0.3380  0.2038
   94TCq2    C8 1438   0.819   3.062  14.024 -0.1768 -1.1626  0.1097
   94TCq2    O4 1439   0.887   2.975  13.975 -0.2906  0.0782  0.3526
   94TCq2    C9 1440   0.368   3.160  14.220 -0.1590  0.1082 -0.6723
   94TCq2    O5 1441   0.417   3.269  14.259 -0.3059 -0.0896  0.2380
   94TCq2    O6 1442   0.250   3.113  14.246  0.1127 -0.2839  0.6275
   94TCq2    H2 1443   0.330   2.928  14.128 -1.4778  0.8517  0.0352
   94TCq2    H3 1444   0.617   3.207  14.183  1.7701 -1.0967  0.2033
   94TCq2    H4 1445   0.707   2.848  13.947 -1.8495 -3.2007  1.9596
   95TMC2    C1 1446   0.912   0.161  16.368 -0.1038  0.4382 -0.2658
   95TMC2    C2 1447   0.880   0.041  16.422  0.3245  0.1408  0.4130
   95TMC2    C3 1448   0.853   0.043  16.553  0.7154  0.4286 -0.5569
   95TMC2    C4 1449   0.929   0.279  16.435 -0.0803 -0.5119 -0.4430
   95TMC2    C5 1450   0.887   0.273  16.573  0.0906  0.6209  0.3730
   95TMC2    C6 1451   0.864   0.155  16.633 -0.3004  0.2538 -0.4362
   95TMC2     C 1452   0.962   0.166  16.230  0.5691 -0.2152 -0.0529
   95TMC2     O 1453   1.006   0.272  16.190  0.2096  0.1685 -0.6882
   95TMC2     H 1454   0.875   4.674  16.365  0.6423 -0.8181  1.9468
   95TMC2    H1 1455   0.942   0.373  16.383 -0.1246 -0.3058 -0.0807
   95TMC2    H2 1456   0.829   0.150  16.736  0.0457 -0.3513 -0.3507
   95TMC2    C7 1457   0.869   0.395  16.655 -0.1652  0.8121  1.0719
   95TMC2    C8 1458   0.776   4.658  16.610  0.2238 -0.2129 -0.6752
   95TMC2    O1 1459   0.822   0.374  16.768 -0.3496 -0.3046 -0.2687
   95TMC2    O2 1460   0.759   4.647  16.729 -0.1949  0.4324 -0.0963
   95TMC2    O5 1461   0.691   4.615  16.516  0.2996 -0.6380  0.0134
   95TMC2    H5 1462   0.697   4.657  16.428 -0.7821 -2.1750 -0.7880
   96MPD2     C 1463   0.977   4.690  15.761  0.1022 -0.3246 -0.0913
   96MPD2    C1 1464   1.031   0.082  15.814  0.7567 -0.4849 -0.0566
   96MPD2    C2 1465   1.009   0.115  15.941  0.3043 -0.2622 -0.5314
   96MPD2    C3 1466   0.940   0.032  16.028 -0.6880 -0.0752  0.1427
   96MPD2    C4 1467   0.878   4.642  15.974 -0.3562 -0.3975  0.2544
   96MPD2    C5 1468   0.902   4.613  15.837  0.3567  0.7748 -0.3021
   96MPD2     H 1469   1.048   0.210  15.974  0.4685 -0.4525 -0.1726
   96MPD2    H1 1470   0.815   4.575  16.031 -0.6052  2.3679  3.2063
   96MPD2    H2 1471   0.995   4.652  15.662  1.2054 -0.2826  0.0983
   96MPD2    H3 1472   0.853   4.529  15.790  1.3954  0.5174 -0.9209
   96MPD2     N 1473   0.922   0.055  16.160 -0.7700  0.0963 -0.2265
   96MPD2    H5 1474   0.856   4.719  16.209 -2.0737 -0.8437 -3.1345
   96MPD2    N1 1475   1.112   0.157  15.723  0.2683 -0.5724 -0.3206
   96MPD2    H7 1476   1.125   0.118  15.630 -1.6171  1.1291 -1.3002
   97MPD2     C 1477   2.948   2.340   0.650 -0.7441  0.0905  0.6143
   97MPD2    C1 1478   2.991   2.463   0.682  0.2944 -0.1461 -0.7197
   97MPD2    C2 1479   3.026   2.545   0.583  0.0929  0.2109 -0.0419
   97MPD2    C3 1480   3.015   2.511   0.452  0.7007 -0.0940  0.4008
   97MPD2    C4 1481   2.972   2.381   0.414  0.0639 -0.2189  0.2840
   97MPD2    C5 1482   2.937   2.297   0.518 -0.0647 -0.3226  0.2487
   97MPD2     H 1483   3.070   2.641   0.606 -1.5097  0.9507 -0.0519
   97MPD2    H1 1484   2.960   2.345   0.313  1.0035 -1.9949  0.7975
   97MPD2    H2 1485   2.931   2.269   0.730 -2.2148  0.0269  0.2492
   97MPD2    H3 1486   2.897   2.197   0.503  0.9966 -0.3770 -2.1965
   97MPD2     N 1487   3.069   2.591   0.350 -0.3900  0.2874  0.6400
   97MPD2    H5 1488   3.086   2.555   0.257 -0.1215 -3.8461  2.3223
   97MPD2    N1 1489   2.997   2.494   0.816  0.3022 -0.6044 -0.6505
   97MPD2    H7 1490   2.950   2.425   0.873 -1.2892  1.0475  0.0469
   98TCq2    C1 1491   3.111   2.724   0.357 -0.3250  0.3397  0.3616
   98TCq2    O2 1492   3.111   2.805   0.448  0.1045 -0.3805 -0.2690
   98TCq2    C2 1493   3.172   2.759   0.232 -0.5203 -0.4792  0.2482
   98TCq2    C3 1494   3.115   2.721   0.118  0.0645 -0.1777 -0.2080
   98TCq2    C4 1495   3.163   2.771   0.001 -0.4910 -0.6207 -0.4675
   98TCq2    C5 1496   3.261   2.867  17.699 -0.6479  0.1722 -0.3315
   98TCq2    C6 1497   3.303   2.917   0.114  0.2701  0.1987  0.4193
   98TCq2    C7 1498   3.264   2.859   0.233  0.0272 -0.1393  0.5613
   98TCq2    C8 1499   3.429   3.000   0.110  0.1611  0.6963  0.1193
   98TCq2    O4 1500   3.462   3.058   0.212 -0.0592  0.0274 -0.4166
   98TCq2    C9 1501   3.117   2.705  17.584 -0.1063 -0.5218 -0.1219
   98TCq2    O5 1502   3.023   2.619  17.595 -0.1561  0.2324  0.5459
   98TCq2    O6 1503   3.186   2.725  17.479  0.8873  0.0185 -0.9389
   98TCq2    H2 1504   3.032   2.651   0.120 -0.6395  0.6243 -1.6760
   98TCq2    H3 1505   3.285   2.907  17.601  0.8218 -1.4479 -0.6511
   98TCq2    H4 1506   3.308   2.882   0.329  1.5719 -0.5785 -0.0438
   99MPD2     C 1507   1.911   0.040   1.877  0.3743  0.4225 -0.2329
   99MPD2    C1 1508   1.780   0.038   1.843  0.2858 -0.4678  0.5189
   99MPD2    C2 1509   1.748   0.025   1.709  0.1126 -0.3305 -0.1227
   99MPD2    C3 1510   1.845   4.712   1.613 -0.2812 -0.2260 -0.0048
   99MPD2    C4 1511   1.979   0.004   1.649  0.2395 -0.7142  0.0516
   99MPD2    C5 1512   2.012   0.026   1.779 -0.9816 -0.5306 -0.0709
   99MPD2     H 1513   1.643   0.038   1.684 -0.1923 -0.3975  1.1039
   99MPD2    H1 1514   2.060   4.716   1.578  0.3352  0.0324  0.0268
   99MPD2    H2 1515   1.939   0.046   1.981  0.2157  2.3274 -0.2972
   99MPD2    H3 1516   2.117   0.031   1.807 -1.4141  1.8318  1.0950
   99MPD2     N 1517   1.806   4.670   1.484  0.3111 -0.3172  0.0288
   99MPD2    H5 1518   1.705   4.668   1.469  0.4665  0.1405 -1.1023
   99MPD2    N1 1519   1.666   0.058   1.928 -0.3188 -0.3654  0.3978
   99MPD2    H7 1520   1.578   0.039   1.882  0.4443 -0.2937 -1.0960
  100TCq2    C1 1521   1.671   0.103   2.057 -0.9183  0.3529  0.5633
  100TCq2    O2 1522   1.767   0.126   2.131  0.2482 -0.2813 -0.6907
  100TCq2    C2 1523   1.539   0.114   2.115  0.1138  0.2415 -0.3348
  100TCq2    C3 1524   1.530   0.208   2.210 -0.0977  0.0127  0.3899
  100TCq2    C4 1525   1.412   0.235   2.273  0.1615  0.1632  0.4148
  100TCq2    C5 1526   1.309   0.147   2.258  0.3310  0.5005 -0.3210
  100TCq2    C6 1527   1.322   0.047   2.154  0.1465 -0.1757 -1.0288
  100TCq2    C7 1528   1.431   0.034   2.077  0.2300  0.8039 -0.1283
  100TCq2    C8 1529   1.202   4.694   2.122  0.4332  0.0615  0.0830
  100TCq2    O4 1530   1.104   0.004   2.190 -0.6562 -0.2241  0.0766
  100TCq2    C9 1531   1.405   0.340   2.366 -0.2421  0.0689 -0.0465
  100TCq2    O5 1532   1.503   0.414   2.381 -0.1358 -0.0681  0.0974
  100TCq2    O6 1533   1.320   0.336   2.460 -0.6739 -0.1415 -0.4461
  100TCq2    H2 1534   1.615   0.275   2.211  1.1084 -1.4982  0.0720
  100TCq2    H3 1535   1.219   0.167   2.314  0.7307  2.6714 -0.4198
  100TCq2    H4 1536   1.427   4.685   1.997  1.4429  1.4313 -0.7788
  101MPD2     C 1537   2.311   0.174  12.765  0.2717  0.7964 -0.3048
  101MPD2    C1 1538   2.280   0.298  12.812 -0.0397  0.3687 -0.8670
  101MPD2    C2 1539   2.211   0.309  12.929  0.0564  0.3160 -0.6949
  101MPD2    C3 1540   2.200   0.199  13.016 -0.3840  0.5352  0.3203
  101MPD2    C4 1541   2.244   0.078  12.970 -0.8670  0.1072  0.0533
  101MPD2    C5 1542   2.294   0.068  12.843 -0.2888 -0.1635  0.3410
  101MPD2     H 1543   2.174   0.403  12.968  0.2242  0.0381  0.1342
  101MPD2    H1 1544   2.229   4.712  13.027  0.5347  0.3551  0.8043
  101MPD2    H2 1545   2.348   0.173  12.663 -1.4397  0.4444 -0.9415
  101MPD2    H3 1546   2.330   4.694  12.817  1.0256  0.3241  0.3280
  101MPD2     N 1547   2.133   0.206  13.140 -0.2691  0.4818  0.2015
  101MPD2    H5 1548   2.107   0.298  13.174  1.8298  0.3812  2.1438
  101MPD2    N1 1549   2.300   0.406  12.719 -0.1304  0.7108  0.2372
  101MPD2    H7 1550   2.319   0.381  12.623 -1.0678  0.9092  0.0035
  102TCq2    C1 1551   2.473   0.952  12.575  0.0623  1.0596 -0.4224
  102TCq2    O2 1552   2.565   0.953  12.654  0.5971 -0.1616  0.2596
  102TCq2    C2 1553   2.388   0.835  12.557 -0.3010  0.2065  0.1282
  102TCq2    C3 1554   2.333   0.811  12.434 -0.1242 -0.0754 -0.4069
  102TCq2    C4 1555   2.269   0.693  12.411 -0.7146  0.2779 -0.2840
  102TCq2    C5 1556   2.256   0.601  12.510  0.3327 -0.0082  0.0437
  102TCq2    C6 1557   2.322   0.629  12.633  0.2811  0.3308 -0.2538
  102TCq2    C7 1558   2.390   0.745  12.658  0.3019 -0.3429  0.4574
  102TCq2    C8 1559   2.301   0.537  12.746 -0.2741 -0.0599  1.0140
  102TCq2    O4 1560   2.295   0.590  12.857  0.4795 -0.9626 -0.6361
  102TCq2    C9 1561   2.217   0.659  12.275  0.4971 -0.2595 -0.5417
  102TCq2    O5 1562   2.277   0.705  12.177 -0.2686  0.2307 -0.4202
  102TCq2    O6 1563   2.117   0.590  12.266 -0.4308  0.4580 -0.8573
  102TCq2    H2 1564   2.332   0.877  12.349  0.9689  2.6653  1.6910
  102TCq2    H3 1565   2.209   0.504  12.496  1.3361 -0.4332 -0.3376
  102TCq2    H4 1566   2.436   0.776  12.751  0.4151 -0.6286  0.4982
  103TMC2    C1 1567   0.651   0.297  12.820 -0.3276 -0.2136 -0.2536
  103TMC2    C2 1568   0.772   0.349  12.846  0.3247 -0.3241 -0.0753
  103TMC2    C3 1569   0.796   0.368  12.977 -0.5452 -0.0262  0.4190
  103TMC2    C4 1570   0.551   0.271  12.910  0.0063  0.0402  0.3916
  103TMC2    C5 1571   0.575   0.305  13.039 -0.1939  0.4155  0.2595
  103TMC2    C6 1572   0.697   0.358  13.071  0.4672  0.5486 -0.0720
  103TMC2     C 1573   0.619   0.261  12.683 -0.3840 -0.2508 -0.5440
  103TMC2     O 1574   0.505   0.224  12.663 -0.3104  0.0631  0.2177
  103TMC2     H 1575   0.845   0.368  12.769  0.5196  0.1703  0.2283
  103TMC2    H1 1576   0.460   0.220  12.881 -0.0159 -0.5045  1.4196
  103TMC2    H2 1577   0.701   0.384  13.176 -0.4132 -1.1712  0.3871
  103TMC2    C7 1578   0.469   0.316  13.139  0.0178  0.2348  1.3462
  103TMC2    C8 1579   0.910   0.441  13.014  0.1021  0.5331 -0.4789
  103TMC2    O1 1580   0.508   0.317  13.256 -0.3375  0.1310 -0.3957
  103TMC2    O2 1581   0.965   0.535  12.960 -0.4979  0.4036 -0.9559
  103TMC2    O5 1582   0.934   0.398  13.134 -0.1393 -0.2101  0.4129
  103TMC2    H5 1583   0.889   0.312  13.138  1.0556 -0.7009  3.4272
  104MPD2     C 1584   0.814   0.230  12.366 -0.6316 -0.4417 -0.7486
  104MPD2    C1 1585   0.704   0.256  12.448  0.5965 -0.2122 -0.3218
  104MPD2    C2 1586   0.581   0.285  12.388 -0.3177 -0.8045 -0.6728
  104MPD2    C3 1587   0.566   0.286  12.251 -1.1112 -0.0234  0.1953
  104MPD2    C4 1588   0.678   0.243  12.175 -0.2587 -0.1803  0.3694
  104MPD2    C5 1589   0.797   0.220  12.229 -0.0908  0.0115  0.3457
  104MPD2     H 1590   0.499   0.304  12.456  0.8162  3.8684 -0.6142
  104MPD2    H1 1591   0.663   0.235  12.068 -1.2037 -0.5442  0.5310
  104MPD2    H2 1592   0.905   0.190  12.409 -1.1722  1.5662  2.2779
  104MPD2    H3 1593   0.881   0.195  12.165 -1.8932  1.2682 -2.5056
  104MPD2     N 1594   0.434   0.284  12.200 -0.4003  0.4649 -0.5440
  104MPD2    H5 1595   0.353   0.306  12.256 -0.2097 -1.8677  0.6193
  104MPD2    N1 1596   0.723   0.264  12.592 -0.1312  0.4890  0.0361
  104MPD2    H7 1597   0.812   0.302  12.622  0.0895 -0.3236  0.4116
  105MPD2     C 1598   2.770   0.059  17.658  0.2505 -0.2760 -0.7010
  105MPD2    C1 1599   2.676   0.155  17.635  0.5738  0.1054 -0.1831
  105MPD2    C2 1600   2.641   0.223   0.044 -0.8175 -0.7535  0.9647
  105MPD2    C3 1601   2.676   0.196   0.169 -0.0654 -0.8990 -0.0347
  105MPD2    C4 1602   2.765   0.085   0.191  0.0702 -0.1704  0.0308
  105MPD2    C5 1603   2.823   0.030   0.084  0.0809  0.5280  0.0729
  105MPD2     H 1604   2.571   0.303   0.025  2.5124  1.1528 -3.2828
  105MPD2    H1 1605   2.799   0.044   0.285  1.5230 -0.5609 -0.6602
  105MPD2    H2 1606   2.791   4.715  17.577  0.2330  0.2036 -1.1118
  105MPD2    H3 1607   2.890   4.672   0.101  1.0028  1.2507  0.0116
  105MPD2     N 1608   2.614   0.267   0.277 -0.4577 -0.3288 -0.0892
  105MPD2    H5 1609   2.544   0.334   0.248  0.1269  0.0411 -0.6373
  105MPD2    N1 1610   2.615   0.177  17.512  0.4394  0.0154  0.8814
  105MPD2    H7 1611   2.537   0.242  17.518  1.1462  1.0506 -1.1389
  106TCq2    C1 1612   2.652   0.262   0.405  0.0272  0.1368 -0.0369
  106TCq2    O2 1613   2.713   0.177   0.471  0.0091  0.0667  0.3469
  106TCq2    C2 1614   2.598   0.385   0.471 -0.2968  0.2037 -0.1147
  106TCq2    C3 1615   2.570   0.498   0.399  0.0565  0.1316  0.7246
  106TCq2    C4 1616   2.479   0.589   0.448 -0.5374  0.6711 -0.5817
  106TCq2    C5 1617   2.413   0.570   0.570  0.2100 -0.0446  0.8358
  106TCq2    C6 1618   2.451   0.455   0.637 -0.1202  1.1061  0.4361
  106TCq2    C7 1619   2.548   0.364   0.597 -0.5480 -0.2050 -0.1576
  106TCq2    C8 1620   2.396   0.443   0.771  0.6424  0.2877  0.2343
  106TCq2    O4 1621   2.450   0.365   0.851  0.4249 -0.0573 -0.9026
  106TCq2    C9 1622   2.442   0.696   0.361 -0.1781  0.4148  0.4388
  106TCq2    O5 1623   2.487   0.684   0.245 -0.4964  0.5746  0.0972
  106TCq2    O6 1624   2.357   0.778   0.394 -0.0117  0.2988  0.5933
  106TCq2    H2 1625   2.618   0.516   0.304 -0.3150 -1.3337  0.2664
  106TCq2    H3 1626   2.346   0.645   0.610  0.1523  0.3385 -0.0069
  106TCq2    H4 1627   2.577   0.276   0.654  2.0033  0.1597 -0.9095
  107TMC2    C1 1628   2.781   4.040  11.765 -0.0677 -0.1909 -0.2486
  107TMC2    C2 1629   2.866   4.120  11.689 -0.4283  0.6587 -0.4205
  107TMC2    C3 1630   2.939   4.063  11.590 -0.5107  0.0760 -0.0253
  107TMC2    C4 1631   2.779   3.905  11.739  0.5092 -0.2979  0.0536
  107TMC2    C5 1632   2.871   3.853  11.654  0.0572  0.9987 -0.0067
  107TMC2    C6 1633   2.945   3.927  11.575 -0.5407  0.1885  0.2762
  107TMC2     C 1634   2.692   4.099  11.863  0.2326  0.1471 -0.1969
  107TMC2     O 1635   2.639   4.036  11.954  0.2141  0.4946 -0.0435
  107TMC2     H 1636   2.888   4.221  11.724 -2.5511  1.4363 -1.3645
  107TMC2    H1 1637   2.717   3.846  11.806 -0.3136  0.0142 -0.4429
  107TMC2    H2 1638   3.003   3.887  11.493 -1.2806 -0.3137 -0.0122
  107TMC2    C7 1639   2.877   3.710  11.639 -0.3759  0.0464 -0.4117
  107TMC2    C8 1640   3.034   4.151  11.523 -0.4664  0.3384 -0.3787
  107TMC2    O1 1641   2.776   3.641  11.659  0.7720 -0.1555  0.2544
  107TMC2    O2 1642   3.097   4.242  11.581  0.8129  0.0998 -0.6008
  107TMC2    O5 1643   3.074   4.088  11.409  0.2329  0.3280  0.4537
  107TMC2    H5 1644   3.012   4.023  11.370  0.2927  0.2235  0.5335
  108MPD2     C 1645   2.587   4.448  11.857  0.7131 -0.2544 -0.2326
  108MPD2    C1 1646   2.612   4.327  11.921 -0.3481 -0.3467  0.7574
  108MPD2    C2 1647   2.560   4.302  12.050 -0.3435  0.2773 -0.9071
  108MPD2    C3 1648   2.497   4.406  12.125 -0.9415  0.4801  0.4422
  108MPD2    C4 1649   2.492   4.528  12.058 -0.4840  0.7520  0.0391
  108MPD2    C5 1650   2.533   4.549  11.923 -0.0561 -0.3354  0.7105
  108MPD2     H 1651   2.564   4.200  12.085  0.5448  0.6665  0.1303
  108MPD2    H1 1652   2.451   4.616  12.106 -1.6635 -0.1997  0.7850
  108MPD2    H2 1653   2.621   4.470  11.757 -0.7102 -2.2313 -1.1537
  108MPD2    H3 1654   2.526   4.646  11.876 -0.0740 -0.5130  0.3496
  108MPD2     N 1655   2.432   4.405  12.249  0.3544  0.2994  0.4315
  108MPD2    H5 1656   2.396   4.492  12.286 -3.5861 -0.8185 -0.7753
  108MPD2    N1 1657   2.682   4.231  11.844  0.0174 -0.3874  0.7615
  108MPD2    H7 1658   2.713   4.261  11.752 -2.1800 -1.5238 -0.3561
  109MPD2     C 1659   2.299   1.687   1.989  0.3552  0.1517 -0.3311
  109MPD2    C1 1660   2.409   1.629   1.924 -0.4176  0.4159  0.3074
  109MPD2    C2 1661   2.538   1.672   1.952  0.3444  0.3200 -0.0710
  109MPD2    C3 1662   2.557   1.770   2.037  0.4582  0.1859 -0.2044
  109MPD2    C4 1663   2.450   1.819   2.116  0.4736  0.3911  0.0275
  109MPD2    C5 1664   2.320   1.771   2.093 -0.2986  0.6588  0.4845
  109MPD2     H 1665   2.629   1.650   1.897 -0.4783  1.9490 -2.0902
  109MPD2    H1 1666   2.466   1.895   2.192 -1.6712 -0.1594  1.0141
  109MPD2    H2 1667   2.201   1.639   1.985  1.4556 -1.9277 -2.4123
  109MPD2    H3 1668   2.244   1.816   2.156  1.1164 -0.2578  2.8471
  109MPD2     N 1669   2.686   1.825   2.051 -0.7803  0.5431 -0.0271
  109MPD2    H5 1670   2.760   1.781   1.997 -1.3374 -1.0709  0.5336
  109MPD2    N1 1671   2.381   1.543   1.816 -0.0654 -0.1368  0.3161
  109MPD2    H7 1672   2.287   1.540   1.778 -0.3805  0.3148  1.0478
  110TCq2    C1 1673   2.718   1.943   2.115  0.6115  0.0185 -0.7567
  110TCq2    O2 1674   2.660   2.010   2.202  0.0779  0.2872 -0.6422
  110TCq2    C2 1675   2.852   1.984   2.076 -0.4965  0.5143 -0.2684
  110TCq2    C3 1676   2.925   2.067   2.161  0.3866  0.1880 -0.0663
  110TCq2    C4 1677   3.041   2.129   2.120 -0.0503 -0.0480 -0.1728
  110TCq2    C5 1678   3.085   2.110   1.992  0.4623  0.2981  0.0239
  110TCq2    C6 1679   3.001   2.048   1.903  0.4294  0.4876  0.5998
  110TCq2    C7 1680   2.885   1.980   1.943  0.1548 -0.0839  0.7628
  110TCq2    C8 1681   3.002   2.111   1.768 -0.5824  0.0398 -0.4392
  110TCq2    O4 1682   3.057   2.218   1.754 -0.0961 -0.0699 -0.4030
  110TCq2    C9 1683   3.112   2.220   2.208 -0.0662  0.4553  0.3564
  110TCq2    O5 1684   3.216   2.266   2.157 -0.0069 -0.0455 -0.0202
  110TCq2    O6 1685   3.060   2.246   2.319 -0.5638 -0.2282  0.2597
  110TCq2    H2 1686   2.889   2.072   2.263 -0.8166 -0.5751 -0.4532
  110TCq2    H3 1687   3.166   2.175   1.962 -1.2008  2.3436 -0.0453
  110TCq2    H4 1688   2.814   1.940   1.872  0.7528  0.3341 -0.0631
  111TMC2    C1 1689   3.122   1.638  11.445  0.9677  0.2793 -0.1929
  111TMC2    C2 1690   3.235   1.687  11.383  0.0079 -0.7105  0.2097
  111TMC2    C3 1691   3.356   1.648  11.428 -0.7300  0.2159 -0.1577
  111TMC2    C4 1692   3.136   1.543  11.540 -0.0849 -0.1449 -0.2890
  111TMC2    C5 1693   3.259   1.508  11.586  0.8056  0.6049  0.1484
  111TMC2    C6 1694   3.370   1.572  11.540 -0.3812  0.0976 -0.2125
  111TMC2     C 1695   2.995   1.640  11.372 -0.2608 -0.3328  0.1358
  111TMC2     O 1696   2.918   1.543  11.388 -0.2610  0.6543  0.6228
  111TMC2     H 1697   3.222   1.764  11.308  2.7752 -2.6742 -2.2788
  111TMC2    H1 1698   3.052   1.479  11.566 -1.1237  0.8089 -1.2790
  111TMC2    H2 1699   3.466   1.549  11.586 -1.1023 -0.4222  1.0530
  111TMC2    C7 1700   3.261   1.432  11.707  0.3401 -0.0531  0.1915
  111TMC2    C8 1701   3.467   1.720  11.385  0.5489  0.4287 -1.2076
  111TMC2    O1 1702   3.153   1.413  11.761  0.2189  0.0487  0.8670
  111TMC2    O2 1703   3.569   1.736  11.453 -0.6142  0.0709  0.0800
  111TMC2    O5 1704   3.456   1.716  11.253 -0.5660  0.1848  0.0198
  111TMC2    H5 1705   3.367   1.697  11.217 -1.5279  1.7928  1.5977
  112MPD2     C 1706   2.664   1.861  11.044 -0.6239 -0.1392  0.6261
  112MPD2    C1 1707   2.690   1.727  11.062 -0.5597 -0.0894  0.2886
  112MPD2    C2 1708   2.789   1.686  11.151 -0.2684 -0.3954 -0.0017
  112MPD2    C3 1709   2.871   1.780  11.209 -0.0529 -0.2988  0.5364
  112MPD2    C4 1710   2.842   1.915  11.193 -0.0582  0.0507  0.6098
  112MPD2    C5 1711   2.745   1.956  11.105 -0.4846 -0.2513 -1.1871
  112MPD2     H 1712   2.800   1.580  11.175  0.4893 -0.4283 -0.4753
  112MPD2    H1 1713   2.897   1.994  11.243 -0.3143  0.9453 -0.5171
  112MPD2    H2 1714   2.575   1.891  10.990  0.1243  0.3112 -0.3314
  112MPD2    H3 1715   2.729   2.062  11.092  0.9347 -0.1426 -2.0605
  112MPD2     N 1716   2.977   1.752  11.295 -0.9524 -0.4745  0.4002
  112MPD2    H5 1717   3.037   1.833  11.311 -0.0799 -1.0623  0.0985
  112MPD2    N1 1718   2.607   1.622  11.008 -0.4442 -0.0750  0.4363
  112MPD2    H7 1719   2.628   1.531  11.047 -2.1202  0.2913  2.1792
  113MPD2     C 1720   1.259   4.191   1.342  0.2036  0.3494 -0.2968
  113MPD2    C1 1721   1.149   4.262   1.298  0.0770  0.1056  0.5507
  113MPD2    C2 1722   1.090   4.230   1.175 -0.1865  0.6262 -0.7391
  113MPD2    C3 1723   1.143   4.122   1.100 -0.4047 -0.6149  0.0730
  113MPD2    C4 1724   1.255   4.059   1.139  0.3201  0.4538  0.0803
  113MPD2    C5 1725   1.310   4.094   1.258 -0.0242  0.0682 -0.1790
  113MPD2     H 1726   0.997   4.281   1.150 -0.9760  0.0986  1.1024
  113MPD2    H1 1727   1.299   3.981   1.078  2.0844  0.5435  1.2032
  113MPD2    H2 1728   1.319   4.218   1.429  0.8440  0.4092 -0.7592
  113MPD2    H3 1729   1.398   4.037   1.287 -0.4190 -0.7710 -0.6408
  113MPD2     N 1730   1.079   4.076   0.987 -0.0752  0.0741  0.1583
  113MPD2    H5 1731   1.089   3.977   0.964 -2.6667 -0.0557 -0.4198
  113MPD2    N1 1732   1.092   4.365   1.374 -0.4793 -0.2816  0.6519
  113MPD2    H7 1733   1.012   4.418   1.343  0.3117  0.4534 -0.1332
  114TCq2    C1 1734   0.978   4.132   0.923  0.5291  0.1208 -0.1391
  114TCq2    O2 1735   0.934   4.250   0.923  0.1104  0.1442  0.1837
  114TCq2    C2 1736   0.905   4.031   0.849  0.1925 -0.4194 -0.0184
  114TCq2    C3 1737   0.879   4.064   0.717 -0.4765 -0.2566 -0.8575
  114TCq2    C4 1738   0.852   3.962   0.629 -0.2707  0.3794 -0.3073
  114TCq2    C5 1739   0.844   3.831   0.668  0.0336 -0.3183 -0.7750
  114TCq2    C6 1740   0.879   3.797   0.797  0.2124  0.0923 -0.2555
  114TCq2    C7 1741   0.908   3.904   0.888 -0.5910  0.4546 -0.9186
  114TCq2    C8 1742   0.828   3.672   0.844 -0.5112  0.9732  0.2475
  114TCq2    O4 1743   0.838   3.574   0.776 -0.0483 -0.0452 -0.5306
  114TCq2    C9 1744   0.836   3.991   0.484 -1.0637  0.5813  0.0409
  114TCq2    O5 1745   0.828   3.895   0.403  0.4371 -0.0022 -0.5514
  114TCq2    O6 1746   0.871   4.104   0.451  0.3793 -0.3792 -0.3906
  114TCq2    H2 1747   0.874   4.168   0.688 -0.3926  0.1101  0.4667
  114TCq2    H3 1748   0.813   3.755   0.597 -0.8655  0.4442 -1.1966
  114TCq2    H4 1749   0.920   3.884   0.994 -0.5744 -0.3332 -1.0649
  115TMC2    C1 1750   1.583   2.427   0.196 -0.0305  0.5361 -0.3026
  115TMC2    C2 1751   1.713   2.446   0.227  0.3307 -0.3679  0.7275
  115TMC2    C3 1752   1.774   2.573   0.220  0.3380  0.4502 -0.0786
  115TMC2    C4 1753   1.514   2.523   0.134 -0.6934 -0.1320 -0.1580
  115TMC2    C5 1754   1.580   2.641   0.111  0.2099 -0.0298 -0.7296
  115TMC2    C6 1755   1.707   2.672   0.152 -0.3703 -0.4270 -0.2719
  115TMC2     C 1756   1.542   2.290   0.180  0.6282 -0.3674 -0.6647
  115TMC2     O 1757   1.471   2.261   0.088 -0.0689  0.4504  0.1154
  115TMC2     H 1758   1.769   2.358   0.255  1.8065  0.2209 -0.3076
  115TMC2    H1 1759   1.420   2.499   0.087 -1.1589  1.5269 -0.1001
  115TMC2    H2 1760   1.771   2.753   0.119 -0.1624 -1.6090 -2.7815
  115TMC2    C7 1761   1.505   2.722   0.024 -0.1014  0.3223  0.8154
  115TMC2    C8 1762   1.918   2.579   0.244 -0.3536  0.0694  0.6024
  115TMC2    O1 1763   1.387   2.698   0.007  0.1833 -0.1715  0.2629
  115TMC2    O2 1764   1.996   2.484   0.235  0.5691 -0.6550  0.1343
  115TMC2    O5 1765   1.959   2.708   0.283  0.3881 -0.1308 -0.5012
  115TMC2    H5 1766   1.887   2.773   0.299 -0.5091 -1.4165  0.6048
  116MPD2     C 1767   1.522   1.801   0.357  0.4332  0.1772  0.3431
  116MPD2    C1 1768   1.482   1.854   0.234 -0.5497 -0.6351 -0.2237
  116MPD2    C2 1769   1.499   1.987   0.207  0.7789  0.4373 -0.5231
  116MPD2    C3 1770   1.548   2.074   0.305  0.7422 -0.2958  0.5026
  116MPD2    C4 1771   1.591   2.016   0.421  0.0051 -0.4964  1.0395
  116MPD2    C5 1772   1.579   1.879   0.447  0.6461  0.1052  0.5403
  116MPD2     H 1773   1.469   2.031   0.112 -0.5296 -0.2895 -0.4384
  116MPD2    H1 1774   1.637   2.082   0.495 -0.5652  3.5319 -2.2128
  116MPD2    H2 1775   1.507   1.698   0.387  0.2151 -0.2496 -1.1924
  116MPD2    H3 1776   1.598   1.837   0.545  0.4838 -1.0939  0.0583
  116MPD2     N 1777   1.565   2.213   0.292  0.1917  0.8128  0.4566
  116MPD2    H5 1778   1.611   2.266   0.365 -1.0145 -1.5012  2.8924
  116MPD2    N1 1779   1.408   1.784   0.143  0.0999 -0.0591 -0.7021
  116MPD2    H7 1780   1.381   1.840   0.062  2.0139  0.8578 -0.7045
  117TMC2    C1 1781   0.144   3.201  13.829  0.0742  0.3793  0.2704
  117TMC2    C2 1782   0.265   3.173  13.779  0.0445 -0.2283 -0.0082
  117TMC2    C3 1783   0.376   3.239  13.824 -0.1829  0.3450  0.0906
  117TMC2    C4 1784   0.123   3.289  13.938 -0.3856 -0.0331 -0.4413
  117TMC2    C5 1785   0.234   3.356  13.978  0.0748  0.0707  0.2351
  117TMC2    C6 1786   0.364   3.334  13.924  0.1998 -0.3174 -0.3655
  117TMC2     C 1787   0.041   3.169  13.735 -0.0270  0.5771  0.2425
  117TMC2     O 1788   0.059   3.079  13.660  0.3672 -0.1535  0.4891
  117TMC2     H 1789   0.278   3.112  13.690  2.2255  1.2363 -0.6971
  117TMC2    H1 1790   0.026   3.301  13.985 -0.0854  1.3529 -0.1674
  117TMC2    H2 1791   0.449   3.390  13.960 -1.1851  1.2329  0.5390
  117TMC2    C7 1792   0.222   3.474  14.070  1.1089 -0.4806 -0.2050
  117TMC2    C8 1793   0.504   3.225  13.758 -0.3872 -0.2757 -0.3490
  117TMC2    O1 1794   0.310   3.560  14.068 -0.1498  0.3238 -0.3877
  117TMC2    O2 1795   0.526   3.123  13.695 -0.2480 -0.7894 -0.0260
  117TMC2    O5 1796   0.550   3.345  13.722 -0.3389  0.6085 -0.2919
  117TMC2    H5 1797   0.487   3.420  13.725  1.6095  2.1137  2.7099
  118MPD2     C 1798   4.660   3.550  14.279 -0.1564 -0.1099  0.1269
  118MPD2    C1 1799   0.057   3.570  14.221 -0.0699 -1.0033 -0.0609
  118MPD2    C2 1800   0.098   3.706  14.223 -0.2536 -0.4144 -0.1532
  118MPD2    C3 1801   0.030   3.804  14.297 -0.4127  0.2287  0.1976
  118MPD2    C4 1802   4.629   3.770  14.351 -0.6609  0.0799 -0.5530
  118MPD2    C5 1803   4.583   3.644  14.333  0.5682  1.1849  0.5320
  118MPD2     H 1804   0.182   3.737  14.161  0.6394 -0.8199  0.8444
  118MPD2    H1 1805   4.564   3.833  14.411  0.9212  1.5882 -0.4183
  118MPD2    H2 1806   4.611   3.454  14.266 -0.5287 -0.3068  3.0186
  118MPD2    H3 1807   4.485   3.615  14.370  0.8916 -2.0048 -1.0990
  118MPD2     N 1808   0.061   3.939  14.297 -0.1402  0.3113 -0.2063
  118MPD2    H5 1809   4.719   4.005  14.334 -0.6740  0.8632 -2.2029
  118MPD2    N1 1810   0.110   3.463  14.149 -0.9232 -0.1249  0.3845
  118MPD2    H7 1811   0.051   3.381  14.149  0.4581 -1.1440  3.5763
  119MPD2     C 1812   3.603   4.683  13.855  0.3775 -0.2492  0.1657
  119MPD2    C1 1813   3.465   4.692  13.871  0.0878  0.1138  0.3061
  119MPD2    C2 1814   3.381   4.616  13.793  0.1294  0.0411  0.4999
  119MPD2    C3 1815   3.436   4.534  13.699 -0.6197  0.0844 -0.5256
  119MPD2    C4 1816   3.574   4.530  13.682 -0.6612 -0.4617  0.0200
  119MPD2    C5 1817   3.659   4.601  13.761 -0.5832 -0.2518 -0.1464
  119MPD2     H 1818   3.272   4.620  13.797  0.1120  1.0076 -0.6778
  119MPD2    H1 1819   3.618   4.460  13.611  1.1827 -0.8073  1.4848
  119MPD2    H2 1820   3.674   0.009  13.919  0.7758 -0.4997 -0.0690
  119MPD2    H3 1821   3.765   4.588  13.741  0.0731  3.1599  1.0879
  119MPD2     N 1822   3.361   4.435  13.626  0.0429 -0.3910 -0.2059
  119MPD2    H5 1823   3.409   4.363  13.572 -0.2183 -0.4679 -0.3380
  119MPD2    N1 1824   3.410   0.050  13.975 -0.7199  0.5899 -0.0430
  119MPD2    H7 1825   3.472   0.127  13.998 -1.7849  1.1992  0.8331
  120TCq2    C1 1826   3.223   4.412  13.633  0.1180  0.4850  0.0428
  120TCq2    O2 1827   3.131   4.470  13.694  0.2598 -0.2640 -0.2952
  120TCq2    C2 1828   3.182   4.319  13.526  0.2408 -0.0356  0.3650
  120TCq2    C3 1829   3.258   4.287  13.416 -0.4102  0.0530  0.0194
  120TCq2    C4 1830   3.205   4.223  13.306  1.2052 -0.0258 -0.7307
  120TCq2    C5 1831   3.076   4.180  13.306 -1.3941  0.4466 -0.6718
  120TCq2    C6 1832   3.004   4.203  13.419  0.9031 -0.8356  0.0871
  120TCq2    C7 1833   3.053   4.279  13.528 -0.1326  0.4406 -0.8168
  120TCq2    C8 1834   2.859   4.199  13.395 -0.1316  0.4492 -0.0764
  120TCq2    O4 1835   2.824   4.163  13.283  0.1879  0.4423 -0.7152
  120TCq2    C9 1836   3.289   4.211  13.188  0.4545  0.4571 -0.4061
  120TCq2    O5 1837   3.229   4.197  13.078  0.1124 -0.7538  0.0841
  120TCq2    O6 1838   3.413   4.228  13.206 -0.1797 -0.5921  0.6418
  120TCq2    H2 1839   3.357   4.326  13.396 -0.8212  1.1283  0.0776
  120TCq2    H3 1840   3.041   4.125  13.220  0.1271 -2.1171  0.3479
  120TCq2    H4 1841   2.992   4.299  13.615  1.1175 -1.5985  0.5292
  121TMC2    C1 1842   0.069   1.805  14.118  0.6957 -0.7413 -0.3768
  121TMC2    C2 1843   0.007   1.812  14.240 -0.5947  0.4439 -0.0413
  121TMC2    C3 1844   4.596   1.831  14.243  0.1259  0.3794  0.6913
  121TMC2    C4 1845   4.715   1.822  14.004  0.0835 -0.5868 -0.1135
  121TMC2    C5 1846   4.583   1.843  14.014 -0.0984  0.4438 -0.5912
  121TMC2    C6 1847   4.518   1.844  14.134 -0.8011 -0.4042  0.4529
  121TMC2     C 1848   0.206   1.788  14.121  0.0328 -0.2815  0.0021
  121TMC2     O 1849   0.269   1.808  14.223  0.0753 -0.1174  0.0067
  121TMC2     H 1850   0.069   1.789  14.326 -1.2242  1.1243  0.5961
  121TMC2    H1 1851   0.030   1.807  13.904 -1.5443 -4.0350 -0.2556
  121TMC2    H2 1852   4.413   1.867  14.150 -0.2140  0.8434  2.5244
  121TMC2    C7 1853   4.503   1.831  13.891  0.1747 -0.2656 -0.8348
  121TMC2    C8 1854   4.535   1.842  14.381 -0.2961 -0.5372 -0.5385
  121TMC2    O1 1855   4.551   1.868  13.785 -0.0520 -0.0505 -0.6036
  121TMC2    O2 1856   4.420   1.804  14.401  0.3510 -0.5891  0.5603
  121TMC2    O5 1857   4.632   1.863  14.479  0.1934 -0.9563 -0.0637
  121TMC2    H5 1858   4.707   1.920  14.453  1.0138 -1.4997  1.1405
  122MPD2     C 1859   0.496   1.814  14.058  0.2689  0.4157 -0.0596
  122MPD2    C1 1860   0.394   1.796  13.959  0.2282 -0.3894 -0.2577
  122MPD2    C2 1861   0.436   1.769  13.831 -0.0917  0.3556 -0.0534
  122MPD2    C3 1862   0.573   1.779  13.802  0.5139  0.0928 -0.1403
  122MPD2    C4 1863   0.667   1.795  13.897 -0.4739  0.2520  0.1511
  122MPD2    C5 1864   0.626   1.812  14.023  0.6314  0.4267  0.7651
  122MPD2     H 1865   0.360   1.761  13.754 -0.5298  1.6626  0.2524
  122MPD2    H1 1866   0.772   1.817  13.882 -0.6889  0.4056 -1.1227
  122MPD2    H2 1867   0.483   1.838  14.163 -1.4576 -0.5318 -0.0540
  122MPD2    H3 1868   0.705   1.824  14.096  0.9225 -1.0038  0.6791
  122MPD2     N 1869   0.625   1.776  13.670  0.1658  1.4983  0.8560
  122MPD2    H5 1870   0.724   1.794  13.658  0.0302  1.6228 -0.0691
  122MPD2    N1 1871   0.257   1.785  13.992 -0.6457  0.4520 -0.1591
  122MPD2    H7 1872   0.195   1.757  13.917  1.1957 -0.6381 -1.2824
  123MPD2     C 1873   2.984   3.986  10.093  0.0518  0.4360 -0.1988
  123MPD2    C1 1874   2.951   4.088  10.020 -0.1546  0.5241  0.2183
  123MPD2    C2 1875   3.042   4.187   9.993 -0.2341 -0.4978  0.0008
  123MPD2    C3 1876   3.166   4.189  10.046 -0.3362  0.0322 -0.1960
  123MPD2    C4 1877   3.205   4.075  10.110 -0.0176  0.1464  0.5235
  123MPD2    C5 1878   3.114   3.978  10.140  0.1850  0.0156  0.2239
  123MPD2     H 1879   3.014   4.274   9.936  1.8845  0.9961  1.2352
  123MPD2    H1 1880   3.310   4.063  10.134  0.6430  0.9217 -1.9661
  123MPD2    H2 1881   2.912   3.907  10.114 -0.1021  1.1181  1.8012
  123MPD2    H3 1882   3.145   3.886  10.189  1.6419  0.2559 -0.2453
  123MPD2     N 1883   3.249   4.299  10.007  0.3818  0.0581 -0.3239
  123MPD2    H5 1884   3.209   4.377   9.957 -2.1716 -1.4214 -0.5680
  123MPD2    N1 1885   2.823   4.086   9.967  0.0341 -0.2609  0.2505
  123MPD2    H7 1886   2.766   4.004   9.989  0.1868 -0.6466 -0.8212
  124TCq2    C1 1887   3.390   4.292  10.014 -0.0404  0.4548  0.6896
  124TCq2    O2 1888   3.468   4.202  10.044 -0.1369 -0.0960  0.2925
  124TCq2    C2 1889   3.444   4.420   9.979 -0.1151  0.0209 -0.3586
  124TCq2    C3 1890   3.567   4.426   9.923 -0.2469 -0.1257 -0.2448
  124TCq2    C4 1891   3.595   4.535   9.840 -0.0259 -0.4363  0.2973
  124TCq2    C5 1892   3.515   4.648   9.838  0.2619 -0.5024  0.4747
  124TCq2    C6 1893   3.393   4.643   9.902  0.7422 -0.8042 -0.6865
  124TCq2    C7 1894   3.363   4.527   9.966  0.3917 -0.2553  0.1534
  124TCq2    C8 1895   3.281   4.712   9.842  0.4937 -0.1144 -0.1307
  124TCq2    O4 1896   3.179   4.644   9.827 -0.4026  0.6731 -0.5710
  124TCq2    C9 1897   3.732   4.549   9.793  0.5336  0.1844 -0.7218
  124TCq2    O5 1898   3.766   4.662   9.766  0.7794  0.5971 -0.8700
  124TCq2    O6 1899   3.809   4.454   9.787  0.4110 -0.4874  0.0083
  124TCq2    H2 1900   3.627   4.337   9.913 -1.0546 -1.0099  2.9519
  124TCq2    H3 1901   3.545   0.009   9.779 -0.9717 -1.9493 -2.2781
  124TCq2    H4 1902   3.279   4.536  10.034 -0.8523 -0.5295 -1.3526
  125TMC2    C1 1903   2.951   1.544   9.649  0.3586 -0.0371  0.3509
  125TMC2    C2 1904   2.849   1.596   9.578 -0.2505 -0.5849  0.4319
  125TMC2    C3 1905   2.874   1.656   9.454  0.3165 -0.2413  0.9451
  125TMC2    C4 1906   3.082   1.541   9.602 -0.4832  0.3113  0.6092
  125TMC2    C5 1907   3.103   1.606   9.484 -0.2728 -0.1465  0.1218
  125TMC2    C6 1908   3.001   1.661   9.404 -0.2548 -0.6702 -0.4333
  125TMC2     C 1909   2.926   1.481   9.775 -0.0922  0.1523 -0.0551
  125TMC2     O 1910   2.824   1.422   9.796 -0.0339  0.1969  0.1455
  125TMC2     H 1911   2.747   1.598   9.616  0.0816  0.0639  1.2848
  125TMC2    H1 1912   3.169   1.497   9.649 -1.4035 -1.4289  0.7128
  125TMC2    H2 1913   3.029   1.721   9.318  0.5087  1.0365  1.0128
  125TMC2    C7 1914   3.234   1.656   9.450 -1.0942 -0.5381 -0.5106
  125TMC2    C8 1915   2.755   1.702   9.391  0.2481  0.2250  0.9086
  125TMC2    O1 1916   3.240   1.760   9.385 -0.0217  0.1217  0.0778
  125TMC2    O2 1917   2.652   1.740   9.444  0.9797  0.2141 -0.6564
  125TMC2    O5 1918   2.757   1.654   9.264  0.5494 -0.2933  0.0197
  125TMC2    H5 1919   2.828   1.586   9.262 -0.2145 -1.0744 -0.3734
  126MPD1     C 1920   2.998   1.465  10.280  0.0734 -0.0205  0.5770
  126MPD1    C1 1921   3.088   1.558  10.220 -0.2055 -0.3607 -0.1786
  126MPD1    C2 1922   3.093   1.562  10.078 -0.1441 -0.1487  0.1307
  126MPD1    C3 1923   3.011   1.487  10.002  0.1280  0.0001  0.6042
  126MPD1    C4 1924   2.931   1.391  10.054  0.0231 -0.0968 -0.4146
  126MPD1    C5 1925   2.923   1.390  10.196  0.2615 -0.0058 -0.0628
  126MPD1     H 1926   3.166   1.629  10.034 -0.8478 -0.5691 -1.6814
  126MPD1    H1 1927   2.880   1.321   9.989  0.7383 -0.9492 -0.0634
  126MPD1    H2 1928   2.983   1.448  10.386  3.5119 -0.9615  0.9260
  126MPD1    H3 1929   2.861   1.322  10.254  0.5066 -0.2204 -0.0524
  126MPD1     N 1930   3.018   1.520   9.868 -0.6761 -0.6016  0.2389
  126MPD1    H5 1931   3.083   1.591   9.835  0.8815 -1.8464  0.6803
  126MPD1    N1 1932   3.180   1.617  10.300  0.3535  0.4039  0.3273
  126MPD1    H6 1933   3.138   1.631  10.392  0.5343  1.3603  0.2617
  126MPD1    H7 1934   3.199   1.714  10.278 -1.3294  0.8071  0.6537
  127MPD2     C 1935   0.172   0.456   9.114  0.6411 -0.2269  0.6909
  127MPD2    C1 1936   0.218   0.413   9.231  0.0775  0.3437 -0.2606
  127MPD2    C2 1937   0.272   0.504   9.322 -0.6774  0.1184 -0.4768
  127MPD2    C3 1938   0.261   0.640   9.298  0.4666 -0.3778 -0.4995
  127MPD2    C4 1939   0.202   0.686   9.177  0.4748 -0.1995  0.5675
  127MPD2    C5 1940   0.159   0.592   9.084 -0.5578 -0.1990 -0.0476
  127MPD2     H 1941   0.323   0.460   9.407 -0.7837 -0.5536 -0.7615
  127MPD2    H1 1942   0.200   0.791   9.150 -2.9507 -0.0250  1.4504
  127MPD2    H2 1943   0.126   0.385   9.045  0.7252 -0.2914  0.7019
  127MPD2    H3 1944   0.126   0.599   8.981 -0.1696 -2.1823 -0.3248
  127MPD2     N 1945   0.307   0.722   9.404 -0.0177  0.5141  0.2101
  127MPD2    H5 1946   0.348   0.674   9.483 -0.7084  0.5995  0.6286
  127MPD2    N1 1947   0.226   0.277   9.250  0.6057 -0.2502  0.1037
  127MPD2    H7 1948   0.209   0.218   9.169 -0.9343  1.1842 -0.6255
  128TCq2    C1 1949   0.255   0.211   9.368  0.2957  0.6266  0.0002
  128TCq2    O2 1950   0.282   0.256   9.479 -0.6263  0.5284  0.7842
  128TCq2    C2 1951   0.245   0.066   9.358 -0.3356 -0.1067 -0.0082
  128TCq2    C3 1952   0.272   0.007   9.477  0.0110 -0.3752 -0.0382
  128TCq2    C4 1953   0.221   4.608   9.508  0.5440  0.3557 -0.3410
  128TCq2    C5 1954   0.133   4.545   9.423 -1.1916  0.0356 -0.2290
  128TCq2    C6 1955   0.097   4.616   9.313  0.0428 -0.1345  0.7504
  128TCq2    C7 1956   0.155   0.013   9.275 -0.0818 -0.6541  0.4753
  128TCq2    C8 1957   0.020   4.552   9.204 -0.2315 -0.6754 -0.0286
  128TCq2    O4 1958   4.712   4.616   9.106 -0.3009 -0.1084 -0.5644
  128TCq2    C9 1959   0.242   4.548   9.644  0.3157  0.1113 -0.5572
  128TCq2    O5 1960   0.207   4.429   9.657  0.5006 -0.0119 -0.0682
  128TCq2    O6 1961   0.290   4.627   9.724 -0.2539 -0.1425 -0.4028
  128TCq2    H2 1962   0.331   0.051   9.556  0.1785 -0.4217 -0.1381
  128TCq2    H3 1963   0.061   4.472   9.459  0.5729 -0.6986  1.7958
  128TCq2    H4 1964   0.101   0.067   9.198  0.3183 -1.6434 -0.5061
  129MPD2     C 1965   3.308   2.265   1.343  0.1062 -0.4466 -0.1706
  129MPD2    C1 1966   3.286   2.216   1.217 -0.1021 -0.5243 -0.1562
  129MPD2    C2 1967   3.306   2.305   1.112  0.2707  0.1129 -0.3722
  129MPD2    C3 1968   3.342   2.431   1.130  0.6846 -0.1859  0.1329
  129MPD2    C4 1969   3.370   2.478   1.255  0.3615  0.1481 -0.1829
  129MPD2    C5 1970   3.354   2.389   1.358 -0.5629 -0.5842 -0.7211
  129MPD2     H 1971   3.299   2.264   1.012  1.2073  1.0063 -0.8021
  129MPD2    H1 1972   3.413   2.573   1.284  0.5860 -0.4151  1.3321
  129MPD2    H2 1973   3.304   2.211   1.437  0.3959  0.0678  0.1361
  129MPD2    H3 1974   3.365   2.427   1.459  0.5191 -0.4474 -0.8907
  129MPD2     N 1975   3.355   2.510   1.011  0.2379 -0.0273 -0.5162
  129MPD2    H5 1976   3.360   2.463   0.921 -0.3904 -0.8037 -0.1457
  129MPD2    N1 1977   3.240   2.088   1.196 -0.2275  0.5086  0.6913
  129MPD2    H7 1978   3.223   2.067   1.099  1.3027 -0.6563  0.6794
  130TCq2    C1 1979   3.230   1.986   1.290 -0.5348  0.2409 -0.0289
  130TCq2    O2 1980   3.270   1.975   1.405 -0.0767  0.2599 -0.1257
  130TCq2    C2 1981   3.184   1.858   1.232  0.3055  0.1606 -0.3453
  130TCq2    C3 1982   3.132   1.854   1.106  0.8356 -0.1405 -0.1875
  130TCq2    C4 1983   3.062   1.741   1.070 -0.6087 -0.2219 -0.9031
  130TCq2    C5 1984   3.055   1.625   1.146  0.2350  0.5284 -0.3590
  130TCq2    C6 1985   3.119   1.631   1.270  0.0378 -0.1123  0.4834
  130TCq2    C7 1986   3.178   1.747   1.313  0.8104  0.3522 -0.5372
  130TCq2    C8 1987   3.095   1.508   1.346 -0.3465  0.1622  0.4397
  130TCq2    O4 1988   3.011   1.424   1.316 -0.0717 -0.8429 -0.1281
  130TCq2    C9 1989   3.019   1.736   0.933 -0.8381  0.4252 -0.2525
  130TCq2    O5 1990   3.070   1.816   0.854  0.2469  0.0773 -0.1965
  130TCq2    O6 1991   2.938   1.643   0.909 -0.4695  0.2938 -0.2088
  130TCq2    H2 1992   3.136   1.938   1.037 -0.9193 -0.0147 -0.1208
  130TCq2    H3 1993   3.015   1.530   1.113  1.4326  0.5992 -2.0224
  130TCq2    H4 1994   3.215   1.750   1.414 -0.6962 -1.2809  0.0574
  131MPD2     C 1995   2.268   0.122   9.639 -0.4725 -0.5614  0.1046
  131MPD2    C1 1996   2.378   0.134   9.717  0.3023 -0.1270  0.5878
  131MPD2    C2 1997   2.428   0.009   9.771 -0.3771  0.7751  0.6870
  131MPD2    C3 1998   2.353   4.617   9.757 -0.5627 -0.2722  0.2742
  131MPD2    C4 1999   2.225   4.623   9.716 -0.2469  0.1149 -0.4642
  131MPD2    C5 2000   2.192   0.003   9.633  0.1448  0.8286  0.2076
  131MPD2     H 2001   2.523   4.723   9.822 -0.1929 -3.5451 -0.6765
  131MPD2    H1 2002   2.157   4.542   9.691 -0.3053  0.0984 -0.2496
  131MPD2    H2 2003   2.219   0.205   9.588 -0.5893 -1.3819 -1.1237
  131MPD2    H3 2004   2.106   4.713   9.568  1.8026 -1.0725 -1.5458
  131MPD2     N 2005   2.408   4.488   9.798  0.1294  0.6008  0.0009
  131MPD2    H5 2006   2.506   4.484   9.824 -0.5186 -1.1505  2.1746
  131MPD2    N1 2007   2.438   0.258   9.737 -0.2473  0.1055  0.5965
  131MPD2    H7 2008   2.398   0.342   9.697  0.2422 -0.3397 -0.8139
  132TCq2    C1 2009   2.828   0.613   9.643 -0.3563 -0.1972  1.0781
  132TCq2    O2 2010   2.797   0.583   9.527  0.0398 -0.4505  0.0272
  132TCq2    C2 2011   2.739   0.570   9.752 -0.3854 -0.4577  0.2508
  132TCq2    C3 2012   2.766   0.607   9.880  1.0462  0.3209  0.2362
  132TCq2    C4 2013   2.702   0.540   9.981 -0.5047  0.3887  0.6909
  132TCq2    C5 2014   2.603   0.454   9.957  0.8557  0.4118  0.2021
  132TCq2    C6 2015   2.571   0.424   9.827  0.1590  0.1998 -0.2717
  132TCq2    C7 2016   2.648   0.469   9.720 -0.0761  0.0183 -0.0994
  132TCq2    C8 2017   2.544   0.282   9.817 -0.2869  0.1175 -0.3392
  132TCq2    O4 2018   2.618   0.206   9.880  0.4532 -0.1299 -0.1360
  132TCq2    C9 2019   2.736   0.574  10.125 -0.0842 -0.8086  0.1936
  132TCq2    O5 2020   2.825   0.665  10.145  0.0027  0.3287 -0.3305
  132TCq2    O6 2021   2.655   0.543  10.213 -0.0425 -0.2762 -0.1206
  132TCq2    H2 2022   2.836   0.686   9.906  1.4844 -0.0475  0.1743
  132TCq2    H3 2023   2.555   0.406  10.041 -0.0287  1.5834  0.3656
  132TCq2    H4 2024   2.629   0.438   9.618  1.2195  1.3815 -0.7396
  133MPD2     C 2025   1.633   4.582   9.588 -0.5173 -0.1242  0.9734
  133MPD2    C1 2026   1.570   4.686   9.528  0.4632  0.0083 -0.2804
  133MPD2    C2 2027   1.636   0.078   9.509 -0.4284  0.3486  0.0650
  133MPD2    C3 2028   1.771   0.097   9.535 -0.5844 -0.0753 -0.1644
  133MPD2    C4 2029   1.826   4.721   9.605  0.7273  0.1848 -0.4022
  133MPD2    C5 2030   1.758   4.605   9.635  0.1963 -0.0485 -1.0389
  133MPD2     H 2031   1.588   0.161   9.459 -0.3956 -0.2362 -0.9377
  133MPD2    H1 2032   1.923   4.724   9.652  1.5077 -1.7837 -1.9030
  133MPD2    H2 2033   1.589   4.484   9.601 -1.3312  0.3717  1.9547
  133MPD2    H3 2034   1.812   4.528   9.688  0.6560  2.6561  2.4310
  133MPD2     N 2035   1.849   0.211   9.508 -0.1413  0.5375 -0.1944
  133MPD2    H5 2036   1.948   0.199   9.529  0.1419  0.1690 -1.7086
  133MPD2    N1 2037   1.440   4.661   9.483 -0.0621  0.0690  0.2671
  133MPD2    H7 2038   1.401   4.572   9.512  3.7585 -1.7194 -0.0364
  134TCq2    C1 2039   1.369   0.017   9.391 -0.2653  0.8353  0.3133
  134TCq2    O2 2040   1.421   0.108   9.325 -0.4100 -0.0210 -0.1239
  134TCq2    C2 2041   1.219   0.010   9.394 -0.5851 -0.0051  0.7670
  134TCq2    C3 2042   1.154   0.068   9.286 -0.0571  0.2274 -0.3784
  134TCq2    C4 2043   1.026   0.034   9.249  0.1307 -0.0948 -0.4832
  134TCq2    C5 2044   0.954   4.672   9.322 -0.0096  0.4670 -0.2038
  134TCq2    C6 2045   1.018   4.611   9.417 -0.3202 -0.3549 -0.9973
  134TCq2    C7 2046   1.147   4.638   9.463  0.4583 -0.0836 -1.1192
  134TCq2    C8 2047   0.975   4.483   9.471  0.2357  0.0449 -0.1056
  134TCq2    O4 2048   1.020   4.450   9.581  0.5539 -0.2410  0.0867
  134TCq2    C9 2049   0.969   0.086   9.134  0.1090 -0.0083  0.3950
  134TCq2    O5 2050   0.876   0.024   9.075 -0.4057  0.1851  0.3052
  134TCq2    O6 2051   1.027   0.189   9.092 -0.4243  0.0074  0.1766
  134TCq2    H2 2052   1.201   0.138   9.218 -0.2967 -0.1252 -0.9097
  134TCq2    H3 2053   0.851   4.648   9.296  0.1551 -1.4550  0.9474
  134TCq2    H4 2054   1.199   4.554   9.508  0.3960 -0.2557 -1.3675
  135MPD2     C 2055   0.083   2.286  10.049  0.8073 -0.3321 -0.7391
  135MPD2    C1 2056   0.019   2.167  10.087 -0.3096  0.2119  0.3838
  135MPD2    C2 2057   0.037   2.057  10.014 -0.4330 -0.1494  1.1787
  135MPD2    C3 2058   0.084   2.068   9.885  0.1174 -0.1829  0.2541
  135MPD2    C4 2059   0.133   2.190   9.837  0.2834 -0.1741  0.4707
  135MPD2    C5 2060   0.142   2.294   9.927 -0.0381  0.1819 -0.1112
  135MPD2     H 2061   4.717   1.966  10.051  1.0146 -0.6470  1.7190
  135MPD2    H1 2062   0.176   2.198   9.738 -2.8228  2.2443 -0.6853
  135MPD2    H2 2063   0.081   2.376  10.110 -0.7464 -1.3650  0.7276
  135MPD2    H3 2064   0.192   2.385   9.897  0.4169 -0.2516 -0.6571
  135MPD2     N 2065   0.088   1.947   9.806  0.4449  0.4206 -0.5223
  135MPD2    H5 2066   0.024   1.873   9.833 -1.0255  1.6691 -0.6069
  135MPD2    N1 2067   4.661   2.155  10.199  0.2033  0.5251  0.3747
  135MPD2    H7 2068   4.625   2.060  10.207  1.1726  0.2195  1.0815
  136TCq2    C1 2069   4.620   2.253  10.285  0.3762  0.1857 -0.0963
  136TCq2    O2 2070   4.613   2.374  10.274 -0.1481 -0.2966 -0.5145
  136TCq2    C2 2071   4.535   2.185  10.381 -0.5865  0.1691 -0.2786
  136TCq2    C3 2072   4.455   2.265  10.465 -0.7576 -0.8493  0.1862
  136TCq2    C4 2073   4.390   2.203  10.567  0.4903  0.4480 -0.0014
  136TCq2    C5 2074   4.406   2.069  10.592  0.2421  0.0463 -0.0147
  136TCq2    C6 2075   4.491   1.991  10.513  0.0945  0.3683 -0.0554
  136TCq2    C7 2076   4.545   2.051  10.407  0.5008 -0.8213 -0.3141
  136TCq2    C8 2077   4.505   1.848  10.532  0.3221  0.1765  0.5011
  136TCq2    O4 2078   4.590   1.801  10.464 -0.4729 -0.0537 -0.2195
  136TCq2    C9 2079   4.297   2.276  10.651 -0.3751  0.0737  0.3163
  136TCq2    O5 2080   4.216   2.214  10.722  0.0842 -0.1184 -0.0637
  136TCq2    O6 2081   4.297   2.403  10.635 -0.4314 -0.7670  0.0357
  136TCq2    H2 2082   4.433   2.368  10.441 -1.3221 -1.3363 -1.3926
  136TCq2    H3 2083   4.358   2.028  10.680  0.8498 -1.2653 -0.3099
  136TCq2    H4 2084   4.632   1.997  10.371  0.0853 -1.2704 -0.6332
  137MPD2     C 2085   4.355   4.574  10.198  0.4831 -0.1292  0.5283
  137MPD2    C1 2086   4.399   4.694  10.151  0.4201 -0.5444 -0.0618
  137MPD2    C2 2087   4.437   0.068  10.243 -0.3415  0.2963 -0.7808
  137MPD2    C3 2088   4.423   0.045  10.379 -0.1119  0.3824 -0.9314
  137MPD2    C4 2089   4.395   4.644  10.424  0.3600  0.5471  0.1989
  137MPD2    C5 2090   4.362   4.545  10.333  0.1782 -0.2940 -0.2411
  137MPD2     H 2091   4.484   0.160  10.209 -1.5310  0.8714 -0.8499
  137MPD2    H1 2092   4.399   4.610  10.527 -0.2170 -1.5764 -0.4624
  137MPD2    H2 2093   4.318   4.493  10.136  0.2846  0.8271 -0.5859
  137MPD2    H3 2094   4.347   4.443  10.367 -2.3917  0.2532  0.2957
  137MPD2     N 2095   4.466   0.144  10.471 -0.1175  0.4193 -0.5198
  137MPD2    H5 2096   4.509   0.226  10.429 -0.3294  1.8113  1.9989
  137MPD2    N1 2097   4.397   4.722  10.012  0.0826 -0.5467  0.5077
  137MPD2    H7 2098   4.366   4.647   9.950 -1.1639  0.8481 -0.5568
  138TCq2    C1 2099   4.462   0.100   9.948  0.0684 -0.2985  0.5322
  138TCq2    O2 2100   4.544   0.178   9.993  0.1157 -0.0039  0.3682
  138TCq2    C2 2101   4.402   0.143   9.823  0.8408 -0.4350 -0.1838
  138TCq2    C3 2102   4.269   0.106   9.807 -0.0739 -0.8078 -1.7597
  138TCq2    C4 2103   4.199   0.187   9.725  0.1042 -0.2610  0.0416
  138TCq2    C5 2104   4.243   0.305   9.663 -0.1436  0.5371 -0.1327
  138TCq2    C6 2105   4.372   0.339   9.688  0.2249  0.2233  0.5009
  138TCq2    C7 2106   4.448   0.260   9.772 -0.5182 -0.0463 -0.2164
  138TCq2    C8 2107   4.389   0.478   9.721  0.3536 -0.2939 -0.1140
  138TCq2    O4 2108   4.496   0.511   9.767  0.1650  0.5738 -0.6009
  138TCq2    C9 2109   4.060   0.150   9.699 -0.1170 -0.1648 -0.7747
  138TCq2    O5 2110   4.000   0.204   9.601  0.7180 -0.3314  0.2826
  138TCq2    O6 2111   4.003   0.063   9.770 -0.2519 -0.0192 -0.4833
  138TCq2    H2 2112   4.230   0.008   9.832  2.7998 -1.8239 -1.1672
  138TCq2    H3 2113   4.185   0.356   9.587 -1.9503  0.8027  1.4163
  138TCq2    H4 2114   4.546   0.296   9.798 -1.1465  0.3632  1.5449
  139TMC2    C1 2115   4.436   4.072  13.133  0.8074  0.0282  0.2953
  139TMC2    C2 2116   4.422   4.082  13.001  0.5810  0.1422 -0.1966
  139TMC2    C3 2117   4.347   4.192  12.955 -1.2164 -0.4997  0.1851
  139TMC2    C4 2118   4.387   4.160  13.222 -0.5203  0.2697 -0.0447
  139TMC2    C5 2119   4.310   4.264  13.169 -0.6619  1.5052  0.6561
  139TMC2    C6 2120   4.282   4.278  13.037  0.1270 -0.3758  0.0556
  139TMC2     C 2121   4.519   3.962  13.193  0.3017  0.2246 -0.1509
  139TMC2     O 2122   4.610   3.914  13.123  0.0705  0.8734  0.4338
  139TMC2     H 2123   4.470   4.019  12.927  0.0811  1.1009 -1.3262
  139TMC2    H1 2124   4.389   4.138  13.328 -1.2942 -0.3734 -0.1641
  139TMC2    H2 2125   4.237   4.370  13.001 -0.6336 -0.4853  0.7226
  139TMC2    C7 2126   4.269   4.377  13.251  0.1418  0.2585  0.1337
  139TMC2    C8 2127   4.314   4.203  12.813  0.1420 -1.0707 -0.2757
  139TMC2    O1 2128   4.184   4.454  13.205 -0.0420  0.0434  0.4195
  139TMC2    O2 2129   4.206   4.235  12.776  0.4207 -0.2917 -0.5712
  139TMC2    O5 2130   4.412   4.153  12.738 -0.4668 -0.3506 -0.3946
  139TMC2    H5 2131   4.500   4.143  12.782 -1.6515  0.2299  2.1468
  140MPD2     C 2132   4.447   3.748  13.482  0.4286 -0.0926 -0.0502
  140MPD2    C1 2133   4.525   3.804  13.381 -0.4365  0.2744  0.2214
  140MPD2    C2 2134   4.644   3.749  13.347  0.5213  0.0274  0.1073
  140MPD2    C3 2135   4.686   3.636  13.416  0.2881  0.9409 -0.4364
  140MPD2    C4 2136   4.604   3.574  13.511 -0.5085 -0.2406 -0.3892
  140MPD2    C5 2137   4.481   3.630  13.538  0.0333 -0.2304  0.4012
  140MPD2     H 2138   4.712   3.794  13.275  0.4006 -1.3568 -0.8758
  140MPD2    H1 2139   4.626   3.484  13.567 -0.9833  0.6221  1.1857
  140MPD2    H2 2140   4.346   3.783  13.500  0.7063  0.2360  0.8286
  140MPD2    H3 2141   4.411   3.588  13.609 -1.2620  1.7137  0.2709
  140MPD2     N 2142   0.091   3.588  13.380 -0.2764 -0.2693 -0.3625
  140MPD2    H5 2143   0.123   3.628  13.292  2.9946 -1.1475  0.4246
  140MPD2    N1 2144   4.474   3.920  13.321  0.3042  0.3009  0.0165
  140MPD2    H7 2145   4.389   3.962  13.357  0.1348  0.5486 -0.6621
  141TCq2    C1 2146   0.028   0.714  14.638  0.0935 -0.5681  0.0017
  141TCq2    O2 2147   0.113   0.796  14.603 -0.1341  0.8118 -0.3666
  141TCq2    C2 2148   0.030   0.671  14.775  1.0824 -1.0283 -1.0165
  141TCq2    C3 2149   4.700   0.555  14.820  0.2280  0.6212 -0.9269
  141TCq2    C4 2150   4.690   0.529  14.952  0.1894 -0.1241 -0.1024
  141TCq2    C5 2151   4.710   0.632  15.044  0.7879  0.8412  0.8872
  141TCq2    C6 2152   0.030   0.752  14.998 -0.1204 -0.7187 -0.1620
  141TCq2    C7 2153   0.046   0.774  14.866 -0.0580  0.1825  0.2973
  141TCq2    C8 2154   0.029   0.872  15.088 -0.3443  0.1264  0.3511
  141TCq2    O4 2155   4.720   0.851  15.201  0.3861 -1.2312  0.4619
  141TCq2    C9 2156   4.627   0.409  14.996  0.0666  0.0553 -0.6409
  141TCq2    O5 2157   4.598   0.321  14.913 -0.2467  0.0868  0.4164
  141TCq2    O6 2158   4.592   0.403  15.111  0.0455  0.3034  0.0698
  141TCq2    H2 2159   4.668   0.475  14.755 -0.2003 -1.5022  1.8974
  141TCq2    H3 2160   4.689   0.618  15.150 -0.2333  1.3049  0.7494
  141TCq2    H4 2161   0.066   0.870  14.819 -2.7781 -0.4106 -2.0654
  142MPD2     C 2162   2.525   4.009   9.496 -0.0487 -0.5451 -0.0078
  142MPD2    C1 2163   2.414   4.097   9.511  0.3441  0.2364 -0.4120
  142MPD2    C2 2164   2.426   4.230   9.487  0.7848  0.3591  0.1357
  142MPD2    C3 2165   2.552   4.281   9.448 -0.3570  0.1625 -0.7331
  142MPD2    C4 2166   2.655   4.189   9.416 -0.4277 -1.0833  0.0490
  142MPD2    C5 2167   2.640   4.056   9.440  0.1035 -0.0019  0.1791
  142MPD2     H 2168   2.338   4.292   9.505  1.2019  0.8069  0.6396
  142MPD2    H1 2169   2.744   4.218   9.361 -1.8957  2.3154 -0.5444
  142MPD2    H2 2170   2.517   3.903   9.514 -1.1324 -0.6725 -1.2346
  142MPD2    H3 2171   2.732   4.003   9.418  1.4356  1.7119  1.6198
  142MPD2     N 2172   2.570   4.419   9.424 -0.3390  0.1235 -0.7926
  142MPD2    H5 2173   2.661   4.452   9.394  0.7986 -1.5953  0.7276
  142MPD2    N1 2174   2.292   4.037   9.559  0.2409  0.2454  0.0057
  142MPD2    H7 2175   2.292   3.942   9.594 -1.9968  0.2988  0.1384
  143TCq2    C1 2176   2.476   4.517   9.432  0.1627 -0.2010  0.0975
  143TCq2    O2 2177   2.355   4.504   9.425 -0.3110 -0.3697  0.1633
  143TCq2    C2 2178   2.531   4.651   9.435  0.3451  0.3075  0.1422
  143TCq2    C3 2179   2.466   0.026   9.365 -0.5005 -0.3976 -0.1972
  143TCq2    C4 2180   2.520   0.150   9.386  0.0167 -0.7352  0.4205
  143TCq2    C5 2181   2.633   0.176   9.457  0.0927 -0.0784  0.1288
  143TCq2    C6 2182   2.692   0.072   9.526  0.1513  0.0059  0.9140
  143TCq2    C7 2183   2.637   4.673   9.523  0.1734  0.5712  0.0309
  143TCq2    C8 2184   2.817   0.090   9.599 -0.3100  0.7866 -0.3090
  143TCq2    O4 2185   2.846   4.719   9.667  0.5539  0.1586 -0.0543
  143TCq2    C9 2186   2.471   0.265   9.308  0.0048 -0.1294  1.0866
  143TCq2    O5 2187   2.551   0.359   9.300 -0.0055  0.2639  0.5319
  143TCq2    O6 2188   2.369   0.238   9.231 -0.1602 -0.2098  0.5284
  143TCq2    H2 2189   2.375   0.006   9.310 -0.0311 -1.6580 -0.5121
  143TCq2    H3 2190   2.680   0.273   9.460 -0.0539  0.0640 -1.8491
  143TCq2    H4 2191   2.684   4.591   9.575 -1.3519  0.5005  1.2886
  144MPD2     C 2192   1.151   3.685   0.541 -0.4648  0.6196 -0.1753
  144MPD2    C1 2193   1.199   3.556   0.512  0.6038 -0.4278 -0.1595
  144MPD2    C2 2194   1.308   3.518   0.585 -0.3004 -1.0747  0.2799
  144MPD2    C3 2195   1.365   3.593   0.686  0.7304  0.5788  0.6368
  144MPD2    C4 2196   1.315   3.720   0.713 -1.0524  0.0489 -0.1423
  144MPD2    C5 2197   1.212   3.763   0.637 -0.3591  0.9877 -0.6056
  144MPD2     H 2198   1.350   3.424   0.550  0.6945 -1.1276  1.6128
  144MPD2    H1 2199   1.356   3.786   0.789  0.6689 -1.4935  0.2746
  144MPD2    H2 2200   1.065   3.724   0.488 -0.8812  0.7504  0.5989
  144MPD2    H3 2201   1.176   3.864   0.654  1.3212  1.1572  1.9879
  144MPD2     N 2202   1.476   3.543   0.764 -0.0529  0.5188  1.0127
  144MPD2    H5 2203   1.518   3.608   0.830  0.9672  0.9261 -0.0339
  144MPD2    N1 2204   1.141   3.459   0.429 -0.0740 -0.1570 -0.5766
  144MPD2    H7 2205   1.173   3.363   0.436  2.1181  0.4209 -2.9881
  145TCq2    C1 2206   1.528   3.413   0.756 -0.4732  0.0332  0.4246
  145TCq2    O2 2207   1.498   3.327   0.676 -0.1949 -0.1269  0.5404
  145TCq2    C2 2208   1.641   3.395   0.848  0.0653 -0.0565 -0.6301
  145TCq2    C3 2209   1.751   3.349   0.778  0.6321  0.2641  0.4687
  145TCq2    C4 2210   1.873   3.365   0.841  0.5005  0.3817  0.0528
  145TCq2    C5 2211   1.884   3.437   0.958  0.0798  0.2226 -0.0943
  145TCq2    C6 2212   1.767   3.486   1.015 -0.1438  0.1557 -0.2314
  145TCq2    C7 2213   1.645   3.468   0.957 -0.2518  0.5168  0.3335
  145TCq2    C8 2214   1.770   3.545   1.149 -0.4250  0.2176 -0.4990
  145TCq2    O4 2215   1.873   3.531   1.209 -0.1093  0.4311  0.3688
  145TCq2    C9 2216   1.988   3.313   0.775 -0.0421  0.0602  0.6458
  145TCq2    O5 2217   2.104   3.357   0.809  0.1728 -0.2297 -0.0163
  145TCq2    O6 2218   1.974   3.240   0.675 -0.0245 -0.4162 -0.1209
  145TCq2    H2 2219   1.742   3.291   0.688 -3.0470  0.2936  0.8128
  145TCq2    H3 2220   1.983   3.447   1.001 -0.1227 -2.7799  1.0220
  145TCq2    H4 2221   1.551   3.506   0.995 -0.1583  1.4828 -0.3834
  146TMC2    C1 2222   2.327   1.732  12.776  0.2816  0.5963 -0.0876
  146TMC2    C2 2223   2.263   1.789  12.668 -0.4804  0.0495  0.8655
  146TMC2    C3 2224   2.206   1.709  12.572  0.2753 -0.3890  0.0035
  146TMC2    C4 2225   2.302   1.600  12.808 -0.0686  0.6972 -0.0503
  146TMC2    C5 2226   2.241   1.525  12.713  0.1231 -0.0562 -0.1695
  146TMC2    C6 2227   2.195   1.571  12.590  0.0161 -0.0958 -0.2896
  146TMC2     C 2228   2.424   1.808  12.847  0.3242 -0.1537 -0.0584
  146TMC2     O 2229   2.433   1.930  12.819 -0.5250 -0.3146 -0.2764
  146TMC2     H 2230   2.285   1.894  12.659 -2.2105  0.2848 -0.5089
  146TMC2    H1 2231   2.336   1.550  12.899 -1.7120  0.8684  0.6636
  146TMC2    H2 2232   2.143   1.514  12.515  0.7523  0.8862 -1.5352
  146TMC2    C7 2233   2.218   1.379  12.719 -0.3392 -0.0213 -0.5420
  146TMC2    C8 2234   2.116   1.761  12.470 -0.1564 -0.0580 -0.4846
  146TMC2    O1 2235   2.118   1.325  12.673  0.7992 -0.5495 -0.2291
  146TMC2    O2 2236   2.024   1.689  12.431 -0.4070  0.2727  0.7468
  146TMC2    O5 2237   2.122   1.893  12.463  0.3956 -0.5816 -0.0164
  146TMC2    H5 2238   2.211   1.923  12.492  0.2362  0.0599 -0.2136
  147MPD2     C 2239   2.356   0.927  12.945  0.1581 -0.9788 -0.1313
  147MPD2    C1 2240   2.437   1.027  12.982  0.8199  0.3693 -0.4411
  147MPD2    C2 2241   2.429   1.151  12.923 -0.2783 -0.0825 -0.0302
  147MPD2    C3 2242   2.318   1.190  12.843  0.5184  0.0420 -0.1255
  147MPD2    C4 2243   2.224   1.090  12.822 -0.1844 -0.3321 -0.1646
  147MPD2    C5 2244   2.248   0.959  12.859  0.3859 -0.6017  1.2008
  147MPD2     H 2245   2.509   1.223  12.934 -0.0058 -0.0433 -2.3444
  147MPD2    H1 2246   2.138   1.098  12.756  2.6172 -0.1120 -3.8302
  147MPD2    H2 2247   2.374   0.824  12.975  0.6171 -0.4673  1.3442
  147MPD2    H3 2248   2.180   0.877  12.839  0.6706 -0.8855  1.3710
  147MPD2     N 2249   2.310   1.329  12.810 -0.4595 -0.6046 -0.0014
  147MPD2    H5 2250   2.393   1.383  12.833 -0.2791  0.2751 -2.8203
  147MPD2    N1 2251   2.545   0.988  13.064 -0.1970  0.0077  0.1436
  147MPD2    H7 2252   2.556   0.896  13.107  1.6065  0.0855 -0.1643
  148MPD2     C 2253   3.281   4.063  10.482  0.4107  0.4382  0.1545
  148MPD2    C1 2254   3.226   4.188  10.448  0.3299  0.0625 -0.2685
  148MPD2    C2 2255   3.090   4.200  10.462 -0.7739  0.0967 -0.0100
  148MPD2    C3 2256   3.010   4.107  10.521 -0.2436 -0.3373  0.4607
  148MPD2    C4 2257   3.075   3.993  10.564  0.3714  0.5093  0.5636
  148MPD2    C5 2258   3.202   3.966  10.538  0.4464  0.7892 -0.1069
  148MPD2     H 2259   3.037   4.286  10.423 -0.6263 -0.0973 -0.6488
  148MPD2    H1 2260   3.020   3.922  10.624  1.8193 -1.3770 -0.3348
  148MPD2    H2 2261   3.386   4.043  10.463  0.9546 -0.5169  4.2146
  148MPD2    H3 2262   3.251   3.877  10.575  0.0861  2.2298  3.8206
  148MPD2     N 2263   2.874   4.131  10.552  0.0698  0.0478  0.5993
  148MPD2    H5 2264   2.828   4.050  10.592  1.9821  0.0996  2.9015
  148MPD2    N1 2265   3.300   4.303  10.404  0.9258 -0.3643  0.5723
  148MPD2    H7 2266   3.254   4.385  10.366  1.8449 -0.7747 -1.4378
  149TCq2    C1 2267   3.435   4.309  10.399  0.0200 -0.1137  0.3228
  149TCq2    O2 2268   3.521   4.225  10.410 -0.0595 -0.4261 -0.2654
  149TCq2    C2 2269   3.479   4.442  10.361 -0.0260 -0.5439  0.8890
  149TCq2    C3 2270   3.598   4.462  10.297  0.3712  0.5402  0.3965
  149TCq2    C4 2271   3.627   4.590  10.250  0.6546 -0.1014 -0.5042
  149TCq2    C5 2272   3.534   4.686  10.245 -0.5444 -0.3645 -0.1862
  149TCq2    C6 2273   3.418   4.660  10.318 -0.2195 -0.5440 -0.3669
  149TCq2    C7 2274   3.397   4.550  10.394  0.6766 -0.1830 -0.3818
  149TCq2    C8 2275   3.304   0.019  10.301 -0.1464 -0.0845 -0.1876
  149TCq2    O4 2276   3.200   4.724  10.356  0.4135 -0.1956 -0.2433
  149TCq2    C9 2277   3.746   4.608  10.165 -0.1939  0.5410  0.1062
  149TCq2    O5 2278   3.820   4.508  10.157 -0.2954 -0.0040 -0.0091
  149TCq2    O6 2279   3.766   4.716  10.106 -0.5538 -0.0766 -0.2543
  149TCq2    H2 2280   3.674   4.385  10.290  1.5001  1.5358  1.5569
  149TCq2    H3 2281   3.554   0.064  10.217 -1.1708 -0.3006 -0.3948
  149TCq2    H4 2282   3.302   4.541  10.446 -0.0276  1.3059 -1.3962
  150MPD2     C 2283   3.995   4.617  12.244 -0.3092  0.0498  0.5800
  150MPD2    C1 2284   4.046   4.624  12.110 -0.3232  0.5004 -0.3725
  150MPD2    C2 2285   4.183   4.674  12.096 -0.2568 -0.9644  0.9057
  150MPD2    C3 2286   4.262   4.715  12.202 -0.6400 -0.0090 -0.7400
  150MPD2    C4 2287   4.207   4.706  12.328  0.9338 -1.0814 -0.1958
  150MPD2    C5 2288   4.073   4.674  12.343 -0.4424 -0.3063 -0.9218
  150MPD2     H 2289   4.237   4.657  12.004 -1.9798 -1.1529 -0.0554
  150MPD2    H1 2290   4.257   0.006  12.421 -0.9028 -0.4881  0.6271
  150MPD2    H2 2291   3.895   4.588  12.274 -0.9007 -0.7026 -2.2239
  150MPD2    H3 2292   4.026   4.695  12.439  0.9704  1.5650 -0.6295
  150MPD2     N 2293   4.400   0.011  12.173  0.0050  0.0288  0.2392
  150MPD2    H5 2294   4.429   0.010  12.075 -3.5393  2.4689 -0.8308
  150MPD2    N1 2295   3.971   4.581  11.995  0.5918  0.1402 -0.0927
  150MPD2    H7 2296   3.888   4.530  12.025  0.8618 -0.4198 -0.2997
  151TCq2    C1 2297   4.496   0.012  12.271  0.5897 -0.3142 -0.3588
  151TCq2    O2 2298   4.486   0.019  12.393  0.0241 -0.3821  0.2559
  151TCq2    C2 2299   4.629   4.703  12.212 -0.5571  0.0597 -0.2657
  151TCq2    C3 2300   4.626   4.630  12.099  0.2768 -0.1806 -0.2504
  151TCq2    C4 2301   0.011   4.585  12.040  0.5383 -0.2920  0.4287
  151TCq2    C5 2302   0.132   4.615  12.094  0.1700 -0.8769 -0.3514
  151TCq2    C6 2303   0.133   4.687  12.213  0.4525 -0.1849 -0.2343
  151TCq2    C7 2304   0.022   0.004  12.274  0.2880 -0.5460  0.0106
  151TCq2    C8 2305   0.252   4.686  12.298  0.1579 -0.0428 -0.3282
  151TCq2    O4 2306   0.278   0.068  12.357 -0.3636 -0.1092 -0.4281
  151TCq2    C9 2307   4.723   4.497  11.921 -0.6177  0.6841 -0.2802
  151TCq2    O5 2308   0.108   4.453  11.882  0.3384 -0.5732 -0.1412
  151TCq2    O6 2309   4.610   4.448  11.900  0.5913  0.2665 -0.1829
  151TCq2    H2 2310   4.533   4.593  12.057 -0.4990  0.6025  0.7902
  151TCq2    H3 2311   0.228   4.574  12.063  0.7966  1.9276 -2.1123
  151TCq2    H4 2312   0.024   0.067  12.363 -0.4743 -0.1237 -0.2717
  152MPD2     C 2313   3.900   4.138  12.730 -0.0607 -0.3644 -0.7453
  152MPD2    C1 2314   3.897   4.222  12.619  0.3158 -0.0615  0.1607
  152MPD2    C2 2315   3.777   4.256  12.567  0.0908  0.3130 -0.2754
  152MPD2    C3 2316   3.662   4.207  12.615  0.4901  0.0481  0.2268
  152MPD2    C4 2317   3.665   4.114  12.721 -0.2032  1.0210 -0.1714
  152MPD2    C5 2318   3.785   4.089  12.776 -0.1347  0.0810 -1.0391
  152MPD2     H 2319   3.763   4.323  12.483  1.3117 -2.0984 -2.3943
  152MPD2    H1 2320   3.578   4.062  12.758  0.4106  0.6644  0.7751
  152MPD2    H2 2321   3.996   4.099  12.759 -0.8765 -1.9860 -0.2510
  152MPD2    H3 2322   3.786   4.009  12.848 -3.8917  1.9417  1.0888
  152MPD2     N 2323   3.539   4.267  12.567  0.5254 -0.8178 -0.0366
  152MPD2    H5 2324   3.544   4.342  12.499  0.7990  0.4247  1.3543
  152MPD2    N1 2325   4.022   4.265  12.570  0.4381  0.3500 -0.1332
  152MPD2    H7 2326   4.097   4.248  12.637 -0.5965 -0.6388  0.7865
  153TCq2    C1 2327   4.044   4.320  12.449 -0.2444  0.1809 -0.5597
  153TCq2    O2 2328   3.975   4.308  12.348 -0.2581 -0.2204  0.5668
  153TCq2    C2 2329   4.176   4.374  12.436 -0.4705 -0.2362  0.2538
  153TCq2    C3 2330   4.256   4.333  12.339  0.7524  0.7491  0.7379
  153TCq2    C4 2331   4.387   4.364  12.342  0.0804 -0.1423 -0.2847
  153TCq2    C5 2332   4.445   4.431  12.449  0.1800  0.3190  0.3076
  153TCq2    C6 2333   4.355   4.472  12.548 -0.4773 -0.2702  0.0479
  153TCq2    C7 2334   4.224   4.438  12.549 -0.1396 -0.3672  0.0125
  153TCq2    C8 2335   4.388   4.573  12.637  0.5568  0.5421  0.0657
  153TCq2    O4 2336   4.295   4.650  12.667  0.0009  0.3350  0.1927
  153TCq2    C9 2337   4.463   4.326  12.227  0.0052  0.3656  0.5869
  153TCq2    O5 2338   4.405   4.270  12.130  0.7077 -0.4827 -0.2741
  153TCq2    O6 2339   4.588   4.325  12.237 -0.0421  0.2736 -0.2233
  153TCq2    H2 2340   4.208   4.283  12.255  0.6196  0.8872  0.7313
  153TCq2    H3 2341   4.540   4.479  12.431  1.9593 -3.4200 -0.3546
  153TCq2    H4 2342   4.159   4.476  12.628 -0.7920 -0.2997 -0.5554
  154MPD2     C 2343   1.215   4.464   0.650  0.1255  0.0014 -0.3692
  154MPD2    C1 2344   1.154   4.509   0.766 -0.3660  0.5915 -0.0640
  154MPD2    C2 2345   1.028   4.557   0.757  0.3009  0.2816 -0.4756
  154MPD2    C3 2346   0.946   4.545   0.642  0.4716  0.1822  0.9869
  154MPD2    C4 2347   1.014   4.487   0.536 -0.6766  0.5348  0.2435
  154MPD2    C5 2348   1.143   4.451   0.539 -0.0249  0.3273  0.1214
  154MPD2     H 2349   0.990   4.600   0.849 -3.0237 -0.1500 -1.6633
  154MPD2    H1 2350   0.965   4.495   0.439 -1.0531 -1.3388  0.2669
  154MPD2    H2 2351   1.318   4.432   0.638  0.6971  1.3501  0.9252
  154MPD2    H3 2352   1.188   4.419   0.446  0.7370  1.7912 -0.0106
  154MPD2     N 2353   0.815   4.592   0.652 -0.2759  0.8578 -0.0621
  154MPD2    H5 2354   0.775   4.640   0.732 -1.0086  0.3055 -0.0924
  154MPD2    N1 2355   1.237   4.512   0.884  0.1708  0.3254  0.1457
  154MPD2    H7 2356   1.336   4.490   0.872  0.1156 -0.0011  0.2867
  155TCq2    C1 2357   1.188   4.541   1.011  0.5546  0.3465 -0.6101
  155TCq2    O2 2358   1.078   4.575   1.052  0.1982  0.0905 -0.0737
  155TCq2    C2 2359   1.293   4.516   1.112 -0.3323 -0.4220 -0.1873
  155TCq2    C3 2360   1.290   4.597   1.222 -0.7989 -1.2357  0.1160
  155TCq2    C4 2361   1.389   4.578   1.313 -0.0981 -0.1640  0.3736
  155TCq2    C5 2362   1.466   4.464   1.305 -0.1801  0.4609  0.0231
  155TCq2    C6 2363   1.462   4.383   1.192  0.5605  0.1943 -0.0947
  155TCq2    C7 2364   1.367   4.407   1.091  0.6204  0.0950 -0.9162
  155TCq2    C8 2365   1.565   4.279   1.171 -0.6113 -0.0831  0.5942
  155TCq2    O4 2366   1.564   4.229   1.061  0.7966  0.1280  0.0547
  155TCq2    C9 2367   1.417   4.663   1.422  0.2479 -0.6181 -0.0502
  155TCq2    O5 2368   1.505   4.628   1.506 -0.5861 -0.1745 -0.0509
  155TCq2    O6 2369   1.341   0.039   1.430 -0.5070  0.3040 -0.4793
  155TCq2    H2 2370   1.240   4.693   1.223  0.1037 -0.7904  2.2673
  155TCq2    H3 2371   1.548   4.450   1.375 -0.1239  0.5004 -0.0349
  155TCq2    H4 2372   1.334   4.328   1.025 -2.3437  0.6725 -0.1289
  156MPD2     C 2373   0.077   1.644  11.810 -0.3834  0.0491  0.6798
  156MPD2    C1 2374   4.716   1.744  11.771  0.1554 -0.1656 -0.5359
  156MPD2    C2 2375   4.616   1.782  11.862  0.0872  0.4943 -0.6272
  156MPD2    C3 2376   4.593   1.710  11.980  0.4640  0.5143 -0.4460
  156MPD2    C4 2377   4.675   1.604  12.011 -0.6315  0.2514 -0.0567
  156MPD2    C5 2378   0.056   1.571  11.929  0.3247  0.2662 -1.0228
  156MPD2     H 2379   4.558   1.872  11.850  1.3934  1.3656 -0.3308
  156MPD2    H1 2380   4.658   1.539  12.096  2.0387 -0.0359  0.2587
  156MPD2    H2 2381   0.162   1.612  11.752  1.1161  0.5559  2.6293
  156MPD2    H3 2382   0.117   1.489  11.965  2.2682  1.4273 -1.7086
  156MPD2     N 2383   4.471   1.742  12.047 -0.1373  0.7469  0.6348
  156MPD2    H5 2384   4.421   1.823  12.011  0.4361 -0.3827 -2.6848
  156MPD2    N1 2385   0.011   1.809  11.647  0.2450  0.0745  0.0363
  156MPD2    H7 2386   0.098   1.803  11.594  0.3796 -1.0186  0.3781
  157TCq2    C1 2387   4.631   1.879  11.589  0.3605 -0.9218  0.0309
  157TCq2    O2 2388   4.514   1.903  11.622 -0.6167 -0.6316  0.4644
  157TCq2    C2 2389   4.673   1.949  11.472  0.2654 -0.3323 -0.1158
  157TCq2    C3 2390   0.017   1.877  11.379 -0.3718  0.0279  0.2903
  157TCq2    C4 2391   0.044   1.944  11.260  0.3675  0.5345 -0.3941
  157TCq2    C5 2392   0.005   2.074  11.239 -0.4483  0.5549  0.8685
  157TCq2    C6 2393   4.649   2.135  11.330 -0.4345 -0.3304  0.2589
  157TCq2    C7 2394   4.624   2.076  11.452 -0.0534  0.2603  0.5630
  157TCq2    C8 2395   4.582   2.259  11.289  0.5093 -0.0320  0.3222
  157TCq2    O4 2396   4.631   2.340  11.211  0.5042  0.1796  0.3625
  157TCq2    C9 2397   0.100   1.870  11.144 -0.1169  0.2119  0.4284
  157TCq2    O5 2398   0.127   1.945  11.045  0.5703 -0.0582  0.2637
  157TCq2    O6 2399   0.112   1.748  11.168 -0.2844 -0.5189 -0.0241
  157TCq2    H2 2400   0.047   1.775  11.397  0.6515  0.2210 -0.3502
  157TCq2    H3 2401   4.725   2.105  11.135 -1.5059 -1.6733  0.2506
  157TCq2    H4 2402   4.574   2.135  11.528 -1.6773  1.9735 -1.8292
  158TMC2    C1 2403   0.248   0.746  13.243  0.4700 -0.2703  0.1739
  158TMC2    C2 2404   0.338   0.702  13.152 -0.7357 -0.4385 -0.1517
  158TMC2    C3 2405   0.286   0.670  13.028 -0.5640  0.7697 -0.4692
  158TMC2    C4 2406   0.110   0.761  13.215 -0.3211  0.0262 -0.3800
  158TMC2    C5 2407   0.072   0.738  13.084 -0.7726 -0.7657  0.4726
  158TMC2    C6 2408   0.159   0.695  12.989  0.2824 -0.3280  0.2757
  158TMC2     C 2409   0.312   0.801  13.362 -0.4831  0.1859  0.8687
  158TMC2     O 2410   0.421   0.757  13.395 -0.1799 -0.2764  0.3299
  158TMC2     H 2411   0.445   0.700  13.169 -0.7331  0.5435 -0.0834
  158TMC2    H1 2412   0.039   0.802  13.285  1.2255  2.9281 -0.5227
  158TMC2    H2 2413   0.137   0.689  12.883 -0.9295  1.3499  0.4237
  158TMC2    C7 2414   4.662   0.747  13.049 -0.1047 -0.0202 -0.9298
  158TMC2    C8 2415   0.376   0.647  12.911 -0.1296  0.4718  0.0046
  158TMC2    O1 2416   4.635   0.770  12.933 -0.7829  0.4833 -0.3122
  158TMC2    O2 2417   0.325   0.602  12.811  0.6240 -0.2841 -0.6367
  158TMC2    O5 2418   0.503   0.618  12.946  0.2173  0.4735 -0.0837
  158TMC2    H5 2419   0.546   0.656  13.026  0.7830 -0.7679  0.2016
  159MPD2     C 2420   0.332   1.078  13.791  0.0456  0.3040  0.8053
  159MPD2    C1 2421   0.197   1.083  13.742  0.7139 -0.4136 -0.3806
  159MPD2    C2 2422   0.162   1.015  13.626 -0.2358  0.3422  0.0807
  159MPD2    C3 2423   0.259   0.948  13.560  0.4030  1.0877  0.0776
  159MPD2    C4 2424   0.385   0.942  13.611  0.3918  0.9729  0.4938
  159MPD2    C5 2425   0.424   1.005  13.728 -0.4683 -0.5717 -0.3385
  159MPD2     H 2426   0.066   1.028  13.577 -0.7494 -1.5234  0.5924
  159MPD2    H1 2427   0.464   0.874  13.581  0.1720  1.3960 -1.0220
  159MPD2    H2 2428   0.364   1.124  13.883  0.3132 -0.8035  1.2627
  159MPD2    H3 2429   0.529   1.000  13.755  0.2362  2.2258 -2.6063
  159MPD2     N 2430   0.230   0.886  13.436 -0.0380 -0.6302 -0.3045
  159MPD2    H5 2431   0.138   0.910  13.401  0.2914  1.7559  0.4465
  159MPD2    N1 2432   0.097   1.118  13.835  0.1809  0.1256  0.0595
  159MPD2    H7 2433   0.114   1.152  13.930  0.2859 -0.5965  0.3015
  160TMC2    C1 2434   0.290   3.549   1.465 -0.9309  0.0129  0.2487
  160TMC2    C2 2435   0.256   3.445   1.547 -0.6311 -0.8210 -0.0690
  160TMC2    C3 2436   0.226   3.326   1.493  0.4861 -0.2372 -0.1208
  160TMC2    C4 2437   0.281   3.537   1.326 -0.2874 -0.8004  0.1870
  160TMC2    C5 2438   0.241   3.413   1.277  0.1176 -0.1422 -0.5687
  160TMC2    C6 2439   0.221   3.303   1.359  0.4676 -0.1337  0.0911
  160TMC2     C 2440   0.312   3.683   1.524 -0.0563  0.1120  0.4121
  160TMC2     O 2441   0.344   3.698   1.640  0.1481 -0.3216 -0.9891
  160TMC2     H 2442   0.255   3.466   1.653  1.2818  1.0914 -0.4275
  160TMC2    H1 2443   0.315   3.621   1.267  0.1852 -0.1438  1.3794
  160TMC2    H2 2444   0.186   3.207   1.324  0.8370  0.3771 -1.7252
  160TMC2    C7 2445   0.259   3.389   1.135  0.1449 -0.0463  0.1037
  160TMC2    C8 2446   0.167   3.239   1.587 -0.3110  0.2309  0.4749
  160TMC2    O1 2447   0.263   3.273   1.104 -0.2877 -0.9794  0.0700
  160TMC2    O2 2448   0.203   3.235   1.703  0.3156  0.0740 -0.2627
  160TMC2    O5 2449   0.040   3.219   1.542 -0.0343 -0.4103 -0.1744
  160TMC2    H5 2450   0.029   3.259   1.454 -1.3424 -1.0053 -0.2815
  161MPD2     C 2451   0.371   3.962   1.555 -0.2144  0.5846  0.4699
  161MPD2    C1 2452   0.279   3.914   1.466  0.1600  0.4152 -0.1331
  161MPD2    C2 2453   0.204   4.006   1.391  0.9064  0.0568  0.1366
  161MPD2    C3 2454   0.204   4.142   1.427  0.4781 -0.1674 -0.4089
  161MPD2    C4 2455   0.279   4.183   1.533  0.0388  0.3845 -0.2743
  161MPD2    C5 2456   0.374   4.097   1.588  0.3575 -0.2374 -0.0857
  161MPD2     H 2457   0.139   3.971   1.312  2.2553 -0.6018 -0.6833
  161MPD2    H1 2458   0.277   4.282   1.576  1.1192  0.0406  0.5371
  161MPD2    H2 2459   0.453   3.903   1.595 -1.2874 -1.3341 -0.1387
  161MPD2    H3 2460   0.436   4.133   1.669  0.1038  0.1400 -0.0582
  161MPD2     N 2461   0.132   4.244   1.362  0.1876 -0.1652  0.5062
  161MPD2    H5 2462   0.156   4.337   1.396  2.3518 -0.4781 -0.2020
  161MPD2    N1 2463   0.278   3.779   1.432  0.1684  0.1439 -0.9288
  161MPD2    H7 2464   0.231   3.750   1.347  1.5430  0.9057 -1.9405
  162TMC2    C1 2465   2.152   1.022   1.202  0.2522 -0.4522  0.2324
  162TMC2    C2 2466   2.103   1.109   1.106 -0.3690 -0.2127  0.3683
  162TMC2    C3 2467   2.015   1.205   1.147 -0.3493  0.1240 -0.1884
  162TMC2    C4 2468   2.117   1.026   1.332  0.1441 -0.6050 -0.6167
  162TMC2    C5 2469   2.022   1.127   1.368  0.5342 -0.3783  0.5856
  162TMC2    C6 2470   1.973   1.220   1.277  0.4674  0.1867  0.2182
  162TMC2     C 2471   2.241   0.920   1.151 -0.0072 -0.0590  0.0037
  162TMC2     O 2472   2.266   0.935   1.032 -0.1734 -0.2197 -0.2583
  162TMC2     H 2473   2.118   1.104   0.999  1.3752  0.8857  0.5529
  162TMC2    H1 2474   2.164   0.961   1.405 -0.2677  0.0531  0.2304
  162TMC2    H2 2475   1.910   1.300   1.316  0.0707 -0.0153 -0.0072
  162TMC2    C7 2476   2.037   1.179   1.508  0.7826 -0.3590  0.0368
  162TMC2    C8 2477   1.954   1.286   1.045  0.5785 -0.5908  0.4455
  162TMC2    O1 2478   1.997   1.292   1.525  0.0514  0.3028 -0.5763
  162TMC2    O2 2479   2.020   1.294   0.944  0.5876  0.0463  0.3122
  162TMC2    O5 2480   1.826   1.251   1.065 -0.2589  0.3922  0.0528
  162TMC2    H5 2481   1.798   1.250   1.159 -1.7880  0.8667 -0.3918
  163MPD2     C 2482   2.580   0.534   1.187 -0.6851 -0.8485  0.3397
  163MPD2    C1 2483   2.559   0.627   1.090  0.7566 -0.3259 -0.0011
  163MPD2    C2 2484   2.468   0.730   1.101 -0.2662  0.1486 -0.0038
  163MPD2    C3 2485   2.398   0.745   1.221 -0.6576  0.2221 -0.0082
  163MPD2    C4 2486   2.416   0.658   1.319  0.0433 -0.2647  0.5884
  163MPD2    C5 2487   2.511   0.560   1.306  0.1343 -0.1090 -0.4536
  163MPD2     H 2488   2.452   0.797   1.017 -0.3612 -0.5633 -0.5530
  163MPD2    H1 2489   2.360   0.675   1.410 -0.8378 -2.9047  0.5396
  163MPD2    H2 2490   2.640   0.446   1.167  1.9302  0.5824  2.0054
  163MPD2    H3 2491   2.521   0.482   1.381  1.5925 -1.0694 -1.6426
  163MPD2     N 2492   2.297   0.837   1.240 -0.3491 -0.4182  0.2658
  163MPD2    H5 2493   2.271   0.853   1.337  0.3923 -0.4523  0.4714
  163MPD2    N1 2494   2.638   0.608   0.973  0.1510  0.0106 -0.5962
  163MPD2    H7 2495   2.704   0.531   0.974 -0.5458 -0.5810 -0.3022
  164TCq2    C1 2496   3.022   4.684  11.308  0.0486  0.1825 -0.6824
  164TCq2    O2 2497   2.943   4.594  11.276  0.6954 -0.0955 -0.3329
  164TCq2    C2 2498   2.968   0.096  11.332 -0.0127 -0.8377  0.2405
  164TCq2    C3 2499   3.050   0.182  11.394 -0.0625 -0.0435 -0.0619
  164TCq2    C4 2500   3.034   0.316  11.392  0.2218  0.5379 -0.8129
  164TCq2    C5 2501   2.923   0.358  11.320 -0.4354 -0.0460  0.4985
  164TCq2    C6 2502   2.842   0.272  11.260 -0.0071  0.0179 -1.0168
  164TCq2    C7 2503   2.857   0.135  11.268  0.2734  0.0334  0.5425
  164TCq2    C8 2504   2.763   0.319  11.144 -0.1672  0.0794  0.6599
  164TCq2    O4 2505   2.671   0.246  11.103  0.0796  0.0006  0.5689
  164TCq2    C9 2506   3.137   0.402  11.443 -0.4975  0.1421  0.1054
  164TCq2    O5 2507   3.240   0.352  11.492  0.0718 -0.3859  0.0829
  164TCq2    O6 2508   3.131   0.523  11.405 -0.0490 -0.8672 -0.4502
  164TCq2    H2 2509   3.137   0.144  11.447  0.5173  0.7178 -0.4695
  164TCq2    H3 2510   2.913   0.466  11.319 -2.1478 -0.2015 -0.2076
  164TCq2    H4 2511   2.804   0.065  11.205  0.0913  0.3708  0.3174
  165MPD2     C 2512   3.898   3.583   1.568 -0.1018 -0.0016  0.3197
  165MPD2    C1 2513   4.005   3.611   1.484 -0.0145  0.1888  0.0701
  165MPD2    C2 2514   4.096   3.705   1.524 -0.2508 -0.6411  1.2144
  165MPD2    C3 2515   4.077   3.784   1.638  0.4530 -0.1884 -0.3602
  165MPD2    C4 2516   3.970   3.756   1.720  0.3280 -0.5187  0.6267
  165MPD2    C5 2517   3.880   3.659   1.688 -0.1558 -0.0879  0.7586
  165MPD2     H 2518   4.174   3.737   1.456 -0.8156 -0.8200  0.4795
  165MPD2    H1 2519   3.949   3.811   1.811 -0.5135  0.5578 -0.2130
  165MPD2    H2 2520   3.828   3.502   1.550  0.2095 -0.3292  0.5624
  165MPD2    H3 2521   3.795   3.638   1.752 -0.9013 -1.1285 -0.5719
  165MPD2     N 2522   4.164   3.893   1.679 -0.1622  0.6148 -0.6712
  165MPD2    H5 2523   4.146   3.953   1.759 -1.6535  0.5424 -0.9455
  165MPD2    N1 2524   4.017   3.529   1.370 -0.0594 -0.1127 -0.4043
  165MPD2    H7 2525   3.941   3.464   1.351 -0.8422  0.3860  1.0688
  166TCq2    C1 2526   4.278   3.923   1.610 -0.0846  0.1462 -0.2673
  166TCq2    O2 2527   4.331   3.876   1.515  0.0153 -0.5267 -0.0617
  166TCq2    C2 2528   4.361   4.016   1.685 -0.0635 -0.1995 -0.3977
  166TCq2    C3 2529   4.307   4.129   1.750  0.5103  0.1813 -0.1340
  166TCq2    C4 2530   4.402   4.217   1.795 -0.2680 -0.0748  0.3160
  166TCq2    C5 2531   4.541   4.188   1.797  0.4282  0.4523  0.2419
  166TCq2    C6 2532   4.583   4.076   1.725 -0.1797 -0.2140 -0.8388
  166TCq2    C7 2533   4.494   3.987   1.675 -0.0657 -0.3296  0.1417
  166TCq2    C8 2534   4.712   4.019   1.762 -0.2543  0.6816 -0.8637
  166TCq2    O4 2535   0.028   3.920   1.697  0.0773  0.0759  0.8482
  166TCq2    C9 2536   4.359   4.345   1.842  0.0671 -0.1801 -0.8446
  166TCq2    O5 2537   4.238   4.377   1.818  0.0086  0.2205  0.7299
  166TCq2    O6 2538   4.443   4.433   1.881  0.2718  0.5375 -0.0266
  166TCq2    H2 2539   4.202   4.155   1.742 -0.0826 -1.9268  0.7673
  166TCq2    H3 2540   4.606   4.268   1.831 -2.0406  2.7092 -0.3751
  166TCq2    H4 2541   4.532   3.904   1.617  0.4655 -0.1599  0.2482
  167TMC2    C1 2542   2.648   0.449  12.960 -0.0965 -0.1593 -0.5221
  167TMC2    C2 2543   2.552   0.532  13.012  0.3592 -0.7782 -0.0145
  167TMC2    C3 2544   2.508   0.491  13.136  0.1541  0.8436 -0.8674
  167TMC2    C4 2545   2.688   0.335  13.019 -0.2655 -0.0973 -0.4909
  167TMC2    C5 2546   2.621   0.288  13.128 -0.7866  0.7446 -0.3114
  167TMC2    C6 2547   2.536   0.372  13.193 -0.2070  0.7904  0.6065
  167TMC2     C 2548   2.660   0.440  12.817  0.5868  0.0794  0.5156
  167TMC2     O 2549   2.660   0.323  12.781 -0.3196  0.1815 -0.3540
  167TMC2     H 2550   2.526   0.621  12.956 -0.4097 -1.1292 -0.2147
  167TMC2    H1 2551   2.774   0.283  12.977  0.9664  1.8703 -0.4219
  167TMC2    H2 2552   2.484   0.339  13.281 -1.0995 -1.5476 -0.8038
  167TMC2    C7 2553   2.587   0.141  13.134  0.2345  0.1286 -0.0995
  167TMC2    C8 2554   2.401   0.555  13.204 -0.5851 -0.1791  0.0319
  167TMC2    O1 2555   2.548   0.089  13.236  0.0535  0.5245  0.0337
  167TMC2    O2 2556   2.367   0.517  13.317 -0.0727 -0.6800 -0.7544
  167TMC2    O5 2557   2.307   0.574  13.107 -0.1290  0.4514 -0.1433
  167TMC2    H5 2558   2.333   0.574  13.013 -2.1424  0.2009 -0.7101
  168MPD2     C 2559   2.722   0.697  12.568 -0.5517 -0.2509  0.4163
  168MPD2    C1 2560   2.684   0.574  12.615 -0.8108  0.4272 -0.2694
  168MPD2    C2 2561   2.611   0.491  12.530  0.9252 -0.4961  0.9347
  168MPD2    C3 2562   2.591   0.525  12.396  0.2534  0.3911  0.6421
  168MPD2    C4 2563   2.633   0.651  12.354  0.2887 -0.3776 -0.1273
  168MPD2    C5 2564   2.703   0.730  12.442 -1.1996 -0.1778  0.0717
  168MPD2     H 2565   2.590   0.390  12.565 -0.3096 -0.7811 -0.6664
  168MPD2    H1 2566   2.622   0.685  12.251 -0.7267 -0.7765 -0.1422
  168MPD2    H2 2567   2.773   0.775  12.623  3.1361 -2.6829  0.4686
  168MPD2    H3 2568   2.751   0.818  12.402 -0.8991 -1.1049 -1.6417
  168MPD2     N 2569   2.516   0.445  12.307 -0.0538 -0.0746 -0.0703
  168MPD2    H5 2570   2.505   0.474  12.210  0.0255 -1.5646 -0.5209
  168MPD2    N1 2571   2.692   0.553  12.751  0.5233  0.4689 -0.6564
  168MPD2    H7 2572   2.718   0.636  12.803 -0.3037 -0.3383  1.0206
  169MPD1     C 2573   4.604   4.119   8.027 -0.5092  0.3431  0.2372
  169MPD1    C1 2574   4.538   4.045   8.123  0.1519  0.1140 -0.1820
  169MPD1    C2 2575   4.588   4.056   8.251 -0.4534 -0.7758  0.0480
  169MPD1    C3 2576   4.679   4.140   8.288 -0.5678 -0.0729  0.3247
  169MPD1    C4 2577   0.021   4.221   8.193 -0.3152  0.3763 -0.0684
  169MPD1    C5 2578   4.701   4.198   8.065 -0.2493 -0.2311  0.0237
  169MPD1     H 2579   4.545   3.999   8.333 -1.8336 -0.3170 -0.3591
  169MPD1    H1 2580   0.101   4.290   8.218 -0.7081  0.5718  0.6492
  169MPD1    H2 2581   4.583   4.105   7.921 -2.6062  2.3050  0.3964
  169MPD1    H3 2582   0.025   4.260   7.991  0.7990 -0.3342  0.6305
  169MPD1     N 2583   4.715   4.147   8.422 -0.5118  0.4812 -0.3311
  169MPD1    H5 2584   4.666   4.088   8.487  0.3362  0.4850  0.3180
  169MPD1    N1 2585   4.458   3.939   8.074  0.5803  0.0396  0.2893
  169MPD1    H6 2586   4.386   3.915   8.142  0.0315  1.2665  0.1543
  169MPD1    H7 2587   4.411   3.977   7.992  0.4273  1.6109  1.1038
  170MPD1     C 2588   2.178   3.317  13.051 -1.0291  0.4801  0.1922
  170MPD1    C1 2589   2.293   3.385  13.010 -0.0349 -0.3140  0.4445
  170MPD1    C2 2590   2.406   3.376  13.090  0.4625  0.3636 -0.5091
  170MPD1    C3 2591   2.416   3.287  13.196  0.4921  0.1879 -0.3486
  170MPD1    C4 2592   2.307   3.212  13.233  0.4144  0.0098  0.4980
  170MPD1    C5 2593   2.186   3.228  13.165 -0.3200 -0.4471  0.3297
  170MPD1     H 2594   2.492   3.439  13.075 -0.2411  1.7931  1.3929
  170MPD1    H1 2595   2.304   3.136  13.311 -1.3635 -1.8284 -1.3584
  170MPD1    H2 2596   2.086   3.328  12.996 -2.2278 -2.9181  1.5639
  170MPD1    H3 2597   2.097   3.175  13.197 -1.1009 -0.0201 -1.1367
  170MPD1     N 2598   2.547   3.276  13.255 -0.3235  0.3689 -0.8261
  170MPD1    H5 2599   2.620   3.332  13.211 -0.5011 -0.8494 -2.6665
  170MPD1    N1 2600   2.283   3.489  12.910 -0.5351 -0.1583 -0.5030
  170MPD1    H6 2601   2.373   3.520  12.874 -1.0100  0.4470 -1.1745
  170MPD1    H7 2602   2.217   3.482  12.833 -2.4554  0.6487  1.0650
  171MPD1     C 2603   1.514   4.056  15.395 -0.4504  0.1849 -0.3966
  171MPD1    C1 2604   1.536   3.948  15.304 -0.6885  0.1343  0.3775
  171MPD1    C2 2605   1.625   3.844  15.338  0.1394 -0.1843  0.3044
  171MPD1    C3 2606   1.705   3.864  15.455  0.5089  0.1410  0.4776
  171MPD1    C4 2607   1.685   3.980  15.533 -0.7583 -0.1380 -1.0722
  171MPD1    C5 2608   1.589   4.071  15.510  0.2860 -0.4998  0.0647
  171MPD1     H 2609   1.634   3.759  15.272  0.3412  1.7342 -2.1035
  171MPD1    H1 2610   1.741   3.996  15.625 -1.2009 -1.0480 -0.6458
  171MPD1    H2 2611   1.432   4.124  15.373 -0.7203  0.4286  1.3360
  171MPD1    H3 2612   1.567   4.145  15.586 -0.4489 -2.3027  1.6173
  171MPD1     N 2613   1.806   3.771  15.502  0.0511  0.4475  0.3893
  171MPD1    H5 2614   1.842   3.807  15.590  0.0682 -0.4925  0.7612
  171MPD1    N1 2615   1.456   3.931  15.188 -0.1117 -0.2617  0.0938
  171MPD1    H6 2616   1.438   4.015  15.134  1.3133 -0.6141 -0.9493
  171MPD1    H7 2617   1.491   3.856  15.128  1.4273  1.4451 -1.1501
  172MPD1     C 2618   1.447   3.080   0.164  0.3038  0.4358 -0.2709
  172MPD1    C1 2619   1.396   3.190   0.101  0.1252  0.1566  0.2594
  172MPD1    C2 2620   1.415   3.309   0.164  0.6851  0.1181 -0.1057
  172MPD1    C3 2621   1.476   3.327   0.286  0.1373 -0.4463 -0.3255
  172MPD1    C4 2622   1.528   3.217   0.342 -0.0506  0.1278  0.0058
  172MPD1    C5 2623   1.508   3.090   0.287  0.4153 -0.1822 -0.1966
  172MPD1     H 2624   1.391   3.398   0.107  1.5293  1.0830  1.0405
  172MPD1    H1 2625   1.598   3.225   0.425 -1.7066  0.4163  1.3717
  172MPD1    H2 2626   1.446   2.981   0.119 -0.7710  1.0653 -1.6222
  172MPD1    H3 2627   1.548   3.001   0.333 -0.2915  0.9519  2.5620
  172MPD1     N 2628   1.504   3.458   0.335 -0.0040  0.6789 -0.5480
  172MPD1    H5 2629   1.570   3.463   0.412 -1.2960 -0.1814  0.6101
  172MPD1    N1 2630   1.361   3.185  17.669 -0.0300  0.4885  0.6487
  172MPD1    H6 2631   1.295   3.252  17.629 -0.1073 -1.4613 -2.4783
  172MPD1    H7 2632   1.332   3.096  17.630  0.4024  0.3718  0.5989
  173MPD1     C 2633   2.516   3.387  14.480  0.0112  0.3497  0.1940
  173MPD1    C1 2634   2.445   3.337  14.377  0.0001 -0.5186  0.2947
  173MPD1    C2 2635   2.373   3.218  14.398 -0.4410 -0.5227  0.5574
  173MPD1    C3 2636   2.352   3.165  14.525 -0.3358  0.0744 -0.1665
  173MPD1    C4 2637   2.424   3.235  14.630  0.2281 -0.6450 -0.0466
  173MPD1    C5 2638   2.511   3.339  14.610 -0.4098  0.0946  0.0629
  173MPD1     H 2639   2.324   3.172  14.313 -0.6785  2.6179 -1.0462
  173MPD1    H1 2640   2.425   3.190  14.729  2.3705  4.0560  2.0890
  173MPD1    H2 2641   2.586   3.466  14.460  0.5489 -0.0176  0.6350
  173MPD1    H3 2642   2.575   3.378  14.689  0.6594 -0.3449 -0.5874
  173MPD1     N 2643   2.284   3.045  14.550  0.0509 -0.4129 -0.1753
  173MPD1    H5 2644   2.244   3.005  14.466  1.1691 -2.5629  0.3169
  173MPD1    N1 2645   2.469   3.381  14.242 -0.0223  0.0128  0.6974
  173MPD1    H6 2646   2.396   3.358  14.175  0.4640 -1.4304  0.6593
  173MPD1    H7 2647   2.475   3.482  14.249  1.6508  0.0134 -0.7898
  174MPD1     C 2648   1.922   2.564  13.967 -0.0327  0.2165  0.4885
  174MPD1    C1 2649   1.857   2.510  14.074 -0.1799  0.0673  1.3998
  174MPD1    C2 2650   1.899   2.541  14.202  0.3925 -0.6185 -0.2105
  174MPD1    C3 2651   1.980   2.651  14.223 -0.2249 -0.0917 -0.5858
  174MPD1    C4 2652   2.029   2.717  14.118 -0.2837 -0.3844 -0.5407
  174MPD1    C5 2653   1.998   2.676  13.991  0.5141  0.1053 -0.1478
  174MPD1     H 2654   1.867   2.490  14.292 -0.5966 -0.2199 -0.3285
  174MPD1    H1 2655   2.099   2.799  14.124  0.6880 -1.2221 -0.3860
  174MPD1    H2 2656   1.926   2.526  13.865 -0.9114  0.0965  0.5039
  174MPD1    H3 2657   2.046   2.723  13.906 -0.2498  0.4872 -0.3703
  174MPD1     N 2658   2.032   2.692  14.352  0.3996  0.4775 -0.1667
  174MPD1    H5 2659   2.089   2.777  14.355  0.5720  0.3650 -0.2214
  174MPD1    N1 2660   1.779   2.397  14.056  0.2831  0.4012  0.1662
  174MPD1    H6 2661   1.722   2.406  13.972  0.8618  0.9039 -0.1667
  174MPD1    H7 2662   1.725   2.387  14.142 -1.4398  0.6728 -0.8880
  175MPD1     C 2663   1.102   4.491  15.396 -0.1570  0.5123  0.4442
  175MPD1    C1 2664   1.184   4.508  15.500  0.3514  0.0774 -0.6710
  175MPD1    C2 2665   1.147   4.450  15.619  0.4649  0.3787 -0.3054
  175MPD1    C3 2666   1.031   4.373  15.631 -0.0431 -0.0251 -0.0187
  175MPD1    C4 2667   0.944   4.381  15.533 -0.0672 -0.6045 -0.0087
  175MPD1    C5 2668   0.977   4.440  15.416 -0.6573  0.3057 -0.1987
  175MPD1     H 2669   1.223   4.457  15.697 -2.9731  1.7748  2.9054
  175MPD1    H1 2670   0.843   4.340  15.537 -0.1381 -0.3456  0.7024
  175MPD1    H2 2671   1.122   4.524  15.295 -0.9837  0.4020  0.2403
  175MPD1    H3 2672   0.914   4.424  15.329 -0.1506 -0.8851 -0.3378
  175MPD1     N 2673   0.993   4.302  15.745 -0.2830 -0.3647 -0.4943
  175MPD1    H5 2674   0.898   4.270  15.759  0.3255 -0.9373  2.2052
  175MPD1    N1 2675   1.320   4.557  15.476  0.6722  0.9165 -0.4495
  175MPD1    H6 2676   1.311   4.620  15.397  0.9637  1.8919  0.2824
  175MPD1    H7 2677   1.347   4.608  15.561  0.8450  1.0226 -0.5684
  176MPD1     C 2678   2.878   0.829  16.660 -0.1202 -0.4480 -0.2790
  176MPD1    C1 2679   2.940   0.945  16.674  1.0000  0.3662 -0.3934
  176MPD1    C2 2680   2.901   1.030  16.778 -0.4753  0.0840  0.2727
  176MPD1    C3 2681   2.789   0.993  16.863 -0.3602  0.3934 -0.2284
  176MPD1    C4 2682   2.720   0.875  16.831 -0.2111 -0.0249 -0.6215
  176MPD1    C5 2683   2.767   0.790  16.735  1.3059  0.1931  0.3925
  176MPD1     H 2684   2.954   1.119  16.810 -1.9604  2.2262 -3.2955
  176MPD1    H1 2685   2.635   0.850  16.893  1.2829 -0.6004  1.1949
  176MPD1    H2 2686   2.909   0.760  16.582  0.0423 -0.3858 -0.2682
  176MPD1    H3 2687   2.708   0.700  16.718  1.4165  0.0960  0.5221
  176MPD1     N 2688   2.755   1.074  16.972  0.1336 -0.4352 -0.2314
  176MPD1    H5 2689   2.806   1.161  16.978 -0.2638 -0.0926 -1.8241
  176MPD1    N1 2690   3.062   0.969  16.605 -0.1304  0.7251  0.0012
  176MPD1    H6 2691   3.089   1.067  16.597 -1.8528  1.1957 -0.0406
  176MPD1    H7 2692   3.057   0.923  16.514  1.3017  0.7270 -0.0725
  177MPD1     C 2693   0.905   0.526   9.903 -0.2494 -0.5878 -0.1878
  177MPD1    C1 2694   0.812   0.476   9.817 -0.3885 -0.1643  1.1229
  177MPD1    C2 2695   0.702   0.549   9.785 -0.7329  0.4463  0.3870
  177MPD1    C3 2696   0.695   0.683   9.824 -0.1345 -0.0998 -0.1084
  177MPD1    C4 2697   0.793   0.733   9.897 -0.4930 -0.3239 -0.3829
  177MPD1    C5 2698   0.895   0.655   9.940 -0.8114 -1.0946  0.0794
  177MPD1     H 2699   0.619   0.512   9.726  0.3141 -0.7643 -0.3273
  177MPD1    H1 2700   0.792   0.837   9.928  0.7710 -0.1764 -0.8425
  177MPD1    H2 2701   0.997   0.477   9.936  1.1000  0.2209 -2.7438
  177MPD1    H3 2702   0.966   0.692  10.013  2.5096 -0.3535 -3.5052
  177MPD1     N 2703   0.583   0.752   9.783  0.0713 -0.4595 -0.3108
  177MPD1    H5 2704   0.509   0.702   9.733  0.9494 -3.4524  1.4077
  177MPD1    N1 2705   0.819   0.334   9.801  0.3963  0.0878 -0.4290
  177MPD1    H6 2706   0.919   0.315   9.795  0.6255  0.9688  0.6491
  177MPD1    H7 2707   0.780   0.303   9.712 -1.3479  0.0446  0.3567
  178MPD1     C 2708   3.020   1.914   0.446 -0.0358  0.8523 -0.1581
  178MPD1    C1 2709   3.137   1.836   0.434 -0.0490  0.4087 -0.1641
  178MPD1    C2 2710   3.221   1.865   0.329  0.4120 -0.2838 -0.0791
  178MPD1    C3 2711   3.182   1.956   0.232  0.1193 -0.1649  0.9772
  178MPD1    C4 2712   3.059   2.016   0.241  0.2309  0.9949 -0.2298
  178MPD1    C5 2713   2.986   2.004   0.355  0.7596  0.2017  0.4845
  178MPD1     H 2714   3.322   1.827   0.331 -0.1748 -1.9061 -1.4910
  178MPD1    H1 2715   3.019   2.075   0.159  1.7994  1.6576 -0.5196
  178MPD1    H2 2716   2.952   1.885   0.526 -1.2110  1.5123 -0.9068
  178MPD1    H3 2717   2.893   2.059   0.361 -0.4846 -2.0675  1.7024
  178MPD1     N 2718   3.255   1.990   0.110 -0.1945  0.3211  0.0462
  178MPD1    H5 2719   3.203   2.040   0.039 -2.4403 -0.3853  1.2221
  178MPD1    N1 2720   3.167   1.747   0.534  0.5400  0.0580 -0.0241
  178MPD1    H6 2721   3.223   1.670   0.499 -0.8042  0.5959 -3.3538
  178MPD1    H7 2722   3.085   1.708   0.579 -0.6674  0.3583 -1.9690
  179MPD1     C 2723   2.724   0.394  15.285  0.5072 -0.8445 -0.6444
  179MPD1    C1 2724   2.855   0.358  15.329 -0.1502 -0.0322  0.2709
  179MPD1    C2 2725   2.876   0.229  15.380  0.0808  1.0806  0.3168
  179MPD1    C3 2726   2.770   0.137  15.388  0.1566 -0.1336  0.7943
  179MPD1    C4 2727   2.650   0.170  15.332 -0.7453  0.5496 -0.2259
  179MPD1    C5 2728   2.627   0.300  15.289  0.9678  0.6212  0.3502
  179MPD1     H 2729   2.971   0.213  15.428 -1.1140  1.3523  2.7419
  179MPD1    H1 2730   2.574   0.094  15.317  0.5748 -1.0672  1.2485
  179MPD1    H2 2731   2.698   0.494  15.254 -2.1150 -1.6289 -0.9576
  179MPD1    H3 2732   2.528   0.318  15.248 -0.7301 -0.4211  4.0185
  179MPD1     N 2733   2.779   0.012  15.456  0.4691  0.3858 -0.3171
  179MPD1    H5 2734   2.692   4.684  15.458  0.2631  0.7195 -0.2834
  179MPD1    N1 2735   2.956   0.457  15.341  0.2742  0.9072 -0.2328
  179MPD1    H6 2736   2.941   0.546  15.293 -1.4636  0.6377 -0.1779
  179MPD1    H7 2737   3.052   0.433  15.319  1.0615  1.2459  2.8300
  180MPD1     C 2738   2.465   1.508  15.193  0.0178 -0.8784 -0.7168
  180MPD1    C1 2739   2.560   1.545  15.106 -0.0225  0.1309 -0.4641
  180MPD1    C2 2740   2.525   1.516  14.971 -1.2571  0.6819  0.0191
  180MPD1    C3 2741   2.423   1.432  14.937 -0.2688  0.3035 -1.3285
  180MPD1    C4 2742   2.332   1.394  15.034 -0.1717 -0.1239  0.3560
  180MPD1    C5 2743   2.356   1.439  15.160 -0.2996 -0.3748  0.5273
  180MPD1     H 2744   2.594   1.551  14.895 -0.2288  0.0359  0.6438
  180MPD1    H1 2745   2.237   1.342  15.021 -1.2849  2.3671 -1.4621
  180MPD1    H2 2746   2.479   1.512  15.300 -0.5255 -2.0350 -0.6019
  180MPD1    H3 2747   2.285   1.415  15.239 -1.3127 -0.2745 -0.3494
  180MPD1     N 2748   2.395   1.414  14.802 -0.0546 -0.2691 -0.3307
  180MPD1    H5 2749   2.457   1.461  14.737  1.1005  0.4222  1.2371
  180MPD1    N1 2750   2.659   1.638  15.146  0.0950  0.3043 -0.0167
  180MPD1    H6 2751   2.739   1.630  15.084 -0.6831  1.4751 -1.1617
  180MPD1    H7 2752   2.687   1.616  15.242  0.0508  1.4863  0.2710
  181MPD1     C 2753   0.118   2.608   9.604 -0.1557  0.3461  0.5930
  181MPD1    C1 2754   0.153   2.740   9.583  0.4780  0.5581  0.0408
  181MPD1    C2 2755   0.287   2.778   9.608  0.2961  0.0353  0.0518
  181MPD1    C3 2756   0.386   2.683   9.645  0.1149 -0.4098  0.6102
  181MPD1    C4 2757   0.342   2.547   9.655  0.1544 -0.3016  0.1066
  181MPD1    C5 2758   0.214   2.516   9.624  0.9068  0.0986  0.0187
  181MPD1     H 2759   0.313   2.880   9.582  0.8054 -0.4228 -1.2262
  181MPD1    H1 2760   0.418   2.475   9.683  2.1148  1.9241  0.6145
  181MPD1    H2 2761   0.017   2.575   9.584  0.1545  0.8460 -1.8075
  181MPD1    H3 2762   0.192   2.410   9.626 -3.4225  1.0158  1.0487
  181MPD1     N 2763   0.518   2.717   9.664 -0.1814 -0.0398  0.3118
  181MPD1    H5 2764   0.593   2.651   9.682 -0.0068 -0.1368 -0.7643
  181MPD1    N1 2765   0.057   2.840   9.554  0.7267  0.1666 -0.5084
  181MPD1    H6 2766   0.096   2.919   9.505  0.3150  1.2137  0.8328
  181MPD1    H7 2767   4.698   2.812   9.504  0.6892 -1.6598  0.5850
  182MPD1     C 2768   1.938   2.859   0.704 -0.0094 -0.1707 -0.6833
  182MPD1    C1 2769   1.887   2.906   0.819  0.4889  0.1071 -0.2461
  182MPD1    C2 2770   1.829   2.816   0.909 -0.3841  0.5887  0.0318
  182MPD1    C3 2771   1.793   2.688   0.870  0.3416 -0.2419 -0.4770
  182MPD1    C4 2772   1.840   2.648   0.749  1.1788  0.3020 -0.1556
  182MPD1    C5 2773   1.917   2.733   0.664 -0.5527 -0.4812  0.5761
  182MPD1     H 2774   1.797   2.853   1.005  0.5052 -1.1426  0.9966
  182MPD1    H1 2775   1.811   2.549   0.716 -0.4387  0.7583 -0.1130
  182MPD1    H2 2776   1.991   2.936   0.649 -0.6166  0.8385  0.1305
  182MPD1    H3 2777   1.948   2.702   0.565 -0.8459  0.7586  0.0876
  182MPD1     N 2778   1.715   2.600   0.947 -0.1310 -0.1145  0.4813
  182MPD1    H5 2779   1.674   2.517   0.906  0.2954 -0.0449 -0.0807
  182MPD1    N1 2780   1.933   3.037   0.865 -0.4484 -0.0836 -0.0426
  182MPD1    H6 2781   1.864   3.071   0.932 -1.3324  0.5638 -1.2620
  182MPD1    H7 2782   1.936   3.105   0.788 -1.5664  0.7888  0.6707
  183MPD1     C 2783   2.278   3.073   9.914  0.6733 -0.5229 -0.2202
  183MPD1    C1 2784   2.210   2.974   9.979 -0.1529  0.2654  0.5815
  183MPD1    C2 2785   2.076   2.967   9.952  0.0309 -0.4351 -1.1322
  183MPD1    C3 2786   2.015   3.064   9.868  0.2043  0.1084  0.4989
  183MPD1    C4 2787   2.087   3.168   9.819  0.4733 -0.2270 -0.4296
  183MPD1    C5 2788   2.223   3.164   9.834 -0.4176  0.1043 -0.0060
  183MPD1     H 2789   2.016   2.885   9.989 -0.4211  0.5147  0.2439
  183MPD1    H1 2790   2.037   3.253   9.773  0.2486 -1.2260 -1.9984
  183MPD1    H2 2791   2.386   3.072   9.922  0.6179  0.2806  0.6721
  183MPD1    H3 2792   2.286   3.238   9.785  1.2399 -0.0383  1.9219
  183MPD1     N 2793   1.883   3.033   9.837 -0.2823  0.4102  0.0142
  183MPD1    H5 2794   1.857   2.942   9.873 -2.7880 -0.3564 -3.7286
  183MPD1    N1 2795   2.274   2.863  10.041  0.3292  0.0173  0.3533
  183MPD1    H6 2796   2.366   2.870  10.083  0.1144  2.3718  0.4145
  183MPD1    H7 2797   2.213   2.819  10.110 -1.7051 -2.2222 -2.8539
  184MPD1     C 2798   4.457   4.432   9.566  0.3794  0.3425  0.2342
  184MPD1    C1 2799   4.567   4.496   9.614 -0.1787  0.4664 -0.7071
  184MPD1    C2 2800   4.584   4.633   9.588 -0.2672 -0.6884  0.2534
  184MPD1    C3 2801   4.507   4.701   9.491 -0.2759 -0.0252 -0.7470
  184MPD1    C4 2802   4.396   4.637   9.442 -0.0202  0.1468 -0.1918
  184MPD1    C5 2803   4.376   4.502   9.473  1.0469 -0.0685 -0.3401
  184MPD1     H 2804   4.661   4.689   9.641  1.1427 -0.1856 -2.3061
  184MPD1    H1 2805   4.328   4.678   9.368  0.2473  0.8420 -0.0490
  184MPD1    H2 2806   4.424   4.331   9.587 -2.4095  1.2729  0.4568
  184MPD1    H3 2807   4.286   4.448   9.447  1.4509 -1.4518  1.1376
  184MPD1     N 2808   4.530   0.109   9.447  0.3520  0.0644  0.1449
  184MPD1    H5 2809   4.475   0.157   9.376 -1.0187 -1.7595 -0.0056
  184MPD1    N1 2810   4.634   4.438   9.723  0.3685  0.4013 -0.1514
  184MPD1    H6 2811   0.006   4.469   9.732  0.2116  1.2078 -1.2103
  184MPD1    H7 2812   4.646   4.339   9.703 -0.0214  0.4456 -0.5963
  185MPD1     C 2813   4.589   0.455   8.648  0.4430  0.6114 -0.5627
  185MPD1    C1 2814   4.582   0.568   8.724  0.6649 -0.1022  0.2734
  185MPD1    C2 2815   4.562   0.561   8.863 -0.1192  0.1789  0.0388
  185MPD1    C3 2816   4.569   0.437   8.933 -0.1670 -0.4538  0.0191
  185MPD1    C4 2817   4.572   0.329   8.854  0.3674 -0.7297  0.1573
  185MPD1    C5 2818   4.587   0.337   8.715  0.0703  0.5581  0.9829
  185MPD1     H 2819   4.528   0.647   8.918 -1.3840 -0.0724 -0.3395
  185MPD1    H1 2820   4.562   0.233   8.904 -0.7907 -0.1192  1.1045
  185MPD1    H2 2821   4.594   0.452   8.540 -0.2920 -1.1840 -0.5566
  185MPD1    H3 2822   4.592   0.240   8.667  0.4635  0.6398  0.8603
  185MPD1     N 2823   4.544   0.419   9.069 -0.0745  0.0175 -0.0870
  185MPD1    H5 2824   4.574   0.329   9.104  0.6469  0.8402  1.4001
  185MPD1    N1 2825   4.546   0.689   8.659 -0.4973 -0.6297  0.6814
  185MPD1    H6 2826   4.601   0.687   8.574  1.0512 -2.9427  1.7140
  185MPD1    H7 2827   4.566   0.765   8.724  1.9040 -0.2295 -0.5375
  186MPD1     C 2828   2.992   0.708  15.631  0.3337  0.7972 -0.1547
  186MPD1    C1 2829   3.036   0.596  15.692 -0.8383 -0.8994 -0.3087
  186MPD1    C2 2830   3.085   0.604  15.817 -0.2771 -0.4328  0.3583
  186MPD1    C3 2831   3.116   0.726  15.875  0.6301 -0.4048  0.1474
  186MPD1    C4 2832   3.096   0.841  15.804 -0.2428  0.5527  0.5131
  186MPD1    C5 2833   3.032   0.831  15.684 -0.0135  0.4676 -0.2789
  186MPD1     H 2834   3.114   0.507  15.857 -1.9895 -1.0336  0.1280
  186MPD1    H1 2835   3.126   0.935  15.848  2.1393  0.2380 -0.4610
  186MPD1    H2 2836   2.941   0.701  15.535  0.8022  4.0792 -0.6497
  186MPD1    H3 2837   3.004   0.925  15.637  0.4853  0.7356 -0.0430
  186MPD1     N 2838   3.175   0.737  15.997 -0.2797  0.0957 -0.7527
  186MPD1    H5 2839   3.207   0.827  16.032  0.6485 -0.6720  0.3652
  186MPD1    N1 2840   2.975   0.479  15.646  0.1817 -0.3728 -0.4039
  186MPD1    H6 2841   3.026   0.395  15.674  0.8712  0.4540  0.7971
  186MPD1    H7 2842   2.974   0.482  15.545 -0.2672  0.8488 -0.3571
  187MPD1     C 2843   2.353   3.731  17.514 -0.1363  0.0949  0.2976
  187MPD1    C1 2844   2.280   3.622  17.560  0.1077 -0.1588  0.8188
  187MPD1    C2 2845   2.296   3.498  17.498 -0.2932  0.1893  0.3175
  187MPD1    C3 2846   2.382   3.489  17.380  0.3405 -0.4230  0.2839
  187MPD1    C4 2847   2.455   3.597  17.336  0.0225  0.0042  0.0922
  187MPD1    C5 2848   2.434   3.715  17.404 -0.5834  0.0502  0.8808
  187MPD1     H 2849   2.241   3.415  17.539 -0.6416 -0.1665 -0.8724
  187MPD1    H1 2850   2.522   3.595  17.251  0.1334  1.4497  0.1518
  187MPD1    H2 2851   2.352   3.831  17.555  1.6565  0.4180 -0.4244
  187MPD1    H3 2852   2.490   3.798  17.363  0.3354 -0.4769  1.0887
  187MPD1     N 2853   2.411   3.364  17.318 -0.2257 -0.1647  0.7294
  187MPD1    H5 2854   2.476   3.372  17.241 -0.6666  0.8784  0.4680
  187MPD1    N1 2855   2.214   3.629  17.682  0.1056  0.1529  0.1165
  187MPD1    H6 2856   2.141   3.559  17.691 -1.1528  1.5988  1.3353
  187MPD1    H7 2857   2.177   3.721   0.004 -3.8379 -1.5512  0.5150
  188MPD1     C 2858   3.312   1.960  10.205  1.2163  0.6425 -0.2026
  188MPD1    C1 2859   3.279   1.930  10.079  0.0005  0.2783 -0.1783
  188MPD1    C2 2860   3.145   1.897  10.046 -0.2469 -0.3182 -0.2594
  188MPD1    C3 2861   3.048   1.898  10.144  0.1396 -0.0507 -0.5052
  188MPD1    C4 2862   3.084   1.939  10.275  0.0431  0.2704  0.2517
  188MPD1    C5 2863   3.211   1.979  10.301 -0.4730  0.4441  0.6094
  188MPD1     H 2864   3.118   1.862   9.947 -0.1384 -0.3604 -0.2737
  188MPD1    H1 2865   3.010   1.945  10.353 -1.7436 -1.6729 -1.3003
  188MPD1    H2 2866   3.412   1.995  10.227  0.6349  0.1323  3.2809
  188MPD1    H3 2867   3.240   2.016  10.399  2.0614  1.8551 -0.6583
  188MPD1     N 2868   2.915   1.861  10.127  0.2592  0.5193 -0.6712
  188MPD1    H5 2869   2.853   1.873  10.206  0.3374  3.2643 -1.0380
  188MPD1    N1 2870   3.384   1.914   9.979  0.8435  0.2508  0.7194
  188MPD1    H6 2871   3.461   1.980   9.985 -0.1184  1.5350 -0.9846
  188MPD1    H7 2872   3.333   1.933   9.893 -0.4555 -3.0781  0.7549
  189MPD1     C 2873   4.596   2.977   0.392 -0.3975  0.3008 -0.0136
  189MPD1    C1 2874   4.466   2.927   0.401 -0.1490 -0.6613 -0.4936
  189MPD1    C2 2875   4.371   3.026   0.406  0.1720 -0.3613 -0.4071
  189MPD1    C3 2876   4.391   3.162   0.381  0.0840  0.3388  0.3117
  189MPD1    C4 2877   4.525   3.202   0.370  0.3421 -0.3847 -1.1244
  189MPD1    C5 2878   4.621   3.110   0.375 -0.6122  0.6590  0.2585
  189MPD1     H 2879   4.269   2.991   0.422  0.2773 -1.5844 -2.4094
  189MPD1    H1 2880   4.563   3.303   0.368  0.4640 -0.3887  0.8231
  189MPD1    H2 2881   4.682   2.911   0.385 -0.2528  0.5948 -0.9121
  189MPD1    H3 2882   4.724   3.144   0.370 -0.5258  0.7225  2.5423
  189MPD1     N 2883   4.278   3.250   0.382  0.4522 -0.0628  0.4016
  189MPD1    H5 2884   4.187   3.207   0.373  0.0174  0.4593  2.2053
  189MPD1    N1 2885   4.438   2.795   0.439 -0.3626 -0.3738  0.4560
  189MPD1    H6 2886   4.349   2.765   0.400 -0.3405  0.2289 -0.0831
  189MPD1    H7 2887   4.514   2.735   0.408  0.2768  1.6562 -1.9468
  190MPD1     C 2888   2.257   1.543  16.101  0.1374  0.3875  0.3276
  190MPD1    C1 2889   2.337   1.548  16.205 -0.5999  0.3562 -0.1992
  190MPD1    C2 2890   2.475   1.548  16.192 -0.1828  0.2165  0.0108
  190MPD1    C3 2891   2.533   1.553  16.064 -0.1840 -1.1418  0.1635
  190MPD1    C4 2892   2.450   1.559  15.951 -0.1480  0.0579  0.3313
  190MPD1    C5 2893   2.311   1.551  15.976 -0.3309 -0.1538 -1.1813
  190MPD1     H 2894   2.540   1.554  16.279 -1.0730  0.6188  0.6427
  190MPD1    H1 2895   2.480   1.578  15.849 -0.4960 -1.4216 -0.0469
  190MPD1    H2 2896   2.149   1.537  16.102  0.1249  0.3453 -2.2500
  190MPD1    H3 2897   2.248   1.549  15.888 -2.4806  2.4685  0.3085
  190MPD1     N 2898   2.667   1.544  16.054  0.7640  0.0269  0.3087
  190MPD1    H5 2899   2.725   1.512  16.131  0.2350  0.0719  0.7228
  190MPD1    N1 2900   2.279   1.547  16.335  0.8447 -0.4395 -0.2901
  190MPD1    H6 2901   2.195   1.490  16.346  0.9176  0.0879  3.0227
  190MPD1    H7 2902   2.346   1.516  16.405  0.4131  0.9609  0.7374
  191MPD1     C 2903   2.055   3.322  12.559  0.6060 -0.0008  0.7055
  191MPD1    C1 2904   2.077   3.466  12.558  0.3142  0.3435  0.3246
  191MPD1    C2 2905   2.124   3.516  12.439  0.2043 -0.0203 -0.4714
  191MPD1    C3 2906   2.122   3.447  12.319  0.1420  0.1400  0.2716
  191MPD1    C4 2907   2.090   3.312  12.322 -0.1674 -0.2187 -0.3674
  191MPD1    C5 2908   2.054   3.255  12.442 -0.3680  0.5297  0.2971
  191MPD1     H 2909   2.156   3.619  12.426 -0.0173 -0.0031 -0.8816
  191MPD1    H1 2910   2.070   3.251  12.235 -0.9379 -1.5963  0.7751
  191MPD1    H2 2911   2.027   3.270  12.650 -0.9212  1.1075  0.8599
  191MPD1    H3 2912   2.040   3.147  12.443 -0.7556  0.5766 -1.1076
  191MPD1     N 2913   2.135   3.519  12.199  0.6578  0.0758  0.2097
  191MPD1    H5 2914   2.150   3.619  12.211  0.9043  0.2978 -1.9091
  191MPD1    N1 2915   2.089   3.544  12.677  0.2378 -0.1278 -0.4133
  191MPD1    H6 2916   2.026   3.511  12.749  1.5995 -0.6292  0.5430
  191MPD1    H7 2917   2.062   3.640  12.656 -1.9511 -0.6506 -0.0101
  192MPD1     C 2918   2.164   4.429  11.927  0.1356  0.2450  0.3087
  192MPD1    C1 2919   2.123   4.358  12.038  0.1147  0.4112 -0.4925
  192MPD1    C2 2920   2.134   4.220  12.032 -0.4056  0.1239  0.0906
  192MPD1    C3 2921   2.212   4.161  11.935 -0.2299 -0.0124 -0.1474
  192MPD1    C4 2922   2.262   4.238  11.832  0.7576 -0.5382 -0.3446
  192MPD1    C5 2923   2.239   4.374  11.833  0.6023 -0.3323  0.0754
  192MPD1     H 2924   2.101   4.167  12.121  2.1819  1.3715  1.7862
  192MPD1    H1 2925   2.317   4.206  11.744 -0.2973  1.5758 -1.8009
  192MPD1    H2 2926   2.156   4.537  11.924 -0.2589  0.1772 -1.4176
  192MPD1    H3 2927   2.286   4.437  11.758  0.6714 -0.1852  0.2428
  192MPD1     N 2928   2.240   4.027  11.937 -0.1547  0.0030  0.3776
  192MPD1    H5 2929   2.316   3.998  11.875 -1.3027 -2.4177  0.0928
  192MPD1    N1 2930   2.043   4.418  12.141  0.3184  0.0736  0.1664
  192MPD1    H6 2931   2.033   4.349  12.216  1.5651  2.0120  2.1346
  192MPD1    H7 2932   2.071   4.514  12.164 -2.6327  1.0669 -0.3680
  193MPD1     C 2933   1.656   3.789  16.070  0.3222  0.9986  1.1932
  193MPD1    C1 2934   1.663   3.889  16.160 -0.5737 -0.8907  0.1421
  193MPD1    C2 2935   1.755   3.885  16.260  0.0404 -0.5492 -0.3664
  193MPD1    C3 2936   1.842   3.779  16.282  0.5771  0.2721  0.3992
  193MPD1    C4 2937   1.822   3.671  16.198  0.0201  0.0718 -0.2179
  193MPD1    C5 2938   1.738   3.682  16.095 -0.0527 -0.7847  0.2166
  193MPD1     H 2939   1.763   3.974  16.321  2.6015 -2.4643  2.0771
  193MPD1    H1 2940   1.882   3.581  16.196  0.0669  0.0910  0.2927
  193MPD1    H2 2941   1.577   3.774  15.997  0.7775 -0.5938  1.0259
  193MPD1    H3 2942   1.720   3.599  16.027  1.4483 -1.7188  0.9734
  193MPD1     N 2943   1.932   3.775  16.386  0.7822 -0.4080  0.3122
  193MPD1    H5 2944   1.987   3.690  16.396  0.8994 -0.4696 -0.7991
  193MPD1    N1 2945   1.586   4.003  16.139 -0.3797  0.0576 -0.1755
  193MPD1    H6 2946   1.490   3.979  16.118  0.4194 -1.5514 -2.0050
  193MPD1    H7 2947   1.574   4.045  16.231  1.2800  0.7633 -0.2795
  194MPD1     C 2948   4.558   1.333  16.960 -0.3551 -0.0529 -0.3780
  194MPD1    C1 2949   4.540   1.261  16.846 -0.2112 -0.1382  0.0047
  194MPD1    C2 2950   4.496   1.128  16.862 -0.5882 -0.2784  0.0210
  194MPD1    C3 2951   4.477   1.061  16.982  0.6032  0.3191  0.6162
  194MPD1    C4 2952   4.498   1.133  17.096 -0.0959 -0.4138 -0.3169
  194MPD1    C5 2953   4.543   1.266  17.083  0.2053 -0.0823 -0.0389
  194MPD1     H 2954   4.477   1.076  16.768 -1.0078 -0.8846  0.4356
  194MPD1    H1 2955   4.485   1.097  17.197  1.4963  0.2267  0.1336
  194MPD1    H2 2956   4.590   1.436  16.966  2.8086 -1.2000  2.3536
  194MPD1    H3 2957   4.564   1.308  17.180 -0.3061 -1.4935  0.6834
  194MPD1     N 2958   4.421   0.929  16.993  0.3689  0.4408  0.3062
  194MPD1    H5 2959   4.401   0.887  17.083 -3.2651  2.3786  0.3939
  194MPD1    N1 2960   4.519   1.333  16.724  0.4338 -0.0169 -1.0547
  194MPD1    H6 2961   4.594   1.400  16.713 -1.2497  1.8764 -0.9389
  194MPD1    H7 2962   4.531   1.279  16.638  0.7361 -0.7646 -0.5442
  195MPD1     C 2963   1.772   2.285  17.537 -0.2615  0.2655  0.1122
  195MPD1    C1 2964   1.707   2.167  17.564  0.9761 -0.8788  0.0991
  195MPD1    C2 2965   1.756   2.091  17.668 -0.0330  0.4697  0.6675
  195MPD1    C3 2966   1.878   2.120   0.024  0.3114 -0.4791 -0.1193
  195MPD1    C4 2967   1.948   2.237  17.691 -0.6413  0.2533  0.4372
  195MPD1    C5 2968   1.888   2.315  17.593 -0.1978 -0.4964  0.4161
  195MPD1     H 2969   1.707   2.001   0.002  1.7765 -1.0675 -0.6878
  195MPD1    H1 2970   2.028   2.272   0.054 -1.2719 -1.2636  2.0359
  195MPD1    H2 2971   1.731   2.350  17.460  0.6510  1.4694  0.6353
  195MPD1    H3 2972   1.928   2.414  17.573 -1.7369 -0.3681 -1.9799
  195MPD1     N 2973   1.937   2.034   0.114  0.4508 -0.3872  0.1883
  195MPD1    H5 2974   2.014   2.072   0.168 -1.5234  2.5211  0.9588
  195MPD1    N1 2975   1.583   2.142  17.511  0.4974  0.0462  0.6642
  195MPD1    H6 2976   1.561   2.044  17.527 -0.2573  0.4838  2.2794
  195MPD1    H7 2977   1.561   2.167  17.415 -2.0156 -1.4946  0.8509
  196MPD1     C 2978   2.328   3.017  17.629 -0.5184  0.0989  0.3695
  196MPD1    C1 2979   2.415   3.074   0.017 -0.2726  0.9863 -0.1519
  196MPD1    C2 2980   2.466   2.997   0.128  0.2602 -0.1553  0.4663
  196MPD1    C3 2981   2.443   2.858   0.137 -0.1382 -0.2006 -0.5081
  196MPD1    C4 2982   2.363   2.806   0.044  0.1635  0.3117  0.4672
  196MPD1    C5 2983   2.302   2.878  17.647 -0.5776 -0.3214  0.2734
  196MPD1     H 2984   2.518   3.050   0.206 -0.5854  0.6047  0.5168
  196MPD1    H1 2985   2.338   2.700   0.042 -0.9675  0.5745  0.8144
  196MPD1    H2 2986   2.278   3.074  17.552 -1.4025  0.0244  0.8842
  196MPD1    H3 2987   2.231   2.826  17.584 -1.4359  1.3240 -0.0909
  196MPD1     N 2988   2.483   2.764   0.231  0.4926 -0.5770 -0.3921
  196MPD1    H5 2989   2.449   2.670   0.212 -0.6808  0.0984 -1.6713
  196MPD1    N1 2990   2.437   3.213   0.013  0.3937 -0.7095  0.3428
  196MPD1    H6 2991   2.436   3.247  17.619 -1.1176  0.0483  0.6352
  196MPD1    H7 2992   2.520   3.234   0.069  0.3054  0.1753  0.1443
  197MPD1     C 2993   0.542   0.340  17.566 -0.1849  0.0888 -0.7628
  197MPD1    C1 2994   0.566   0.206  17.595  0.1202  0.2617 -0.4220
  197MPD1    C2 2995   0.678   0.154  17.527  0.2474 -0.0727  0.0282
  197MPD1    C3 2996   0.760   0.232  17.448  0.7383 -0.1769 -0.0223
  197MPD1    C4 2997   0.732   0.362  17.431 -0.2353  0.2489  0.5742
  197MPD1    C5 2998   0.617   0.421  17.481  0.0552  0.1615 -0.3176
  197MPD1     H 2999   0.689   0.047  17.542  2.8954  0.3392  1.1171
  197MPD1    H1 3000   0.788   0.428  17.366  0.5643 -0.6594  0.3374
  197MPD1    H2 3001   0.458   0.396  17.607 -0.4613  1.3820 -3.0980
  197MPD1    H3 3002   0.597   0.527  17.472  0.1290  0.2651  0.8132
  197MPD1     N 3003   0.873   0.188  17.379  0.3760 -0.6190  0.8335
  197MPD1    H5 3004   0.929   0.252  17.324  1.1124 -1.2325  0.8484
  197MPD1    N1 3005   0.478   0.133  17.667 -0.4508  0.0102 -0.2558
  197MPD1    H6 3006   0.513   0.051   0.014 -0.5900 -1.3373 -2.4047
  197MPD1    H7 3007   0.413   0.189   0.020 -0.5198 -2.5157  2.2313
  198MPD1     C 3008   2.719   2.245  15.764 -0.8113 -0.5550 -0.0686
  198MPD1    C1 3009   2.832   2.224  15.690  0.1687 -0.8200  0.1451
  198MPD1    C2 3010   2.947   2.283  15.739 -0.1163 -0.4883  0.0207
  198MPD1    C3 3011   2.944   2.356  15.859  0.0277 -0.1567 -0.0202
  198MPD1    C4 3012   2.834   2.361  15.935 -0.1883 -0.1119 -0.6725
  198MPD1    C5 3013   2.723   2.309  15.888 -0.0928 -1.0651 -0.4637
  198MPD1     H 3014   3.033   2.290  15.673  0.5572  0.8317  1.0499
  198MPD1    H1 3015   2.816   2.417  16.026  1.6015  0.0983 -0.4608
  198MPD1    H2 3016   2.622   2.221  15.721 -0.4164  0.4575 -1.5090
  198MPD1    H3 3017   2.635   2.308  15.951  0.7320  0.3709  0.7154
  198MPD1     N 3018   3.063   2.418  15.899  0.0249 -0.7522 -0.0107
  198MPD1    H5 3019   3.146   2.407  15.843 -0.5038  1.6809 -1.2684
  198MPD1    N1 3020   2.817   2.183  15.557  0.2505  0.1364 -0.2163
  198MPD1    H6 3021   2.900   2.127  15.541  0.0870 -0.1050 -0.2400
  198MPD1    H7 3022   2.738   2.118  15.565  0.0405  0.5294  0.9927
  199MPD1     C 3023   0.753   3.624  10.287 -0.3750  0.5288  0.2623
  199MPD1    C1 3024   0.762   3.738  10.213  0.3312 -0.7457  0.0648
  199MPD1    C2 3025   0.769   3.723  10.073 -0.0613  0.1133  0.3847
  199MPD1    C3 3026   0.747   3.605  10.008  0.0305 -0.1085  0.0632
  199MPD1    C4 3027   0.740   3.492  10.086 -0.4708 -0.6094 -0.7844
  199MPD1    C5 3028   0.733   3.511  10.221 -0.2760  0.0185 -0.6375
  199MPD1     H 3029   0.783   3.807  10.007 -0.6551  0.0462  0.1679
  199MPD1    H1 3030   0.737   3.390  10.050 -0.6119 -0.6809 -0.5690
  199MPD1    H2 3031   0.739   3.628  10.395 -0.8489  1.0300  0.1782
  199MPD1    H3 3032   0.715   3.423  10.281  0.3558  1.2814  1.3768
  199MPD1     N 3033   0.749   3.581   9.864  0.1858 -0.1248 -0.4985
  199MPD1    H5 3034   0.737   3.483   9.841 -0.2528 -0.5721  1.6820
  199MPD1    N1 3035   0.780   3.860  10.277 -0.1872 -0.4733  0.6749
  199MPD1    H6 3036   0.782   3.930  10.203 -0.8301  1.3091  2.3479
  199MPD1    H7 3037   0.696   3.890  10.325 -0.3084  0.1925  0.0538
  200MPD1     C 3038   3.408   3.650  15.552 -0.1793 -0.7865 -0.5802
  200MPD1    C1 3039   3.403   3.592  15.429 -0.5335 -0.1933 -0.3319
  200MPD1    C2 3040   3.495   3.623  15.328 -0.1250  0.1516  0.1176
  200MPD1    C3 3041   3.607   3.694  15.362 -0.0350 -0.3952  1.0672
  200MPD1    C4 3042   3.617   3.739  15.491  1.0020  0.6144 -0.2840
  200MPD1    C5 3043   3.514   3.727  15.580 -0.4933 -0.4545 -0.4514
  200MPD1     H 3044   3.491   3.571  15.233 -1.8981 -1.9553  1.3383
  200MPD1    H1 3045   3.703   3.800  15.515  0.1281  0.5846  2.8936
  200MPD1    H2 3046   3.347   3.624  15.638 -2.9868  0.1770 -2.2574
  200MPD1    H3 3047   3.521   3.758  15.683 -1.6080 -1.8875  0.0491
  200MPD1     N 3048   3.709   3.701  15.264  0.1404  0.0343  0.5255
  200MPD1    H5 3049   3.676   3.663  15.176 -0.5106 -0.0018  0.7853
  200MPD1    N1 3050   3.297   3.507  15.405 -0.9607 -0.0365  0.0648
  200MPD1    H6 3051   3.324   3.410  15.398  1.0714  0.5714 -0.6310
  200MPD1    H7 3052   3.226   3.516  15.478 -1.2397 -0.0277 -0.2071
  201MPD1     C 3053   2.496   2.739  13.464  0.1942 -0.0146 -0.4166
  201MPD1    C1 3054   2.456   2.641  13.549 -0.2864 -1.0249 -0.2679
  201MPD1    C2 3055   2.351   2.557  13.511  0.1541 -0.2687  0.5561
  201MPD1    C3 3056   2.280   2.577  13.396 -0.1364  0.9803  0.2881
  201MPD1    C4 3057   2.328   2.671  13.311  0.6343 -0.4747  0.0222
  201MPD1    C5 3058   2.427   2.762  13.347 -0.2832 -0.0343 -0.1366
  201MPD1     H 3059   2.315   2.482  13.581  0.1034 -2.7322 -2.0714
  201MPD1    H1 3060   2.283   2.675  13.213  2.7221 -0.6815 -0.9366
  201MPD1    H2 3061   2.582   2.802  13.486  0.0390  0.1660 -0.3267
  201MPD1    H3 3062   2.470   2.833  13.278 -3.0951  0.7793 -1.0480
  201MPD1     N 3063   2.167   2.495  13.373  0.0642  0.1383  0.4475
  201MPD1    H5 3064   2.135   2.437  13.450  0.4329 -1.3714 -0.5129
  201MPD1    N1 3065   2.527   2.603  13.665 -0.2072  0.6541  0.4561
  201MPD1    H6 3066   2.476   2.539  13.726  1.2097 -0.6448  0.2898
  201MPD1    H7 3067   2.559   2.675  13.730 -1.3095  1.3583  0.2049
  202MPD1     C 3068   2.710   2.110  10.218 -0.3296  0.0974  0.4231
  202MPD1    C1 3069   2.694   2.181  10.096 -0.0125 -0.0914  0.4776
  202MPD1    C2 3070   2.561   2.184  10.054  0.6042  0.0349 -0.3960
  202MPD1    C3 3071   2.466   2.087  10.088 -0.3767 -0.0179  0.1941
  202MPD1    C4 3072   2.499   1.999  10.195  0.2146 -0.0583 -0.1487
  202MPD1    C5 3073   2.618   2.021  10.261 -0.0749  0.2486  0.4304
  202MPD1     H 3074   2.545   2.240   9.963 -1.7957 -1.3414 -0.8253
  202MPD1    H1 3075   2.429   1.931  10.243 -0.0382  0.3320  0.0345
  202MPD1    H2 3076   2.811   2.109  10.256  0.0690 -1.1803 -0.6762
  202MPD1    H3 3077   2.637   1.954  10.344  0.1302  0.2969  0.4239
  202MPD1     N 3078   2.339   2.063  10.027 -0.3731 -0.2035 -0.4441
  202MPD1    H5 3079   2.284   1.985  10.063  0.8774  0.5458  3.0725
  202MPD1    N1 3080   2.781   2.288  10.071  0.5231 -0.5866 -0.2452
  202MPD1    H6 3081   2.768   2.333   9.981 -1.8341 -0.7373  0.0318
  202MPD1    H7 3082   2.880   2.274  10.093  0.1583 -1.4546  0.8305
  203MPD1     C 3083   4.718   2.448  13.092 -0.4852 -0.1938  0.4062
  203MPD1    C1 3084   0.073   2.369  13.177 -0.3420 -0.1316 -0.6551
  203MPD1    C2 3085   0.206   2.348  13.143  0.1937  0.2595 -0.6657
  203MPD1    C3 3086   0.258   2.372  13.015  0.1709 -0.3835  0.4875
  203MPD1    C4 3087   0.165   2.433  12.928  0.0809 -0.1620 -0.6208
  203MPD1    C5 3088   0.044   2.474  12.970  0.3541  0.0628  0.0443
  203MPD1     H 3089   0.278   2.300  13.208 -0.4616  1.1717  0.7228
  203MPD1    H1 3090   0.197   2.468  12.830 -0.9376  0.6685 -0.6588
  203MPD1    H2 3091   4.619   2.487  13.114 -0.9531 -1.4755  0.5533
  203MPD1    H3 3092   4.709   2.532  12.901  0.0388 -1.3299 -0.8560
  203MPD1     N 3093   0.391   2.345  12.979  0.0639  0.5253  0.2664
  203MPD1    H5 3094   0.445   2.313  13.059 -0.3938 -0.9503 -0.0249
  203MPD1    N1 3095   0.042   2.343  13.316  0.7443  0.2301  0.5062
  203MPD1    H6 3096   4.669   2.315  13.310  1.1388 -1.1869  0.5663
  203MPD1    H7 3097   0.098   2.271  13.362 -0.2225 -0.3766  0.7433
  204MPD1     C 3098   4.464   4.505  17.436 -0.4568 -0.4882 -0.5057
  204MPD1    C1 3099   4.508   4.488  17.306 -0.3022  0.5424 -0.1728
  204MPD1    C2 3100   4.563   4.364  17.286  0.2891 -0.2712 -0.2624
  204MPD1    C3 3101   4.572   4.265  17.379  0.1196  0.2141  0.2174
  204MPD1    C4 3102   4.521   4.282  17.503  0.6074  0.0727 -0.1756
  204MPD1    C5 3103   4.471   4.412  17.533  0.2407 -0.4741  0.2478
  204MPD1     H 3104   4.602   4.336  17.189  2.7605  2.5844 -0.0755
  204MPD1    H1 3105   4.513   4.204  17.577  0.8772 -1.9711 -2.3240
  204MPD1    H2 3106   4.419   4.599  17.465  1.8606  0.1973  0.9182
  204MPD1    H3 3107   4.427   4.435  17.630  4.1670 -0.1395  1.9424
  204MPD1     N 3108   4.633   4.147  17.334 -0.2612  0.3772  0.5405
  204MPD1    H5 3109   4.669   4.154  17.239 -0.6819  0.9361  0.4202
  204MPD1    N1 3110   4.528   4.595  17.219 -0.3878  0.6585 -0.6529
  204MPD1    H6 3111   4.512   4.575  17.121  0.9564  1.0781 -0.9565
  204MPD1    H7 3112   4.471   4.677  17.243 -0.5638  0.3306  0.0492
  205MPD1     C 3113   4.149   2.478  16.900 -0.3727 -1.0901 -0.1927
  205MPD1    C1 3114   4.277   2.504  16.862 -0.3527  0.1787 -0.3982
  205MPD1    C2 3115   4.356   2.558  16.964  0.0975 -0.8425 -0.2954
  205MPD1    C3 3116   4.314   2.573  17.098 -0.5689 -0.4834  0.0298
  205MPD1    C4 3117   4.186   2.528  17.132 -0.0774  0.2749 -0.2504
  205MPD1    C5 3118   4.104   2.496  17.027 -0.2511 -0.3764  0.6476
  205MPD1     H 3119   4.454   2.598  16.940  0.0205  0.2066  1.1151
  205MPD1    H1 3120   4.138   2.537  17.230 -0.6883  0.8998 -0.6068
  205MPD1    H2 3121   4.073   2.450  16.828 -1.8187  0.9896  0.5289
  205MPD1    H3 3122   4.002   2.472  17.054 -0.8242 -0.3871 -1.5417
  205MPD1     N 3123   4.380   2.638  17.203  0.1989  0.0224 -0.1300
  205MPD1    H5 3124   4.341   2.626  17.296 -1.4973 -3.3936 -1.2880
  205MPD1    N1 3125   4.307   2.496  16.727 -0.2840  0.0994  0.4327
  205MPD1    H6 3126   4.404   2.476  16.706 -0.7192  0.6868 -2.0997
  205MPD1    H7 3127   4.253   2.418  16.689  0.5910 -0.1932 -0.2091
  206MPD1     C 3128   0.166   0.724  17.093 -0.6839 -0.1195  0.5535
  206MPD1    C1 3129   0.164   0.624  17.001 -0.2153  0.1886 -1.1166
  206MPD1    C2 3130   0.087   0.649  16.886  0.4025  0.3086  0.1732
  206MPD1    C3 3131   0.027   0.772  16.864  0.6568  0.1141  0.3790
  206MPD1    C4 3132   0.038   0.870  16.962 -0.0348 -0.2172 -0.4993
  206MPD1    C5 3133   0.101   0.846  17.081  0.0975 -0.1105 -0.1771
  206MPD1     H 3134   0.098   0.577  16.805  1.8368 -0.1782  0.8035
  206MPD1    H1 3135   4.718   0.965  16.935  2.3248  0.0651 -3.3062
  206MPD1    H2 3136   0.238   0.708  17.173 -0.6703  0.3182  0.6278
  206MPD1    H3 3137   0.122   0.926  17.150  0.8608  0.1359 -0.6836
  206MPD1     N 3138   4.695   0.806  16.743  0.1205  0.2413  0.6740
  206MPD1    H5 3139   4.679   0.905  16.728 -3.5774 -0.3071  1.1599
  206MPD1    N1 3140   0.250   0.510  17.018  0.7515 -0.8590 -0.0439
  206MPD1    H6 3141   0.217   0.433  16.959  1.0528  1.1978 -2.8679
  206MPD1    H7 3142   0.266   0.479  17.114  0.2121 -1.0314 -0.0046
  207MPD1     C 3143   1.262   4.241   9.647 -0.4539  0.1102  0.3321
  207MPD1    C1 3144   1.354   4.321   9.703  0.1110 -0.6056 -0.2887
  207MPD1    C2 3145   1.480   4.274   9.737  0.3556  0.3497  0.3901
  207MPD1    C3 3146   1.515   4.139   9.721  0.2816 -0.3446  0.1155
  207MPD1    C4 3147   1.423   4.060   9.666  0.8081 -0.3609 -0.0402
  207MPD1    C5 3148   1.306   4.114   9.626 -0.3825  0.5805  0.7119
  207MPD1     H 3149   1.553   4.343   9.779  1.2684  0.0337 -0.6522
  207MPD1    H1 3150   1.445   3.954   9.652 -0.0425 -0.4527 -0.7557
  207MPD1    H2 3151   1.166   4.280   9.616  0.3450  0.4242 -1.7525
  207MPD1    H3 3152   1.240   4.055   9.564  1.8328 -1.4100  0.2293
  207MPD1     N 3153   1.639   4.090   9.740 -0.0252  0.2232 -0.2473
  207MPD1    H5 3154   1.657   3.994   9.713 -0.6024 -0.7279  2.7348
  207MPD1    N1 3155   1.327   4.458   9.711 -0.5492  0.0699  0.3800
  207MPD1    H6 3156   1.226   4.473   9.714 -0.3910  1.4446 -1.3272
  207MPD1    H7 3157   1.379   4.517   9.775 -0.8626  0.8037 -0.0454
  208MPD1     C 3158   0.778   3.337   0.556  0.5598 -0.5043 -0.0201
  208MPD1    C1 3159   0.901   3.280   0.574 -0.7899 -0.3547 -0.1823
  208MPD1    C2 3160   0.919   3.154   0.523 -0.1304 -0.5065 -0.0104
  208MPD1    C3 3161   0.830   3.094   0.439 -0.2149 -0.5200 -0.1506
  208MPD1    C4 3162   0.715   3.167   0.405 -0.3880  0.0193  0.2796
  208MPD1    C5 3163   0.695   3.286   0.473 -0.0174  0.3512  0.5886
  208MPD1     H 3164   1.007   3.101   0.560 -0.5493 -1.3395 -0.2098
  208MPD1    H1 3165   0.630   3.122   0.355  1.8452 -1.5760 -2.1130
  208MPD1    H2 3166   0.754   3.432   0.603 -0.8654 -0.3480 -1.0817
  208MPD1    H3 3167   0.602   3.340   0.456  1.1022  1.6526 -1.4497
  208MPD1     N 3168   0.846   2.958   0.414  0.2769 -0.2518 -0.0771
  208MPD1    H5 3169   0.914   2.912   0.474  1.4632  0.0498 -1.2067
  208MPD1    N1 3170   0.987   3.332   0.675  0.5688 -0.3070  0.1616
  208MPD1    H6 3171   0.979   3.432   0.695  0.1143 -0.0725 -1.1886
  208MPD1    H7 3172   1.083   3.306   0.654  1.8196  2.8758  2.0463
  209MPD1     C 3173   1.813   2.451  10.635  0.8861  0.4593 -0.5098
  209MPD1    C1 3174   1.879   2.424  10.518  0.2096  0.2051 -0.8375
  209MPD1    C2 3175   1.922   2.536  10.442  0.1610 -0.3919 -0.5543
  209MPD1    C3 3176   1.905   2.661  10.483  0.5386  0.4042 -0.2776
  209MPD1    C4 3177   1.823   2.686  10.595  0.6873 -0.1434  0.7585
  209MPD1    C5 3178   1.784   2.576  10.669  0.1448  0.1988  0.0259
  209MPD1     H 3179   1.992   2.523  10.360  0.4779 -1.8824 -0.0489
  209MPD1    H1 3180   1.799   2.786  10.627  1.2124  0.2824 -0.1907
  209MPD1    H2 3181   1.774   2.376  10.703 -1.7907  0.3301 -2.1905
  209MPD1    H3 3182   1.720   2.585  10.756  0.2598  3.5563 -0.2314
  209MPD1     N 3183   1.961   2.769  10.415 -0.0185 -0.0069  0.2686
  209MPD1    H5 3184   2.034   2.750  10.347  0.5963 -0.1054  0.9450
  209MPD1    N1 3185   1.923   2.293  10.479  0.0516  0.0154  0.3424
  209MPD1    H6 3186   1.849   2.231  10.512  1.5058 -0.7349  2.2060
  209MPD1    H7 3187   1.930   2.287  10.378 -0.1515 -2.6288  0.4787
  210MPD1     C 3188   2.840   3.232  10.413  0.0195  0.5221  0.2550
  210MPD1    C1 3189   2.787   3.107  10.418  0.1498  0.7278 -0.2550
  210MPD1    C2 3190   2.653   3.089  10.402 -0.1327 -0.6075 -0.1839
  210MPD1    C3 3191   2.572   3.197  10.369  0.8010 -0.6458  0.1058
  210MPD1    C4 3192   2.622   3.319  10.355 -0.4732 -0.3185 -0.5689
  210MPD1    C5 3193   2.756   3.336  10.367 -0.0844  0.0566 -0.5028
  210MPD1     H 3194   2.621   2.986  10.416 -0.2322 -0.3134  1.7260
  210MPD1    H1 3195   2.556   3.404  10.340 -0.2553  0.2783  1.8990
  210MPD1    H2 3196   2.940   3.258  10.447  0.0806 -0.9505  1.2237
  210MPD1    H3 3197   2.788   3.439  10.369  0.6930 -0.2101  1.3686
  210MPD1     N 3198   2.433   3.183  10.328  0.6430  0.2929 -0.1035
  210MPD1    H5 3199   2.400   3.268  10.283  0.9508 -0.3899 -1.6165
  210MPD1    N1 3200   2.874   3.012  10.466  0.8162  0.2679 -0.4729
  210MPD1    H6 3201   2.847   2.916  10.448  3.0338 -0.4976  0.2303
  210MPD1    H7 3202   2.971   3.016  10.436  0.4849 -3.8337 -1.9705
  211MPD1     C 3203   1.077   3.438  15.920 -0.2450 -0.5973  0.5084
  211MPD1    C1 3204   1.002   3.548  15.905 -0.3390  0.7654 -0.5301
  211MPD1    C2 3205   0.867   3.531  15.940 -0.1080 -0.5683 -0.1795
  211MPD1    C3 3206   0.822   3.430  16.019 -0.3072  0.0032 -0.6363
  211MPD1    C4 3207   0.908   3.333  16.055 -0.3593 -0.1891  0.2834
  211MPD1    C5 3208   1.031   3.333  15.994 -0.2188  0.3221 -0.4612
  211MPD1     H 3209   0.790   3.597  15.903 -0.5716 -0.1447  1.5113
  211MPD1    H1 3210   0.888   3.256  16.129  1.4157 -0.0267  0.9183
  211MPD1    H2 3211   1.173   3.426  15.871 -0.5603 -0.6041 -0.1133
  211MPD1    H3 3212   1.096   3.247  16.007 -1.3156 -0.7179 -1.8827
  211MPD1     N 3213   0.692   3.438  16.064 -0.5397 -0.1039  0.5240
  211MPD1    H5 3214   0.630   3.508  16.024  0.3349  1.0044  1.1220
  211MPD1    N1 3215   1.030   3.649  15.810 -0.6823 -0.3754 -0.5213
  211MPD1    H6 3216   1.128   3.678  15.813 -0.3721 -1.4314 -0.5191
  211MPD1    H7 3217   0.969   3.723  15.843  0.7820  1.7745 -2.6172
  212MPD1     C 3218   4.173   1.682  16.865 -0.1639  0.1093 -0.7315
  212MPD1    C1 3219   4.251   1.565  16.862 -0.2612 -0.6012  0.3263
  212MPD1    C2 3220   4.193   1.442  16.905 -0.0200  0.4983  0.2815
  212MPD1    C3 3221   4.067   1.437  16.949  0.3979  0.3652 -0.1289
  212MPD1    C4 3222   3.992   1.552  16.953 -0.4248 -0.2749 -0.4205
  212MPD1    C5 3223   4.046   1.668  16.907  0.0670 -1.0455 -0.3304
  212MPD1     H 3224   4.259   1.356  16.914  1.4890  1.5116 -1.0602
  212MPD1    H1 3225   3.888   1.547  16.982 -0.1565 -0.8344  0.4475
  212MPD1    H2 3226   4.208   1.777  16.826  0.5747  0.2349  0.2240
  212MPD1    H3 3227   3.981   1.755  16.905 -1.2039 -1.9864  0.1398
  212MPD1     N 3228   3.999   1.324  17.002  0.6557  0.0889  0.8511
  212MPD1    H5 3229   3.907   1.342  17.041  0.8436  1.0773  0.8213
  212MPD1    N1 3230   4.384   1.570  16.819 -0.4817  0.2697  0.1780
  212MPD1    H6 3231   4.431   1.484  16.793  0.7935  0.4805  1.7997
  212MPD1    H7 3232   4.381   1.640  16.745 -0.6731 -0.5207 -0.5436
  213MPD1     C 3233   2.324   1.541  15.586  0.3070 -0.6570 -0.6134
  213MPD1    C1 3234   2.230   1.470  15.515  0.0565  0.4773 -0.3219
  213MPD1    C2 3235   2.136   1.546  15.444  0.5051 -0.3415  0.2950
  213MPD1    C3 3236   2.146   1.679  15.415 -0.0262  0.1760  0.2525
  213MPD1    C4 3237   2.262   1.739  15.461 -0.4145 -0.3824  0.5559
  213MPD1    C5 3238   2.337   1.670  15.555  0.2758 -0.3178 -0.1969
  213MPD1     H 3239   2.049   1.503  15.396 -0.4579  0.8630  0.9719
  213MPD1    H1 3240   2.289   1.842  15.442 -3.5579  0.4391  0.4935
  213MPD1    H2 3241   2.394   1.497  15.655  1.9961  0.4113 -1.6583
  213MPD1    H3 3242   2.412   1.732  15.603  0.5922 -0.2687 -0.7475
  213MPD1     N 3243   2.067   1.734  15.318  1.0871  0.2256  0.0471
  213MPD1    H5 3244   1.983   1.683  15.294  2.4648 -2.1186  0.1929
  213MPD1    N1 3245   2.185   1.351  15.575 -0.4503 -0.7734  0.0251
  213MPD1    H6 3246   2.250   1.296  15.631 -0.2830  0.9277  1.4878
  213MPD1    H7 3247   2.129   1.295  15.511 -1.7368 -0.4283  0.8405
  214MPD1     C 3248   1.710   1.186  14.940  0.3136 -0.1803  0.4227
  214MPD1    C1 3249   1.780   1.254  14.837 -0.0173 -0.7160  0.2391
  214MPD1    C2 3250   1.794   1.386  14.844 -0.6674  0.7542 -0.1397
  214MPD1    C3 3251   1.735   1.460  14.952 -0.1082 -0.1004 -0.7713
  214MPD1    C4 3252   1.668   1.383  15.049  0.1894  0.1886  0.3547
  214MPD1    C5 3253   1.646   1.255  15.039  0.6369 -0.2975 -0.1200
  214MPD1     H 3254   1.863   1.435  14.776 -0.4149 -0.2558 -0.6069
  214MPD1    H1 3255   1.629   1.440  15.133  0.0984  1.8560 -0.8359
  214MPD1    H2 3256   1.698   1.078  14.938 -0.5868 -0.0552 -1.5851
  214MPD1    H3 3257   1.591   1.199  15.113 -1.3740  0.3078 -1.1669
  214MPD1     N 3258   1.751   1.596  14.973 -0.0727  0.0219 -0.1097
  214MPD1    H5 3259   1.716   1.637  15.058 -0.7014 -1.0291  0.1387
  214MPD1    N1 3260   1.860   1.176  14.762 -0.2630 -0.4282  0.6162
  214MPD1    H6 3261   1.810   1.091  14.737 -2.8708  0.5474  2.4689
  214MPD1    H7 3262   1.863   1.221  14.671  1.8536 -1.3574  0.2321
  215MPD1     C 3263   2.553   2.214  10.623  0.3972 -0.1081  0.0295
  215MPD1    C1 3264   2.550   2.231  10.758  0.1556 -0.1901 -0.3119
  215MPD1    C2 3265   2.547   2.358  10.806  0.1174 -0.6896 -0.0394
  215MPD1    C3 3266   2.561   2.463  10.719 -0.4717  0.0348 -0.2252
  215MPD1    C4 3267   2.575   2.441  10.579  0.1755 -0.7777 -0.0228
  215MPD1    C5 3268   2.557   2.316  10.532  0.3902  0.3600  0.2887
  215MPD1     H 3269   2.527   2.389  10.908  1.9144 -1.7865  0.6377
  215MPD1    H1 3270   2.577   2.518  10.502 -2.3394 -0.5814  0.0921
  215MPD1    H2 3271   2.539   2.114  10.584  0.6176 -0.0393 -0.2264
  215MPD1    H3 3272   2.577   2.299  10.427  0.8224  0.0877  0.4169
  215MPD1     N 3273   2.554   2.593  10.771  0.2194 -0.4798 -0.9518
  215MPD1    H5 3274   2.528   2.603  10.869  0.7979 -1.6024 -0.6929
  215MPD1    N1 3275   2.566   2.114  10.838 -0.3954 -0.8094  0.1018
  215MPD1    H6 3276   2.515   2.110  10.927 -0.1357  2.9852  0.4478
  215MPD1    H7 3277   2.527   2.034  10.789 -2.1512 -1.5599  2.7198
  216MPD1     C 3278   3.566   1.399   0.458  0.0202  0.0732  0.0154
  216MPD1    C1 3279   3.580   1.301   0.551  0.4722  0.9931 -0.5052
  216MPD1    C2 3280   3.623   1.179   0.501 -0.0549  0.1374  0.1967
  216MPD1    C3 3281   3.627   1.153   0.363 -0.0113  0.2101  0.0298
  216MPD1    C4 3282   3.601   1.255   0.273  0.1354 -0.5537 -0.1865
  216MPD1    C5 3283   3.578   1.378   0.326 -0.0624  0.0859 -0.8460
  216MPD1     H 3284   3.640   1.099   0.572 -2.2620 -0.3220  0.2089
  216MPD1    H1 3285   3.615   1.243   0.166  0.6623  2.3213 -0.4625
  216MPD1    H2 3286   3.542   1.500   0.490 -0.1461  0.6572 -1.9741
  216MPD1    H3 3287   3.554   1.459   0.258 -0.4411  0.4990 -0.2223
  216MPD1     N 3288   3.668   1.021   0.319  0.0313  0.1590  0.2106
  216MPD1    H5 3289   3.674   0.949   0.390 -1.3449  0.0038  0.1702
  216MPD1    N1 3290   3.597   1.334   0.686 -0.0261 -0.1744 -0.1811
  216MPD1    H6 3291   3.567   1.258   0.746 -1.3113 -0.1849 -0.8457
  216MPD1    H7 3292   3.545   1.417   0.712  2.6328  1.9737 -1.7330
  217MPD1     C 3293   4.362   1.284   9.195 -0.0291  0.0322  0.2700
  217MPD1    C1 3294   4.330   1.357   9.303 -0.4185 -0.7775  0.3958
  217MPD1    C2 3295   4.433   1.412   9.380  0.0118  1.0503 -0.0097
  217MPD1    C3 3296   4.567   1.404   9.340  0.4314  0.2295 -0.0882
  217MPD1    C4 3297   4.594   1.331   9.229 -0.0419  0.0974  0.9776
  217MPD1    C5 3298   4.494   1.272   9.162 -0.1515 -0.5024  0.1582
  217MPD1     H 3299   4.408   1.454   9.476 -0.1520 -0.4826  0.6150
  217MPD1    H1 3300   4.692   1.307   9.190 -0.3439  1.3784 -0.5685
  217MPD1    H2 3301   4.288   1.217   9.151 -0.7399 -0.3661  2.0394
  217MPD1    H3 3302   4.522   1.208   9.079  0.9642  0.1198  0.0470
  217MPD1     N 3303   4.670   1.466   9.407  0.0108 -0.4433 -0.3091
  217MPD1    H5 3304   0.040   1.452   9.374 -0.7163 -3.3388 -1.2066
  217MPD1    N1 3305   4.197   1.343   9.359 -0.6050  0.4094  0.2544
  217MPD1    H6 3306   4.179   1.426   9.415  0.7917  0.7081  0.2783
  217MPD1    H7 3307   4.129   1.333   9.284 -1.6413  3.6994  0.7748
  218MPD1     C 3308   1.669   2.652  12.747 -0.4059  0.5709 -0.0189
  218MPD1    C1 3309   1.777   2.578  12.770 -0.5810 -0.1786 -0.4251
  218MPD1    C2 3310   1.893   2.638  12.812 -0.5423 -0.0556  0.2105
  218MPD1    C3 3311   1.898   2.776  12.829 -0.2910 -0.3851  0.6416
  218MPD1    C4 3312   1.782   2.848  12.806 -0.6452 -0.2200 -0.0367
  218MPD1    C5 3313   1.663   2.785  12.774 -0.5153 -0.2816  0.1985
  218MPD1     H 3314   1.985   2.583  12.821 -0.4844  0.0109  0.0421
  218MPD1    H1 3315   1.771   2.955  12.824 -0.6408  0.1406 -2.1675
  218MPD1    H2 3316   1.577   2.607  12.712 -0.1931 -1.5056  2.0926
  218MPD1    H3 3317   1.567   2.829  12.752 -0.7503 -0.9281 -0.0506
  218MPD1     N 3318   2.019   2.841  12.860  0.1516  0.3508 -0.3213
  218MPD1    H5 3319   2.102   2.784  12.871 -0.6352 -0.8032 -0.3962
  218MPD1    N1 3320   1.776   2.444  12.723 -0.3629  0.2251 -0.9046
  218MPD1    H6 3321   1.845   2.384  12.767  0.0852  1.3921 -0.0366
  218MPD1    H7 3322   1.689   2.400  12.692  0.2699 -0.7705 -1.3046
  219MPD1     C 3323   2.487   3.169  12.126  0.0131  0.4940  0.8394
  219MPD1    C1 3324   2.522   3.271  12.216 -0.2320 -0.2447  0.6142
  219MPD1    C2 3325   2.495   3.246  12.353  0.9066  0.7217 -0.8127
  219MPD1    C3 3326   2.414   3.144  12.390  0.0170 -0.1707  0.6098
  219MPD1    C4 3327   2.357   3.062  12.299  0.1221  0.6022  0.1486
  219MPD1    C5 3328   2.395   3.078  12.171 -0.3957 -1.0944  0.6903
  219MPD1     H 3329   2.529   3.320  12.425  0.1654  1.0179 -0.7705
  219MPD1    H1 3330   2.281   2.987  12.313 -0.0023  0.3404 -2.0208
  219MPD1    H2 3331   2.507   3.174  12.020 -2.9768  2.9504  0.4122
  219MPD1    H3 3332   2.356   3.006  12.100 -1.1462  0.4531 -0.4607
  219MPD1     N 3333   2.368   3.123  12.520  0.0878 -0.1312  0.1008
  219MPD1    H5 3334   2.298   3.051  12.535 -0.6448  0.7410  0.8735
  219MPD1    N1 3335   2.600   3.378  12.172  0.4209 -0.2600 -0.1103
  219MPD1    H6 3336   2.568   3.427  12.088  0.7147  1.9752  1.0960
  219MPD1    H7 3337   2.616   3.452  12.240  1.0299 -0.1052 -0.4263
  220MPD1     C 3338   1.353   3.885   9.948 -0.1121 -0.5549  0.6455
  220MPD1    C1 3339   1.441   3.916  10.047  0.5149 -0.2270 -0.7120
  220MPD1    C2 3340   1.491   3.818  10.127 -0.3131 -0.8931 -0.4503
  220MPD1    C3 3341   1.462   3.681  10.105  0.1533  0.4527  0.8993
  220MPD1    C4 3342   1.372   3.651  10.006  0.2696 -0.4880 -0.2527
  220MPD1    C5 3343   1.321   3.756   9.930 -0.5383  0.1545  0.0259
  220MPD1     H 3344   1.552   3.842  10.214  0.7822 -0.8000 -1.2443
  220MPD1    H1 3345   1.338   3.551   9.980 -1.5412 -0.0144  0.3337
  220MPD1    H2 3346   1.301   3.959   9.889 -0.4037 -0.7637  0.6417
  220MPD1    H3 3347   1.241   3.737   9.861 -0.1465 -0.2891 -0.3008
  220MPD1     N 3348   1.521   3.589  10.195 -0.1225 -0.5063 -0.7894
  220MPD1    H5 3349   1.588   3.623  10.264  0.1375  0.6094 -1.5923
  220MPD1    N1 3350   1.490   4.046  10.067  0.5472  0.1653  0.2880
  220MPD1    H6 3351   1.587   4.034  10.093  0.8649 -0.3193 -1.1138
  220MPD1    H7 3352   1.479   4.090   9.975  0.3741  0.8029  0.6131
  221MPD1     C 3353   4.644   2.370  17.143 -0.4953  0.0897 -0.6598
  221MPD1    C1 3354   0.049   2.340  17.183 -0.5355  0.2057 -0.0837
  221MPD1    C2 3355   0.143   2.290  17.093 -0.8686 -0.8225  0.1069
  221MPD1    C3 3356   0.099   2.245  16.963  0.1245  1.4763 -0.4067
  221MPD1    C4 3357   4.691   2.270  16.924 -0.1848  0.3242 -0.4444
  221MPD1    C5 3358   4.607   2.333  17.011 -0.5635  0.6324  1.1552
  221MPD1     H 3359   0.246   2.268  17.117 -0.7679 -0.1548  0.2735
  221MPD1    H1 3360   4.659   2.243  16.824 -0.8838  0.6214 -0.3029
  221MPD1    H2 3361   4.570   2.419  17.205 -0.2033 -0.0637 -0.1965
  221MPD1    H3 3362   4.503   2.341  16.983 -0.4577  0.2498  0.6539
  221MPD1     N 3363   0.179   2.172  16.874 -0.6098  0.4720  0.1765
  221MPD1    H5 3364   0.142   2.145  16.784 -0.9479  0.2954  0.3694
  221MPD1    N1 3365   0.094   2.377  17.313  0.3776  0.2423  0.6400
  221MPD1    H6 3366   0.171   2.314  17.335  0.7100  0.8621  1.2459
  221MPD1    H7 3367   0.021   2.363  17.382 -0.1432  2.9549  0.6456
  222MPD1     C 3368   0.214   1.161  16.705 -0.0154 -0.1788 -0.1876
  222MPD1    C1 3369   0.242   1.099  16.823  0.2956  0.4547  0.0484
  222MPD1    C2 3370   0.228   1.184  16.937  0.1003  0.3778  0.1640
  222MPD1    C3 3371   0.175   1.311  16.928  0.0745 -0.1249 -0.5756
  222MPD1    C4 3372   0.141   1.358  16.808  0.2481 -0.7017  0.2004
  222MPD1    C5 3373   0.159   1.281  16.695  0.2504 -0.1599  0.4096
  222MPD1     H 3374   0.245   1.145  17.037 -0.6432 -3.6626 -1.2889
  222MPD1    H1 3375   0.099   1.456  16.788 -0.1314 -1.4648 -2.7011
  222MPD1    H2 3376   0.207   1.100  16.616  2.1373 -1.6878  0.6807
  222MPD1    H3 3377   0.147   1.326  16.597  0.8286  1.2839  1.0012
  222MPD1     N 3378   0.152   1.383  17.046  0.1827  0.4643 -0.3084
  222MPD1    H5 3379   0.155   1.325  17.129  2.8774 -1.0170 -1.4424
  222MPD1    N1 3380   0.309   0.975  16.827  0.5458  0.2411 -0.7432
  222MPD1    H6 3381   0.278   0.923  16.909 -1.4270  0.0532 -1.5962
  222MPD1    H7 3382   0.286   0.921  16.744 -1.2833  0.4672 -0.4021
  223MPD1     C 3383   0.606   1.506   0.216 -0.4746  0.6473 -0.6073
  223MPD1    C1 3384   0.483   1.552   0.259  0.6352  0.4979 -0.9488
  223MPD1    C2 3385   0.377   1.566   0.167  0.5364  0.0547  0.0835
  223MPD1    C3 3386   0.392   1.530   0.031 -0.2123 -0.0400 -0.4447
  223MPD1    C4 3387   0.524   1.490  17.690 -0.8149 -0.0682 -0.0046
  223MPD1    C5 3388   0.623   1.470   0.086  0.3594  0.0137 -0.2966
  223MPD1     H 3389   0.276   1.584   0.202  1.4547 -0.1972  2.8712
  223MPD1    H1 3390   0.546   1.463  17.587 -2.9164 -0.6383 -0.3038
  223MPD1    H2 3391   0.682   1.485   0.291 -2.1216 -0.4020  0.7590
  223MPD1    H3 3392   0.716   1.422   0.058  1.1201 -0.2344  2.7266
  223MPD1     N 3393   0.276   1.539  17.648 -0.0976  0.1581 -0.3222
  223MPD1    H5 3394   0.196   1.587  17.685  1.4021  0.6847  2.2441
  223MPD1    N1 3395   0.454   1.571   0.393  0.2439  0.4863  0.4242
  223MPD1    H6 3396   0.385   1.644   0.415 -1.6023 -1.7451  2.0500
  223MPD1    H7 3397   0.540   1.591   0.444 -0.5618 -0.5148  2.1955
  224MPD1     C 3398   2.323   2.020   9.395  0.2202  0.0532  0.1030
  224MPD1    C1 3399   2.278   2.132   9.462 -0.7577  0.6878  0.3156
  224MPD1    C2 3400   2.144   2.133   9.505  0.0190 -0.1863  0.4150
  224MPD1    C3 3401   2.058   2.022   9.491 -0.4414 -0.2174 -1.3573
  224MPD1    C4 3402   2.114   1.905   9.450  0.1630  1.1408  0.5563
  224MPD1    C5 3403   2.241   1.910   9.394 -0.0956 -0.3222 -0.5142
  224MPD1     H 3404   2.097   2.226   9.535  0.0594 -0.6685  1.9499
  224MPD1    H1 3405   2.053   1.816   9.447 -0.2302  1.4707 -0.8683
  224MPD1    H2 3406   2.422   2.009   9.353 -0.1718 -1.2934 -0.4619
  224MPD1    H3 3407   2.270   1.819   9.344 -1.6905 -0.1069 -1.8376
  224MPD1     N 3408   1.923   2.027   9.528 -0.2760 -0.1131  0.3694
  224MPD1    H5 3409   1.869   1.942   9.528  1.5253 -1.2534 -2.4452
  224MPD1    N1 3410   2.348   2.254   9.450  0.6145  0.0203  0.4074
  224MPD1    H6 3411   2.447   2.234   9.465  0.4777 -0.2338  0.9751
  224MPD1    H7 3412   2.324   2.321   9.522  0.4496  0.9008 -0.4615
  225MPD1     C 3413   2.280   3.916  12.570 -0.4599 -0.5736  0.5250
  225MPD1    C1 3414   2.208   3.939  12.459  0.2182 -0.0240  0.1797
  225MPD1    C2 3415   2.074   3.903  12.462  0.0733 -0.2256 -0.0918
  225MPD1    C3 3416   2.023   3.860  12.587 -0.8743 -0.0189  0.2239
  225MPD1    C4 3417   2.091   3.872  12.702 -0.2939 -0.3126  0.0759
  225MPD1    C5 3418   2.226   3.899  12.694 -0.3124  0.0730  0.2153
  225MPD1     H 3419   2.009   3.908  12.375  0.2012 -1.4013 -0.2633
  225MPD1    H1 3420   2.044   3.849  12.797  1.1001  4.2945  1.8868
  225MPD1    H2 3421   2.386   3.936  12.580 -0.1014 -0.5985 -3.4728
  225MPD1    H3 3422   2.284   3.889  12.785 -0.9678 -0.9282  0.5161
  225MPD1     N 3423   1.883   3.841  12.610  0.8585  0.0709 -0.0227
  225MPD1    H5 3424   1.847   3.845  12.705 -1.0362 -2.2127 -0.6363
  225MPD1    N1 3425   2.279   3.959  12.336 -0.0229 -0.0919 -0.0550
  225MPD1    H6 3426   2.354   4.027  12.345  0.0963  0.0903 -2.3661
  225MPD1    H7 3427   2.213   3.985  12.262 -0.1427 -1.0086 -0.2668
  226MPD1     C 3428   0.619   3.276   8.901  0.4087 -0.5609  1.0156
  226MPD1    C1 3429   0.676   3.243   9.023  0.1332 -0.3506  0.8038
  226MPD1    C2 3430   0.752   3.345   9.080 -0.0409 -0.1410 -0.0003
  226MPD1    C3 3431   0.755   3.469   9.030 -0.4636  0.4836 -0.5414
  226MPD1    C4 3432   0.677   3.503   8.923  0.4064  0.4708  0.5017
  226MPD1    C5 3433   0.609   3.403   8.855  0.4842  0.2382  0.6435
  226MPD1     H 3434   0.825   3.313   9.154 -1.1803 -2.0074  0.3315
  226MPD1    H1 3435   0.663   3.604   8.886  0.4922 -0.1697 -1.2690
  226MPD1    H2 3436   0.575   3.204   8.832 -1.3306  1.9069 -0.4544
  226MPD1    H3 3437   0.546   3.427   8.771  0.0110 -1.3350  0.5492
  226MPD1     N 3438   0.853   3.561   9.087 -0.0967  0.0328  0.5822
  226MPD1    H5 3439   0.922   3.525   9.153  2.3036  0.5265 -1.6778
  226MPD1    N1 3440   0.699   3.106   9.057 -0.1980  0.5201 -0.1116
  226MPD1    H6 3441   0.719   3.094   9.156 -1.1364 -0.7856 -0.0802
  226MPD1    H7 3442   0.616   3.054   9.028  1.5263 -1.7746 -0.8975
  227MPD1     C 3443   1.389   4.500   9.166  0.0795 -0.5219  0.2647
  227MPD1    C1 3444   1.451   4.399   9.244 -0.4691  0.7362 -0.1802
  227MPD1    C2 3445   1.386   4.276   9.253 -0.3238 -0.3167 -0.0902
  227MPD1    C3 3446   1.257   4.265   9.200  0.4805  0.3458  0.2241
  227MPD1    C4 3447   1.197   4.367   9.126  0.5234  0.0748  0.0763
  227MPD1    C5 3448   1.259   4.483   9.108 -0.0679 -0.6853 -0.7734
  227MPD1     H 3449   1.437   4.194   9.302 -0.5660 -0.7196 -0.5120
  227MPD1    H1 3450   1.098   4.345   9.087  0.0089  2.2553  0.1819
  227MPD1    H2 3451   1.446   4.586   9.135 -0.2379  0.2367  1.7830
  227MPD1    H3 3452   1.221   4.546   9.029 -3.0342 -1.0622  0.3379
  227MPD1     N 3453   1.184   4.141   9.224  0.0124 -0.1333 -0.1490
  227MPD1    H5 3454   1.235   4.066   9.271 -0.5905 -1.5950 -1.8332
  227MPD1    N1 3455   1.586   4.412   9.273 -0.4995 -0.2836  0.1999
  227MPD1    H6 3456   1.623   4.353   9.347 -0.3716 -0.4411  0.0097
  227MPD1    H7 3457   1.610   4.508   9.299 -0.0039 -0.6270  1.0001
  228MPD1     C 3458   3.497   1.203  13.584 -0.4157  0.5994  0.6695
  228MPD1    C1 3459   3.439   1.089  13.631  0.1288  0.0737 -0.7596
  228MPD1    C2 3460   3.305   1.066  13.600  0.8907  1.1966  0.0215
  228MPD1    C3 3461   3.243   1.132  13.501  0.2018  0.5644  0.4017
  228MPD1    C4 3462   3.308   1.241  13.444 -0.0576  0.9473  0.6309
  228MPD1    C5 3463   3.437   1.265  13.479  0.0725 -0.1515  0.0016
  228MPD1     H 3464   3.243   0.992  13.649  2.0664 -0.1373 -0.4722
  228MPD1    H1 3465   3.270   1.311  13.370  0.0377  1.1660  0.7908
  228MPD1    H2 3466   3.594   1.237  13.619 -1.5596  2.7510  1.7086
  228MPD1    H3 3467   3.491   1.346  13.431 -0.6536 -0.0340 -0.6227
  228MPD1     N 3468   3.115   1.082  13.448  0.3521 -0.0718  0.1991
  228MPD1    H5 3469   3.069   1.004  13.494 -0.7710  1.2486  1.3285
  228MPD1    N1 3470   3.497   1.014  13.734  0.2397 -0.5454  0.3317
  228MPD1    H6 3471   3.596   0.999  13.717  0.1319 -1.9488  0.8819
  228MPD1    H7 3472   3.450   0.924  13.745 -0.7643  0.3346  3.2496
  229MPD1     C 3473   2.784   0.298  14.437  0.7561 -0.4053  0.3110
  229MPD1    C1 3474   2.896   0.229  14.398 -0.2839 -0.7140  0.4214
  229MPD1    C2 3475   2.964   0.153  14.490  0.4074 -0.1763  1.1707
  229MPD1    C3 3476   2.926   0.153  14.623 -0.3129 -0.2955 -0.3019
  229MPD1    C4 3477   2.823   0.230  14.661 -0.6766 -0.0354 -0.2046
  229MPD1    C5 3478   2.756   0.309  14.569 -0.5275 -0.1437 -0.5701
  229MPD1     H 3479   3.045   0.091  14.454 -0.8570 -1.1458 -0.0315
  229MPD1    H1 3480   2.787   0.223  14.763  0.8371  0.7912  0.3927
  229MPD1    H2 3481   2.722   0.350  14.365  0.9990 -1.1644 -0.4551
  229MPD1    H3 3482   2.677   0.376  14.601  0.8966  0.8357  0.8463
  229MPD1     N 3483   3.000   0.087  14.725 -0.3607  0.2142  0.7487
  229MPD1    H5 3484   2.982   0.115  14.820 -3.1493 -0.8762  0.5380
  229MPD1    N1 3485   2.934   0.217  14.265 -0.2241  0.3273  0.3153
  229MPD1    H6 3486   2.932   0.303  14.210 -2.0977 -0.4052 -0.7698
  229MPD1    H7 3487   3.027   0.177  14.255 -0.6644 -1.8995  5.0807
  230MPD1     C 3488   3.420   0.368  15.504 -0.2704 -0.0486  0.0286
  230MPD1    C1 3489   3.509   0.262  15.489  0.4147  0.0998  1.3735
  230MPD1    C2 3490   3.486   0.176  15.387  0.5039 -0.3447 -0.0172
  230MPD1    C3 3491   3.375   0.195  15.304 -0.7349 -0.2902  0.0861
  230MPD1    C4 3492   3.283   0.291  15.338 -0.2416  0.9594 -0.3171
  230MPD1    C5 3493   3.307   0.389  15.432 -0.2453  0.7342 -0.4706
  230MPD1     H 3494   3.544   0.085  15.377 -0.2128 -0.5857 -1.9679
  230MPD1    H1 3495   3.198   0.303  15.271 -2.2791 -1.0345  1.9126
  230MPD1    H2 3496   3.437   0.442  15.582  0.5283  0.7377 -0.8894
  230MPD1    H3 3497   3.238   0.472  15.438 -1.4898 -0.4828  2.0527
  230MPD1     N 3498   3.345   0.102  15.198  0.7091 -0.1608  0.2369
  230MPD1    H5 3499   3.422   0.039  15.178 -0.4107 -1.7932  1.0613
  230MPD1    N1 3500   3.608   0.238  15.580 -0.2184 -0.1729 -0.1102
  230MPD1    H6 3501   3.672   0.171  15.538  0.4626  0.6926 -0.4268
  230MPD1    H7 3502   3.650   0.324  15.613 -0.3401 -0.5789  1.1279
  231MPD1     C 3503   1.067   1.817  15.976  0.1572 -1.2629  0.4241
  231MPD1    C1 3504   1.112   1.712  15.893  0.1155  0.4332 -0.1418
  231MPD1    C2 3505   1.164   1.745  15.770  0.4578  0.2999  0.7957
  231MPD1    C3 3506   1.198   1.876  15.740  0.0269  0.6902  0.1894
  231MPD1    C4 3507   1.156   1.975  15.823 -0.3749 -0.4933 -0.1271
  231MPD1    C5 3508   1.088   1.944  15.937  0.2529 -0.0958 -0.1997
  231MPD1     H 3509   1.186   1.671  15.693  1.6350  0.7223  0.7281
  231MPD1    H1 3510   1.160   2.082  15.808  1.4575 -0.3166  1.5217
  231MPD1    H2 3511   1.025   1.808  16.076  0.8085 -0.2413  0.7892
  231MPD1    H3 3512   1.069   2.030  15.999  0.4260 -1.1918  1.3560
  231MPD1     N 3513   1.262   1.912  15.620 -0.0029 -0.0837 -0.5568
  231MPD1    H5 3514   1.274   1.841  15.549 -0.4017 -0.4630 -0.2458
  231MPD1    N1 3515   1.068   1.582  15.919  0.5534 -0.0333  0.3850
  231MPD1    H6 3516   1.139   1.521  15.879  1.9537  3.3879 -2.3143
  231MPD1    H7 3517   1.057   1.555  16.017  1.0128  0.7236  0.6412
  232MPD1     C 3518   3.908   0.187   0.420 -0.6836 -0.0795  0.4508
  232MPD1    C1 3519   3.961   0.063   0.447  0.1175  0.4511  0.5173
  232MPD1    C2 3520   3.878   4.680   0.450  0.3993 -0.1834  0.0797
  232MPD1    C3 3521   3.742   4.693   0.434 -0.5765 -0.2193  0.0591
  232MPD1    C4 3522   3.683   0.086   0.418 -0.5906  0.2877  0.0656
  232MPD1    C5 3523   3.771   0.190   0.413 -0.7186  0.0163  0.3633
  232MPD1     H 3524   3.924   4.585   0.475  0.3157 -0.5025 -0.9578
  232MPD1    H1 3525   3.576   0.098   0.405 -0.5065  1.8806  0.7947
  232MPD1    H2 3526   3.970   0.275   0.411  1.3754 -1.2476  3.0600
  232MPD1    H3 3527   3.725   0.283   0.381 -1.3847 -0.3950  0.1354
  232MPD1     N 3528   3.666   4.577   0.456  0.3040  0.4465 -0.7530
  232MPD1    H5 3529   3.712   4.489   0.478 -1.8211 -0.5040 -0.1176
  232MPD1    N1 3530   4.099   0.054   0.457  0.7651 -0.2752  0.4346
  232MPD1    H6 3531   4.124   4.688   0.497 -1.8813 -1.0739  0.2575
  232MPD1    H7 3532   4.138   0.121   0.523 -1.8477  1.1706  0.4934
  233MPD1     C 3533   0.369   2.495   2.289  0.5687 -0.5239 -0.2118
  233MPD1    C1 3534   0.463   2.467   2.387  0.2066 -0.9108 -1.3241
  233MPD1    C2 3535   0.598   2.456   2.354 -0.1893  0.3559 -0.3568
  233MPD1    C3 3536   0.642   2.463   2.220 -0.0091  0.0837  0.4612
  233MPD1    C4 3537   0.552   2.478   2.120  1.0297  0.6535  0.2665
  233MPD1    C5 3538   0.417   2.487   2.158 -0.9587 -0.8165  0.3021
  233MPD1     H 3539   0.663   2.447   2.440 -0.9893  0.2600  0.2426
  233MPD1    H1 3540   0.568   2.493   2.014 -0.0936  0.4077  0.0597
  233MPD1    H2 3541   0.263   2.517   2.297  1.0027  1.2206  0.7694
  233MPD1    H3 3542   0.346   2.495   2.077  1.3685 -0.6271 -1.7334
  233MPD1     N 3543   0.781   2.468   2.187  0.0679 -0.3998 -0.1765
  233MPD1    H5 3544   0.812   2.493   2.094  0.2081  1.3918  0.3670
  233MPD1    N1 3545   0.414   2.447   2.522  0.3786 -0.0175 -0.1372
  233MPD1    H6 3546   0.313   2.443   2.534  0.2298  0.9859 -1.0159
  233MPD1    H7 3547   0.451   2.361   2.563 -1.0735 -0.7752 -0.4178
  234MPD1     C 3548   1.311   0.473  10.116 -0.3500 -0.0314  0.1522
  234MPD1    C1 3549   1.302   0.573  10.215 -0.4034  0.4966  0.0967
  234MPD1    C2 3550   1.265   0.698  10.165 -1.2516  0.3756 -0.9355
  234MPD1    C3 3551   1.235   0.721  10.033 -0.0964  0.3918 -0.5323
  234MPD1    C4 3552   1.233   0.617   9.942  0.8845 -0.3110 -0.4303
  234MPD1    C5 3553   1.269   0.495   9.985  0.3266  0.4504  0.2629
  234MPD1     H 3554   1.279   0.784  10.230 -0.2815 -1.0763  0.7595
  234MPD1    H1 3555   1.211   0.626   9.836 -0.5245 -2.7227 -0.3419
  234MPD1    H2 3556   1.361   0.381  10.146 -0.5410 -0.4400 -0.8147
  234MPD1    H3 3557   1.276   0.409   9.918 -0.6103  1.3479 -0.9828
  234MPD1     N 3558   1.203   0.855  10.004 -0.4797  0.0351  0.0470
  234MPD1    H5 3559   1.192   0.914  10.085 -1.9559 -1.2709  0.8078
  234MPD1    N1 3560   1.347   0.565  10.348 -0.0684 -0.1659 -0.3622
  234MPD1    H6 3561   1.319   0.634  10.417 -1.0045 -1.6000  0.6893
  234MPD1    H7 3562   1.332   0.475  10.394  0.4116 -0.4087 -0.6822
  235MPD1     C 3563   1.958   3.714  10.187 -0.1220  0.3679 -0.5742
  235MPD1    C1 3564   1.926   3.844  10.164 -1.0087  0.7464  0.0002
  235MPD1    C2 3565   2.024   3.930  10.114  0.2981  0.3180 -0.3505
  235MPD1    C3 3566   2.157   3.886  10.101 -0.3280  0.4938  0.1917
  235MPD1    C4 3567   2.188   3.758  10.148 -0.3947 -0.0444  1.2355
  235MPD1    C5 3568   2.091   3.673  10.200  0.6219 -0.2013  0.3427
  235MPD1     H 3569   1.992   4.030  10.087  0.4605  0.4336 -0.1190
  235MPD1    H1 3570   2.284   3.707  10.151 -0.6528 -0.5102  1.6087
  235MPD1    H2 3571   1.886   3.653  10.240 -0.5239  0.0829 -1.4484
  235MPD1    H3 3572   2.120   3.574  10.234  0.7636 -0.2784  0.0033
  235MPD1     N 3573   2.256   3.979  10.059  0.1868  0.1296  0.3281
  235MPD1    H5 3574   2.230   4.076  10.050  0.5682  0.3175  1.1787
  235MPD1    N1 3575   1.795   3.893  10.163 -0.2469 -0.5026  0.0987
  235MPD1    H6 3576   1.794   3.994  10.171 -2.7208 -0.6991  2.3294
  235MPD1    H7 3577   1.734   3.869  10.241 -0.6245  1.7186  0.4723
  236MPD1     C 3578   2.285   0.215  10.426 -0.0738 -0.1325  0.0746
  236MPD1    C1 3579   2.209   0.106  10.391  0.7443  0.4613 -0.4192
  236MPD1    C2 3580   2.242   4.709  10.450 -0.5609 -0.4490  0.2731
  236MPD1    C3 3581   2.362   4.701  10.515  0.1024  0.2157  0.2795
  236MPD1    C4 3582   2.435   0.085  10.547  0.7504 -0.7877  0.6350
  236MPD1    C5 3583   2.396   0.200  10.495  0.4954  0.2422  0.2960
  236MPD1     H 3584   2.179   4.625  10.424  1.6599 -2.9688  2.9970
  236MPD1    H1 3585   2.530   0.079  10.599  0.0540 -2.2689  1.7231
  236MPD1    H2 3586   2.252   0.314  10.394 -0.6675 -0.5866 -0.7280
  236MPD1    H3 3587   2.462   0.284  10.513 -0.1893  0.5688  1.2870
  236MPD1     N 3588   2.411   4.578  10.554 -0.1467  0.4977 -0.2872
  236MPD1    H5 3589   2.506   4.578  10.591  0.3856 -2.1686 -1.6847
  236MPD1    N1 3590   2.081   0.126  10.334 -0.0683  0.0045  0.3208
  236MPD1    H6 3591   2.089   0.197  10.262  1.7808 -0.3513  0.1583
  236MPD1    H7 3592   2.054   0.035  10.297 -0.5862  0.7228 -1.0391
  237MPD1     C 3593   2.015   3.595  14.769  0.4067 -0.0698 -0.1400
  237MPD1    C1 3594   1.907   3.597  14.691  0.4257 -0.1024 -0.0016
  237MPD1    C2 3595   1.807   3.507  14.697 -0.2700  0.5811  0.3718
  237MPD1    C3 3596   1.829   3.395  14.776 -0.2104 -0.0960 -0.3679
  237MPD1    C4 3597   1.951   3.387  14.848 -0.0318 -0.3421  0.2653
  237MPD1    C5 3598   2.052   3.484  14.840 -0.1975  0.0448  0.7611
  237MPD1     H 3599   1.718   3.518  14.637 -0.6965  0.4095  0.9643
  237MPD1    H1 3600   1.985   3.297  14.897 -2.7827 -1.9833 -0.8876
  237MPD1    H2 3601   2.090   3.674  14.765  1.0621 -0.6245  1.0941
  237MPD1    H3 3602   2.146   3.481  14.893  0.4259  0.9296 -0.2873
  237MPD1     N 3603   1.738   3.291  14.794  0.7963 -0.3215  0.4371
  237MPD1    H5 3604   1.769   3.219  14.859  0.2822  0.9897  2.1536
  237MPD1    N1 3605   1.890   3.714  14.615 -0.0300  0.1880  0.4044
  237MPD1    H6 3606   1.975   3.754  14.577 -0.2058  0.4858  0.3264
  237MPD1    H7 3607   1.839   3.694  14.529 -0.8046 -1.7895  1.3256
  238MPD1     C 3608   3.067   2.406  14.490 -0.3480  0.7708  0.6256
  238MPD1    C1 3609   2.985   2.379  14.376  0.3394 -0.4712 -0.1577
  238MPD1    C2 3610   2.915   2.262  14.373  0.6043 -0.1737  0.5701
  238MPD1    C3 3611   2.945   2.158  14.455 -0.7990 -0.5412 -0.3679
  238MPD1    C4 3612   3.029   2.182  14.557  0.1103  0.4589 -0.3133
  238MPD1    C5 3613   3.086   2.304  14.580  0.2639  0.2259 -0.1250
  238MPD1     H 3614   2.848   2.247  14.289 -1.3590 -0.3792  2.1890
  238MPD1    H1 3615   3.050   2.113  14.638 -1.5465  0.3389  0.0141
  238MPD1    H2 3616   3.092   2.509  14.511 -1.0133  1.1668 -0.4754
  238MPD1    H3 3617   3.146   2.317  14.670  0.3171  1.4224 -0.3340
  238MPD1     N 3618   2.892   2.028  14.440  0.4202 -0.7054 -0.0237
  238MPD1    H5 3619   2.886   1.965  14.519  0.6920 -3.3264 -2.1063
  238MPD1    N1 3620   2.960   2.482  14.280 -0.6173 -0.1227  0.7568
  238MPD1    H6 3621   3.044   2.536  14.258 -1.1709 -0.2232 -1.6129
  238MPD1    H7 3622   2.912   2.440  14.200 -0.4400  0.9960  0.0580
  239MPD1     C 3623   3.432   2.700  14.914 -0.1071 -0.3795  0.7808
  239MPD1    C1 3624   3.531   2.780  14.858 -0.6793  0.6319 -0.1272
  239MPD1    C2 3625   3.497   2.839  14.742  0.8961  0.1182  0.2628
  239MPD1    C3 3626   3.381   2.807  14.672 -0.5730 -0.9018  0.2753
  239MPD1    C4 3627   3.286   2.717  14.727  0.4262 -0.1569  0.1981
  239MPD1    C5 3628   3.317   2.665  14.852  0.3280 -0.2292 -0.9484
  239MPD1     H 3629   3.562   2.919  14.708  0.1928  0.2906 -0.6674
  239MPD1    H1 3630   3.192   2.700  14.676  0.7965 -1.8389  0.0826
  239MPD1    H2 3631   3.444   2.675  15.019  2.7395  3.8972  1.4680
  239MPD1    H3 3632   3.247   2.599  14.902  0.1676 -0.0643 -0.9536
  239MPD1     N 3633   3.336   2.879  14.561 -0.3886 -0.0769 -0.2972
  239MPD1    H5 3634   3.239   2.874  14.531  0.0449 -2.3127 -1.3685
  239MPD1    N1 3635   3.629   2.834  14.942  0.0284 -0.0089 -0.1671
  239MPD1    H6 3636   3.708   2.854  14.880 -2.5662  0.9605 -3.2003
  239MPD1    H7 3637   3.655   2.773  15.019 -0.8559  1.0641  0.9743
  240MPD1     C 3638   2.658   2.359  13.879 -0.2749 -0.7468  0.0494
  240MPD1    C1 3639   2.609   2.243  13.936 -0.8583 -0.0234 -0.1091
  240MPD1    C2 3640   2.589   2.242  14.072 -0.4250  0.6783 -0.0508
  240MPD1    C3 3641   2.608   2.359  14.144 -0.4544  0.0515 -0.4180
  240MPD1    C4 3642   2.647   2.479  14.084 -0.6532 -0.0635 -0.5072
  240MPD1    C5 3643   2.664   2.473  13.949 -0.1180  0.1881  0.6774
  240MPD1     H 3644   2.578   2.147  14.123 -1.3434  1.1262  0.5855
  240MPD1    H1 3645   2.667   2.571  14.137 -0.3020 -0.4911  0.1064
  240MPD1    H2 3646   2.686   2.370  13.775 -1.5228 -1.3077 -0.3521
  240MPD1    H3 3647   2.713   2.554  13.897  0.9412  0.8159  2.6834
  240MPD1     N 3648   2.597   2.342  14.283  0.0248 -0.1066  0.0054
  240MPD1    H5 3649   2.579   2.247  14.315 -1.6399 -0.4143 -1.8632
  240MPD1    N1 3650   2.598   2.124  13.864 -0.4108 -0.0009 -0.2742
  240MPD1    H6 3651   2.528   2.072  13.916  0.1959 -1.0362 -0.4825
  240MPD1    H7 3652   2.568   2.143  13.769  1.7102 -0.1685 -0.9808
  241MPD1     C 3653   3.067   2.903  14.953 -0.2850 -0.0707  0.1846
  241MPD1    C1 3654   3.051   2.782  15.021 -0.0113 -0.0085 -0.8285
  241MPD1    C2 3655   2.984   2.676  14.955 -0.8668  0.1488 -0.1896
  241MPD1    C3 3656   2.932   2.685  14.826  0.2918  0.5454  0.1140
  241MPD1    C4 3657   2.950   2.804  14.763 -0.5241 -0.0143 -0.1797
  241MPD1    C5 3658   3.019   2.912  14.823  0.4694 -0.1539  0.3141
  241MPD1     H 3659   2.975   2.586  15.013 -2.7300  0.1570 -0.4830
  241MPD1    H1 3660   2.930   2.817  14.657 -0.4297  0.0419 -0.1909
  241MPD1    H2 3661   3.129   2.978  15.001 -1.4397 -0.4842  2.3338
  241MPD1    H3 3662   3.047   2.991  14.753 -0.7811  2.2347  2.5181
  241MPD1     N 3663   2.859   2.587  14.760  0.1288 -1.0382  0.0950
  241MPD1    H5 3664   2.818   2.616  14.672 -0.0091  1.5129  1.0056
  241MPD1    N1 3665   3.099   2.779  15.151 -0.7758  0.4939 -0.4189
  241MPD1    H6 3666   3.188   2.828  15.153 -1.1555  1.1104  1.1880
  241MPD1    H7 3667   3.102   2.688  15.197  1.1022  0.7299 -0.0565
  242MPD1     C 3668   2.658   1.105  15.963 -0.1868  0.5860  0.1294
  242MPD1    C1 3669   2.588   0.988  15.938 -0.9739  0.3671 -0.0543
  242MPD1    C2 3670   2.583   0.939  15.809 -0.0873 -0.0978 -0.5594
  242MPD1    C3 3671   2.645   1.008  15.706 -0.2757  0.1822 -0.5705
  242MPD1    C4 3672   2.710   1.128  15.732  0.4784  0.1759 -0.3352
  242MPD1    C5 3673   2.719   1.177  15.857 -0.5713 -0.3444  0.4068
  242MPD1     H 3674   2.519   0.854  15.789  0.4413 -0.5567 -0.3192
  242MPD1    H1 3675   2.747   1.182  15.646  0.0527 -0.2059 -0.7556
  242MPD1    H2 3676   2.674   1.163  16.054  2.0169  1.7196 -0.9943
  242MPD1    H3 3677   2.772   1.268  15.883  1.4982 -1.0511 -1.3436
  242MPD1     N 3678   2.659   0.956  15.574 -0.0343  0.3082  0.4985
  242MPD1    H5 3679   2.708   1.019  15.511 -0.6675 -1.0077 -1.2883
  242MPD1    N1 3680   2.510   0.934  16.040 -0.2690 -0.0143  0.0789
  242MPD1    H6 3681   2.491   0.835  16.026 -0.5425  0.0991 -0.3476
  242MPD1    H7 3682   2.528   0.951  16.139  2.0472  0.4818 -0.4267
  243MPD1     C 3683   4.073   0.111  17.405 -0.0550  0.4910  0.0382
  243MPD1    C1 3684   4.079   0.087  17.273 -0.1338 -0.0473 -0.2188
  243MPD1    C2 3685   4.116   4.687  17.240 -0.5416  0.0752  0.9705
  243MPD1    C3 3686   4.142   4.582  17.331  0.2473 -0.6123  0.1188
  243MPD1    C4 3687   4.118   4.612  17.467  0.2174  0.0004  0.3303
  243MPD1    C5 3688   4.089   0.015  17.500 -0.0015  0.4972  0.7747
  243MPD1     H 3689   4.128   4.676  17.133 -1.8870 -1.8803  1.0218
  243MPD1    H1 3690   4.117   4.543  17.551  0.7169  0.3363  0.6068
  243MPD1    H2 3691   4.053   0.215  17.432 -2.0689 -0.1308  0.9450
  243MPD1    H3 3692   4.069   0.036  17.605 -2.8877  2.1066 -0.0914
  243MPD1     N 3693   4.176   4.459  17.273 -0.1073  0.7913 -0.0067
  243MPD1    H5 3694   4.217   4.459  17.181 -0.4705 -3.0976 -0.1722
  243MPD1    N1 3695   4.091   0.195  17.183  0.2823 -0.2827 -0.8859
  243MPD1    H6 3696   4.087   0.176  17.083 -1.0813 -0.3647 -0.8120
  243MPD1    H7 3697   4.036   0.273  17.219  0.8815 -0.7094  0.9525
  244MPD1     C 3698   4.442   3.559   0.011  0.1614 -1.0232 -0.0111
  244MPD1    C1 3699   4.440   3.684   0.063  0.0518 -0.4087 -0.3972
  244MPD1    C2 3700   4.410   3.792  17.677  0.6477 -0.1723  0.1359
  244MPD1    C3 3701   4.382   3.779  17.542  0.1349 -0.6388 -0.0391
  244MPD1    C4 3702   4.395   3.652  17.492 -0.8622  0.0149 -0.3022
  244MPD1    C5 3703   4.427   3.545  17.573 -0.3854 -0.8227 -0.0963
  244MPD1     H 3704   4.409   3.889   0.024 -1.4840 -0.4734  0.6964
  244MPD1    H1 3705   4.377   3.629  17.388  1.6694 -2.0048 -0.2981
  244MPD1    H2 3706   4.459   3.475   0.077  0.9149  0.4792  1.6979
  244MPD1    H3 3707   4.429   3.445  17.531 -0.1497  0.2568 -2.6933
  244MPD1     N 3708   4.352   3.888  17.461  0.3441  0.1094 -0.2688
  244MPD1    H5 3709   4.337   3.976  17.510  2.9787 -1.1841  2.8572
  244MPD1    N1 3710   4.457   3.700   0.200  0.0604  0.9809 -0.1543
  244MPD1    H6 3711   4.502   3.621   0.246 -0.3856 -0.6768 -2.5440
  244MPD1    H7 3712   4.520   3.777   0.220 -0.3491  1.8742 -2.2865
  245MPD1     C 3713   1.058   3.936  13.834  0.5890 -0.8489 -0.5865
  245MPD1    C1 3714   1.166   3.988  13.762  0.0479 -0.0419  0.1233
  245MPD1    C2 3715   1.162   4.122  13.745  0.1971 -0.3698 -0.4463
  245MPD1    C3 3716   1.077   4.214  13.805 -0.3165  0.2872 -0.2265
  245MPD1    C4 3717   0.977   4.167  13.882 -0.0487  0.6698  0.6407
  245MPD1    C5 3718   0.964   4.030  13.890  0.3582  0.0684  1.2706
  245MPD1     H 3719   1.245   4.163  13.689  1.3696  0.2691  1.7777
  245MPD1    H1 3720   0.899   4.228  13.926 -1.8718 -1.4817  0.3873
  245MPD1    H2 3721   1.028   3.832  13.841  0.2022 -0.4780  3.1874
  245MPD1    H3 3722   0.872   3.985  13.925  0.4358 -2.2075 -1.4264
  245MPD1     N 3723   1.101   4.349  13.788  0.7600 -0.3789  0.4453
  245MPD1    H5 3724   1.167   4.385  13.720  0.7179 -2.2496 -0.5883
  245MPD1    N1 3725   1.252   3.911  13.681 -0.0210  0.1885 -0.5311
  245MPD1    H6 3726   1.276   3.822  13.724 -0.6303  0.1350 -0.3100
  245MPD1    H7 3727   1.341   3.957  13.664 -0.8597  2.5508  1.4669
  246MPD1     C 3728   0.703   4.042   9.479  0.3220 -0.5986 -0.8394
  246MPD1    C1 3729   0.683   4.100   9.355  0.1027  0.1532  0.0861
  246MPD1    C2 3730   0.750   4.222   9.331 -0.1316  0.2614 -0.7162
  246MPD1    C3 3731   0.841   4.275   9.419  0.2244  0.2865 -0.7041
  246MPD1    C4 3732   0.867   4.207   9.541 -0.1068 -0.1622  0.0526
  246MPD1    C5 3733   0.792   4.099   9.573 -0.3559 -0.3729  0.3173
  246MPD1     H 3734   0.717   4.282   9.246 -0.6632  1.2097  0.1644
  246MPD1    H1 3735   0.930   4.255   9.614 -0.0096  0.0524 -0.1719
  246MPD1    H2 3736   0.633   3.963   9.502 -1.1865  0.6867 -1.0585
  246MPD1    H3 3737   0.785   4.063   9.675 -0.2451 -0.2302  0.3746
  246MPD1     N 3738   0.894   4.408   9.388  0.5510 -0.6020 -0.0364
  246MPD1    H5 3739   0.870   4.455   9.302 -0.5220 -0.8683  0.1084
  246MPD1    N1 3740   0.572   4.054   9.276  0.1688 -0.5753 -0.1814
  246MPD1    H6 3741   0.557   3.954   9.288  1.8543 -0.7151  0.6373
  246MPD1    H7 3742   0.586   4.074   9.177 -0.2373  0.9182  0.0685
  247MPD1     C 3743   0.873   0.895  16.750 -0.1058 -0.1795  0.4997
  247MPD1    C1 3744   0.809   0.791  16.811  0.0434  0.4529 -0.3000
  247MPD1    C2 3745   0.829   0.659  16.770  0.3496  0.3674 -0.4588
  247MPD1    C3 3746   0.903   0.633  16.652 -0.4357 -0.3089  0.0619
  247MPD1    C4 3747   0.954   0.742  16.580 -0.5953  0.4093  0.6383
  247MPD1    C5 3748   0.946   0.869  16.638  0.3179  0.7719 -0.3847
  247MPD1     H 3749   0.782   0.584  16.832  1.7616  1.0309  1.4342
  247MPD1    H1 3750   0.991   0.733  16.479 -0.3671  0.8432  0.6819
  247MPD1    H2 3751   0.862   1.001  16.772 -3.4748 -0.2623 -0.6952
  247MPD1    H3 3752   0.979   0.962  16.592  0.9681  0.1917 -1.0928
  247MPD1     N 3753   0.916   0.504  16.593 -0.4946  0.0598 -0.5160
  247MPD1    H5 3754   0.963   0.493  16.504 -1.7522 -0.9804 -1.0465
  247MPD1    N1 3755   0.752   0.811  16.943  0.7088 -0.1682 -0.1716
  247MPD1    H6 3756   0.667   0.759  16.962 -0.3472  0.2807 -3.5910
  247MPD1    H7 3757   0.762   0.906  16.976 -0.2170  0.0049 -0.3943
  248MPD1     C 3758   1.979   4.004   1.267 -0.0480  0.3455 -0.3313
  248MPD1    C1 3759   1.932   4.053   1.152 -0.6054 -0.6566  0.7968
  248MPD1    C2 3760   1.815   4.124   1.149  0.6033 -0.6641  0.1444
  248MPD1    C3 3761   1.753   4.156   1.272  0.1546 -0.2345  0.4946
  248MPD1    C4 3762   1.807   4.111   1.392 -0.1543 -0.0331  0.0420
  248MPD1    C5 3763   1.915   4.034   1.385 -0.1875  0.0793  0.0605
  248MPD1     H 3764   1.774   4.156   1.054  1.7534  1.5739  0.3785
  248MPD1    H1 3765   1.771   4.148   1.488 -1.5219  0.4324 -0.6475
  248MPD1    H2 3766   2.066   3.939   1.260 -0.5884 -0.5955  1.9335
  248MPD1    H3 3767   1.963   4.000   1.476 -2.4764 -0.0964  1.2056
  248MPD1     N 3768   1.648   4.245   1.280 -0.3165  0.1828 -0.2208
  248MPD1    H5 3769   1.616   4.274   1.372  0.0829 -0.8424  0.2397
  248MPD1    N1 3770   1.997   4.019   1.033  0.2212 -0.3550  0.7807
  248MPD1    H6 3771   2.098   4.007   1.044  0.8155  3.0719 -1.0516
  248MPD1    H7 3772   1.984   4.090   0.962  1.2654 -0.4820  0.4654
  249MPD1     C 3773   3.600   1.795  10.432  0.3929 -0.0882  0.2259
  249MPD1    C1 3774   3.695   1.893  10.436 -0.4351 -0.1974 -0.3385
  249MPD1    C2 3775   3.659   2.018  10.492  0.1274 -0.6210  0.2048
  249MPD1    C3 3776   3.536   2.025  10.556  0.3037 -0.3440 -0.8076
  249MPD1    C4 3777   3.449   1.917  10.568 -0.3074 -0.6097 -0.2555
  249MPD1    C5 3778   3.483   1.807  10.499  0.4066  0.4446  0.4495
  249MPD1     H 3779   3.737   2.092  10.498 -2.3894  1.9004  2.0267
  249MPD1    H1 3780   3.359   1.910  10.628  1.3378 -2.8914  1.9412
  249MPD1    H2 3781   3.616   1.702  10.378 -0.1945 -1.2899  2.1399
  249MPD1    H3 3782   3.411   1.726  10.496 -1.6920  2.3317  0.2613
  249MPD1     N 3783   3.519   2.138  10.642 -0.0052  0.4984  0.4427
  249MPD1    H5 3784   3.588   2.210  10.622 -0.3440  0.4925 -0.7146
  249MPD1    N1 3785   3.815   1.885  10.365 -0.2218 -0.5107  0.1388
  249MPD1    H6 3786   3.846   1.788  10.361 -2.2973 -1.2283  1.2025
  249MPD1    H7 3787   3.886   1.940  10.412 -2.0838  1.0988  1.0683
  250MPD2     C 3788   4.595   2.946  13.095  0.2823  0.4813 -0.5138
  250MPD2    C1 3789   4.475   3.006  13.108  0.6381  0.2666 -0.7310
  250MPD2    C2 3790   4.362   2.929  13.093  0.0652  0.0699 -0.5677
  250MPD2    C3 3791   4.375   2.791  13.057 -0.3309 -0.0415 -0.5675
  250MPD2    C4 3792   4.504   2.735  13.030  0.2928  0.5881  0.2168
  250MPD2    C5 3793   4.609   2.820  13.051 -0.1054 -0.2885  0.1072
  250MPD2     H 3794   4.265   2.976  13.102 -0.6377 -1.4213 -0.2862
  250MPD2    H1 3795   4.524   2.634  12.996  1.0895  0.9291 -0.3148
  250MPD2    H2 3796   4.683   3.006  13.115  0.6276 -0.2260  0.1162
  250MPD2    H3 3797   4.709   2.783  13.033  0.6397  1.7529  0.0912
  250MPD2     N 3798   4.265   2.707  13.024 -0.7382  0.0980 -0.8697
  250MPD2    H5 3799   4.296   2.624  12.974 -2.7788 -1.7036  0.8437
  250MPD2    N1 3800   4.471   3.148  13.127 -0.0744  0.3228 -0.1255
  250MPD2    H7 3801   4.557   3.200  13.122  1.2041 -1.8038 -0.1955
  251TMC3    C1 3802   4.408   3.365  13.135 -0.6461  0.0650 -0.0936
  251TMC3    C2 3803   4.314   3.461  13.157 -0.2954 -0.8243 -0.8610
  251TMC3    C3 3804   4.336   3.583  13.104 -0.1304  0.0735 -0.0305
  251TMC3    C4 3805   4.526   3.391  13.073 -0.1189 -0.2247 -0.4825
  251TMC3    C5 3806   4.548   3.517  13.023  0.1907  0.0879  0.2763
  251TMC3    C6 3807   4.459   3.615  13.051  0.6857 -0.1944  0.6910
  251TMC3     C 3808   4.367   3.225  13.138  0.5520  0.3085 -0.3374
  251TMC3     O 3809   4.246   3.210  13.162  0.2433 -0.8809 -0.0798
  251TMC3     H 3810   4.217   3.435  13.197 -0.5258  0.2299 -0.7153
  251TMC3    H1 3811   4.604   3.315  13.073 -0.2174 -0.3160  0.9031
  251TMC3    H2 3812   4.475   3.721  13.035  0.8854 -0.3218  0.0559
  251TMC3    C7 3813   4.692   3.552  13.014  0.3094 -0.9171  0.2155
  251TMC3    C8 3814   4.265   3.684  13.176  0.2274 -0.3746 -0.7225
  251TMC3    O1 3815   0.050   3.465  13.041 -0.4483  0.4348 -0.3700
  251TMC3    O2 3816   4.234   3.662  13.295 -0.3144 -0.0319 -0.0368
  252TMC3    C1 3817   0.082   4.203   8.627 -0.0404  0.6041 -0.5647
  252TMC3    C2 3818   0.123   4.300   8.719  0.4610 -0.6998 -0.7083
  252TMC3    C3 3819   0.203   4.269   8.825  0.4275 -0.6308 -0.1190
  252TMC3    C4 3820   0.115   4.076   8.654 -0.2110  0.1763 -0.4253
  252TMC3    C5 3821   0.209   4.038   8.747 -0.4707  0.0799  0.0131
  252TMC3    C6 3822   0.257   4.138   8.833  0.3055  0.2201 -0.0284
  252TMC3     C 3823   0.067   4.238   8.491  0.1807  0.7594 -0.6948
  252TMC3     O 3824   0.098   4.354   8.470 -0.1762  0.2425  0.8267
  252TMC3     H 3825   0.100   4.406   8.717  0.5489 -0.6635  0.6240
  252TMC3    H1 3826   0.075   3.999   8.589  3.4088  0.1199 -2.5980
  252TMC3    H2 3827   0.337   4.123   8.905 -0.4245  1.1296  0.9531
  252TMC3    C7 3828   0.236   3.900   8.770 -0.1111 -0.5535 -0.6086
  252TMC3    C8 3829   0.259   4.378   8.900 -0.0176  0.7402 -0.7021
  252TMC3    O1 3830   0.209   3.824   8.677  0.3872  0.5211 -0.4026
  252TMC3    O2 3831   0.257   4.484   8.837 -0.0516 -0.2918  0.4537
  253MPD2     C 3832   1.073   3.459  14.935 -0.5775  0.4111  0.2123
  253MPD2    C1 3833   0.975   3.522  15.012 -0.0758  0.6109  0.4386
  253MPD2    C2 3834   1.018   3.599  15.121  0.1793  0.8545 -0.1575
  253MPD2    C3 3835   1.153   3.631  15.137 -0.5101  0.2835  0.1367
  253MPD2    C4 3836   1.247   3.567  15.065  0.1743  0.1612 -0.5063
  253MPD2    C5 3837   1.204   3.489  14.963 -0.2254  0.3594 -0.5907
  253MPD2     H 3838   0.935   3.649  15.170  1.0807  1.5011  0.7125
  253MPD2    H1 3839   1.354   3.583  15.056 -0.0527  2.8731  1.7207
  253MPD2    H2 3840   1.054   3.383  14.860  1.8979 -1.1029  1.1597
  253MPD2    H3 3841   1.274   3.437  14.898  0.0706 -1.0144  0.8444
  253MPD2     N 3842   1.196   3.728  15.226 -0.0911  0.8202 -0.3769
  253MPD2    H5 3843   1.297   3.740  15.229 -0.0137  1.1458 -4.9735
  253MPD2    N1 3844   0.840   3.524  14.982  0.2350  0.3605  0.2323
  253MPD2    H7 3845   0.781   3.594  15.026  0.5060  0.6751  0.0910
  254TMC3    C1 3846   1.179   3.882  15.405 -0.5793 -0.3731  0.2528
  254TMC3    C2 3847   1.099   3.972  15.463  0.2294  0.1280  0.1010
  254TMC3    C3 3848   1.119   4.011  15.592  0.0147  0.0937  0.0072
  254TMC3    C4 3849   1.274   3.823  15.482 -0.7766 -0.4726 -0.2606
  254TMC3    C5 3850   1.304   3.875  15.605  0.3243  0.4636  0.2295
  254TMC3    C6 3851   1.237   3.982  15.654 -0.4428  0.4552  0.2040
  254TMC3     C 3852   1.115   3.805  15.299  0.3070 -0.1389  1.1235
  254TMC3     O 3853   0.994   3.821  15.313 -0.2630  0.0859 -0.0729
  254TMC3     H 3854   1.010   4.013  15.417  0.5176 -0.7375 -1.2092
  254TMC3    H1 3855   1.331   3.745  15.433  0.3999 -0.4136  1.0259
  254TMC3    H2 3856   1.247   4.011  15.758  0.4528  0.7015  0.0544
  254TMC3    C7 3857   1.363   3.791  15.714 -0.9761  0.7261  0.1871
  254TMC3    C8 3858   1.011   3.978  15.685  0.1176  0.8101  0.6724
  254TMC3    O1 3859   1.358   3.835  15.828 -0.1731  0.1071  0.0678
  254TMC3    O2 3860   1.038   3.977  15.802  0.4921  0.4618  0.3998
  255MPD2     C 3861   4.098   0.657  11.166 -0.1673  0.3288 -0.1631
  255MPD2    C1 3862   4.150   0.732  11.062  0.5605 -0.4164  0.1933
  255MPD2    C2 3863   4.270   0.690  11.001 -0.0249 -0.2521  0.1826
  255MPD2    C3 3864   4.346   0.585  11.045 -0.3493 -0.5206  0.4551
  255MPD2    C4 3865   4.301   0.521  11.161 -0.9162  0.1270  0.4386
  255MPD2    C5 3866   4.183   0.560  11.221 -0.2758  0.3200  0.4771
  255MPD2     H 3867   4.309   0.744  10.916  1.8517 -0.4428  0.9222
  255MPD2    H1 3868   4.351   0.445  11.219  2.2317  0.9737 -1.1940
  255MPD2    H2 3869   4.018   0.703  11.224  0.7352 -0.2380  1.5493
  255MPD2    H3 3870   4.156   0.522  11.319 -1.4337  3.0928  1.2365
  255MPD2     N 3871   4.470   0.549  10.977 -0.2440  0.6540  0.2402
  255MPD2    H5 3872   4.507   0.610  10.904  0.1932 -2.5846 -2.2739
  255MPD2    N1 3873   4.100   0.856  11.022  0.0085  0.1919 -0.2913
  255MPD2    H7 3874   4.155   0.899  10.948 -1.2138 -0.4849 -1.5964
  256TMC3    C1 3875   3.970   1.047  11.002  0.4940  0.2629  0.1986
  256TMC3    C2 3876   4.085   1.124  10.997 -0.0425 -0.5758 -0.2099
  256TMC3    C3 3877   4.073   1.248  10.932  0.0594 -0.0659  0.1557
  256TMC3    C4 3878   3.853   1.085  10.951 -0.4520  0.6139 -0.2624
  256TMC3    C5 3879   3.850   1.197  10.872  0.7473  0.2944 -1.2381
  256TMC3    C6 3880   3.964   1.274  10.858  0.3720  0.0514  0.8711
  256TMC3     C 3881   3.981   0.916  11.056 -0.0083 -0.6259  0.3632
  256TMC3     O 3882   3.882   0.865  11.109  0.9534  0.0155 -0.1819
  256TMC3     H 3883   4.170   1.092  11.057  0.5313  0.3019 -0.5616
  256TMC3    H1 3884   3.763   1.025  10.949 -0.2959  0.4528 -1.7967
  256TMC3    H2 3885   3.966   1.355  10.785  0.2041  0.0861  0.9047
  256TMC3    C7 3886   3.769   1.198  10.753  0.0508 -0.1141 -0.5219
  256TMC3    C8 3887   4.201   1.281  10.868 -0.7054  1.0908  0.0759
  256TMC3    O1 3888   3.826   1.206  10.646  0.4337  0.0832  0.0339
  256TMC3    O2 3889   4.291   1.200  10.875 -0.0129 -1.1189 -0.1755
  257MPD2     C 3890   3.206   3.802  13.167 -0.1925 -0.4884  0.2163
  257MPD2    C1 3891   3.132   3.722  13.082 -0.2402 -0.0965  0.1209
  257MPD2    C2 3892   3.073   3.604  13.135  0.3233  0.3570  0.6002
  257MPD2    C3 3893   3.096   3.566  13.265  0.0276 -0.3546 -0.2093
  257MPD2    C4 3894   3.176   3.644  13.343  0.0746  0.9013 -0.5410
  257MPD2    C5 3895   3.228   3.760  13.296  0.6562  0.0926  0.2935
  257MPD2     H 3896   3.014   3.536  13.074  1.6741 -0.1224 -0.1853
  257MPD2    H1 3897   3.195   3.629  13.449 -0.2449  0.4411 -0.5530
  257MPD2    H2 3898   3.252   3.895  13.134 -0.0604  0.3087  2.6900
  257MPD2    H3 3899   3.283   3.830  13.358 -0.0413  1.3601 -0.5119
  257MPD2     N 3900   3.027   3.453  13.304  0.4690  0.4732  0.8260
  257MPD2    H5 3901   2.967   3.414  13.231  1.7575 -1.9485  1.0772
  257MPD2    N1 3902   3.104   3.768  12.951 -0.0890  0.1952 -0.0682
  257MPD2    H7 3903   3.154   3.853  12.927  0.4893  0.2319  1.2165
  258TMC3    C1 3904   2.938   3.283  13.430 -0.5571 -0.8684  0.1389
  258TMC3    C2 3905   2.812   3.300  13.374 -0.2255 -0.1884 -1.0409
  258TMC3    C3 3906   2.728   3.193  13.389  0.1293 -0.1238  0.0690
  258TMC3    C4 3907   2.974   3.159  13.489 -0.3261  0.3417 -0.3550
  258TMC3    C5 3908   2.888   3.057  13.489 -0.1140 -0.6980 -0.7247
  258TMC3    C6 3909   2.762   3.076  13.442 -0.1023  0.0238 -0.4140
  258TMC3     C 3910   3.023   3.394  13.429  0.3118 -0.1650  0.2498
  258TMC3     O 3911   3.083   3.409  13.531  0.0925  0.3065 -0.1673
  258TMC3     H 3912   2.788   3.397  13.332 -0.0593 -0.0702 -0.8629
  258TMC3    H1 3913   3.073   3.149  13.531 -1.2197 -0.3988  1.5410
  258TMC3    H2 3914   2.706   2.987  13.415 -0.8695  1.4690 -3.6593
  258TMC3    C7 3915   2.890   2.955  13.601  0.4356 -0.8665 -0.1548
  258TMC3    C8 3916   2.582   3.187  13.360  0.0957  0.6088 -0.4683
  258TMC3    O1 3917   2.779   2.902  13.610  0.0611 -0.1271 -0.4085
  258TMC3    O2 3918   2.515   3.107  13.425  0.2809 -0.1896  0.3282
  259MPD2     C 3919   1.838   0.242   0.843 -0.3010 -0.8488 -0.4101
  259MPD2    C1 3920   1.931   0.182   0.920 -0.4240  0.1681 -0.0119
  259MPD2    C2 3921   2.035   0.121   0.855 -0.1815 -0.7165 -0.0710
  259MPD2    C3 3922   2.047   0.123   0.714 -0.2581  0.3938 -0.2830
  259MPD2    C4 3923   1.961   0.204   0.642  0.3877  0.1600 -0.2908
  259MPD2    C5 3924   1.858   0.261   0.708 -0.3594  0.1651 -0.3270
  259MPD2     H 3925   2.116   0.075   0.910 -0.1494  1.7808  1.9719
  259MPD2    H1 3926   1.971   0.227   0.537 -2.1490  1.3097 -0.2628
  259MPD2    H2 3927   1.762   0.302   0.891  0.4534 -0.6082  0.4904
  259MPD2    H3 3928   1.789   0.319   0.647 -0.1248  0.0504 -0.7030
  259MPD2     N 3929   2.157   0.060   0.651  0.8745  0.3593  0.1445
  259MPD2    H5 3930   2.221   0.002   0.705  0.9373  0.5592  0.2881
  259MPD2    N1 3931   1.924   0.210   1.056 -0.6097  0.7456  0.4548
  259MPD2    H7 3932   1.848   0.267   1.091 -1.4998  1.2369 -2.2966
  260TMC3    C1 3933   2.326   0.016   0.500 -0.2735  0.7892 -0.0530
  260TMC3    C2 3934   2.402   4.697   0.611  0.2686  0.1345  0.2080
  260TMC3    C3 3935   2.516   4.623   0.589 -0.2920  1.0862  0.5050
  260TMC3    C4 3936   2.365   4.710   0.365  0.2185 -0.2513 -0.1108
  260TMC3    C5 3937   2.466   4.620   0.358 -0.3214  0.8583 -0.1517
  260TMC3    C6 3938   2.547   4.578   0.459 -0.5410  0.5452  0.2515
  260TMC3     C 3939   2.193   0.076   0.522  0.3837 -0.8267  0.4403
  260TMC3     O 3940   2.138   0.121   0.424  0.7850 -0.1398  0.5490
  260TMC3     H 3941   2.381   4.713   0.716  1.1583 -0.4871  0.4814
  260TMC3    H1 3942   2.297   0.018   0.288  1.8455 -0.4419 -1.6097
  260TMC3    H2 3943   2.623   4.505   0.434 -1.3292 -0.1387 -0.1847
  260TMC3    C7 3944   2.490   4.561   0.232 -0.0456  0.1324  0.5854
  260TMC3    C8 3945   2.584   4.553   0.700 -0.0723 -0.7110 -0.0706
  260TMC3    O1 3946   2.596   4.497   0.223 -0.4317 -0.1968 -0.6534
  260TMC3    O2 3947   2.527   4.547   0.806 -0.8962 -0.1756 -0.0636
  261MPD2     C 3948   3.577   2.784  12.624  0.2245 -0.0430 -0.0308
  261MPD2    C1 3949   3.684   2.829  12.699  0.3941  0.0053  0.0067
  261MPD2    C2 3950   3.747   2.942  12.653 -0.2481  0.2755  0.2482
  261MPD2    C3 3951   3.710   3.014  12.539  0.6136 -0.4807  0.4168
  261MPD2    C4 3952   3.605   2.963  12.467  0.1167 -0.7571  0.4351
  261MPD2    C5 3953   3.543   2.851  12.504 -0.2594  0.1821 -0.7326
  261MPD2     H 3954   3.836   2.975  12.706  0.4735 -0.3735 -0.5588
  261MPD2    H1 3955   3.589   2.996  12.365  3.2370 -0.2104  0.1354
  261MPD2    H2 3956   3.521   2.693  12.641 -1.4624  1.0084  0.0393
  261MPD2    H3 3957   3.456   2.817  12.450 -1.3462 -0.7543  1.6147
  261MPD2     N 3958   3.797   3.120  12.501  1.1110 -0.3697 -0.2720
  261MPD2    H5 3959   3.878   3.142  12.557 -0.2317 -0.7732  1.8293
  261MPD2    N1 3960   3.753   2.759  12.804 -0.5061 -0.1565  0.7523
  261MPD2    H7 3961   3.834   2.814  12.831 -1.3512  1.9817 -1.0906
  262TMC3    C1 3962   3.837   3.332  12.396 -0.0515 -0.1745  0.7264
  262TMC3    C2 3963   3.818   3.424  12.298 -0.6074  0.0543  0.4907
  262TMC3    C3 3964   3.923   3.512  12.272  0.8506 -0.6239 -0.1936
  262TMC3    C4 3965   3.951   3.341  12.477  0.2853  0.3268 -0.1452
  262TMC3    C5 3966   4.056   3.410  12.426 -0.5120  0.3928  0.3515
  262TMC3    C6 3967   4.040   3.508  12.337 -0.5834  0.1859  0.6970
  262TMC3     C 3968   3.762   3.209  12.402 -0.2254  0.2407 -0.8071
  262TMC3     O 3969   3.661   3.215  12.334  0.1823  0.6289 -0.4257
  262TMC3     H 3970   3.731   3.412  12.234  0.2071  0.3129 -0.6572
  262TMC3    H1 3971   3.960   3.282  12.567 -3.4664  0.6155  0.4142
  262TMC3    H2 3972   4.115   3.579  12.304  0.1374 -1.9151 -2.1557
  262TMC3    C7 3973   4.152   3.311  12.400 -0.6098  0.7484 -0.5981
  262TMC3    C8 3974   3.890   3.623  12.178 -0.6674 -0.0592 -0.9941
  262TMC3    O1 3975   4.145   3.206  12.461 -0.8046  0.1892 -0.6188
  262TMC3    O2 3976   3.984   3.678  12.127 -0.4632  0.4496  0.1018
  263MPD2     C 3977   0.372   2.123  11.606 -0.6069  0.4283 -0.6157
  263MPD2    C1 3978   0.462   2.225  11.624  0.2917 -0.4091 -0.3175
  263MPD2    C2 3979   0.488   2.311  11.520  0.1551  0.1694  0.3151
  263MPD2    C3 3980   0.439   2.282  11.393  0.2563 -0.2110  0.9886
  263MPD2    C4 3981   0.350   2.172  11.373 -0.5303  0.5340  0.1451
  263MPD2    C5 3982   0.320   2.097  11.483  0.2762  0.0101  0.2884
  263MPD2     H 3983   0.550   2.398  11.540 -0.7387  0.9524 -0.3044
  263MPD2    H1 3984   0.304   2.149  11.278  1.6483 -1.5016 -0.4420
  263MPD2    H2 3985   0.361   2.048  11.684 -0.0749  2.1360  1.1058
  263MPD2    H3 3986   0.273   1.999  11.481  1.1089 -0.3971  0.8167
  263MPD2     N 3987   0.462   2.384  11.297 -0.6128  0.3435  0.1165
  263MPD2    H5 3988   0.505   2.467  11.337 -0.1037  1.0368 -1.8943
  263MPD2    N1 3989   0.529   2.235  11.750 -0.1689 -0.0013  0.4370
  263MPD2    H7 3990   0.512   2.159  11.814  1.0779 -2.1897 -1.8542
  264TMC3    C1 3991   0.502   2.483  11.100  0.8527  0.8804  0.2355
  264TMC3    C2 3992   0.516   2.603  11.172 -0.5475 -0.1490  0.1556
  264TMC3    C3 3993   0.633   2.676  11.165 -0.3503 -0.6013 -0.5846
  264TMC3    C4 3994   0.595   2.444  11.016 -0.6257  0.1422 -0.5089
  264TMC3    C5 3995   0.714   2.517  11.010 -0.8296 -0.3695  0.9383
  264TMC3    C6 3996   0.739   2.631  11.083  0.1141 -0.4534  0.5312
  264TMC3     C 3997   0.434   2.379  11.166 -0.9739  0.3768 -0.7645
  264TMC3     O 3998   0.414   2.280  11.095 -0.2688 -0.0368 -0.2422
  264TMC3     H 3999   0.430   2.649  11.219 -0.1381 -0.9328  1.7003
  264TMC3    H1 4000   0.591   2.349  10.964 -0.8113  0.5019 -1.1473
  264TMC3    H2 4001   0.821   2.699  11.068  0.6012 -1.5598 -1.8094
  264TMC3    C7 4002   0.803   2.483  10.903  0.1249 -0.4272 -0.6456
  264TMC3    C8 4003   0.637   2.802  11.236  0.3846  0.2670  0.0223
  264TMC3    O1 4004   0.920   2.510  10.926 -0.1358  0.1768  0.4474
  264TMC3    O2 4005   0.734   2.871  11.218  0.1902  0.6169  0.4734
  265MPD2     C 4006   1.975   2.943  15.542  0.5185 -0.2014  0.2473
  265MPD2    C1 4007   2.025   3.057  15.486 -0.1691 -0.0232 -0.9575
  265MPD2    C2 4008   2.125   3.046  15.395 -0.9414  0.7641  0.5893
  265MPD2    C3 4009   2.183   2.928  15.365 -0.0216  0.3101 -0.6338
  265MPD2    C4 4010   2.149   2.815  15.429 -0.1283 -0.5199  0.0284
  265MPD2    C5 4011   2.038   2.825  15.514 -0.6805 -0.2361 -0.3388
  265MPD2     H 4012   2.143   3.140  15.344 -3.4641  0.7805 -0.2857
  265MPD2    H1 4013   2.197   2.719  15.414  1.0511 -0.2648  2.2319
  265MPD2    H2 4014   1.896   2.941  15.615  0.5594  0.9023  0.3174
  265MPD2    H3 4015   2.001   2.735  15.560  1.5471  0.1314  2.1578
  265MPD2     N 4016   2.281   2.906  15.261  0.4231 -0.3360 -0.1008
  265MPD2    H5 4017   2.304   2.811  15.234 -0.7289 -1.2360  2.0568
  265MPD2    N1 4018   1.969   3.187  15.522 -0.8673 -0.4842 -0.1671
  265MPD2    H7 4019   2.018   3.265  15.480 -1.0165  1.1557  2.6978
  266TMC3    C1 4020   1.860   3.341  15.632  0.2121  0.6905 -0.1868
  266TMC3    C2 4021   1.901   3.378  15.757 -0.8907 -0.6585  0.2923
  266TMC3    C3 4022   1.924   3.514  15.775  0.4562  0.1478  0.9002
  266TMC3    C4 4023   1.849   3.427  15.523  0.5250  0.3448 -0.2353
  266TMC3    C5 4024   1.872   3.560  15.549 -0.5336 -0.4080 -0.3379
  266TMC3    C6 4025   1.911   3.608  15.673 -0.5442 -0.2621 -0.5109
  266TMC3     C 4026   1.871   3.204  15.611 -0.1475  0.0056  0.7207
  266TMC3     O 4027   1.809   3.119  15.675  0.1445  0.3467  0.3770
  266TMC3     H 4028   1.926   3.302  15.830  2.0768  0.7258  0.7362
  266TMC3    H1 4029   1.797   3.389  15.436  2.0002 -0.9980 -0.5302
  266TMC3    H2 4030   1.965   3.701  15.683 -1.3884  0.4000 -2.1186
  266TMC3    C7 4031   1.824   3.647  15.450  0.5741 -0.2551 -0.1585
  266TMC3    C8 4032   2.010   3.546  15.894 -0.3354 -0.0423  0.5262
  266TMC3    O1 4033   1.775   3.600  15.348 -0.3095  0.5569  0.0399
  266TMC3    O2 4034   2.064   3.454  15.955 -0.2628 -0.1660 -0.2640
  267MPD2     C 4035   4.375   0.504   0.571  0.1188 -0.5163 -0.3038
  267MPD2    C1 4036   4.337   0.466   0.444 -0.0682 -0.5646 -0.2506
  267MPD2    C2 4037   4.212   0.507   0.398 -0.0017 -0.2712 -0.1031
  267MPD2    C3 4038   4.130   0.597   0.464  0.3461  0.1246  0.5411
  267MPD2    C4 4039   4.166   0.628   0.594  0.5190  0.7579  0.4622
  267MPD2    C5 4040   4.289   0.590   0.641 -0.1430  0.6440  0.1208
  267MPD2     H 4041   4.184   0.461   0.304  1.5799 -1.0870 -0.1616
  267MPD2    H1 4042   4.103   0.692   0.655  1.4709 -0.0351  2.2901
  267MPD2    H2 4043   4.469   0.467   0.611  1.0003 -0.4752 -2.3728
  267MPD2    H3 4044   4.320   0.623   0.740  1.7299  3.6021 -1.4433
  267MPD2     N 4045   4.010   0.650   0.413  0.0482  0.4065  0.7648
  267MPD2    H5 4046   3.953   0.700   0.481 -0.8213  1.6016 -0.8432
  267MPD2    N1 4047   4.420   0.380   0.359  0.1252  0.0425  0.1758
  267MPD2    H7 4048   4.367   0.348   0.279  0.6024  2.1534 -1.0032
  268TMC3    C1 4049   4.589   0.260   0.265 -0.5354 -0.8265 -0.2410
  268TMC3    C2 4050   4.527   0.271   0.144  0.5134  0.2575  0.5463
  268TMC3    C3 4051   4.550   0.177   0.047 -0.5790  0.0429  0.1703
  268TMC3    C4 4052   4.668   0.152   0.287  0.7010  0.4285 -0.0546
  268TMC3    C5 4053   4.699   0.066   0.182  0.7972  0.9734  0.2478
  268TMC3    C6 4054   4.649   0.078   0.053  0.2602 -0.5150  0.0564
  268TMC3     C 4055   4.544   0.331   0.380 -1.1575 -0.3307  0.2490
  268TMC3     O 4056   4.621   0.371   0.463 -0.4829  0.1568 -0.1788
  268TMC3     H 4057   4.468   0.360   0.126  0.1741 -0.1186 -0.2124
  268TMC3    H1 4058   4.709   0.149   0.388  0.9243 -0.6768 -0.1759
  268TMC3    H2 4059   4.666   0.009  17.673  3.3426 -1.0514  1.1480
  268TMC3    C7 4060   0.069   4.695   0.225 -0.6420  0.6038 -0.5258
  268TMC3    C8 4061   4.473   0.192  17.628 -0.6918 -0.5739  0.2382
  268TMC3    O1 4062   0.098   4.685   0.345 -0.0675  0.1987 -0.0405
  268TMC3    O2 4063   4.516   0.152  17.522 -0.7877 -0.4952  0.6435
  269MPD2     C 4064   0.246   3.972  15.528 -0.3419  0.0099  0.4755
  269MPD2    C1 4065   0.130   3.989  15.598 -0.9130  0.2549  0.2438
  269MPD2    C2 4066   0.072   4.114  15.609  0.3481 -0.4026 -0.0742
  269MPD2    C3 4067   0.132   4.224  15.551  0.0511 -0.0145  0.5384
  269MPD2    C4 4068   0.244   4.198  15.469  0.0876  0.0832  0.3585
  269MPD2    C5 4069   0.305   4.077  15.466  0.2157  0.3322  0.1827
  269MPD2     H 4070   4.710   4.132  15.670  0.7952 -0.0641  0.4621
  269MPD2    H1 4071   0.299   4.277  15.417  1.9171 -0.5261  1.3538
  269MPD2    H2 4072   0.309   3.884  15.526  0.6644  0.7605 -0.7868
  269MPD2    H3 4073   0.390   4.042  15.408 -0.9876 -0.8894 -0.8166
  269MPD2     N 4074   0.081   4.359  15.590 -0.5643  0.2696  0.5651
  269MPD2    H5 4075   4.720   4.365  15.644  0.8270  0.7719  2.6865
  269MPD2    N1 4076   0.074   3.877  15.662 -0.7886  0.0554 -0.5775
  269MPD2    H7 4077   0.127   3.791  15.647 -1.1674 -0.1198 -0.9257
  270TMC3    C1 4078   4.665   3.773  15.834  0.6902 -0.3555  0.2400
  270TMC3    C2 4079   4.537   3.752  15.888  0.1141  0.2888  0.0581
  270TMC3    C3 4080   4.521   3.636  15.954 -0.7615 -0.8873 -0.0251
  270TMC3    C4 4081   0.046   3.681  15.847 -0.0230 -0.7332 -0.1427
  270TMC3    C5 4082   0.024   3.568  15.919  0.0119 -0.8782 -0.1263
  270TMC3    C6 4083   4.624   3.544  15.974  0.1003 -0.6654 -0.2620
  270TMC3     C 4084   4.677   3.882  15.739  0.2542  0.0362  0.0333
  270TMC3     O 4085   4.589   3.967  15.747 -0.0386 -0.3785 -0.3861
  270TMC3     H 4086   4.461   3.830  15.886  2.5463  2.6990  0.6589
  270TMC3    H1 4087   0.150   3.702  15.821 -0.1439  0.3281  0.2287
  270TMC3    H2 4088   4.606   3.439  15.993  0.3918 -0.7475 -0.4271
  270TMC3    C7 4089   0.134   3.477  15.933  0.0908 -0.4482 -0.1302
  270TMC3    C8 4090   4.389   3.576  15.945 -0.6861 -0.3263  0.1729
  270TMC3    O1 4091   0.216   3.482  15.843  0.2042  0.4433 -0.1709
  270TMC3    O2 4092   4.289   3.646  15.959  0.6508 -0.3711 -0.4180
  271MPD2     C 4093   3.696   3.331  14.178  0.4119 -0.1234 -0.5768
  271MPD2    C1 4094   3.630   3.309  14.298 -0.2186 -0.1431 -0.5149
  271MPD2    C2 4095   3.505   3.358  14.309  0.0900  0.0439 -0.4853
  271MPD2    C3 4096   3.442   3.431  14.211 -0.3425  0.0074 -0.2975
  271MPD2    C4 4097   3.510   3.459  14.098 -0.1489 -0.0814 -0.1488
  271MPD2    C5 4098   3.641   3.410  14.083  0.7203  0.2662 -0.2465
  271MPD2     H 4099   3.457   3.337  14.404  0.3301  0.0531 -0.3618
  271MPD2    H1 4100   3.454   3.507  14.019 -2.1353 -1.1028  0.6349
  271MPD2    H2 4101   3.796   3.296  14.155  1.7293  1.9261  2.0115
  271MPD2    H3 4102   3.691   3.428  13.989  2.0632  1.7109  0.7429
  271MPD2     N 4103   3.307   3.484  14.223  0.2614  0.0347  0.5937
  271MPD2    H5 4104   3.272   3.530  14.139 -0.3618 -0.0652  0.8057
  271MPD2    N1 4105   3.682   3.233  14.406 -0.8177  0.4117 -0.2615
  271MPD2    H7 4106   3.617   3.222  14.483  2.7495 -0.6198  2.5755
  272TMC3    C1 4107   3.842   3.119  14.538 -0.4396 -0.0309 -0.0263
  272TMC3    C2 4108   3.959   3.042  14.551  0.0743  0.2457  0.3021
  272TMC3    C3 4109   3.977   2.978  14.665  0.4213 -0.2823 -0.1378
  272TMC3    C4 4110   3.761   3.147  14.644 -0.0961  0.0315 -0.2419
  272TMC3    C5 4111   3.800   3.084  14.755  0.0483  0.4749 -0.3699
  272TMC3    C6 4112   3.893   2.991  14.771  0.4465 -0.8240 -0.0827
  272TMC3     C 4113   3.804   3.165  14.410 -0.1255  0.3517  0.6791
  272TMC3     O 4114   3.880   3.137  14.310 -0.0005 -0.3938  0.1545
  272TMC3     H 4115   4.020   3.032  14.462  0.6872 -0.7881  0.8476
  272TMC3    H1 4116   3.693   3.231  14.649 -1.7708 -1.2052 -2.3066
  272TMC3    H2 4117   3.896   2.938  14.866 -2.5932  0.0303  0.4696
  272TMC3    C7 4118   3.741   3.140  14.878  0.6022 -0.0993  0.2862
  272TMC3    C8 4119   4.074   2.874  14.662  0.7606  0.1007  0.4067
  272TMC3    O1 4120   3.626   3.180  14.867 -0.2672 -0.4067  0.1762
  272TMC3    O2 4121   4.117   2.842  14.552 -0.0311  0.2061 -0.7018
  273MPD2     C 4122   1.003   0.922  11.922 -0.0476  0.0919  0.3235
  273MPD2    C1 4123   1.097   0.989  11.845 -0.2722 -0.2900  0.1339
  273MPD2    C2 4124   1.072   1.008  11.711  0.5406  0.1553 -0.5056
  273MPD2    C3 4125   0.956   0.969  11.650  0.4162 -0.3704 -0.5904
  273MPD2    C4 4126   0.862   0.918  11.729 -0.0182 -0.0100 -0.0210
  273MPD2    C5 4127   0.879   0.888  11.863  1.1378  0.4647  0.3214
  273MPD2     H 4128   1.148   1.044  11.643  0.0798 -0.5038 -1.3762
  273MPD2    H1 4129   0.773   0.883  11.679 -0.5082  1.8937 -0.4611
  273MPD2    H2 4130   1.014   0.900  12.027  1.2323 -0.1558  0.1327
  273MPD2    H3 4131   0.803   0.828  11.911  1.7016  0.9706  1.8570
  273MPD2     N 4132   0.918   1.005  11.517  0.3260 -0.4567 -0.7552
  273MPD2    H5 4133   0.820   0.990  11.495 -0.5820  2.6789  1.1420
  273MPD2    N1 4134   1.209   1.046  11.909 -0.1226 -0.2341  0.0308
  273MPD2    H7 4135   1.209   1.046  12.010 -1.1940 -1.9607  0.0337
  274TMC3    C1 4136   0.924   1.179  11.336  1.0078  0.5607 -0.9257
  274TMC3    C2 4137   0.786   1.153  11.321 -0.1223 -0.1184  0.1361
  274TMC3    C3 4138   0.708   1.266  11.315  0.4726  0.4706  0.2134
  274TMC3    C4 4139   0.979   1.307  11.339 -0.1604  0.0529 -0.0375
  274TMC3    C5 4140   0.889   1.413  11.350 -0.4913  0.1293  0.2078
  274TMC3    C6 4141   0.754   1.393  11.339 -0.2238  0.3393  0.1554
  274TMC3     C 4142   0.993   1.095  11.436  0.0991  0.6661  0.3627
  274TMC3     O 4143   1.117   1.101  11.435 -0.1565  0.2843 -0.0331
  274TMC3     H 4144   0.747   1.052  11.311  0.4925 -0.1626 -1.7083
  274TMC3    H1 4145   1.085   1.318  11.355 -0.2368  2.5031 -1.2066
  274TMC3    H2 4146   0.681   1.473  11.338 -0.5084  0.0491 -1.5149
  274TMC3    C7 4147   0.919   1.545  11.406  0.4028  0.0226 -0.5032
  274TMC3    C8 4148   0.576   1.261  11.246 -0.4031  0.8317  0.7233
  274TMC3    O1 4149   0.840   1.599  11.485  0.2250  0.2843  0.1489
  274TMC3    O2 4150   0.497   1.351  11.265 -0.3061 -0.0196 -0.2128
  275MPD2     C 4151   0.665   4.037  14.548  0.6169 -0.0221  0.1999
  275MPD2    C1 4152   0.559   4.122  14.586 -0.8006 -0.2792  0.1363
  275MPD2    C2 4153   0.431   4.063  14.592 -0.4769 -0.0472  0.0795
  275MPD2    C3 4154   0.418   3.922  14.612 -0.2033 -0.8990  1.0150
  275MPD2    C4 4155   0.524   3.845  14.584 -0.2582 -1.0932 -0.5321
  275MPD2    C5 4156   0.644   3.905  14.542 -0.0736 -0.0768  0.2185
  275MPD2     H 4157   0.339   4.119  14.605 -0.2568  0.0234  1.3099
  275MPD2    H1 4158   0.507   3.738  14.582  0.8402 -1.3271  3.3194
  275MPD2    H2 4159   0.765   4.066  14.518 -0.0412 -0.0147 -1.9790
  275MPD2    H3 4160   0.726   3.839  14.515  0.2837  0.7699 -0.7607
  275MPD2     N 4161   0.296   3.857  14.656  0.2627 -0.1102 -0.4917
  275MPD2    H5 4162   0.290   3.756  14.660  1.5601 -0.1441  0.5159
  275MPD2    N1 4163   0.568   4.257  14.617  0.0533  0.1104  0.0996
  275MPD2    H7 4164   0.489   4.320  14.610 -1.0565 -0.9855  2.6755
  276TMC3    C1 4165   0.668   4.435  14.747  0.4770 -0.5180 -0.8280
  276TMC3    C2 4166   0.544   4.442  14.810 -0.6637 -0.4187  0.0395
  276TMC3    C3 4167   0.526   4.502  14.925  0.2345  0.6707  0.2866
  276TMC3    C4 4168   0.778   4.497  14.808 -0.3077  0.7274  0.2862
  276TMC3    C5 4169   0.756   4.566  14.929  0.3158 -0.2967  0.1275
  276TMC3    C6 4170   0.629   4.566  14.986 -0.8628 -0.1445 -0.7083
  276TMC3     C 4171   0.683   4.310  14.672 -0.2412  0.5836  0.2450
  276TMC3     O 4172   0.792   4.253  14.682 -0.3635  0.1725 -0.2613
  276TMC3     H 4173   0.456   4.403  14.761 -0.2418 -0.5074 -0.6449
  276TMC3    H1 4174   0.875   4.502  14.761 -0.3216 -0.7692  0.1247
  276TMC3    H2 4175   0.613   4.614  15.082  0.6643 -1.9566  0.4440
  276TMC3    C7 4176   0.866   4.610  15.009 -0.0833 -0.8850  0.3482
  276TMC3    C8 4177   0.443   4.427  15.019  0.4627  0.2591 -0.5372
  276TMC3    O1 4178   0.838   4.689  15.100  0.3672 -0.5494  0.2188
  276TMC3    O2 4179   0.398   4.480  15.120 -0.1441  0.1273  0.0866
  277MPD2     C 4180   2.119   3.404  13.427  0.7182  0.1954 -0.2131
  277MPD2    C1 4181   1.982   3.437  13.414  0.1607 -0.2234  0.0151
  277MPD2    C2 4182   1.886   3.359  13.486  0.2604 -0.4655  0.2735
  277MPD2    C3 4183   1.932   3.255  13.569 -0.0677 -0.5550  0.2204
  277MPD2    C4 4184   2.066   3.232  13.583 -1.0619 -0.2923  0.0235
  277MPD2    C5 4185   2.156   3.302  13.511 -0.4604 -0.0247 -0.1905
  277MPD2     H 4186   1.781   3.382  13.477 -0.1163 -2.4663 -0.4927
  277MPD2    H1 4187   2.105   3.159  13.653  0.7516  2.4079  1.8324
  277MPD2    H2 4188   2.198   3.461  13.378  1.1401 -0.2743 -0.0721
  277MPD2    H3 4189   2.260   3.273  13.519 -0.1508 -0.0042 -4.2033
  277MPD2     N 4190   1.839   3.178  13.647 -0.1113 -0.1063  0.3048
  277MPD2    H5 4191   1.741   3.202  13.638 -0.0052 -0.2336 -1.0498
  277MPD2    N1 4192   1.950   3.548  13.334  0.8402  0.0481  0.3131
  277MPD2    H7 4193   2.026   3.602  13.292 -0.5346  0.2982 -1.8329
  278TMC3    C1 4194   1.743   3.036  13.791  0.3354 -0.0254 -0.1377
  278TMC3    C2 4195   1.709   2.901  13.792 -0.2373 -0.3962 -0.0142
  278TMC3    C3 4196   1.583   2.875  13.830  0.2735 -0.8074  0.1269
  278TMC3    C4 4197   1.657   3.135  13.828  0.1320 -0.2408 -0.6913
  278TMC3    C5 4198   1.539   3.096  13.891  0.3701 -0.3723 -0.0654
  278TMC3    C6 4199   1.499   2.965  13.888  0.2626 -0.1414  0.5064
  278TMC3     C 4200   1.867   3.078  13.740  0.1070  0.0905 -0.1036
  278TMC3     O 4201   1.965   3.010  13.755 -0.2340  0.3274  0.1832
  278TMC3     H 4202   1.781   2.825  13.763 -0.7383 -1.4154  1.4164
  278TMC3    H1 4203   1.686   3.239  13.820 -0.6552 -0.1298 -2.0598
  278TMC3    H2 4204   1.413   2.934  13.946 -1.0419  1.0480 -0.7846
  278TMC3    C7 4205   1.461   3.210  13.943  0.0212 -0.9412  0.9968
  278TMC3    C8 4206   1.542   2.737  13.842  0.2251 -0.4718  0.0764
  278TMC3    O1 4207   1.514   3.309  13.990 -0.2293 -0.3864 -0.5657
  278TMC3    O2 4208   1.432   2.704  13.888  0.1197 -1.0214  0.4555
  279MPD2     C 4209   2.036   3.904   0.125 -0.1079  0.1954 -0.7892
  279MPD2    C1 4210   1.922   3.825   0.104  0.4665  0.3552  0.1836
  279MPD2    C2 4211   1.895   3.777  17.675 -0.0737 -0.3756  0.1307
  279MPD2    C3 4212   1.969   3.827  17.570  0.0623  0.1361 -0.0842
  279MPD2    C4 4213   2.076   3.912  17.594  0.5188 -0.0445 -0.7285
  279MPD2    C5 4214   2.116   3.933   0.019  0.5739  0.0789 -0.5022
  279MPD2     H 4215   1.819   3.701  17.659 -1.0292  0.7123 -0.4770
  279MPD2    H1 4216   2.141   3.946  17.515 -0.4492  3.6480  0.0640
  279MPD2    H2 4217   2.060   3.941   0.224  0.0982  1.8417 -1.4570
  279MPD2    H3 4218   2.204   3.989   0.046 -0.1443 -0.0756  2.1618
  279MPD2     N 4219   1.952   3.778  17.437 -0.0215 -0.4478 -0.1428
  279MPD2    H5 4220   2.024   3.807  17.371  0.0499 -0.9529 -0.2839
  279MPD2    N1 4221   1.834   3.795   0.210  0.0453 -0.4922 -0.2199
  279MPD2    H7 4222   1.757   3.735   0.183  1.6107 -1.3475 -2.7901
  280TMC3    C1 4223   1.705   3.831   0.395  0.2231 -0.2449 -0.0173
  280TMC3    C2 4224   1.645   3.707   0.375  0.0009  0.2871 -0.3341
  280TMC3    C3 4225   1.513   3.701   0.346  0.2775  0.0161 -0.7548
  280TMC3    C4 4226   1.624   3.944   0.398  0.3398 -0.3346  0.0406
  280TMC3    C5 4227   1.492   3.934   0.356 -0.1859  0.1269 -0.6563
  280TMC3    C6 4228   1.433   3.813   0.335 -0.0435 -0.0003 -0.2100
  280TMC3     C 4229   1.831   3.859   0.338 -0.0136 -0.1651  0.1907
  280TMC3     O 4230   1.903   3.950   0.389  0.0398  0.1201 -1.0287
  280TMC3     H 4231   1.712   3.623   0.355  0.7793  1.1349 -1.2735
  280TMC3    H1 4232   1.674   4.038   0.383 -0.9096  0.2337 -0.6246
  280TMC3    H2 4233   1.326   3.803   0.319 -0.0367  0.2261 -0.3986
  280TMC3    C7 4234   1.421   4.054   0.315  0.2879 -0.0381 -0.3218
  280TMC3    C8 4235   1.458   3.580   0.286  0.1900  0.3410 -0.0227
  280TMC3    O1 4236   1.444   4.151   0.381  0.2564  0.1328  0.6700
  280TMC3    O2 4237   1.376   3.605   0.204 -0.0938 -0.0083 -0.1578
  281TMC3    C1 4238   0.285   3.455  13.366  0.6415 -0.1364 -0.4936
  281TMC3    C2 4239   0.328   3.535  13.265  0.1103  0.2125  0.3458
  281TMC3    C3 4240   0.410   3.485  13.170 -0.4862  0.4293  0.9199
  281TMC3    C4 4241   0.341   3.331  13.390 -0.1919 -0.7841  0.2609
  281TMC3    C5 4242   0.422   3.288  13.292  0.2931 -0.2103 -0.2938
  281TMC3    C6 4243   0.468   3.358  13.187 -0.0226  0.2470 -0.7850
  281TMC3     C 4244   0.160   3.477  13.431 -0.6564 -0.5576  0.0563
  281TMC3     O 4245   0.119   3.397  13.517 -0.6387  0.2476 -0.2452
  281TMC3     H 4246   0.302   3.641  13.268 -1.5814 -0.1750 -0.4596
  281TMC3    H1 4247   0.310   3.266  13.471 -1.1541  1.3925  1.6330
  281TMC3    H2 4248   0.512   3.314  13.098  0.7360  0.9248 -0.7440
  281TMC3    C7 4249   0.436   3.145  13.288 -0.2115 -0.2864  0.8643
  281TMC3    C8 4250   0.514   3.578  13.126 -0.4643  0.6072 -0.2999
  281TMC3    O1 4251   0.537   3.103  13.230  0.8030  0.5622  0.4975
  281TMC3    O2 4252   0.627   3.534  13.127  0.5387  0.8029  0.5371
  282MPD2     C 4253   2.230   0.123  15.019  0.0189  0.2060  0.3969
  282MPD2    C1 4254   2.104   0.170  15.033 -0.1196 -0.2472 -0.1369
  282MPD2    C2 4255   2.015   0.183  14.928  1.1482 -0.3306 -0.4379
  282MPD2    C3 4256   2.045   0.127  14.805  0.0480  0.1419 -0.1173
  282MPD2    C4 4257   2.161   0.060  14.795  0.7878 -0.6818  0.3731
  282MPD2    C5 4258   2.252   0.065  14.899 -1.4250  0.2547 -0.0382
  282MPD2     H 4259   1.922   0.239  14.940  3.2132  2.7713  1.0441
  282MPD2    H1 4260   2.194   0.021  14.700  0.9418 -0.1140  0.1891
  282MPD2    H2 4261   2.301   0.124  15.101  0.8287 -0.7204 -0.2948
  282MPD2    H3 4262   2.342   0.013  14.869 -1.6118 -0.1877  0.1723
  282MPD2     N 4263   1.953   0.143  14.701  0.3527 -1.0093  0.2518
  282MPD2    H5 4264   1.865   0.188  14.725  1.5920  1.1072  0.7442
  282MPD2    N1 4265   2.053   0.216  15.159 -0.1389 -0.3353 -0.0220
  282MPD2    H7 4266   1.956   0.245  15.155 -0.1823 -0.2741  1.7020
  283TMC3    C1 4267   2.033   0.294  15.380 -0.0636 -0.4797  0.4138
  283TMC3    C2 4268   2.062   0.406  15.454 -0.0241 -0.1780  0.0729
  283TMC3    C3 4269   1.992   0.429  15.567 -0.7324 -0.3844 -0.1225
  283TMC3    C4 4270   1.942   0.198  15.432  0.1384  0.6078 -0.3571
  283TMC3    C5 4271   1.877   0.229  15.552 -0.4211  0.5019  0.6176
  283TMC3    C6 4272   1.906   0.340  15.627 -0.2065  0.4679  0.4227
  283TMC3     C 4273   2.118   0.254  15.276  0.4990  0.1477  0.1490
  283TMC3     O 4274   2.235   0.251  15.303  0.1144 -0.2705 -0.5585
  283TMC3     H 4275   2.152   0.463  15.435 -0.1688 -0.0680 -0.2900
  283TMC3    H1 4276   1.916   0.109  15.375 -0.1033  0.4442  0.0079
  283TMC3    H2 4277   1.851   0.370  15.716  1.7702  0.8984  1.5013
  283TMC3    C7 4278   1.794   0.128  15.618  0.3680  0.2429  0.8872
  283TMC3    C8 4279   2.015   0.557  15.628  0.2780 -0.3994 -0.3488
  283TMC3    O1 4280   1.747   0.176  15.716  0.3983 -0.1081  0.6815
  283TMC3    O2 4281   1.993   0.568  15.747 -0.0674  0.7458 -0.2301
  284MPD2     C 4282   0.790   3.734  12.337 -0.2287 -0.5081 -0.5261
  284MPD2    C1 4283   0.660   3.771  12.315 -0.1775  0.1807  0.2867
  284MPD2    C2 4284   0.564   3.670  12.330 -0.1885 -0.5767 -1.3915
  284MPD2    C3 4285   0.592   3.536  12.370 -0.1409  0.4635 -0.2188
  284MPD2    C4 4286   0.724   3.503  12.387 -0.5503 -0.1738 -0.5398
  284MPD2    C5 4287   0.821   3.603  12.373 -0.0561  0.1225  0.4271
  284MPD2     H 4288   0.460   3.699  12.338 -0.0084  0.1594 -1.7086
  284MPD2    H1 4289   0.753   3.407  12.428  0.4273  0.4560  0.2346
  284MPD2    H2 4290   0.874   3.792  12.303 -0.6469 -0.0681 -0.8112
  284MPD2    H3 4291   0.926   3.579  12.387  0.1178  0.1292 -0.8936
  284MPD2     N 4292   0.500   3.429  12.379 -0.5798  0.0876  0.2348
  284MPD2    H5 4293   0.539   3.341  12.410  1.2479  0.5049 -0.8440
  284MPD2    N1 4294   0.624   3.899  12.273 -1.0299 -0.2090 -0.0720
  284MPD2    H7 4295   0.524   3.914  12.265 -0.1434  2.8958 -5.3215
  285TMC3    C1 4296   0.638   4.114  12.179  0.0361 -0.9227 -0.2088
  285TMC3    C2 4297   0.552   4.075  12.085 -0.2925 -0.0916 -0.1120
  285TMC3    C3 4298   0.531   4.151  11.978  0.5797  0.0329  0.3238
  285TMC3    C4 4299   0.708   4.228  12.179  0.1928  0.3733 -0.2078
  285TMC3    C5 4300   0.671   4.310  12.080 -0.6064 -0.2082  0.3684
  285TMC3    C6 4301   0.593   4.270  11.975 -0.4135  0.2854  0.4078
  285TMC3     C 4302   0.706   4.008  12.244 -0.2733 -0.1473  0.2305
  285TMC3     O 4303   0.825   4.021  12.274  0.1606 -0.2926 -0.0448
  285TMC3     H 4304   0.491   3.985  12.085  1.8154 -1.5215 -1.5648
  285TMC3    H1 4305   0.767   4.256  12.265 -0.9521  2.6837 -0.1797
  285TMC3    H2 4306   0.571   4.334  11.890  0.9408  0.6066  0.2938
  285TMC3    C7 4307   0.742   4.434  12.055 -0.2242  0.2019 -0.3321
  285TMC3    C8 4308   0.477   4.089  11.858 -0.0096  0.2249  0.2893
  285TMC3    O1 4309   0.762   4.460  11.936 -0.1355 -0.2301 -0.3816
  285TMC3    O2 4310   0.513   4.127  11.746 -0.7035 -0.3025  0.2696
  286MPD2     C 4311   0.979   3.101   1.964 -0.7405  0.2122  0.1335
  286MPD2    C1 4312   0.977   3.161   1.839  0.3031 -0.0523 -0.0857
  286MPD2    C2 4313   1.063   3.117   1.740 -0.5053  0.2133  0.5220
  286MPD2    C3 4314   1.152   3.015   1.769 -0.9690  0.1620 -0.2494
  286MPD2    C4 4315   1.159   2.957   1.899  0.0265  0.2996 -0.0072
  286MPD2    C5 4316   1.071   2.998   1.994 -0.0963 -0.4242 -0.3462
  286MPD2     H 4317   1.062   3.169   1.645 -1.3362  2.9011  2.0000
  286MPD2    H1 4318   1.235   2.882   1.920  1.4604  1.9388  0.5901
  286MPD2    H2 4319   0.912   3.140   2.040 -0.8817  2.1685 -0.9877
  286MPD2    H3 4320   1.077   2.956   2.094 -0.5397  3.1673  1.1740
  286MPD2     N 4321   1.238   2.967   1.664  0.2580  0.2629 -0.0052
  286MPD2    H5 4322   1.327   2.921   1.679  0.0195 -1.1527 -2.9894
  286MPD2    N1 4323   0.889   3.267   1.806 -0.2568  0.8904 -0.2097
  286MPD2    H7 4324   0.895   3.307   1.713 -1.2579  1.1706 -0.1546
  287TMC3    C1 4325   1.329   2.944   1.440 -0.1268 -0.2840 -1.1771
  287TMC3    C2 4326   1.306   2.921   1.308 -0.4770  0.2143 -0.4405
  287TMC3    C3 4327   1.413   2.906   1.226 -0.2591  0.4356  0.4656
  287TMC3    C4 4328   1.454   2.947   1.488 -0.2794 -0.0099 -0.0901
  287TMC3    C5 4329   1.555   2.920   1.406 -0.4617  0.2798  0.6924
  287TMC3    C6 4330   1.541   2.901   1.274  0.2999  0.1864  0.3641
  287TMC3     C 4331   1.226   2.999   1.526  0.2256 -0.4146 -0.2852
  287TMC3     O 4332   1.122   3.030   1.470  0.0488  0.7734  0.3799
  287TMC3     H 4333   1.203   2.929   1.277 -0.8450  1.5982  1.0993
  287TMC3    H1 4334   1.472   2.958   1.595 -0.7816  0.2601 -0.0365
  287TMC3    H2 4335   1.627   2.904   1.209 -2.7681 -0.9807 -3.7316
  287TMC3    C7 4336   1.689   2.914   1.471 -0.7564  0.2331  0.0365
  287TMC3    C8 4337   1.389   2.872   1.092  0.1894 -0.0344  0.7049
  287TMC3    O1 4338   1.698   2.946   1.590 -0.2965 -0.0162 -0.1560
  287TMC3    O2 4339   1.281   2.823   1.071  0.3430  0.7270  0.0351
  288TMC3    C1 4340   2.082   2.688  14.586 -0.5997  0.2289 -0.6865
  288TMC3    C2 4341   2.043   2.634  14.706 -0.0010  0.3327  0.3838
  288TMC3    C3 4342   2.080   2.704  14.817 -0.0295  0.2388  0.4618
  288TMC3    C4 4343   2.160   2.800  14.578  0.1500 -0.2056 -0.0147
  288TMC3    C5 4344   2.188   2.869  14.686 -0.3181  0.3539  1.0065
  288TMC3    C6 4345   2.133   2.831  14.805  0.4431 -0.4418  0.1477
  288TMC3     C 4346   2.032   2.623  14.470 -0.1201  0.2785  0.3981
  288TMC3     O 4347   1.992   2.509  14.493 -0.5146 -0.2547  0.0368
  288TMC3     H 4348   1.983   2.545  14.715 -0.0140  0.3468  0.4369
  288TMC3    H1 4349   2.197   2.825  14.480  0.6610  0.0432  0.2441
  288TMC3    H2 4350   2.149   2.883  14.899  2.6002 -0.9670  0.0610
  288TMC3    C7 4351   2.255   2.997  14.679  0.6768 -0.0342  0.1862
  288TMC3    C8 4352   2.067   2.650  14.951 -0.6036  0.5266 -0.2350
  288TMC3    O1 4353   2.253   3.051  14.790 -0.1438  0.0725 -0.1399
  288TMC3    O2 4354   2.120   2.709  15.044 -0.1186 -0.3610 -0.4759
  289MPD2     C 4355   2.394   1.842  14.763  0.3127  0.3709 -0.0160
  289MPD2    C1 4356   2.368   1.936  14.665  0.3473  0.0126 -0.5895
  289MPD2    C2 4357   2.243   1.934  14.611 -0.6303 -0.3601  0.7326
  289MPD2    C3 4358   2.145   1.840  14.653 -0.8847  0.2868  0.0108
  289MPD2    C4 4359   2.174   1.749  14.754 -0.4703 -0.0674 -0.3678
  289MPD2    C5 4360   2.303   1.743  14.795  0.2423 -0.0011 -0.1349
  289MPD2     H 4361   2.218   2.016  14.543 -1.9093  0.6468  2.4105
  289MPD2    H1 4362   2.101   1.678  14.791  0.5704 -1.4056 -0.9081
  289MPD2    H2 4363   2.488   1.847  14.816 -0.2605 -1.1122  1.1653
  289MPD2    H3 4364   2.317   1.663  14.866 -0.1097 -0.3709 -0.4851
  289MPD2     N 4365   2.015   1.830  14.593  0.1600  0.1876 -0.6164
  289MPD2    H5 4366   1.941   1.787  14.648  1.2334 -3.4570 -2.0320
  289MPD2    N1 4367   2.451   2.042  14.641 -0.3703  0.1166  0.2271
  289MPD2    H7 4368   2.422   2.099  14.563 -0.0532 -1.3371 -0.9459
  290TMC3    C1 4369   1.845   1.870  14.437 -0.1464 -0.6877  0.2277
  290TMC3    C2 4370   1.776   1.973  14.385 -0.2247  0.2446 -0.0530
  290TMC3    C3 4371   1.636   1.968  14.381 -0.5163 -0.4682  0.1849
  290TMC3    C4 4372   1.791   1.749  14.469 -0.5655 -0.7120 -0.1742
  290TMC3    C5 4373   1.657   1.747  14.445  0.4914 -0.1642 -0.2456
  290TMC3    C6 4374   1.576   1.849  14.404 -0.7512 -0.0067  0.1403
  290TMC3     C 4375   1.983   1.901  14.478  0.2347  0.2404 -0.1525
  290TMC3     O 4376   2.044   1.979  14.411 -0.3139 -0.6012 -0.0279
  290TMC3     H 4377   1.829   2.063  14.354  1.8010 -0.8118  0.3563
  290TMC3    H1 4378   1.851   1.664  14.499 -0.9354 -0.9653 -0.1554
  290TMC3    H2 4379   1.468   1.841  14.394 -0.5259 -2.4774 -0.2967
  290TMC3    C7 4380   1.595   1.641  14.515 -0.6651  0.5267  0.5295
  290TMC3    C8 4381   1.558   2.081  14.336  0.6900 -0.4011  0.3359
  290TMC3    O1 4382   1.505   1.669  14.591  0.1402 -1.0123  0.2873
  290TMC3    O2 4383   1.455   2.053  14.275  0.0329  0.1000  0.0810
  291MPD2     C 4384   1.591   1.736   0.973 -0.2213 -0.7307  0.2553
  291MPD2    C1 4385   1.622   1.612   0.923  0.9787 -0.0732  0.1935
  291MPD2    C2 4386   1.720   1.608   0.819 -0.3320  0.1071 -1.3886
  291MPD2    C3 4387   1.769   1.721   0.767  0.3086  0.5456 -0.2758
  291MPD2    C4 4388   1.735   1.839   0.813  0.3096 -0.8104 -0.0729
  291MPD2    C5 4389   1.647   1.849   0.913  0.5291 -0.0443  0.7996
  291MPD2     H 4390   1.753   1.511   0.782  1.2700 -0.2198  0.8966
  291MPD2    H1 4391   1.783   1.931   0.783 -0.8842 -1.1814 -3.0766
  291MPD2    H2 4392   1.532   1.753   1.062  1.4584  0.7761  1.0968
  291MPD2    H3 4393   1.642   1.947   0.958  0.9420  1.3806 -2.2604
  291MPD2     N 4394   1.855   1.718   0.656  0.2416 -0.1258  0.0927
  291MPD2    H5 4395   1.870   1.622   0.625  1.0754 -0.2276  0.7998
  291MPD2    N1 4396   1.561   1.489   0.973 -0.0150  0.5733 -0.5231
  291MPD2    H7 4397   1.581   1.403   0.923  1.1828 -0.2309  1.3242
  292TMC3    C1 4398   1.394   1.363   1.064  0.4013 -0.4378  0.1067
  292TMC3    C2 4399   1.267   1.395   1.022 -0.0044 -0.3194  0.1859
  292TMC3    C3 4400   1.206   1.307   0.943 -0.6580 -0.0692 -0.0184
  292TMC3    C4 4401   1.464   1.256   1.014 -0.9302 -0.3948  0.0754
  292TMC3    C5 4402   1.406   1.175   0.922  0.2952  0.0122  0.6934
  292TMC3    C6 4403   1.275   1.197   0.889 -0.8071  0.3050 -0.1862
  292TMC3     C 4404   1.467   1.484   1.078 -0.1514  0.3201  0.7615
  292TMC3     O 4405   1.416   1.575   1.148 -0.0952  0.1905 -0.4023
  292TMC3     H 4406   1.216   1.484   1.058  0.0347  1.1340 -3.3360
  292TMC3    H1 4407   1.565   1.237   1.048  0.1428  2.2633 -1.6120
  292TMC3    H2 4408   1.243   1.124   0.815 -0.6650  1.6107 -1.5184
  292TMC3    C7 4409   1.486   1.101   0.827  0.0003 -0.1954  0.2356
  292TMC3    C8 4410   1.065   1.331   0.911 -0.4285 -0.0326 -0.2555
  292TMC3    O1 4411   1.439   1.084   0.717  0.2948 -0.1077 -0.0656
  292TMC3    O2 4412   1.004   1.423   0.963  0.4413 -0.3182  0.6869
  293MPD2     C 4413   3.002   3.363  12.494 -0.0442  0.5047 -0.1884
  293MPD2    C1 4414   2.956   3.274  12.584 -0.1114  0.2660  0.1037
  293MPD2    C2 4415   3.009   3.269  12.713 -0.5044 -0.2082 -0.5801
  293MPD2    C3 4416   3.114   3.351  12.739 -0.0475  0.3778  0.1913
  293MPD2    C4 4417   3.159   3.440  12.646  0.3426  0.3083  0.0533
  293MPD2    C5 4418   3.097   3.455  12.528 -0.1586  0.4414 -0.3135
  293MPD2     H 4419   2.968   3.196  12.781  0.1973  1.3777  1.5396
  293MPD2    H1 4420   3.235   3.513  12.671  1.0757  0.3917 -2.3689
  293MPD2    H2 4421   2.957   3.380  12.397  1.3445  1.8145 -0.6039
  293MPD2    H3 4422   3.121   3.525  12.449  1.3428  0.1391 -0.1341
  293MPD2     N 4423   3.191   3.330  12.854 -0.7370  0.1485  0.1381
  293MPD2    H5 4424   3.170   3.243  12.903 -0.8952  0.5078  0.7083
  293MPD2    N1 4425   2.866   3.178  12.530 -0.1632 -0.0073 -0.2321
  293MPD2    H7 4426   2.844   3.195  12.433  0.4387  3.0149  0.1767
  294TMC3    C1 4427   2.713   2.996  12.525  0.2709 -0.3398 -0.3824
  294TMC3    C2 4428   2.618   2.914  12.590  0.1488  0.1981  0.4112
  294TMC3    C3 4429   2.559   2.820  12.513 -0.4946  0.2968 -0.2360
  294TMC3    C4 4430   2.746   2.982  12.393 -0.6313 -0.2466 -0.0448
  294TMC3    C5 4431   2.673   2.892  12.316  0.1060 -0.3226 -0.2735
  294TMC3    C6 4432   2.588   2.809  12.378  0.1535  0.1045 -0.2293
  294TMC3     C 4433   2.805   3.077  12.607 -1.0762  0.2949 -0.1928
  294TMC3     O 4434   2.800   3.060  12.726 -0.1008 -0.4198 -0.9171
  294TMC3     H 4435   2.597   2.920  12.696  1.9483 -1.3822  0.8364
  294TMC3    H1 4436   2.834   3.021  12.342 -0.7610 -0.0950 -0.1494
  294TMC3    H2 4437   2.529   2.745  12.315  0.9152 -0.1215 -0.7153
  294TMC3    C7 4438   2.736   2.819  12.200 -0.2741  0.0157 -0.2813
  294TMC3    C8 4439   2.479   2.728  12.587  0.3715 -0.6849 -0.4943
  294TMC3    O1 4440   2.711   2.699  12.197  0.1106 -0.3416 -0.0619
  294TMC3    O2 4441   2.417   2.772  12.679 -0.2174 -0.3143 -0.6629
  295MPD2     C 4442   3.581   2.132   0.345  0.0898  0.2336  0.3474
  295MPD2    C1 4443   3.643   2.256   0.335 -1.2111  0.9908  0.1221
  295MPD2    C2 4444   3.579   2.363   0.392  0.1878 -0.5601  0.2280
  295MPD2    C3 4445   3.465   2.344   0.465  0.3768  0.4211  0.0809
  295MPD2    C4 4446   3.422   2.216   0.491  0.1550 -0.1057 -0.4431
  295MPD2    C5 4447   3.472   2.103   0.430 -0.2489  0.4272 -0.1623
  295MPD2     H 4448   3.624   2.460   0.371  4.0219 -1.9953  1.8203
  295MPD2    H1 4449   3.328   2.206   0.544  0.3712 -2.1209 -0.4193
  295MPD2    H2 4450   3.625   2.042   0.303 -1.2287  0.0045 -0.5459
  295MPD2    H3 4451   3.413   2.014   0.445 -0.4982  0.7769  0.9096
  295MPD2     N 4452   3.395   2.447   0.528 -0.0874 -0.0551  0.7004
  295MPD2    H5 4453   3.335   2.425   0.606 -1.1475 -0.2131 -0.1632
  295MPD2    N1 4454   3.767   2.281   0.261 -0.4001 -0.6998 -0.5681
  295MPD2    H7 4455   3.800   2.374   0.285 -1.4698 -0.5625  0.3992
  296TMC3    C1 4456   3.392   2.660   0.631  0.3298  0.7703 -0.4264
  296TMC3    C2 4457   3.375   2.795   0.613  0.0328 -0.3390 -0.7044
  296TMC3    C3 4458   3.362   2.877   0.719 -0.4873  0.6909 -0.3816
  296TMC3    C4 4459   3.387   2.605   0.758  0.2399  0.1881  0.2772
  296TMC3    C5 4460   3.388   2.695   0.864 -0.5655 -0.2162 -0.1137
  296TMC3    C6 4461   3.377   2.826   0.844 -0.5212  0.0434  0.1839
  296TMC3     C 4462   3.429   2.578   0.515 -0.5474 -0.0862 -0.0403
  296TMC3     O 4463   3.483   2.637   0.425  0.7839  0.4527  0.0372
  296TMC3     H 4464   3.388   2.838   0.514  1.2091  1.3709  0.1915
  296TMC3    H1 4465   3.424   2.504   0.775  0.6484  0.3178  0.1614
  296TMC3    H2 4466   3.358   2.893   0.927  0.4345  1.7806 -1.0120
  296TMC3    C7 4467   3.360   2.649   0.998 -0.1280 -0.1307 -0.4736
  296TMC3    C8 4468   3.386   3.019   0.701  0.0539 -0.7782 -0.2305
  296TMC3    O1 4469   3.349   2.730   1.092  0.7933  0.1678 -0.2370
  296TMC3    O2 4470   3.331   3.067   0.602  0.8201  0.0354  1.0781
  297MPD2     C 4471   1.293   4.088  16.539  0.0955  0.7671  0.0402
  297MPD2    C1 4472   1.318   4.130  16.404  0.4535  0.3502 -0.5963
  297MPD2    C2 4473   1.439   4.174  16.365  0.6976  0.1893 -0.1682
  297MPD2    C3 4474   1.537   4.178  16.460 -0.0034  0.4276  0.3434
  297MPD2    C4 4475   1.523   4.113  16.584 -0.2591 -0.7676 -0.3101
  297MPD2    C5 4476   1.396   4.077  16.622 -0.1975 -0.2733  0.0612
  297MPD2     H 4477   1.454   4.218  16.267 -1.7058 -3.0121 -1.9766
  297MPD2    H1 4478   1.606   4.098  16.653 -0.1133 -0.8271 -0.4965
  297MPD2    H2 4479   1.191   4.070  16.573 -0.7578  2.1454 -1.7689
  297MPD2    H3 4480   1.378   4.030  16.718  0.2363 -0.4988  0.0343
  297MPD2     N 4481   1.657   4.250  16.417 -0.6128  0.1049 -0.2715
  297MPD2    H5 4482   1.660   4.292  16.324  0.3484 -0.9009 -0.6867
  297MPD2    N1 4483   1.225   4.120  16.295  0.5116  0.5721 -0.0478
  297MPD2    H7 4484   1.256   4.129  16.198  2.0874  0.3495  0.4330
  298TMC3    C1 4485   1.015   4.128  16.187  0.1843  0.4100 -0.1610
  298TMC3    C2 4486   1.085   4.168  16.073  0.4172  0.3057  0.6398
  298TMC3    C3 4487   1.011   4.230  15.976  0.5191 -0.4521  0.3006
  298TMC3    C4 4488   0.877   4.139  16.206 -0.0446  0.1904  0.4153
  298TMC3    C5 4489   0.812   4.203  16.106  0.2567  0.1574 -0.0737
  298TMC3    C6 4490   0.876   4.259  15.993  0.3476  0.1092  0.1916
  298TMC3     C 4491   1.089   4.089  16.308 -0.3698  0.2692  0.3252
  298TMC3     O 4492   1.017   4.062  16.407  0.3702 -0.6040  0.4891
  298TMC3     H 4493   1.193   4.162  16.071  0.4453  0.5141  1.6660
  298TMC3    H1 4494   0.826   4.110  16.297 -0.8379  0.5029  0.0684
  298TMC3    H2 4495   0.823   4.314  15.916 -0.1827 -0.8428 -0.1299
  298TMC3    C7 4496   0.670   4.215  16.138 -0.1238 -0.5333 -0.6859
  298TMC3    C8 4497   1.080   4.270  15.848  0.3778 -0.8799  0.2397
  298TMC3    O1 4498   0.640   4.219  16.260 -0.0038 -0.2137  0.0888
  298TMC3    O2 4499   1.204   4.268  15.851 -0.4285 -0.1280  0.4710
  299MPD2     C 4500   1.509   3.586  10.543  0.2483 -0.7239  0.2949
  299MPD2    C1 4501   1.557   3.708  10.520  1.0071 -0.4317 -0.7745
  299MPD2    C2 4502   1.472   3.811  10.483 -0.0783 -0.0340 -0.4733
  299MPD2    C3 4503   1.347   3.777  10.432  0.0015  0.1156  0.3221
  299MPD2    C4 4504   1.301   3.651  10.447  0.0977  0.3318  0.2480
  299MPD2    C5 4505   1.382   3.557  10.502  0.6805 -0.2165  0.3082
  299MPD2     H 4506   1.509   3.911  10.461  0.3149 -0.1378 -0.2866
  299MPD2    H1 4507   1.200   3.626  10.417  1.0346 -1.0614 -1.7439
  299MPD2    H2 4508   1.568   3.511  10.595  1.8783  2.3670  2.9069
  299MPD2    H3 4509   1.341   3.457  10.500 -1.2744  0.5503  1.8263
  299MPD2     N 4510   1.246   3.870  10.397  0.5329 -0.1075 -0.1240
  299MPD2    H5 4511   1.160   3.826  10.366  1.0205 -1.6075  0.6558
  299MPD2    N1 4512   1.690   3.733  10.568 -0.2279  0.4520 -0.4229
  299MPD2    H7 4513   1.734   3.657  10.620 -1.5870 -1.1833 -1.6482
  300TMC3    C1 4514   1.139   4.080  10.406  0.1796 -0.4599 -0.9180
  300TMC3    C2 4515   1.157   4.204  10.465 -1.2807  0.2253 -0.5387
  300TMC3    C3 4516   1.061   4.255  10.543 -0.4276 -0.2111  0.0060
  300TMC3    C4 4517   1.027   4.004  10.434  0.1129  0.2387 -0.2796
  300TMC3    C5 4518   0.924   4.053  10.518 -0.3233  0.3088 -0.1814
  300TMC3    C6 4519   0.954   4.177  10.568  0.3160 -0.0047  0.3450
  300TMC3     C 4520   1.263   4.008  10.398  0.4358 -0.7356 -0.3358
  300TMC3     O 4521   1.361   4.076  10.420  0.4724  0.3283 -0.3282
  300TMC3     H 4522   1.246   4.264  10.450 -2.3408  1.9970  0.2788
  300TMC3    H1 4523   1.016   3.913  10.377 -1.1735 -1.8018  3.2365
  300TMC3    H2 4524   0.879   4.209  10.638 -0.7501  0.3238 -0.9598
  300TMC3    C7 4525   0.895   3.964  10.627 -0.6355 -0.1146 -0.1392
  300TMC3    C8 4526   1.111   4.315  10.667 -0.3559 -0.1690  0.8601
  300TMC3    O1 4527   0.905   4.006  10.741 -0.2207 -0.0591  0.1661
  300TMC3    O2 4528   1.097   4.237  10.761  0.1429  0.4213  0.5171
  301MPD2     C 4529   4.636   0.315   1.602 -0.3925 -0.1319  0.5487
  301MPD2    C1 4530   4.602   0.322   1.477  0.7903 -0.2709 -0.9297
  301MPD2    C2 4531   4.635   0.220   1.395 -0.4276  0.4675  0.0515
  301MPD2    C3 4532   4.697   0.108   1.440 -0.3335  0.7026 -0.1601
  301MPD2    C4 4533   4.714   0.091   1.577  0.1913  0.0955 -0.4279
  301MPD2    C5 4534   4.688   0.202   1.659 -0.2861  0.1152  0.0350
  301MPD2     H 4535   4.602   0.217   1.292 -0.8702 -1.8018  0.2752
  301MPD2    H1 4536   0.037   4.724   1.611  0.0276  0.5832  1.1205
  301MPD2    H2 4537   4.638   0.401   1.668  0.4068  0.4196 -0.1857
  301MPD2    H3 4538   4.705   0.192   1.765  2.5889  1.2994 -0.2903
  301MPD2     N 4539   0.004   4.718   1.364 -0.4249  0.0891 -0.0252
  301MPD2    H5 4540   0.065   4.647   1.404  0.8998  0.9413 -0.5366
  301MPD2    N1 4541   4.529   0.436   1.425  0.0593  1.1754 -0.0989
  301MPD2    H7 4542   4.528   0.439   1.323 -0.3622 -0.5203 -0.1478
  302TMC3    C1 4543   4.716   4.576   1.164 -0.5519  0.3703  0.3614
  302TMC3    C2 4544   0.023   4.468   1.236  0.8432 -0.0397  0.9456
  302TMC3    C3 4545   0.032   4.352   1.170 -0.0522 -0.0789  0.9150
  302TMC3    C4 4546   4.688   4.566   1.033 -0.0908  0.4367 -0.3285
  302TMC3    C5 4547   4.691   4.445   0.965  0.9272  0.3988 -0.7326
  302TMC3    C6 4548   4.722   4.337   1.036 -0.1769 -0.1848 -0.6579
  302TMC3     C 4549   4.681   4.697   1.237  0.4034 -0.2578  0.0640
  302TMC3     O 4550   4.612   0.044   1.165 -0.0233 -0.1224 -0.0903
  302TMC3     H 4551   0.024   4.474   1.344  1.6063  0.6766  0.9064
  302TMC3    H1 4552   4.655   4.654   0.979 -0.1584  0.1844 -0.6999
  302TMC3    H2 4553   4.703   4.235   1.004  0.3764 -0.0327 -1.4891
  302TMC3    C7 4554   4.601   4.415   0.857 -0.3183  0.0935 -0.5867
  302TMC3    C8 4555   0.059   4.227   1.242  0.1376  0.3296  0.0252
  302TMC3    O1 4556   4.611   4.307   0.801 -0.5503 -0.0202  1.1312
  302TMC3    O2 4557   0.003   4.129   1.194 -0.5884  0.5492 -0.1186
  303MPD2     C 4558   4.520   2.842   8.844 -0.5084  0.7801  0.3783
  303MPD2    C1 4559   4.501   2.721   8.913 -0.2729 -0.0730 -0.1456
  303MPD2    C2 4560   4.586   2.666   9.011 -0.2473  0.6288  0.1669
  303MPD2    C3 4561   4.698   2.737   9.037 -0.3422  0.2730 -0.2439
  303MPD2    C4 4562   4.711   2.863   8.985 -0.2136 -0.1439 -0.7089
  303MPD2    C5 4563   4.632   2.915   8.888  0.3316 -0.3580 -0.5859
  303MPD2     H 4564   4.549   2.582   9.070 -0.8496  1.5819  1.1487
  303MPD2    H1 4565   0.075   2.922   9.002 -0.5666  0.3834 -0.6864
  303MPD2    H2 4566   4.455   2.880   8.767  0.1878 -0.0948 -0.6342
  303MPD2    H3 4567   4.659   3.014   8.851  0.1409 -0.0720  0.0340
  303MPD2     N 4568   0.072   2.695   9.134  0.5264 -0.0142  0.7415
  303MPD2    H5 4569   0.138   2.764   9.167 -0.0399 -0.9807  3.9254
  303MPD2    N1 4570   4.381   2.655   8.865  0.5414  0.4195  1.4486
  303MPD2    H7 4571   4.332   2.697   8.787 -1.1096  0.2993  2.4240
  304TMC3    C1 4572   4.176   2.537   8.877 -1.2190  0.2478  0.0452
  304TMC3    C2 4573   4.156   2.534   8.744 -0.7358 -0.5883 -0.2523
  304TMC3    C3 4574   4.071   2.442   8.700 -0.4799  0.0912  0.0325
  304TMC3    C4 4575   4.089   2.481   8.965 -0.3036 -0.3109 -0.4431
  304TMC3    C5 4576   3.984   2.405   8.915  0.0646 -0.9096  0.7379
  304TMC3    C6 4577   3.975   2.388   8.786 -0.0115  0.0898 -0.1462
  304TMC3     C 4578   4.308   2.562   8.932  0.3999  0.3197  0.3495
  304TMC3     O 4579   4.328   2.510   9.042 -0.4643  0.5732  0.0904
  304TMC3     H 4580   4.222   2.568   8.665 -0.1836  1.7909  1.2363
  304TMC3    H1 4581   4.110   2.476   9.072 -4.3217  0.3764  0.3627
  304TMC3    H2 4582   3.905   2.317   8.743  0.7630 -1.0575  0.4937
  304TMC3    C7 4583   3.972   2.277   8.980 -0.4013  0.1871  0.6334
  304TMC3    C8 4584   4.132   2.350   8.605  0.1097 -0.5603  0.1333
  304TMC3    O1 4585   3.982   2.179   8.905  0.5352  0.0911 -0.1503
  304TMC3    O2 4586   4.215   2.401   8.529 -0.1919 -0.4268  0.3796
  305MPD2     C 4587   2.514   0.230  13.870  0.1084  0.2352  0.1236
  305MPD2    C1 4588   2.388   0.248  13.926 -0.3919  0.0362 -0.6862
  305MPD2    C2 4589   2.278   0.237  13.842  0.6832 -0.3941 -0.0813
  305MPD2    C3 4590   2.290   0.222  13.709 -0.2587  0.4251 -0.5130
  305MPD2    C4 4591   2.413   0.197  13.652  0.2650  0.4338 -0.3230
  305MPD2    C5 4592   2.520   0.217  13.731  0.3392 -0.5743 -0.0595
  305MPD2     H 4593   2.177   0.252  13.879 -0.2164 -0.4251 -2.5114
  305MPD2    H1 4594   2.428   0.169  13.548 -1.3601  0.9016 -0.6824
  305MPD2    H2 4595   2.607   0.235  13.926  0.4692  1.3889 -0.5839
  305MPD2    H3 4596   2.616   0.214  13.682  0.8863 -2.2700  1.1065
  305MPD2     N 4597   2.179   0.204  13.619  0.2105 -0.3160 -0.1225
  305MPD2    H5 4598   2.207   0.184  13.523  0.7019  3.4865 -0.7421
  305MPD2    N1 4599   2.388   0.251  14.066 -0.4334 -0.0368  0.4016
  305MPD2    H7 4600   2.478   0.219  14.102  0.0610 -1.0656 -1.7077
  306TMC3    C1 4601   2.286   0.263  14.283  0.1597 -0.5053  0.5177
  306TMC3    C2 4602   2.368   0.165  14.334 -0.3706  0.0218  0.0523
  306TMC3    C3 4603   2.387   0.173  14.472 -0.1389 -0.1443 -0.7638
  306TMC3    C4 4604   2.208   0.349  14.361 -0.2138 -0.0473 -0.0733
  306TMC3    C5 4605   2.229   0.346  14.495  0.7330 -0.2812  0.4422
  306TMC3    C6 4606   2.323   0.270  14.552  0.4584 -0.6733  0.0531
  306TMC3     C 4607   2.269   0.280  14.138  0.9246 -1.1573 -0.1802
  306TMC3     O 4608   2.168   0.334  14.094 -0.3977  0.0182 -0.0834
  306TMC3     H 4609   2.400   0.077  14.279  0.5329  0.1684  0.3482
  306TMC3    H1 4610   2.140   0.425  14.326  1.9431  0.6963 -2.6754
  306TMC3    H2 4611   2.314   0.255  14.659 -1.3606  1.8232  0.2321
  306TMC3    C7 4612   2.159   0.440  14.578 -0.4928  0.0290 -0.2026
  306TMC3    C8 4613   2.494   0.093  14.528  0.1523  0.0130 -0.6200
  306TMC3    O1 4614   2.041   0.460  14.565  0.5396  0.5529  0.0914
  306TMC3    O2 4615   2.562   0.035  14.443  0.0445 -0.3947 -0.4188
  307MPD2     C 4616   0.386   3.041   0.260 -0.1865  0.3267 -0.5357
  307MPD2    C1 4617   0.383   3.178   0.251 -0.3986 -0.0628  0.0635
  307MPD2    C2 4618   0.323   3.239   0.357  0.2036  0.0856 -0.1282
  307MPD2    C3 4619   0.264   3.171   0.465 -0.3223  0.5500  0.2058
  307MPD2    C4 4620   0.286   3.035   0.479 -0.3046  0.1703  0.2076
  307MPD2    C5 4621   0.350   2.979   0.375 -0.2828  0.6224  0.5814
  307MPD2     H 4622   0.311   3.347   0.361 -1.3888 -0.0379 -1.4744
  307MPD2    H1 4623   0.260   2.979   0.568 -0.6198 -0.8106 -0.5078
  307MPD2    H2 4624   0.427   2.979   0.181 -0.8220 -0.9148  0.0971
  307MPD2    H3 4625   0.370   2.873   0.368  1.4384  0.9748  0.0348
  307MPD2     N 4626   0.183   3.246   0.559 -0.4299 -0.8412 -0.0579
  307MPD2    H5 4627   0.158   3.338   0.524  1.8532 -0.9489 -1.9217
  307MPD2    N1 4628   0.418   3.247   0.133 -0.0404 -0.0692 -0.2107
  307MPD2    H7 4629   0.410   3.348   0.129  1.0284 -0.0609 -2.2827
  308TMC3    C1 4630   4.547   3.336   0.822 -0.8227  0.3691 -0.4847
  308TMC3    C2 4631   4.590   3.468   0.844  1.0557 -0.0626 -0.1726
  308TMC3    C3 4632   4.713   3.505   0.794  0.2746  0.9867 -0.0480
  308TMC3    C4 4633   4.638   3.242   0.785 -0.6793 -0.0244 -0.6920
  308TMC3    C5 4634   0.039   3.287   0.741 -0.0540 -0.2334 -0.6081
  308TMC3    C6 4635   0.077   3.417   0.742 -0.5939 -0.1592  0.2297
  308TMC3     C 4636   4.411   3.306   0.780  0.6092  0.3394  0.0512
  308TMC3     O 4637   4.381   3.190   0.768 -0.5624 -0.2823  0.5703
  308TMC3     H 4638   4.525   3.543   0.888  3.0829  1.3751  0.3595
  308TMC3    H1 4639   4.613   3.137   0.776 -0.6305 -0.0632 -0.3852
  308TMC3    H2 4640   0.171   3.455   0.705 -1.3829 -0.2038 -1.8509
  308TMC3    C7 4641   0.107   3.189   0.657 -0.1936  0.3850  0.3019
  308TMC3    C8 4642   0.030   3.637   0.835  0.9598  0.9904  0.6299
  308TMC3    O1 4643   0.092   3.070   0.694 -0.3284 -0.0676  0.0220
  308TMC3    O2 4644   0.027   3.655   0.957  0.1282  0.3144  0.4780
  309MPD2     C 4645   4.064   3.842  17.003  0.0452 -0.5345 -0.0870
  309MPD2    C1 4646   3.982   3.917  16.916 -0.1298 -0.4700 -0.2263
  309MPD2    C2 4647   3.863   3.978  16.968 -0.1768 -0.3483 -0.0010
  309MPD2    C3 4648   3.837   3.961  17.105  0.8865  0.2459  0.4534
  309MPD2    C4 4649   3.927   3.889  17.182  0.5386 -0.0460  0.4570
  309MPD2    C5 4650   4.038   3.833  17.131  0.0117 -0.1315 -0.1856
  309MPD2     H 4651   3.783   4.023  16.910 -0.6731 -1.7240 -0.3846
  309MPD2    H1 4652   3.922   3.886  17.290 -1.2656 -1.4271  0.3302
  309MPD2    H2 4653   4.153   3.791  16.968 -0.8646 -2.1950 -0.0052
  309MPD2    H3 4654   4.108   3.773  17.188 -0.2876  0.4274  0.7775
  309MPD2     N 4655   3.725   4.015  17.171  0.3915  0.0742  0.0710
  309MPD2    H5 4656   3.727   4.023  17.272 -0.8818 -0.4998  0.1401
  309MPD2    N1 4657   4.013   3.933  16.779  0.3235  0.5008  0.2813
  309MPD2    H7 4658   3.941   3.982  16.727  1.7097  2.2456  0.0308
  310TMC3    C1 4659   4.141   3.908  16.572  0.4085  0.2116 -0.0306
  310TMC3    C2 4660   4.040   3.966  16.501 -0.0962  0.1390  0.0204
  310TMC3    C3 4661   4.061   3.971  16.356  0.7659 -0.4734  0.2720
  310TMC3    C4 4662   4.261   3.865  16.516  0.1287  0.4082  0.8941
  310TMC3    C5 4663   4.278   3.887  16.381 -0.0973  0.1384 -0.6106
  310TMC3    C6 4664   4.179   3.932  16.296  0.6148 -0.2222 -0.5419
  310TMC3     C 4665   4.130   3.891  16.720  0.0834  0.1563 -0.5284
  310TMC3     O 4666   4.226   3.838  16.768  0.1898 -0.2106  0.4052
  310TMC3     H 4667   3.962   4.026  16.546  0.1348  0.7878 -0.4364
  310TMC3    H1 4668   4.341   3.827  16.578 -1.2586 -2.3704  1.0077
  310TMC3    H2 4669   4.189   3.935  16.188  1.3203  1.7166 -0.4245
  310TMC3    C7 4670   4.402   3.842  16.329 -0.5066 -0.4321  0.2569
  310TMC3    C8 4671   3.962   4.040  16.273  0.6958  0.1898  0.2400
  310TMC3    O1 4672   4.456   3.751  16.395  0.2841 -0.0386 -0.0667
  310TMC3    O2 4673   3.861   4.048  16.340 -1.1410  0.4657 -0.4949
  311MPD2     C 4674   1.065   0.023  12.696  0.1610  0.3166  0.4177
  311MPD2    C1 4675   1.089   0.073  12.820  0.3211 -0.1353 -0.0525
  311MPD2    C2 4676   0.984   0.080  12.916  0.1677 -0.1844  0.7008
  311MPD2    C3 4677   0.862   0.019  12.882  0.1974  0.3039 -0.6308
  311MPD2    C4 4678   0.850   4.678  12.760  0.5805  0.0042 -0.0102
  311MPD2    C5 4679   0.948   4.683  12.664  0.1301 -0.3776  0.2950
  311MPD2     H 4680   1.004   0.118  13.016 -1.5632  1.3711  0.4500
  311MPD2    H1 4681   0.769   4.617  12.722 -2.2040  2.0561  2.6538
  311MPD2    H2 4682   1.141   0.012  12.620  1.3911  3.1594  1.2698
  311MPD2    H3 4683   0.945   4.634  12.568 -1.0453 -0.5398  0.4210
  311MPD2     N 4684   0.755   0.005  12.970  0.2428  0.5808 -0.0234
  311MPD2    H5 4685   0.790   0.029  13.062  1.5166 -0.0134 -0.3501
  311MPD2    N1 4686   1.225   0.109  12.848 -0.2446  0.0076  0.2901
  311MPD2    H7 4687   1.286   0.070  12.778 -2.4036  2.0017 -2.7094
  312TMC3    C1 4688   0.548   4.666  13.065 -0.3056 -0.5143 -0.2263
  312TMC3    C2 4689   0.411   4.676  13.043 -0.3145 -0.0497  0.0949
  312TMC3    C3 4690   0.328   4.677  13.147 -0.1705  0.8485 -0.3932
  312TMC3    C4 4691   0.600   4.649  13.192  0.1543  0.1131  0.2281
  312TMC3    C5 4692   0.504   4.648  13.292 -0.8914 -0.3674  0.0533
  312TMC3    C6 4693   0.367   4.655  13.270 -0.6831 -0.0428 -0.5017
  312TMC3     C 4694   0.630   4.683  12.947  0.2208 -0.4653  0.6165
  312TMC3     O 4695   0.583   4.646  12.840 -0.0336 -0.0309 -0.5700
  312TMC3     H 4696   0.373   4.694  12.943 -0.0165 -0.1843 -0.0412
  312TMC3    H1 4697   0.703   4.648  13.224  0.0760  1.3185  0.5008
  312TMC3    H2 4698   0.297   4.615  13.343 -2.6126  2.7151 -0.8584
  312TMC3    C7 4699   0.528   4.708  13.419  0.6014  0.6428 -0.2287
  312TMC3    C8 4700   0.186   4.681  13.129 -0.3528 -0.6630  0.4330
  312TMC3    O1 4701   0.619   4.655  13.487  0.0486  0.1374  0.4191
  312TMC3    O2 4702   0.126   4.709  13.231 -0.3475  0.0478  0.5654
  313MPD2     C 4703   0.511   3.374  11.023 -0.4177  0.5161 -0.7502
  313MPD2    C1 4704   0.555   3.394  10.892 -0.0371 -0.2270 -0.0535
  313MPD2    C2 4705   0.638   3.302  10.828 -1.2246 -0.4831 -0.2805
  313MPD2    C3 4706   0.672   3.182  10.883  0.1374  0.2505 -0.2494
  313MPD2    C4 4707   0.628   3.161  11.012  0.8799 -0.4639  0.1754
  313MPD2    C5 4708   0.547   3.253  11.080  0.2230 -1.1375  0.5000
  313MPD2     H 4709   0.686   3.339  10.738 -1.3003  3.2350  1.1992
  313MPD2    H1 4710   0.651   3.070  11.066 -0.3944 -1.0035 -0.1943
  313MPD2    H2 4711   0.452   3.446  11.078 -1.3212 -1.7999  1.3321
  313MPD2    H3 4712   0.516   3.235  11.183  0.8499  0.2838  0.9368
  313MPD2     N 4713   0.764   3.108  10.811 -0.3397 -0.4835  0.1217
  313MPD2    H5 4714   0.801   3.150  10.726  1.9107 -1.3565  0.6784
  313MPD2    N1 4715   0.550   3.521  10.830 -0.1322  0.2199  0.1292
  313MPD2    H7 4716   0.594   3.527  10.738  1.5256  2.5401  1.0885
  314TMC3    C1 4717   0.530   3.747  10.796 -0.2121 -0.2933 -0.1426
  314TMC3    C2 4718   0.577   3.869  10.839  0.0210  0.6771 -1.3642
  314TMC3    C3 4719   0.569   3.976  10.753 -0.0184  0.0798  0.4844
  314TMC3    C4 4720   0.485   3.725  10.664  0.2807 -0.4817  0.1536
  314TMC3    C5 4721   0.471   3.837  10.587  0.2234 -0.7525  0.3423
  314TMC3    C6 4722   0.525   3.963  10.625 -0.5281 -0.4847 -0.3880
  314TMC3     C 4723   0.512   3.637  10.894  0.6127  0.8030 -0.2513
  314TMC3     O 4724   0.497   3.671  11.012  0.4400 -0.6071  0.0883
  314TMC3     H 4725   0.623   3.889  10.935 -1.3117  2.6913 -1.1600
  314TMC3    H1 4726   0.430   3.635  10.645  0.4468  0.0393 -2.6883
  314TMC3    H2 4727   0.491   4.053  10.576 -1.0229 -1.1159 -1.1921
  314TMC3    C7 4728   0.440   3.816  10.451  0.5687 -0.0509 -0.0265
  314TMC3    C8 4729   0.592   4.114  10.802 -0.5873 -0.1612  0.0500
  314TMC3    O1 4730   0.384   3.718  10.419 -0.2957 -0.3099 -0.0598
  314TMC3    O2 4731   0.642   4.186  10.717  0.7803 -0.3458  0.3406
  315MPD2     C 4732   0.746   3.417  17.410  0.3938 -0.2218 -0.3421
  315MPD2    C1 4733   0.787   3.493  17.521  0.6469 -0.9615 -0.6568
  315MPD2    C2 4734   0.795   3.633  17.502 -0.0746  0.3807  0.1646
  315MPD2    C3 4735   0.762   3.695  17.390 -0.1057  0.2177  0.2504
  315MPD2    C4 4736   0.724   3.617  17.282  0.0757 -0.8035 -0.0413
  315MPD2    C5 4737   0.715   3.476  17.292 -0.3485 -0.3658  0.2732
  315MPD2     H 4738   0.828   3.688  17.589  0.0390  0.1479  0.2686
  315MPD2    H1 4739   0.701   3.654  17.182  0.1201  0.6846  0.4943
  315MPD2    H2 4740   0.762   3.310  17.409  2.4009  0.0864  0.4409
  315MPD2    H3 4741   0.682   3.417  17.208  0.4332  1.1053 -1.0664
  315MPD2     N 4742   0.777   3.834  17.372 -0.0140  0.6080  0.7470
  315MPD2    H5 4743   0.823   3.884  17.447 -0.9924  0.7302  1.2644
  315MPD2    N1 4744   0.809   3.441  17.653 -0.5242  0.1286  0.1435
  315MPD2    H7 4745   0.843   3.504   0.023  0.4270  0.4275 -0.5750
  316TMC3    C1 4746   0.767   4.044  17.290  0.6874  0.0871  0.0451
  316TMC3    C2 4747   0.878   4.081  17.357  0.0455  0.8003 -0.6065
  316TMC3    C3 4748   0.910   4.213  17.357  0.4679  0.0821  0.0080
  316TMC3    C4 4749   0.685   4.135  17.223  0.1512 -0.1165  0.4682
  316TMC3    C5 4750   0.724   4.265  17.212  0.6699 -0.1745 -0.3497
  316TMC3    C6 4751   0.836   4.304  17.286 -0.0413  0.1071 -0.2060
  316TMC3     C 4752   0.729   3.910  17.274  0.2310  0.2655  0.7330
  316TMC3     O 4753   0.663   3.878  17.173 -0.2357 -0.6877 -0.4523
  316TMC3     H 4754   0.954   4.009  17.386  0.4568  1.9930  1.2578
  316TMC3    H1 4755   0.596   4.098  17.173  0.0382 -0.1970  0.7292
  316TMC3    H2 4756   0.856   4.410  17.297  0.8143 -0.0070 -0.6940
  316TMC3    C7 4757   0.618   4.361  17.231  0.4154 -0.4738  0.8077
  316TMC3    C8 4758   1.023   4.268  17.426 -0.2022  0.4712  0.2741
  316TMC3    O1 4759   0.626   4.432  17.330 -0.0481 -0.2599 -0.6973
  316TMC3    O2 4760   1.063   4.379  17.395  0.2331 -0.0530 -0.2957
  317MPD2     C 4761   2.547   1.914  13.084 -0.5398  0.0914 -0.3247
  317MPD2    C1 4762   2.566   1.786  13.043  0.1213 -0.2276 -0.2147
  317MPD2    C2 4763   2.626   1.687  13.122 -1.0061 -0.5310 -0.0556
  317MPD2    C3 4764   2.670   1.711  13.249 -0.3659 -0.0891 -0.8485
  317MPD2    C4 4765   2.672   1.849  13.279  0.0250  1.2844 -0.4592
  317MPD2    C5 4766   2.600   1.939  13.207 -0.0691 -0.3111 -0.0642
  317MPD2     H 4767   2.644   1.586  13.087  0.1826 -0.3810  0.1492
  317MPD2    H1 4768   2.702   1.886  13.377  0.9943 -0.4080 -0.1075
  317MPD2    H2 4769   2.498   1.994  13.029  1.4918  1.3445 -0.3132
  317MPD2    H3 4770   2.588   2.040  13.245  1.7181  0.0454 -0.4414
  317MPD2     N 4771   2.715   1.604  13.327 -0.5573 -0.3976 -0.1486
  317MPD2    H5 4772   2.737   1.523  13.271 -0.7496 -0.0447 -0.7382
  317MPD2    N1 4773   2.509   1.730  12.924  0.3965  0.4591 -0.1212
  317MPD2    H7 4774   2.509   1.631  12.901  0.6588  0.8251 -1.6313
  318TMC3    C1 4775   2.801   1.509  13.512 -0.0179  0.4915 -0.5170
  318TMC3    C2 4776   2.763   1.384  13.458  0.8388 -0.1637 -0.0747
  318TMC3    C3 4777   2.793   1.276  13.536  0.1069 -0.4159 -0.7405
  318TMC3    C4 4778   2.861   1.525  13.630 -0.0165  0.3649  1.0157
  318TMC3    C5 4779   2.913   1.416  13.694 -0.0695 -0.0915 -0.5841
  318TMC3    C6 4780   2.866   1.290  13.658 -0.2604  0.0967 -0.0021
  318TMC3     C 4781   2.754   1.628  13.452  1.1640  0.4187 -0.4234
  318TMC3     O 4782   2.724   1.720  13.526  0.0098 -0.1829  0.4171
  318TMC3     H 4783   2.708   1.369  13.366 -0.8898  0.1959  0.9147
  318TMC3    H1 4784   2.883   1.625  13.665  3.7139 -0.1794  0.1962
  318TMC3    H2 4785   2.904   1.201  13.707 -0.5985 -0.3607 -0.5745
  318TMC3    C7 4786   2.994   1.444  13.815  0.2974  0.9848 -0.3417
  318TMC3    C8 4787   2.715   1.149  13.528  0.4447  0.5234  0.8554
  318TMC3    O1 4788   2.978   1.551  13.873  0.2423  0.4119  0.4793
  318TMC3    O2 4789   2.760   1.056  13.586 -0.3738  0.4156  0.1997
  319MPD2     C 4790   3.504   3.144  16.132  0.5521  0.4038  0.5522
  319MPD2    C1 4791   3.406   3.133  16.231  0.5692 -0.4864 -1.0648
  319MPD2    C2 4792   3.281   3.084  16.210  0.3200 -0.6240  1.2026
  319MPD2    C3 4793   3.245   3.046  16.084 -0.4969  0.1449 -0.1495
  319MPD2    C4 4794   3.340   3.068  15.981  0.1060 -0.4548 -0.3488
  319MPD2    C5 4795   3.471   3.093  16.006  0.9725 -0.8584 -0.3636
  319MPD2     H 4796   3.212   3.080  16.293  0.8889 -0.3786  1.6878
  319MPD2    H1 4797   3.308   3.038  15.882 -0.4082  1.1023 -0.6551
  319MPD2    H2 4798   3.604   3.175  16.158  1.3460 -0.2562 -1.7444
  319MPD2    H3 4799   3.536   3.097  15.920  0.6685 -2.2799 -0.6672
  319MPD2     N 4800   3.118   2.987  16.057  0.1395 -0.0462 -0.0132
  319MPD2    H5 4801   3.091   2.964  15.962 -0.2177 -1.2471  0.3839
  319MPD2    N1 4802   3.427   3.169  16.370 -0.5907 -0.0226  1.0899
  319MPD2    H7 4803   3.354   3.143  16.437 -2.8072  2.4772 -0.3335
  320TMC3    C1 4804   2.908   2.890  16.114 -0.2017  0.3230  0.4506
  320TMC3    C2 4805   2.851   2.963  16.015  0.2789 -0.2776 -0.4856
  320TMC3    C3 4806   2.717   2.945  15.995  0.4344 -0.5136  0.3646
  320TMC3    C4 4807   2.836   2.808  16.200 -0.6003 -0.6478  0.7242
  320TMC3    C5 4808   2.703   2.786  16.168 -0.1599  0.4644  0.2702
  320TMC3    C6 4809   2.639   2.857  16.071  0.0284  0.6790 -0.1522
  320TMC3     C 4810   3.044   2.929  16.156 -0.9575 -0.3306 -0.3545
  320TMC3     O 4811   3.063   2.905  16.276 -0.0060  0.5784 -0.2519
  320TMC3     H 4812   2.907   3.035  15.957  2.5538  0.2775  2.3729
  320TMC3    H1 4813   2.876   2.756  16.286  0.5482  0.1930  0.6999
  320TMC3    H2 4814   2.532   2.840  16.066  0.4606 -2.2918  0.3959
  320TMC3    C7 4815   2.656   2.651  16.193  0.2056  0.0998 -0.5870
  320TMC3    C8 4816   2.654   3.048  15.911  0.2318 -0.4157 -0.5317
  320TMC3    O1 4817   2.592   2.600  16.100 -0.3774 -0.0120 -0.1040
  320TMC3    O2 4818   2.720   3.147  15.874 -0.3995  0.0677  0.1792
  321TMC3    C1 4819   3.528   3.276  16.551  0.5091 -0.3153 -0.6249
  321TMC3    C2 4820   3.437   3.209  16.627  0.1502 -0.5323  0.3242
  321TMC3    C3 4821   3.407   3.251  16.755 -0.7093 -0.0789 -0.5010
  321TMC3    C4 4822   3.608   3.380  16.600  0.1854 -0.2530  0.4972
  321TMC3    C5 4823   3.577   3.425  16.726  0.1398 -0.0107 -0.0677
  321TMC3    C6 4824   3.479   3.356  16.806 -0.5039 -0.0919 -0.7331
  321TMC3     C 4825   3.534   3.247  16.413 -0.3632 -0.0031  0.4915
  321TMC3     O 4826   3.628   3.295  16.354  0.1919  0.2267 -0.0061
  321TMC3     H 4827   3.387   3.118  16.594  0.4865 -0.6941  0.2639
  321TMC3    H1 4828   3.681   3.436  16.542 -0.9023  2.2286  1.5250
  321TMC3    H2 4829   3.458   3.373  16.910  1.2992  0.7545 -0.5008
  321TMC3    C7 4830   3.680   3.475  16.806  0.2702 -0.6625  0.3499
  321TMC3    C8 4831   3.397   3.140  16.846 -0.1560 -0.0754  0.6849
  321TMC3    O1 4832   3.794   3.436  16.790  0.1720  0.4289 -0.2274
  321TMC3    O2 4833   3.313   3.052  16.832 -0.6346 -0.0405  0.8490
  322MPD2     C 4834   1.628   4.243  13.779 -0.1854 -0.0828  0.1492
  322MPD2    C1 4835   1.764   4.247  13.739 -0.0593 -0.2018  0.8702
  322MPD2    C2 4836   1.823   4.127  13.702 -0.0716 -0.3533 -0.1963
  322MPD2    C3 4837   1.748   4.010  13.690  0.1613 -0.1602  0.4889
  322MPD2    C4 4838   1.613   4.017  13.721  0.0927  0.5685 -0.3189
  322MPD2    C5 4839   1.559   4.131  13.776 -0.1937  0.3126  0.0693
  322MPD2     H 4840   1.931   4.131  13.689 -0.0692 -0.7142 -0.2985
  322MPD2    H1 4841   1.556   3.928  13.697 -0.1671  0.5817  0.2604
  322MPD2    H2 4842   1.570   4.324  13.822 -2.1988 -1.1245 -0.5688
  322MPD2    H3 4843   1.456   4.138  13.808 -0.0113  1.2949  0.4314
  322MPD2     N 4844   1.832   3.899  13.653 -0.1731  0.2246 -0.5211
  322MPD2    H5 4845   1.933   3.911  13.655  0.1545 -3.0156  1.5671
  322MPD2    N1 4846   1.842   4.366  13.769  0.4236 -0.4988 -0.6119
  322MPD2    H7 4847   1.797   4.437  13.826 -1.3561 -0.9958 -1.4007
  323TMC3    C1 4848   2.041   4.494  13.790  0.2026  0.4212 -0.4630
  323TMC3    C2 4849   2.154   4.553  13.730 -0.1857 -0.3698 -0.0665
  323TMC3    C3 4850   2.233   4.626  13.810  0.5275  0.1031  0.0606
  323TMC3    C4 4851   2.018   4.503  13.927  0.3183 -0.2345  0.7141
  323TMC3    C5 4852   2.103   4.576  14.005  1.0731 -0.4182  0.3913
  323TMC3    C6 4853   2.203   4.653  13.943  0.2013 -0.6585  0.7413
  323TMC3     C 4854   1.973   4.389  13.723  1.0393  0.0035 -0.6282
  323TMC3     O 4855   2.029   4.344  13.624  0.2265 -0.5055  0.0003
  323TMC3     H 4856   2.186   4.530  13.629 -1.0129  1.5965 -0.7732
  323TMC3    H1 4857   1.938   4.444  13.970 -0.9799  1.0068  0.0018
  323TMC3    H2 4858   2.258   4.721  14.006 -1.1288 -0.8086  2.0640
  323TMC3    C7 4859   2.143   4.514  14.131  0.1661  0.0879 -0.4396
  323TMC3    C8 4860   2.373   4.581  13.805 -0.7540 -0.1615  0.0358
  323TMC3    O1 4861   2.056   4.472  14.205  0.0216  0.0325 -0.2610
  323TMC3    O2 4862   2.430   4.574  13.916 -0.0558  0.3148  0.4037
  324MPD2     C 4863   3.805   0.619  14.518 -0.4556  0.2466  0.5762
  324MPD2    C1 4864   3.739   0.743  14.512 -0.0877 -0.2914 -0.1369
  324MPD2    C2 4865   3.632   0.752  14.432 -0.2302 -0.3191  0.3491
  324MPD2    C3 4866   3.562   0.637  14.385  0.4265 -0.6628  0.0467
  324MPD2    C4 4867   3.634   0.519  14.387 -0.1066  0.4290  0.1953
  324MPD2    C5 4868   3.753   0.513  14.456 -0.1600  0.1561 -0.4518
  324MPD2     H 4869   3.584   0.849  14.432 -2.3422 -1.3543 -1.2946
  324MPD2    H1 4870   3.605   0.429  14.333 -0.5002  1.8262 -1.9175
  324MPD2    H2 4871   3.902   0.599  14.561  0.0973  1.6747  0.0035
  324MPD2    H3 4872   3.808   0.422  14.474 -0.2567 -0.0196 -1.0276
  324MPD2     N 4873   3.440   0.637  14.319  0.0415  0.3271 -0.0662
  324MPD2    H5 4874   3.422   0.553  14.264 -2.4368 -0.9722  2.7120
  324MPD2    N1 4875   3.789   0.858  14.577  0.5480  0.4175 -0.2607
  324MPD2    H7 4876   3.743   0.946  14.559  1.3737  1.1145  0.9785
  325TMC3    C1 4877   3.228   0.708  14.240  0.9543  0.2614  0.3372
  325TMC3    C2 4878   3.216   0.584  14.177  0.5503 -0.1940  0.4870
  325TMC3    C3 4879   3.105   0.562  14.099  0.2245 -0.8986 -0.6153
  325TMC3    C4 4880   3.140   0.809  14.216 -0.8496 -0.6329  0.7687
  325TMC3    C5 4881   3.043   0.784  14.124 -0.9330  0.5643 -0.5146
  325TMC3    C6 4882   3.023   0.662  14.065  0.4545  0.0308 -0.5176
  325TMC3     C 4883   3.349   0.743  14.311  0.2766  0.2535  0.7217
  325TMC3     O 4884   3.358   0.857  14.361  0.3426 -0.0417 -0.1836
  325TMC3     H 4885   3.288   0.504  14.193  2.1787  0.6183 -2.9641
  325TMC3    H1 4886   3.157   0.912  14.244  2.7177 -1.0709  0.2412
  325TMC3    H2 4887   2.930   0.648  14.010  0.6266 -0.5631 -0.6605
  325TMC3    C7 4888   2.992   0.892  14.051  0.3209 -0.2927 -0.3942
  325TMC3    C8 4889   3.139   0.460  13.996 -0.5786 -0.0865 -0.4838
  325TMC3    O1 4890   3.004   0.874  13.931 -0.8382 -1.0577  0.0265
  325TMC3    O2 4891   3.252   0.446  13.957 -0.0598 -0.0057  0.5269
  326MPD2     C 4892   0.197   1.454  11.523 -0.1483 -0.6429 -0.1024
  326MPD2    C1 4893   0.189   1.531  11.410 -0.0862 -0.1249  0.3290
  326MPD2    C2 4894   0.293   1.615  11.382  0.0832 -0.3002  0.3995
  326MPD2    C3 4895   0.400   1.626  11.470 -1.2745  0.4309  0.9001
  326MPD2    C4 4896   0.405   1.560  11.589  0.4801 -0.1286 -0.6695
  326MPD2    C5 4897   0.305   1.467  11.608  0.4709 -0.4410 -0.4384
  326MPD2     H 4898   0.284   1.672  11.291  0.6819 -1.0923 -0.1520
  326MPD2    H1 4899   0.492   1.564  11.654 -0.7983 -1.1653  1.1188
  326MPD2    H2 4900   0.119   1.393  11.566 -0.1960 -0.5164 -0.0082
  326MPD2    H3 4901   0.305   1.404  11.697  0.9268 -0.1473 -0.2315
  326MPD2     N 4902   0.515   1.704  11.446 -0.0675 -0.6404  0.3911
  326MPD2    H5 4903   0.590   1.711  11.515  2.0713 -2.9288 -1.6755
  326MPD2    N1 4904   0.082   1.516  11.321  0.0121 -0.1016 -1.1081
  326MPD2    H7 4905   0.076   1.585  11.247 -3.1027 -1.3032 -1.9792
  327TMC3    C1 4906   4.625   1.437  11.219  0.0473 -0.1250 -0.2747
  327TMC3    C2 4907   4.610   1.554  11.150 -0.9569 -0.1927 -0.2061
  327TMC3    C3 4908   4.587   1.551  11.021 -0.6973 -0.3615 -0.3560
  327TMC3    C4 4909   4.628   1.316  11.153 -0.2481 -1.0183 -0.4293
  327TMC3    C5 4910   4.606   1.316  11.016  0.0198 -0.0730 -0.1988
  327TMC3    C6 4911   4.584   1.433  10.954  1.2547 -0.4960 -0.1823
  327TMC3     C 4912   4.702   1.436  11.338 -0.2285  0.2308 -0.6529
  327TMC3     O 4913   4.693   1.337  11.410  0.3263 -0.0933 -0.6314
  327TMC3     H 4914   4.599   1.647  11.205  0.9523 -1.0137  1.5814
  327TMC3    H1 4915   4.648   1.223  11.203 -2.2678 -0.9644  0.4446
  327TMC3    H2 4916   4.559   1.452  10.850  2.7620  0.0969 -0.4345
  327TMC3    C7 4917   4.705   1.238  10.950  0.3928  0.3390 -0.5469
  327TMC3    C8 4918   4.591   1.674  10.945 -0.2138 -0.3924 -0.4469
  327TMC3    O1 4919   4.691   1.204  10.834 -0.2605  0.0252  0.1209
  327TMC3    O2 4920   4.659   1.678  10.841 -0.2515  0.4462 -0.2989
  328MPD2     C 4921   2.756   1.781  17.354 -0.0955  0.1288 -0.6380
  328MPD2    C1 4922   2.654   1.718  17.284  0.3084  1.2497  0.3601
  328MPD2    C2 4923   2.582   1.807  17.204 -0.6324  0.5791  1.2115
  328MPD2    C3 4924   2.587   1.943  17.222  0.2953 -0.6461  0.0362
  328MPD2    C4 4925   2.682   1.999  17.307  0.4486  0.1520  0.1299
  328MPD2    C5 4926   2.777   1.914  17.361  0.3604 -0.2205  0.3418
  328MPD2     H 4927   2.524   1.758  17.127  3.4397 -0.8172 -0.9418
  328MPD2    H1 4928   2.693   2.105  17.322 -0.3363 -0.1774  3.0632
  328MPD2    H2 4929   2.833   1.720  17.399 -0.8913 -1.6565 -1.6716
  328MPD2    H3 4930   2.868   1.951  17.408 -1.1956  1.8430  1.7418
  328MPD2     N 4931   2.518   2.037  17.144  0.1309  0.2526  0.3504
  328MPD2    H5 4932   2.542   2.136  17.147  2.4565 -0.3370  0.5284
  328MPD2    N1 4933   2.663   1.581  17.275  0.1506 -0.4779 -0.0563
  328MPD2    H7 4934   2.725   1.537  17.342  0.2874 -0.4209 -0.1462
  329TMC3    C1 4935   2.626   1.360  17.213  0.0592 -0.7028  0.2079
  329TMC3    C2 4936   2.603   1.335  17.348 -0.1672  0.6146  0.2277
  329TMC3    C3 4937   2.589   1.205  17.378 -0.4559 -1.1770 -0.8055
  329TMC3    C4 4938   2.641   1.262  17.121 -0.0395 -0.9377 -0.0224
  329TMC3    C5 4939   2.648   1.136  17.169  1.0224 -0.5294  0.2734
  329TMC3    C6 4940   2.624   1.102  17.297 -0.5048  0.8935 -0.2396
  329TMC3     C 4941   2.609   1.500  17.177  0.2238  0.5292  0.1579
  329TMC3     O 4942   2.545   1.526  17.073 -0.4639  0.7125  0.2212
  329TMC3     H 4943   2.581   1.406  17.426  0.2111  1.3045 -0.2913
  329TMC3    H1 4944   2.647   1.291  17.017 -1.9894 -0.6631 -0.0655
  329TMC3    H2 4945   2.597   1.001  17.326 -1.3436  0.7164 -1.6610
  329TMC3    C7 4946   2.677   1.034  17.073  0.2044  0.2878 -0.0329
  329TMC3    C8 4947   2.524   1.170  17.491 -0.2243 -0.7098  0.2715
  329TMC3    O1 4948   2.624   0.930  17.100  0.3159  0.7007 -0.8615
  329TMC3    O2 4949   2.546   1.056  17.541  0.0078  0.4092 -0.2958
  330TMC3    C1 4950   0.290   1.098   9.678 -0.4907  0.4793 -0.2106
  330TMC3    C2 4951   0.246   1.034   9.573  0.9418  0.3752 -0.6127
  330TMC3    C3 4952   0.306   0.915   9.538 -0.4803 -0.4134  0.6568
  330TMC3    C4 4953   0.398   1.052   9.754 -0.5908 -0.3948 -0.1023
  330TMC3    C5 4954   0.458   0.934   9.714 -0.1242 -0.1781 -0.2551
  330TMC3    C6 4955   0.414   0.865   9.606 -0.4756 -0.3342  0.7104
  330TMC3     C 4956   0.214   1.216   9.725  0.5254 -0.0183  0.2016
  330TMC3     O 4957   0.262   1.277   9.818 -0.2460 -0.6028  0.1265
  330TMC3     H 4958   0.167   1.079   9.515  1.1524  0.5510 -0.7644
  330TMC3    H1 4959   0.426   1.110   9.842 -2.6616  0.3039  0.1083
  330TMC3    H2 4960   0.474   0.786   9.562  1.4030  0.7056  1.3882
  330TMC3    C7 4961   0.562   0.885   9.802 -0.2606 -0.5705  0.5592
  330TMC3    C8 4962   0.266   0.854   9.415 -0.1204 -0.1268  0.6921
  330TMC3    O1 4963   0.618   0.955   9.890 -0.2246 -0.6601 -0.3869
  330TMC3    O2 4964   0.201   0.916   9.337 -0.1143 -0.1798  0.4573
  331MPD2     C 4965   2.969   0.120  13.114 -0.7626  0.1879  0.4168
  331MPD2    C1 4966   3.011   0.159  12.989  0.7514  0.0833 -0.1048
  331MPD2    C2 4967   3.044   0.072  12.893 -0.4315 -0.3922 -0.0515
  331MPD2    C3 4968   3.039   4.660  12.918  0.1463 -0.1372 -0.1994
  331MPD2    C4 4969   3.003   4.620  13.049 -0.1813 -0.0372  0.0545
  331MPD2    C5 4970   2.961   4.711  13.140  0.0566  0.1620  0.5143
  331MPD2     H 4971   3.081   0.111  12.799 -2.7628 -0.0885 -0.8674
  331MPD2    H1 4972   2.995   4.518  13.084  0.1073 -0.1307 -0.1595
  331MPD2    H2 4973   2.948   0.195  13.190 -0.8672  0.0392  0.5354
  331MPD2    H3 4974   2.922   4.694  13.239  1.9972  0.5956  1.3371
  331MPD2     N 4975   3.078   4.563  12.822 -0.3647  0.6003 -0.4893
  331MPD2    H5 4976   3.080   4.465  12.846  1.5223  0.8301  0.2443
  331MPD2    N1 4977   3.048   0.293  12.972  0.1466 -0.6966 -0.2545
  331MPD2    H7 4978   3.067   0.349  13.055 -1.7018 -0.1346 -0.2025
  332TMC3    C1 4979   3.138   4.484  12.606  0.0128 -0.3312  0.5005
  332TMC3    C2 4980   3.138   4.503  12.470 -0.1960  0.3356  0.1270
  332TMC3    C3 4981   3.227   4.444  12.388  0.0915  0.4685 -0.1842
  332TMC3    C4 4982   3.243   4.421  12.660  0.2814  0.0647 -1.1283
  332TMC3    C5 4983   3.323   4.356  12.576  0.4619 -0.1258  0.5944
  332TMC3    C6 4984   3.325   4.372  12.439 -0.4912  0.2664 -0.4604
  332TMC3     C 4985   3.078   4.594  12.683 -0.0872  0.6898  0.2584
  332TMC3     O 4986   3.031   4.686  12.618 -0.3307  0.0791 -0.0448
  332TMC3     H 4987   3.063   4.563  12.419 -1.3093 -1.1195  0.0638
  332TMC3    H1 4988   3.243   4.401  12.766  0.8868 -2.8461 -1.6944
  332TMC3    H2 4989   3.388   4.308  12.379  1.7614  2.9445 -0.9152
  332TMC3    C7 4990   3.417   4.266  12.631  0.1351  0.4651 -0.0437
  332TMC3    C8 4991   3.233   4.485  12.252  0.1573  1.0828 -0.1780
  332TMC3    O1 4992   3.380   4.201  12.730 -0.0164 -0.1752 -0.2876
  332TMC3    O2 4993   3.131   4.508  12.189 -0.4950  0.2843  0.5245
  333MPD2     C 4994   4.001   4.605  11.365  0.4749  0.6492  0.6647
  333MPD2    C1 4995   4.040   4.478  11.326  0.1117 -0.4810 -1.2008
  333MPD2    C2 4996   3.965   4.371  11.367  0.4850  0.1363 -0.3674
  333MPD2    C3 4997   3.843   4.390  11.431  0.5714 -0.2966  0.1669
  333MPD2    C4 4998   3.802   4.517  11.467  0.2900 -0.0585 -0.5686
  333MPD2    C5 4999   3.876   4.625  11.421  0.0731 -0.2517 -0.6668
  333MPD2     H 5000   4.007   4.275  11.340 -0.3386 -0.3666  0.1534
  333MPD2    H1 5001   3.706   4.536  11.514  0.6896  0.6992 -0.0574
  333MPD2    H2 5002   4.056   4.690  11.327  2.5769 -1.5442 -1.2270
  333MPD2    H3 5003   3.840   4.724  11.442 -0.8645 -0.3578 -1.7805
  333MPD2     N 5004   3.768   4.273  11.448  0.6473  0.2342  0.0318
  333MPD2    H5 5005   3.803   4.188  11.405 -0.3456  0.2219 -0.7642
  333MPD2    N1 5006   4.163   4.466  11.253  0.0290  0.1788 -0.1670
  333MPD2    H7 5007   4.206   4.554  11.228  0.1446  0.0440 -0.4402
  334TMC3    C1 5008   4.334   4.371  11.128  0.0318  0.2265 -0.9709
  334TMC3    C2 5009   4.363   4.272  11.035  0.2021 -0.0002  0.0430
  334TMC3    C3 5010   4.483   4.291  10.975 -0.8013 -0.4886  0.8564
  334TMC3    C4 5011   4.416   4.474  11.160  0.1332 -0.2752  0.5418
  334TMC3    C5 5012   4.540   4.477  11.103 -0.6463  0.2438  0.1928
  334TMC3    C6 5013   4.578   4.382  11.014  0.6102 -1.2101  0.0258
  334TMC3     C 5014   4.210   4.349  11.194 -0.3431 -0.2873 -0.1254
  334TMC3     O 5015   4.163   4.234  11.199  0.5165 -0.1398 -0.7650
  334TMC3     H 5016   4.301   4.186  11.011  1.3631 -0.5516 -1.0042
  334TMC3    H1 5017   4.396   4.549  11.236 -0.7778  2.8650 -2.7430
  334TMC3    H2 5018   4.675   4.388  10.967  2.1289 -1.0257  3.1901
  334TMC3    C7 5019   4.627   4.571  11.161 -0.3354  0.0608  0.2510
  334TMC3    C8 5020   4.509   4.207  10.855 -0.1507 -0.1210 -0.3311
  334TMC3    O1 5021   4.578   4.676  11.203 -0.8083  0.0659 -0.7371
  334TMC3    O2 5022   4.466   4.095  10.856 -0.0956  0.7359 -0.2830
  335TMC3    C1 5023   3.406   1.986  17.640 -0.0648 -0.4445  0.3435
  335TMC3    C2 5024   3.314   1.951  17.547 -0.2575  0.6899  0.4830
  335TMC3    C3 5025   3.344   1.953  17.411 -0.7495  0.6183  0.8084
  335TMC3    C4 5026   3.535   2.018  17.602  0.0791 -1.1051  1.5094
  335TMC3    C5 5027   3.555   2.034  17.472  0.0845 -0.7793  0.2036
  335TMC3    C6 5028   3.465   1.999  17.372  0.5835  0.7047  0.3334
  335TMC3     C 5029   3.382   1.955   0.078  0.2617 -0.1392  0.0144
  335TMC3     O 5030   3.470   1.923   0.154 -0.1551 -0.4758 -0.4798
  335TMC3     H 5031   3.213   1.919  17.570  0.4049 -0.2364  2.0679
  335TMC3    H1 5032   3.591   2.066  17.681  0.1353  0.5611  0.4506
  335TMC3    H2 5033   3.489   2.021  17.269  0.9044  1.5035  0.5793
  335TMC3    C7 5034   3.671   2.109  17.430 -0.0658 -0.0122 -0.4308
  335TMC3    C8 5035   3.255   1.899  17.312  0.1644  0.5419  0.4394
  335TMC3    O1 5036   3.730   2.079  17.329  0.0163  0.0013  0.0967
  335TMC3    O2 5037   3.298   1.918  17.196  0.0755 -0.2930 -0.5564
  336MPD2     C 5038   3.012   4.330  16.194 -0.3169 -0.3666  0.1183
  336MPD2    C1 5039   3.005   4.253  16.082  0.0688  0.1973 -0.4779
  336MPD2    C2 5040   3.047   4.121  16.080  0.2354 -0.3370  0.2204
  336MPD2    C3 5041   3.092   4.065  16.201 -0.2697  0.1709 -0.0047
  336MPD2    C4 5042   3.105   4.143  16.312 -0.2317  0.1860 -0.0237
  336MPD2    C5 5043   3.062   4.276  16.310 -0.3990  0.0433 -0.4084
  336MPD2     H 5044   3.018   4.062  15.993  0.6072  3.2446 -2.3226
  336MPD2    H1 5045   3.138   4.101  16.407 -0.7318  0.1638  0.1369
  336MPD2    H2 5046   2.968   4.430  16.194 -0.1279 -0.2861 -0.5513
  336MPD2    H3 5047   3.051   4.325  16.406  0.6879  1.1459 -0.8406
  336MPD2     N 5048   3.130   3.926  16.212 -0.5300  0.0265  0.2879
  336MPD2    H5 5049   3.160   3.904  16.306 -0.4345  2.8118  0.9170
  336MPD2    N1 5050   2.951   4.306  15.966  0.0562  0.9257 -0.4987
  336MPD2    H7 5051   2.951   4.240  15.888 -1.9696 -0.4398  0.6569
  337TMC3    C1 5052   2.862   4.453  15.811  0.3959 -0.1519  0.3141
  337TMC3    C2 5053   2.792   4.347  15.760 -0.1713 -0.8071 -0.5260
  337TMC3    C3 5054   2.750   4.371  15.631 -0.9650 -0.9475  0.3521
  337TMC3    C4 5055   2.888   4.570  15.751 -0.0071 -0.4137 -0.2009
  337TMC3    C5 5056   2.845   4.578  15.617  0.7797  0.1806  0.7984
  337TMC3    C6 5057   2.771   4.483  15.558 -0.1761 -0.5111  0.1899
  337TMC3     C 5058   2.908   4.435  15.944  0.0503 -0.6655 -0.0755
  337TMC3     O 5059   2.931   4.537  16.008  0.6061  0.3285 -0.7363
  337TMC3     H 5060   2.774   4.258  15.818 -3.5696 -0.6184 -1.2688
  337TMC3    H1 5061   2.949   4.647  15.798  1.1564 -1.2226 -0.3752
  337TMC3    H2 5062   2.730   4.497  15.458 -0.3273  1.9846  0.5985
  337TMC3    C7 5063   2.877   4.698  15.540  0.3124 -0.2832 -0.3634
  337TMC3    C8 5064   2.670   4.263  15.577 -0.2958  0.2748  0.5163
  337TMC3    O1 5065   2.955   0.048  15.591 -0.1435  0.1369  0.0714
  337TMC3    O2 5066   2.700   4.158  15.631  0.3907 -1.3379 -0.2256
  338MPD2     C 5067   4.178   4.299   1.049 -0.5176 -0.5189 -0.1903
  338MPD2    C1 5068   4.045   4.322   1.023  0.2053  0.3102  0.1215
  338MPD2    C2 5069   3.974   4.427   1.078  0.7138  0.3100 -0.3627
  338MPD2    C3 5070   4.037   4.521   1.164 -0.3351 -0.9405 -0.0357
  338MPD2    C4 5071   4.173   4.507   1.173  0.5898  0.2147  0.0076
  338MPD2    C5 5072   4.242   4.403   1.117  1.0692  0.0557  0.1774
  338MPD2     H 5073   3.869   4.441   1.054  0.6144  1.6550  0.8360
  338MPD2    H1 5074   4.237   4.572   1.230 -0.7513 -0.1615  1.9731
  338MPD2    H2 5075   4.230   4.214   1.005 -0.5118 -0.9931  0.7428
  338MPD2    H3 5076   4.343   4.389   1.153  0.1103 -0.5437  2.6528
  338MPD2     N 5077   3.960   4.627   1.222  0.1211  0.0287 -0.2785
  338MPD2    H5 5078   3.861   4.618   1.201  0.0899  2.8676 -1.2584
  338MPD2    N1 5079   3.973   4.244   0.930 -0.5371 -0.0749 -0.1167
  338MPD2    H7 5080   3.877   4.270   0.913  0.8190  3.9436 -1.6106
  339TMC3    C1 5081   3.890   0.021   1.395 -0.3073  0.4606 -0.0052
  339TMC3    C2 5082   3.885   4.712   1.525 -0.5496 -0.5615  0.2844
  339TMC3    C3 5083   3.766   4.671   1.572  0.6241 -0.0117 -0.2461
  339TMC3    C4 5084   3.777   0.022   1.320 -0.1784  0.6662  0.2997
  339TMC3    C5 5085   3.662   4.707   1.371  0.1274  0.0447  0.7360
  339TMC3    C6 5086   3.648   4.666   1.495 -0.1745 -0.0841  0.2785
  339TMC3     C 5087   4.006   4.707   1.322  0.2389  1.4043  0.1040
  339TMC3     O 5088   4.116   4.725   1.370  0.1362  0.2937  0.8173
  339TMC3     H 5089   3.971   4.705   1.590  0.1825 -3.8154 -1.0464
  339TMC3    H1 5090   3.773   0.061   1.219  1.4688  1.2056  0.4271
  339TMC3    H2 5091   3.549   4.634   1.524 -1.0118  0.5535 -1.9196
  339TMC3    C7 5092   3.609   4.609   1.275 -0.1535  0.4163 -0.4391
  339TMC3    C8 5093   3.776   4.601   1.700 -0.0887 -0.4855 -0.8676
  339TMC3    O1 5094   3.578   4.661   1.168  0.3560  0.1141 -0.1821
  339TMC3    O2 5095   3.878   4.612   1.770  0.0115  0.0523  0.0913
  340MPD2     C 5096   3.362   0.993  10.521  0.1802  0.5309 -0.0074
  340MPD2    C1 5097   3.485   1.023  10.464  0.2387  0.5257 -0.7184
  340MPD2    C2 5098   3.577   1.091  10.547 -0.0634  0.2056 -0.3960
  340MPD2    C3 5099   3.550   1.107  10.687  0.3916 -0.2512  0.1098
  340MPD2    C4 5100   3.426   1.075  10.731 -0.0072  0.1285 -0.1535
  340MPD2    C5 5101   3.329   1.023  10.649 -0.4957  0.8082 -0.7612
  340MPD2     H 5102   3.672   1.118  10.501 -0.3783  1.5686 -0.2670
  340MPD2    H1 5103   3.401   1.093  10.835  0.7185 -0.4887  0.1241
  340MPD2    H2 5104   3.277   0.961  10.462  0.8671 -0.9697 -0.1913
  340MPD2    H3 5105   3.232   0.988  10.683 -0.1223 -0.0001 -0.5452
  340MPD2     N 5106   3.643   1.147  10.783 -0.5270  0.1374 -0.6321
  340MPD2    H5 5107   3.616   1.137  10.881 -1.4488 -1.4127 -1.0434
  340MPD2    N1 5108   3.511   0.991  10.328  0.2199  0.2056 -0.4217
  340MPD2    H7 5109   3.440   0.939  10.278 -0.3990  0.0315  0.6293
  341TMC3    C1 5110   3.624   0.975  10.128 -0.4207 -0.5614  0.4156
  341TMC3    C2 5111   3.504   0.972  10.059  0.2209 -0.6546 -0.3093
  341TMC3    C3 5112   3.509   0.920   9.928  0.3894 -0.2094 -0.7576
  341TMC3    C4 5113   3.738   0.935  10.071 -0.6110 -0.1605 -0.2966
  341TMC3    C5 5114   3.734   0.882   9.945  0.0504  0.3382 -0.2322
  341TMC3    C6 5115   3.622   0.874   9.874 -0.6119 -0.0895 -0.0892
  341TMC3     C 5116   3.632   1.014  10.262 -0.3274 -0.7922 -0.0318
  341TMC3     O 5117   3.737   1.059  10.291  0.7032 -0.6273 -0.1120
  341TMC3     H 5118   3.411   1.010  10.100  1.3966 -2.5791  4.1154
  341TMC3    H1 5119   3.824   0.901  10.128  0.5015 -1.2662 -2.6127
  341TMC3    H2 5120   3.624   0.836   9.773  0.6389  2.3489 -0.9743
  341TMC3    C7 5121   3.852   0.815   9.898 -0.7423  0.0497 -0.5423
  341TMC3    C8 5122   3.381   0.898   9.864  0.0152 -0.1242  0.0957
  341TMC3    O1 5123   3.827   0.711   9.840 -0.4492  0.0816  0.6430
  341TMC3    O2 5124   3.289   0.874   9.941 -0.1013  0.4710 -0.9444
  342MPD2     C 5125   1.704   0.043   0.247  0.4421 -0.2483  0.5643
  342MPD2    C1 5126   1.697   0.089   0.117 -0.9933 -0.1601 -0.2034
  342MPD2    C2 5127   1.714   0.222   0.101  0.2336  0.0079 -0.2015
  342MPD2    C3 5128   1.741   0.308   0.209 -0.7163  0.3695 -0.4813
  342MPD2    C4 5129   1.741   0.257   0.337  0.2386  0.4316 -0.2672
  342MPD2    C5 5130   1.720   0.122   0.357  0.0093 -0.8720 -0.8277
  342MPD2     H 5131   1.721   0.263   0.001  2.0361 -1.1619 -0.5666
  342MPD2    H1 5132   1.745   0.324   0.422 -0.0251  1.9870 -1.4778
  342MPD2    H2 5133   1.690   4.662   0.267 -1.2057 -0.2732 -0.7240
  342MPD2    H3 5134   1.729   0.088   0.460 -0.9445  0.3707 -0.3365
  342MPD2     N 5135   1.750   0.447   0.194  0.0944 -0.0018  0.1108
  342MPD2    H5 5136   1.796   0.500   0.266 -0.4457 -0.4765  0.8059
  342MPD2    N1 5137   1.688   0.007   0.004  0.1075 -0.0145 -0.6914
  342MPD2    H7 5138   1.696   0.047  17.612 -0.4318 -1.2658 -1.2734
  343TMC3    C1 5139   1.645   4.547  17.561  0.1654 -0.0976 -0.5586
  343TMC3    C2 5140   1.750   4.573  17.477  0.1754  0.1274 -0.3205
  343TMC3    C3 5141   1.751   4.503  17.359  0.0781 -0.2786 -0.4667
  343TMC3    C4 5142   1.561   4.445  17.546  0.1335  0.2560  0.0079
  343TMC3    C5 5143   1.561   4.377  17.431 -0.4315 -0.1593 -0.8548
  343TMC3    C6 5144   1.659   4.407  17.335  0.3386  0.5597  0.5060
  343TMC3     C 5145   1.644   4.605  17.700 -0.3384 -0.1301  0.3463
  343TMC3     O 5146   1.582   4.540   0.084  0.2019 -0.2381  0.3094
  343TMC3     H 5147   1.822   4.650  17.503 -0.5877  0.5304  0.5822
  343TMC3    H1 5148   1.490   4.425  17.626 -1.4644  0.7544 -1.2981
  343TMC3    H2 5149   1.651   4.346  17.246  3.3529  2.8919 -1.3311
  343TMC3    C7 5150   1.510   4.245  17.424  1.3197 -0.1499 -1.2261
  343TMC3    C8 5151   1.887   4.476  17.307  0.6465  0.5444 -0.4015
  343TMC3    O1 5152   1.471   4.204  17.313  0.0473 -0.2834  0.0060
  343TMC3    O2 5153   1.973   4.555  17.346 -0.4067  0.3182  0.1214
  344MPD2     C 5154   2.454   3.970  10.366 -0.5500 -0.3802  0.0546
  344MPD2    C1 5155   2.350   4.056  10.389 -0.0234  0.0372  0.6298
  344MPD2    C2 5156   2.356   4.180  10.329  0.4141 -0.3393 -0.5816
  344MPD2    C3 5157   2.477   4.220  10.264 -0.7019  0.6897  0.1784
  344MPD2    C4 5158   2.586   4.133  10.265 -0.6582  0.0505  0.2781
  344MPD2    C5 5159   2.570   4.004  10.309  0.1638 -0.2357 -0.3626
  344MPD2     H 5160   2.282   4.255  10.357  0.8530  0.8052 -2.4346
  344MPD2    H1 5161   2.680   4.161  10.219 -0.4680  0.2425  0.7761
  344MPD2    H2 5162   2.437   3.867  10.395  0.1320  0.1200  2.2690
  344MPD2    H3 5163   2.655   3.937  10.307  1.0307  0.9785 -5.4820
  344MPD2     N 5164   2.500   4.345  10.203 -0.4514 -0.5656 -0.2559
  344MPD2    H5 5165   2.595   4.363  10.172 -0.9372 -0.0152 -1.4152
  344MPD2    N1 5166   2.239   4.026  10.474 -0.3099 -0.0194 -0.1069
  344MPD2    H7 5167   2.154   4.081  10.466 -0.5529 -0.6031 -1.4787
  345TMC3    C1 5168   2.465   4.576  10.150  0.0786  0.4200  0.1960
  345TMC3    C2 5169   2.597   4.609  10.166 -0.2307  0.8060  0.1410
  345TMC3    C3 5170   2.639   0.013  10.160  0.0644 -1.0034  0.2196
  345TMC3    C4 5171   2.382   4.675  10.115  0.3519 -0.1855  0.8216
  345TMC3    C5 5172   2.420   0.077  10.098 -0.1864  0.4897 -0.3923
  345TMC3    C6 5173   2.546   0.113  10.132 -0.4423 -0.6223 -0.4680
  345TMC3     C 5174   2.408   4.443  10.197  0.8638  0.8492 -0.1272
  345TMC3     O 5175   2.290   4.426  10.209  0.2611 -0.1143  0.3436
  345TMC3     H 5176   2.663   4.530  10.199 -0.5273 -0.4947 -2.4309
  345TMC3    H1 5177   2.276   4.654  10.109 -0.0806  2.1385  0.1461
  345TMC3    H2 5178   2.580   0.216  10.129 -1.1165 -0.4359 -1.5113
  345TMC3    C7 5179   2.320   0.181  10.092 -0.0212 -0.1089  0.2482
  345TMC3    C8 5180   2.789   0.026  10.143 -0.0898 -0.3244 -0.6795
  345TMC3    O1 5181   2.358   0.296  10.116 -0.0476 -0.5012 -0.2709
  345TMC3    O2 5182   2.855   4.657  10.180  0.1047 -0.7063  0.1599
  346MPD2     C 5183   1.790   0.921  14.019  0.1242 -0.3801  0.4928
  346MPD2    C1 5184   1.918   0.877  14.024  0.9724  0.4208  0.3983
  346MPD2    C2 5185   2.013   0.937  14.101  0.2447  0.6969  0.0884
  346MPD2    C3 5186   1.981   1.038  14.180 -0.6335  0.4042  0.5071
  346MPD2    C4 5187   1.849   1.084  14.171 -0.7098 -0.3691 -0.4945
  346MPD2    C5 5188   1.753   1.028  14.095  0.4551 -0.2306 -0.1235
  346MPD2     H 5189   2.112   0.895  14.111  0.7222  1.1647 -2.5150
  346MPD2    H1 5190   1.811   1.170  14.226  1.5396 -0.3920  1.0907
  346MPD2    H2 5191   1.720   0.878  13.948  1.2052  1.6815 -1.8237
  346MPD2    H3 5192   1.656   1.074  14.081  0.6540  0.0003 -0.7094
  346MPD2     N 5193   2.075   1.090  14.272 -0.1722 -0.0858 -0.2911
  346MPD2    H5 5194   2.170   1.060  14.255 -0.3025  0.2734 -1.6290
  346MPD2    N1 5195   1.962   0.763  13.951  0.0920 -0.4692  0.7554
  346MPD2    H7 5196   2.059   0.743  13.972  0.6044  1.5522  0.3394
  347TMC3    C1 5197   2.183   1.233  14.427  0.4192  0.3370  0.4188
  347TMC3    C2 5198   2.298   1.239  14.355 -0.0849 -0.2193  0.6968
  347TMC3    C3 5199   2.413   1.283  14.412 -0.5728 -0.1463  0.0026
  347TMC3    C4 5200   2.174   1.275  14.561  0.7095  0.5819 -0.8276
  347TMC3    C5 5201   2.295   1.319  14.610 -0.1064 -0.1165 -0.0241
  347TMC3    C6 5202   2.413   1.324  14.545 -0.6872  0.0761  0.2837
  347TMC3     C 5203   2.055   1.173  14.375  0.4110  0.1538  0.2834
  347TMC3     O 5204   1.953   1.210  14.424  0.1947 -0.3468  0.4282
  347TMC3     H 5205   2.300   1.210  14.250 -0.6134 -0.5015  0.7657
  347TMC3    H1 5206   2.079   1.277  14.613  0.3091  2.7579 -1.6667
  347TMC3    H2 5207   2.511   1.355  14.580 -0.4484  2.6192 -2.7227
  347TMC3    C7 5208   2.291   1.333  14.752 -0.7994  0.2910 -0.4461
  347TMC3    C8 5209   2.542   1.261  14.346  0.5800 -1.0469 -0.4518
  347TMC3    O1 5210   2.212   1.267  14.816 -0.4023  0.4589 -0.3418
  347TMC3    O2 5211   2.634   1.227  14.420  0.2649  0.5292  0.1235
  348MPD2     C 5212   0.993   0.497  11.962  0.3428  0.6341  0.1976
  348MPD2    C1 5213   1.111   0.551  11.935  0.6221 -0.1135  0.0226
  348MPD2    C2 5214   1.148   0.607  11.814 -0.7959 -0.7526  0.2493
  348MPD2    C3 5215   1.049   0.605  11.710 -0.1577  0.1035 -0.0581
  348MPD2    C4 5216   0.921   0.558  11.740 -0.1152 -1.0961 -0.2808
  348MPD2    C5 5217   0.901   0.495  11.863 -0.2768 -0.2170 -0.1292
  348MPD2     H 5218   1.250   0.642  11.805 -0.5019 -1.4783  0.6470
  348MPD2    H1 5219   0.843   0.544  11.666 -1.4601  0.2424  0.8830
  348MPD2    H2 5220   0.976   0.435  12.049 -1.4042 -0.1126 -0.6666
  348MPD2    H3 5221   0.814   0.440  11.895 -1.5212  1.3685 -0.7819
  348MPD2     N 5222   1.071   0.652  11.585  0.5980  0.0981  0.7053
  348MPD2    H5 5223   1.171   0.664  11.570  0.3291  3.0703  1.3077
  348MPD2    N1 5224   1.216   0.542  12.026  0.3055 -0.0914  0.4426
  348MPD2    H7 5225   1.302   0.583  11.993 -0.3131  1.3616  0.6184
  349TMC3    C1 5226   1.341   0.447  12.203  1.1941 -0.6394 -0.2157
  349TMC3    C2 5227   1.337   0.346  12.303 -0.3982  0.3073 -0.6513
  349TMC3    C3 5228   1.444   0.261  12.313 -0.1690  0.9949  0.4427
  349TMC3    C4 5229   1.451   0.460  12.127 -0.3617 -0.0073 -0.2351
  349TMC3    C5 5230   1.559   0.378  12.150  0.3908 -0.2344 -1.1588
  349TMC3    C6 5231   1.559   0.277  12.241 -0.3816 -0.4615  0.6638
  349TMC3     C 5232   1.211   0.490  12.157  0.0946  0.3597 -0.1356
  349TMC3     O 5233   1.120   0.448  12.225  0.1371  0.4530  0.6500
  349TMC3     H 5234   1.251   0.327  12.366 -1.4440 -0.8940 -2.4442
  349TMC3    H1 5235   1.473   0.546  12.065  3.1323 -2.5214 -2.5053
  349TMC3    H2 5236   1.646   0.213  12.254 -0.3017 -0.9596 -2.2439
  349TMC3    C7 5237   1.693   0.416  12.113  0.1247  0.3591 -0.4675
  349TMC3    C8 5238   1.425   0.142  12.384 -0.3009  0.4937  0.2589
  349TMC3    O1 5239   1.775   0.406  12.205  0.2991 -0.3609 -0.6301
  349TMC3    O2 5240   1.351   0.156  12.481  0.1469  0.0944 -0.1768
  350MPD2     C 5241   1.002   3.278  10.117 -0.4647  0.2728  0.1069
  350MPD2    C1 5242   1.024   3.143  10.114  0.2496 -0.6936  0.5800
  350MPD2    C2 5243   1.081   3.083  10.226  0.4277 -0.2146 -0.0832
  350MPD2    C3 5244   1.108   3.153  10.343  0.4689  0.4650  1.2151
  350MPD2    C4 5245   1.092   3.291  10.338  0.1718 -0.1815  0.8005
  350MPD2    C5 5246   1.051   3.352  10.220 -0.0780  0.6935  0.4710
  350MPD2     H 5247   1.096   2.976  10.226  0.5156 -0.2016  0.1691
  350MPD2    H1 5248   1.101   3.347  10.430 -0.8253 -0.5004  1.0802
  350MPD2    H2 5249   0.966   3.330  10.029 -1.1048  0.1948  0.3246
  350MPD2    H3 5250   1.030   3.458  10.212  0.5488  0.8681  1.0623
  350MPD2     N 5251   1.126   3.078  10.465 -0.3426  0.0130  0.4929
  350MPD2    H5 5252   1.110   2.977  10.462 -0.1317 -0.0624  2.1879
  350MPD2    N1 5253   0.986   3.061  10.002  0.1298  0.1480  0.1247
  350MPD2    H7 5254   1.000   2.961   9.997  1.4039  0.2360  2.1595
  351TMC3    C1 5255   0.871   2.985   9.816 -0.1343  0.2197 -0.4115
  351TMC3    C2 5256   0.971   2.909   9.760 -0.2780  0.0627 -0.5524
  351TMC3    C3 5257   0.928   2.801   9.684 -0.2416 -0.5067 -0.8563
  351TMC3    C4 5258   0.739   2.958   9.801  0.1401  0.0215  0.0581
  351TMC3    C5 5259   0.703   2.847   9.730 -0.0685 -0.7113 -0.3996
  351TMC3    C6 5260   0.792   2.768   9.666  0.8707 -0.3008  0.2233
  351TMC3     C 5261   0.908   3.104   9.895 -0.0445 -0.1154 -0.1589
  351TMC3     O 5262   0.841   3.206   9.871 -0.5104  0.0314 -0.1074
  351TMC3     H 5263   1.074   2.926   9.789 -0.8588  3.8483 -0.7011
  351TMC3    H1 5264   0.663   3.013   9.855 -1.2688  0.1587 -2.0666
  351TMC3    H2 5265   0.764   2.686   9.600 -2.6829  1.1896 -0.1638
  351TMC3    C7 5266   0.563   2.844   9.695  0.3502 -0.0914 -0.3713
  351TMC3    C8 5267   1.030   2.717   9.620 -0.5679  0.3255  0.5355
  351TMC3    O1 5268   0.513   2.956   9.698 -0.2165  0.2837 -0.5561
  351TMC3    O2 5269   1.015   2.595   9.611 -0.2571 -0.4622  0.0571
  352MPD2     C 5270   3.739   0.800   1.759  0.2807 -0.7137  0.6706
  352MPD2    C1 5271   3.763   0.882   1.649 -0.7392 -0.4809 -0.4886
  352MPD2    C2 5272   3.887   0.878   1.582 -0.0056  0.1426  0.0456
  352MPD2    C3 5273   3.988   0.803   1.643 -0.0570 -0.2084  0.5663
  352MPD2    C4 5274   3.956   0.735   1.757 -0.0185 -0.8636 -0.5888
  352MPD2    C5 5275   3.836   0.737   1.820 -0.2359  0.4310  0.1505
  352MPD2     H 5276   3.897   0.896   1.476 -0.4123 -1.9438 -0.3582
  352MPD2    H1 5277   4.027   0.667   1.803  0.8726  1.3705  1.3002
  352MPD2    H2 5278   3.639   0.796   1.799 -0.6379  2.1838 -1.3159
  352MPD2    H3 5279   3.825   0.682   1.913 -1.3966  0.8014  0.2421
  352MPD2     N 5280   4.113   0.783   1.581  0.3075  0.8357  0.2960
  352MPD2    H5 5281   4.170   0.707   1.616  0.2363  1.1997  1.2071
  352MPD2    N1 5282   3.654   0.946   1.588 -0.1492 -0.6192 -0.1819
  352MPD2    H7 5283   3.564   0.931   1.632  0.4240  0.7623  1.4461
  353TMC3    C1 5284   4.263   0.812   1.409 -0.4238 -0.3792 -0.4258
  353TMC3    C2 5285   4.345   0.737   1.487 -0.8827  0.3013 -1.1096
  353TMC3    C3 5286   4.408   0.639   1.415 -0.1717  0.1371  0.2748
  353TMC3    C4 5287   4.240   0.804   1.274  0.2227  0.5124  0.2245
  353TMC3    C5 5288   4.289   0.693   1.216  0.2152 -0.3569  0.0086
  353TMC3    C6 5289   4.374   0.610   1.285  0.9944 -0.4664 -0.5925
  353TMC3     C 5290   4.158   0.870   1.485  0.0574 -0.2288  0.3056
  353TMC3     O 5291   4.104   0.969   1.436  0.2273 -0.1855 -0.2475
  353TMC3     H 5292   4.357   0.754   1.593 -1.0850  0.6597 -1.1476
  353TMC3    H1 5293   4.170   0.874   1.230  0.4566 -0.1554 -1.1940
  353TMC3    H2 5294   4.402   0.520   1.232 -1.9792 -0.9252 -1.3867
  353TMC3    C7 5295   4.231   0.640   1.097 -0.1869 -0.6279  0.4150
  353TMC3    C8 5296   4.483   0.543   1.494 -0.6207 -0.2202  0.1470
  353TMC3    O1 5297   4.254   0.520   1.074  0.4032  0.4061 -0.3580
  353TMC3    O2 5298   4.495   0.560   1.615 -0.1264 -0.3115  0.4564
  354TMC3    C1 5299   0.647   1.684  13.465  0.3930 -0.3557 -0.0601
  354TMC3    C2 5300   0.785   1.695  13.480  0.0988 -0.2423 -0.3805
  354TMC3    C3 5301   0.870   1.687  13.371  0.0354 -0.2333  0.7035
  354TMC3    C4 5302   0.591   1.684  13.339  0.2435 -0.1516 -0.1211
  354TMC3    C5 5303   0.673   1.675  13.235  0.4380 -0.5627 -0.0786
  354TMC3    C6 5304   0.809   1.662  13.250  0.3733  0.3773 -0.5346
  354TMC3     C 5305   0.557   1.720  13.568 -0.0563  0.4518  0.1311
  354TMC3     O 5306   0.437   1.714  13.553 -0.2836 -0.0940  0.2301
  354TMC3     H 5307   0.825   1.670  13.578 -1.0246 -0.6135 -0.0163
  354TMC3    H1 5308   0.490   1.718  13.318 -0.2406 -0.1174  2.2717
  354TMC3    H2 5309   0.871   1.623  13.169 -1.2344  2.2694 -2.6736
  354TMC3    C7 5310   0.635   1.732  13.107  0.6141  0.4117 -0.3974
  354TMC3    C8 5311   0.950   1.798  13.354 -0.3404 -0.6027  0.8284
  354TMC3    O1 5312   0.519   1.735  13.065 -0.3662  0.2909  0.8483
  354TMC3    O2 5313   0.993   1.812  13.236 -0.1107  0.4542 -0.0821
  355MPD2     C 5314   0.423   2.460  12.160 -0.0888 -0.4347  0.9108
  355MPD2    C1 5315   0.469   2.527  12.043  0.1716 -0.4558  0.7725
  355MPD2    C2 5316   0.606   2.548  12.033 -0.3081 -0.1561  0.4906
  355MPD2    C3 5317   0.688   2.547  12.142  0.0149  0.6414  0.7427
  355MPD2    C4 5318   0.640   2.488  12.258  0.6338 -0.4559 -0.1139
  355MPD2    C5 5319   0.511   2.437  12.261 -0.5290  0.0967  0.9259
  355MPD2     H 5320   0.657   2.570  11.940 -1.1988  0.7015  0.2106
  355MPD2    H1 5321   0.689   2.487  12.354 -0.8980  1.4175  0.7047
  355MPD2    H2 5322   0.320   2.436  12.184 -1.1352  2.6749 -0.5720
  355MPD2    H3 5323   0.466   2.391  12.349 -0.2001  0.7308  1.4257
  355MPD2     N 5324   0.824   2.600  12.141  0.0256  0.0650  0.3545
  355MPD2    H5 5325   0.862   2.599  12.235 -3.0132  1.0626  1.5840
  355MPD2    N1 5326   0.372   2.555  11.942  0.0086 -0.0907 -0.0513
  355MPD2    H7 5327   0.281   2.510  11.951 -0.4636  0.6502 -1.1259
  356TMC3    C1 5328   0.998   2.765  12.052  0.1291 -0.2080 -0.4378
  356TMC3    C2 5329   1.044   2.842  11.948 -0.6801 -0.5042 -0.3509
  356TMC3    C3 5330   1.110   2.955  11.968  0.4843  0.8530 -0.0361
  356TMC3    C4 5331   1.024   2.798  12.183 -0.1025 -0.3874 -0.7935
  356TMC3    C5 5332   1.093   2.921  12.199 -0.0398 -0.1787  0.3061
  356TMC3    C6 5333   1.133   2.999  12.094 -0.5720  0.4848 -0.1444
  356TMC3     C 5334   0.887   2.666  12.035  0.2935 -0.1140 -0.3182
  356TMC3     O 5335   0.866   2.649  11.917 -0.1131  0.4807 -0.0560
  356TMC3     H 5336   1.013   2.828  11.845 -1.9600  2.4556 -0.3803
  356TMC3    H1 5337   0.989   2.744  12.271 -0.0074 -0.1772 -0.6274
  356TMC3    H2 5338   1.182   3.094  12.112 -2.4634  1.5853 -0.6897
  356TMC3    C7 5339   1.138   2.951  12.339  0.0264  0.5507  0.0067
  356TMC3    C8 5340   1.143   3.041  11.855  0.1677 -0.0144 -0.3868
  356TMC3    O1 5341   1.089   2.880  12.426  0.1139 -0.5417  0.1930
  356TMC3    O2 5342   1.119   2.996  11.745  0.0655 -0.3229  0.0210
  357MPD2     C 5343   0.995   2.666   1.441 -0.3815  0.4975  0.5578
  357MPD2    C1 5344   1.118   2.629   1.481 -0.2244  0.2490  0.2111
  357MPD2    C2 5345   1.142   2.627   1.615  0.7006 -0.1935  0.4319
  357MPD2    C3 5346   1.049   2.653   1.710 -0.8492 -0.6688  0.2076
  357MPD2    C4 5347   0.922   2.685   1.671  0.2666 -0.3121  0.4005
  357MPD2    C5 5348   0.902   2.696   1.536  0.6633  0.3086 -0.3390
  357MPD2     H 5349   1.233   2.579   1.648  1.1577  0.7269  0.4922
  357MPD2    H1 5350   0.839   2.704   1.739 -0.0789 -2.5107  0.5780
  357MPD2    H2 5351   0.961   2.662   1.338  0.6519  2.0190  0.1573
  357MPD2    H3 5352   0.800   2.716   1.504 -0.2874 -1.7488  1.3033
  357MPD2     N 5353   1.063   2.633   1.844  0.3588  0.0015  0.1392
  357MPD2    H5 5354   0.974   2.650   1.890  0.1102  0.0272 -0.3537
  357MPD2    N1 5355   1.203   2.592   1.381  0.0050 -0.0045 -0.0863
  357MPD2    H7 5356   1.165   2.582   1.288  0.4756  2.2394 -0.5203
  358TMC3    C1 5357   1.391   2.520   1.267 -0.1019  0.0821 -0.2388
  358TMC3    C2 5358   1.305   2.461   1.171 -0.1557  0.1773 -0.2362
  358TMC3    C3 5359   1.359   2.427   1.051  0.3527  0.1349 -0.3493
  358TMC3    C4 5360   1.521   2.561   1.242 -0.3429 -0.3861  0.6181
  358TMC3    C5 5361   1.561   2.540   1.115 -0.2891 -0.1570 -0.0552
  358TMC3    C6 5362   1.484   2.474   1.016  0.0701  0.6069 -0.8151
  358TMC3     C 5363   1.334   2.562   1.395 -0.1989 -0.0484 -1.1488
  358TMC3     O 5364   1.424   2.586   1.477  0.2239  0.0793  0.1922
  358TMC3     H 5365   1.201   2.438   1.190 -0.0961  0.4168  0.3753
  358TMC3    H1 5366   1.585   2.613   1.313  0.7341 -0.8612 -0.0204
  358TMC3    H2 5367   1.527   2.448   0.920  0.8763 -0.9184 -0.0520
  358TMC3    C7 5368   1.678   2.618   1.076 -0.2883 -0.2845  0.6528
  358TMC3    C8 5369   1.274   2.403   0.940  0.0604 -0.5385 -0.1048
  358TMC3    O1 5370   1.716   2.701   1.158  0.2542 -0.4100 -0.3606
  358TMC3    O2 5371   1.292   2.485   0.852 -0.0352 -0.1823 -0.0132
  359MPD2     C 5372   1.391   1.291  12.564 -0.3245 -0.4746  0.0154
  359MPD2    C1 5373   1.307   1.279  12.454 -0.1694 -0.7327  0.4385
  359MPD2    C2 5374   1.175   1.260  12.477 -0.6241  0.2935  0.1281
  359MPD2    C3 5375   1.128   1.228  12.603 -0.5745  0.3405 -0.1848
  359MPD2    C4 5376   1.208   1.237  12.714  0.1041  0.5901  0.6492
  359MPD2    C5 5377   1.337   1.272  12.688 -0.2823  0.0744  0.1037
  359MPD2     H 5378   1.105   1.263  12.394 -3.2818  1.0442  2.4012
  359MPD2    H1 5379   1.177   1.218  12.816  1.7517  1.7707  1.3804
  359MPD2    H2 5380   1.499   1.298  12.568 -0.2859 -0.3329 -1.2350
  359MPD2    H3 5381   1.400   1.267  12.777  0.4247  1.0509 -0.3496
  359MPD2     N 5382   0.993   1.192  12.618 -0.5691 -0.8595 -0.2289
  359MPD2    H5 5383   0.963   1.138  12.698 -0.7146 -0.0182  0.2798
  359MPD2    N1 5384   1.341   1.287  12.318  0.6263 -0.2320  0.6338
  359MPD2    H7 5385   1.269   1.251  12.258 -0.1256  0.9671  0.8087
  360TMC3    C1 5386   1.476   1.295  12.125 -0.4625 -0.4906  0.1452
  360TMC3    C2 5387   1.561   1.377  12.063 -0.0023 -0.0594  0.1737
  360TMC3    C3 5388   1.576   1.353  11.928  0.0078 -0.5732 -0.1686
  360TMC3    C4 5389   1.387   1.217  12.055  0.0689 -0.1192  0.4172
  360TMC3    C5 5390   1.400   1.206  11.918 -0.3296 -0.8617  0.8724
  360TMC3    C6 5391   1.505   1.264  11.852 -0.1084 -0.6108  0.5474
  360TMC3     C 5392   1.467   1.315  12.271 -0.3292 -0.6838  0.2046
  360TMC3     O 5393   1.566   1.361  12.329  0.1935  0.7721 -0.2199
  360TMC3     H 5394   1.633   1.434  12.121 -0.0583 -1.2683  1.4295
  360TMC3    H1 5395   1.330   1.149  12.118  0.6694 -1.1112 -0.1013
  360TMC3    H2 5396   1.522   1.252  11.746 -2.1497 -1.4709  0.3260
  360TMC3    C7 5397   1.317   1.111  11.843 -0.0433  0.3706 -1.1961
  360TMC3    C8 5398   1.653   1.452  11.859  0.0653  0.2660 -0.1149
  360TMC3    O1 5399   1.366   1.085  11.735  0.2710  0.5289 -0.0607
  360TMC3    O2 5400   1.641   1.566  11.897  0.1739  0.0849  0.1876
  361MPD2     C 5401   2.203   0.414  16.911  0.1690  0.1089  0.3778
  361MPD2    C1 5402   2.251   0.518  16.986 -0.1147 -0.5007 -0.3716
  361MPD2    C2 5403   2.386   0.539  16.995  0.1373 -0.3106  0.4269
  361MPD2    C3 5404   2.469   0.446  16.935  0.4046  0.9428 -0.2165
  361MPD2    C4 5405   2.419   0.344  16.856  0.1797  0.1418 -0.0528
  361MPD2    C5 5406   2.287   0.329  16.847  0.3039  0.4274 -0.7388
  361MPD2     H 5407   2.425   0.624  17.050 -0.1216 -0.2205  0.4713
  361MPD2    H1 5408   2.485   0.271  16.811 -2.0648 -1.2499 -1.0810
  361MPD2    H2 5409   2.097   0.396  16.898  0.5360  1.1036 -3.9035
  361MPD2    H3 5410   2.239   0.250  16.791 -1.5700  0.3338  1.0033
  361MPD2     N 5411   2.605   0.440  16.970 -0.0585  0.5145 -0.0951
  361MPD2    H5 5412   2.653   0.374  16.909  0.7951  2.5028 -1.5643
  361MPD2    N1 5413   2.168   0.612  17.041  0.4028 -0.4707 -0.0767
  361MPD2    H7 5414   2.212   0.693  17.085  0.8561  0.6775 -2.6768
  362TMC3    C1 5415   1.985   0.710  17.131  0.4660  0.7496 -0.3947
  362TMC3    C2 5416   1.870   0.697  17.205 -0.4509  0.6971 -0.3801
  362TMC3    C3 5417   1.795   0.814  17.228 -1.1542  1.1081 -0.2111
  362TMC3    C4 5418   2.033   0.832  17.088 -0.0549 -0.1212 -0.3716
  362TMC3    C5 5419   1.963   0.947  17.122  0.4986 -0.2207  0.5853
  362TMC3    C6 5420   1.845   0.936  17.185  0.1453  0.4070 -0.0892
  362TMC3     C 5421   2.033   0.592  17.063  0.9838 -0.2900  0.2757
  362TMC3     O 5422   1.964   0.492  17.072 -0.5443  0.0439  0.3899
  362TMC3     H 5423   1.838   0.599  17.238  0.9866  1.1928  2.4873
  362TMC3    H1 5424   2.103   0.838  17.006  0.1868  1.0113 -0.0759
  362TMC3    H2 5425   1.791   1.029  17.199 -0.9645  0.0639 -2.1155
  362TMC3    C7 5426   2.004   1.073  17.071  0.3539 -0.3921  0.8239
  362TMC3    C8 5427   1.696   0.796  17.328 -0.1728  0.2799  0.3459
  362TMC3    O1 5428   1.935   1.171  17.085  0.7933  0.0177  0.0933
  362TMC3    O2 5429   1.684   0.684  17.378 -0.4913 -0.5109  0.1214
  363TMC3    C1 5430   1.682   3.029   9.704  0.6178 -0.4608  0.2693
  363TMC3    C2 5431   1.646   2.924   9.780  0.1448 -0.3331 -0.5420
  363TMC3    C3 5432   1.519   2.900   9.803  0.3081  0.1630  1.0687
  363TMC3    C4 5433   1.591   3.114   9.649 -1.0434 -0.3774 -0.1704
  363TMC3    C5 5434   1.465   3.096   9.687 -0.4752  0.3694  0.1575
  363TMC3    C6 5435   1.421   2.992   9.765 -0.3402 -0.4632 -1.0832
  363TMC3     C 5436   1.812   3.090   9.735  0.2948 -0.9284 -0.0127
  363TMC3     O 5437   1.843   3.179   9.659  0.5723  0.2322 -0.0977
  363TMC3     H 5438   1.722   2.853   9.809 -0.1970 -0.1121  0.9130
  363TMC3    H1 5439   1.620   3.203   9.594  0.2227 -0.1982  0.7910
  363TMC3    H2 5440   1.315   2.979   9.782 -0.3991  1.8982  0.3397
  363TMC3    C7 5441   1.381   3.191   9.631  0.5157 -0.9968 -0.0060
  363TMC3    C8 5442   1.473   2.767   9.838 -0.0884  0.3144  0.5281
  363TMC3    O1 5443   1.398   3.235   9.520 -0.2293 -0.0076 -0.1302
  363TMC3    O2 5444   1.353   2.759   9.872  0.0240  0.2899 -0.5795
  364MPD2     C 5445   4.464   2.169  10.945  0.1668  0.7032  0.2648
  364MPD2    C1 5446   4.562   2.104  10.876  0.1015 -0.1819  0.6726
  364MPD2    C2 5447   4.586   1.968  10.900  0.2941 -0.6901  0.2653
  364MPD2    C3 5448   4.495   1.901  10.984 -0.7348 -0.3947 -0.4911
  364MPD2    C4 5449   4.398   1.971  11.048 -0.2124  0.1025 -0.8352
  364MPD2    C5 5450   4.383   2.103  11.030  0.1215 -0.1943  0.1950
  364MPD2     H 5451   4.675   1.923  10.856  1.0336 -0.4248  1.4904
  364MPD2    H1 5452   4.333   1.913  11.113 -0.3093  1.6946  0.4875
  364MPD2    H2 5453   4.469   2.276  10.964  0.9955  0.5940  0.6376
  364MPD2    H3 5454   4.308   2.160  11.084  0.4088  1.4874 -1.1814
  364MPD2     N 5455   4.495   1.762  11.001  0.2308  0.0548  0.5105
  364MPD2    H5 5456   4.437   1.725  11.076  2.7082 -0.2683  2.2678
  364MPD2    N1 5457   4.645   2.184  10.789 -0.0631 -0.1032  0.2903
  364MPD2    H7 5458   4.643   2.285  10.792  0.2609 -0.0835 -0.1901
  365TMC3    C1 5459   0.102   2.225  10.639 -0.1583 -0.0386  0.3799
  365TMC3    C2 5460   0.160   2.178  10.529  0.0654 -0.1938 -0.4312
  365TMC3    C3 5461   0.273   2.248  10.488 -0.2258 -0.0357  0.9575
  365TMC3    C4 5462   0.142   2.342  10.702  0.2682 -0.1199  0.3871
  365TMC3    C5 5463   0.260   2.402  10.661  0.2113 -0.0696  0.3300
  365TMC3    C6 5464   0.322   2.356  10.547 -0.0162  0.6442  0.2483
  365TMC3     C 5465   0.020   2.128  10.714  0.3833 -0.8062 -1.4992
  365TMC3     O 5466   0.041   2.013  10.683  0.0224 -0.2372 -0.1229
  365TMC3     H 5467   0.123   2.088  10.481 -1.5607  1.0227 -1.4537
  365TMC3    H1 5468   0.083   2.388  10.780  1.2770  1.2366  0.3532
  365TMC3    H2 5469   0.419   2.398  10.525  0.6072 -0.4892  0.8201
  365TMC3    C7 5470   0.344   2.481  10.753 -0.3435 -0.1544  0.2056
  365TMC3    C8 5471   0.329   2.216  10.360  0.0251  0.1154  0.7011
  365TMC3    O1 5472   0.460   2.499  10.719 -0.2682  0.2569 -0.4803
  365TMC3    O2 5473   0.373   2.305  10.286 -0.5132  0.6024 -0.0128
  366MPD2     C 5474   2.364   3.685  15.131 -0.0971  0.7330 -0.5597
  366MPD2    C1 5475   2.503   3.708  15.122  0.4227  0.2325 -0.1137
  366MPD2    C2 5476   2.590   3.606  15.163 -1.0079  0.1611 -0.0231
  366MPD2    C3 5477   2.543   3.483  15.208 -0.1646 -0.4049 -0.5649
  366MPD2    C4 5478   2.406   3.460  15.210 -0.4917  0.0605  0.7915
  366MPD2    C5 5479   2.317   3.564  15.171 -0.2594  0.8347  0.3427
  366MPD2     H 5480   2.695   3.632  15.170 -0.8931  0.0464 -1.2000
  366MPD2    H1 5481   2.364   3.367  15.248  1.8103 -0.8261  1.1688
  366MPD2    H2 5482   2.292   3.756  15.091 -0.2773  1.0778  0.3669
  366MPD2    H3 5483   2.210   3.546  15.171 -0.0589 -0.3640  1.4673
  366MPD2     N 5484   2.646   3.385  15.232  0.0414  0.1742  0.1288
  366MPD2    H5 5485   2.741   3.417  15.218 -0.4608  0.4430 -2.6303
  366MPD2    N1 5486   2.567   3.828  15.080  0.5225 -0.3931 -0.0294
  366MPD2    H7 5487   2.669   3.828  15.080  0.5208 -0.3337 -1.6252
  367TMC3    C1 5488   2.590   4.063  15.048 -0.6638  0.0252 -0.2529
  367TMC3    C2 5489   2.707   4.064  15.122  0.4418  0.0569  0.1117
  367TMC3    C3 5490   2.752   4.194  15.147 -0.3599 -0.0625  0.0030
  367TMC3    C4 5491   2.532   4.167  14.983  0.6729 -0.6628  0.6058
  367TMC3    C5 5492   2.577   4.289  15.016 -0.3379  0.1170  0.3345
  367TMC3    C6 5493   2.686   4.308  15.103 -0.0562 -0.2109 -0.2519
  367TMC3     C 5494   2.500   3.947  15.044  0.0959  0.6173  0.2897
  367TMC3     O 5495   2.383   3.965  15.004  0.2306 -0.1035  0.1307
  367TMC3     H 5496   2.759   3.979  15.166 -0.4306 -0.2718  0.5198
  367TMC3    H1 5497   2.436   4.155  14.934  1.4318  0.4794 -1.1402
  367TMC3    H2 5498   2.714   4.409  15.133  1.8551 -0.3100 -1.7028
  367TMC3    C7 5499   2.475   4.394  15.031  0.3306 -0.3230  0.3443
  367TMC3    C8 5500   2.859   4.204  15.237 -0.4908 -0.4729  0.0841
  367TMC3    O1 5501   2.474   4.474  15.124  0.1481  0.1137  0.0927
  367TMC3    O2 5502   2.871   4.109  15.308  0.0511 -0.2343 -0.7882
  368MPD2     C 5503   4.007   1.004  13.412  0.5477  0.6677  0.0572
  368MPD2    C1 5504   4.009   1.085  13.303 -0.4018 -0.6068  0.0444
  368MPD2    C2 5505   4.120   1.090  13.218 -0.5051 -0.5391 -0.3624
  368MPD2    C3 5506   4.233   1.016  13.252 -0.2145  0.3290 -0.4205
  368MPD2    C4 5507   4.243   0.952  13.373 -0.2617 -0.7066 -0.0060
  368MPD2    C5 5508   4.121   0.930  13.436  0.4322 -0.6948 -0.3705
  368MPD2     H 5509   4.129   1.155  13.133 -2.7933 -0.8578 -0.8342
  368MPD2    H1 5510   4.332   0.904  13.411  0.1533  0.5237  0.5403
  368MPD2    H2 5511   3.913   0.983  13.462  0.0996  0.4539 -0.8711
  368MPD2    H3 5512   4.107   0.864  13.521 -0.2842 -0.0101  0.0409
  368MPD2     N 5513   4.353   1.030  13.181  0.0205 -0.3881  0.2463
  368MPD2    H5 5514   4.441   1.009  13.227 -1.0640 -0.5867  2.2206
  368MPD2    N1 5515   3.892   1.162  13.278  0.1444  0.0247  0.4640
  368MPD2    H7 5516   3.818   1.150  13.346 -1.0177 -0.4821 -0.8786
  369TMC3    C1 5517   3.731   1.277  13.150 -0.0241  0.1091 -0.5800
  369TMC3    C2 5518   3.695   1.321  13.033  1.2622  0.0914  0.8184
  369TMC3    C3 5519   3.570   1.288  12.976 -0.0397 -1.1828  0.2355
  369TMC3    C4 5520   3.639   1.207  13.226 -0.5719  0.4311  0.0303
  369TMC3    C5 5521   3.517   1.172  13.169  0.3033  0.7256  0.0951
  369TMC3    C6 5522   3.475   1.216  13.041  0.1691  0.0781  0.5552
  369TMC3     C 5523   3.869   1.247  13.167  0.0317  0.3038 -0.4782
  369TMC3     O 5524   3.935   1.272  13.067  0.3399  0.2206 -0.5208
  369TMC3     H 5525   3.767   1.366  12.965  0.2212 -0.9695 -0.9896
  369TMC3    H1 5526   3.661   1.171  13.326  1.6639  2.6883  0.3534
  369TMC3    H2 5527   3.383   1.192  12.989  0.1753  0.1112  0.5288
  369TMC3    C7 5528   3.467   1.044  13.220  0.3779  0.1511 -0.1569
  369TMC3    C8 5529   3.533   1.361  12.854  0.6770 -0.4043 -0.4535
  369TMC3    O1 5530   3.548   0.965  13.269  0.1695 -0.1792 -0.1876
  369TMC3    O2 5531   3.622   1.407  12.780  0.0087 -0.4504  0.7408
  370TMC3    C1 5532   3.418   1.552  16.442 -0.0153  0.1473  0.0144
  370TMC3    C2 5533   3.310   1.535  16.535  0.1743 -0.1917  0.1167
  370TMC3    C3 5534   3.221   1.432  16.508 -0.1989  0.0808  0.0552
  370TMC3    C4 5535   3.431   1.480  16.327 -0.0207 -0.0640 -0.4842
  370TMC3    C5 5536   3.331   1.394  16.299  0.1376  0.1145 -0.6892
  370TMC3    C6 5537   3.227   1.369  16.385  0.7502 -0.7487 -0.1555
  370TMC3     C 5538   3.530   1.624  16.492 -0.0258 -0.2047 -0.0440
  370TMC3     O 5539   3.543   1.611  16.610  0.3415 -0.1904  0.3488
  370TMC3     H 5540   3.304   1.589  16.629  0.9682 -1.1719  0.7329
  370TMC3    H1 5541   3.511   1.502  16.258  0.3082 -1.1732 -0.4647
  370TMC3    H2 5542   3.143   1.304  16.361  1.6608 -1.8056 -0.4719
  370TMC3    C7 5543   3.329   1.297  16.188  0.3393  0.5710 -0.0984
  370TMC3    C8 5544   3.204   1.343  16.620 -0.3766 -0.3708 -0.2502
  370TMC3    O1 5545   3.230   1.315  16.116 -0.1593 -0.5570  0.1386
  370TMC3    O2 5546   3.209   1.225  16.579 -0.2616  0.1950 -0.2752
  371TMC3    C1 5547   0.077   4.587  15.612  0.5820 -0.7895 -0.4911
  371TMC3    C2 5548   4.721   4.568  15.721 -1.0251  0.6116  0.5520
  371TMC3    C3 5549   4.628   4.668  15.740 -0.1076  0.0463  0.2695
  371TMC3    C4 5550   0.079   4.703  15.538  0.1838  0.4795 -0.4750
  371TMC3    C5 5551   4.713   0.072  15.565  0.3850 -0.7548 -0.3441
  371TMC3    C6 5552   4.619   0.055  15.663 -0.1114  0.3859 -0.1689
  371TMC3     C 5553   0.146   4.476  15.557  0.0305  0.5181 -0.4669
  371TMC3     O 5554   0.228   4.488  15.468  0.4924 -0.1377  0.3923
  371TMC3     H 5555   4.717   4.485  15.790  0.5133  0.4874  0.4880
  371TMC3    H1 5556   0.152   4.714  15.458 -1.4157  0.2563 -1.9822
  371TMC3    H2 5557   4.534   0.122  15.660  0.0677  0.7325  2.2361
  371TMC3    C7 5558   4.716   0.204  15.503  0.2359 -0.3921  0.1805
  371TMC3    C8 5559   4.537   4.656  15.852  0.0256  0.2176 -0.0086
  371TMC3    O1 5560   4.619   0.272  15.533  0.2362 -0.2597 -0.1250
  371TMC3    O2 5561   4.504   4.545  15.893 -0.1177 -0.4271 -0.2932
  372MPD2     C 5562   4.376   0.712  13.019 -0.2130  0.2645 -0.8527
  372MPD2    C1 5563   4.441   0.695  13.138 -0.7121 -0.3284 -0.1131
  372MPD2    C2 5564   4.367   0.647  13.250  0.2608  0.4694  0.3868
  372MPD2    C3 5565   4.229   0.626  13.240 -0.7646  0.6214 -0.2951
  372MPD2    C4 5566   4.169   0.644  13.115  0.5022 -0.3693 -0.3744
  372MPD2    C5 5567   4.247   0.691  13.009 -0.1991 -0.0022  0.5689
  372MPD2     H 5568   4.426   0.638  13.340  2.3457 -0.3961 -1.0555
  372MPD2    H1 5569   4.066   0.624  13.090  0.1897 -0.7019  1.1668
  372MPD2    H2 5570   4.420   0.740  12.924 -0.3357  0.1592 -0.9399
  372MPD2    H3 5571   4.194   0.719  12.919 -2.6024 -1.5338  1.4841
  372MPD2     N 5572   4.156   0.559  13.351 -0.4840 -0.1292  0.0964
  372MPD2    H5 5573   4.195   0.571  13.444 -1.5947  1.9878  0.2906
  372MPD2    N1 5574   4.578   0.713  13.149  0.0718  0.5174  0.4322
  372MPD2    H7 5575   4.620   0.666  13.229 -2.4156 -0.9943  0.8566
  373TMC3    C1 5576   3.999   0.416  13.465  0.4060 -0.1567  0.3167
  373TMC3    C2 5577   4.001   0.475  13.591  0.4240  0.1410 -0.4877
  373TMC3    C3 5578   4.012   0.388  13.693  0.3532 -0.4206 -0.5730
  373TMC3    C4 5579   4.007   0.276  13.450  0.9568  0.7528 -0.3747
  373TMC3    C5 5580   3.998   0.198  13.558 -0.5587 -0.0566 -0.0255
  373TMC3    C6 5581   4.018   0.249  13.685 -0.3823 -0.0019 -0.7314
  373TMC3     C 5582   4.036   0.485  13.334  0.3149  0.0782 -0.0209
  373TMC3     O 5583   4.002   0.442  13.225  0.3699  1.3479  0.1174
  373TMC3     H 5584   4.010   0.583  13.593  0.6304  0.1279 -0.8665
  373TMC3    H1 5585   4.010   0.246  13.346 -1.0190 -0.3750 -0.1049
  373TMC3    H2 5586   4.025   0.184  13.772  0.7552 -1.5370 -1.9825
  373TMC3    C7 5587   4.043   0.067  13.533  0.3958 -0.6996  0.0558
  373TMC3    C8 5588   4.002   0.438  13.825 -0.4592  0.1375  0.0578
  373TMC3    O1 5589   4.001   0.029  13.422 -0.8040  0.6428  0.2390
  373TMC3    O2 5590   3.979   0.363  13.916 -0.2701 -0.0807  0.5809
  374TMC3    C1 5591   4.624   0.332   9.454  0.1008  0.0025 -0.6939
  374TMC3    C2 5592   4.692   0.428   9.514 -1.1396 -0.1538 -0.2518
  374TMC3    C3 5593   4.678   0.565   9.487  0.2696 -0.1781 -0.0223
  374TMC3    C4 5594   4.548   0.362   9.345 -0.2937  0.6833  0.2110
  374TMC3    C5 5595   4.544   0.493   9.300  0.0958  0.0462 -0.1407
  374TMC3    C6 5596   4.607   0.597   9.370 -0.0394 -0.6832  0.3146
  374TMC3     C 5597   4.633   0.194   9.492  0.4974 -0.0818  0.2062
  374TMC3     O 5598   4.720   0.181   9.574 -0.2849  0.1408 -0.3659
  374TMC3     H 5599   0.036   0.400   9.593 -1.5528  0.4763  0.3276
  374TMC3    H1 5600   4.489   0.284   9.296 -0.4739  0.9874 -0.0576
  374TMC3    H2 5601   4.608   0.699   9.335  0.4488 -0.3688  1.2321
  374TMC3    C7 5602   4.525   0.521   9.156 -0.1411  0.6131 -0.3355
  374TMC3    C8 5603   4.703   0.674   9.580  0.5505 -0.3246  0.3869
  374TMC3    O1 5604   4.513   0.641   9.126 -0.1109 -0.1291  0.0660
  374TMC3    O2 5605   4.644   0.782   9.549  0.1460 -0.1459 -0.6020
  375MPD2     C 5606   0.194   1.938  17.486 -1.0158  0.1934 -0.4725
  375MPD2    C1 5607   0.159   1.965  17.355 -0.7328  0.7466 -0.6482
  375MPD2    C2 5608   0.238   1.916  17.252  0.1378 -0.0397 -0.2750
  375MPD2    C3 5609   0.360   1.852  17.279  0.0646 -0.0465  0.2926
  375MPD2    C4 5610   0.402   1.835  17.407 -0.5396  0.0048  0.0088
  375MPD2    C5 5611   0.319   1.874  17.508 -0.4840 -0.2039 -0.5733
  375MPD2     H 5612   0.205   1.936  17.151 -1.5789 -2.6576 -0.2311
  375MPD2    H1 5613   0.498   1.787  17.423 -0.6649 -1.0898 -2.4560
  375MPD2    H2 5614   0.132   1.962  17.572 -0.6006 -0.6473  0.0620
  375MPD2    H3 5615   0.347   1.868  17.613  1.0231 -0.7144 -1.0043
  375MPD2     N 5616   0.448   1.791  17.184 -0.2906 -0.5092 -0.8784
  375MPD2    H5 5617   0.522   1.735  17.224  2.0549  1.2594 -2.6829
  375MPD2    N1 5618   0.035   2.028  17.314 -0.2159  0.6601  0.0489
  375MPD2    H7 5619   0.012   2.037  17.215 -0.5776 -1.8766 -0.0956
  376TMC3    C1 5620   0.502   1.710  16.963 -0.1263  0.3369 -0.0199
  376TMC3    C2 5621   0.635   1.695  16.974  0.0278  0.3145  0.1432
  376TMC3    C3 5622   0.692   1.605  16.893 -0.1671 -0.5473 -0.2164
  376TMC3    C4 5623   0.428   1.631  16.889  0.2875  0.0299  0.9598
  376TMC3    C5 5624   0.482   1.538  16.807 -0.2254 -0.3068 -0.2026
  376TMC3    C6 5625   0.619   1.522  16.808 -0.1223 -0.3482  0.9220
  376TMC3     C 5626   0.430   1.805  17.047  0.2731 -0.3227  0.2991
  376TMC3     O 5627   0.338   1.858  16.989 -0.5756 -0.5310 -0.9530
  376TMC3     H 5628   0.694   1.759  17.038 -0.6771 -0.1593  1.2640
  376TMC3    H1 5629   0.320   1.643  16.887  0.1220 -1.3420  1.5641
  376TMC3    H2 5630   0.667   1.465  16.729 -0.8191 -1.7323  1.4942
  376TMC3    C7 5631   0.420   1.536  16.678  0.9438 -0.1823 -0.2128
  376TMC3    C8 5632   0.834   1.621  16.861  0.6160 -0.1097  0.6544
  376TMC3    O1 5633   0.350   1.636  16.655  0.2960 -0.0649 -0.4267
  376TMC3    O2 5634   0.886   1.733  16.847 -0.1016 -0.0799 -0.5915
  377MPD2     C 5635   2.596   1.439  12.449 -0.0200 -0.3912 -0.1280
  377MPD2    C1 5636   2.676   1.341  12.509  0.3045 -0.1505 -0.4354
  377MPD2    C2 5637   2.616   1.221  12.552  0.2827  0.0945 -0.1532
  377MPD2    C3 5638   2.478   1.197  12.523 -0.3347 -0.0610 -0.0389
  377MPD2    C4 5639   2.411   1.305  12.465  0.1683  0.8330  0.3508
  377MPD2    C5 5640   2.465   1.423  12.440  0.0281  0.2380 -0.4777
  377MPD2     H 5641   2.667   1.139  12.601  0.9887 -0.0225 -1.0765
  377MPD2    H1 5642   2.304   1.294  12.448  0.9079 -2.6953 -2.0461
  377MPD2    H2 5643   2.641   1.532  12.417 -1.9473  0.8993  0.9226
  377MPD2    H3 5644   2.402   1.501  12.399 -1.3229 -0.6702 -0.1328
  377MPD2     N 5645   2.424   1.068  12.514 -0.1519  0.2166 -0.2639
  377MPD2    H5 5646   2.343   1.044  12.457 -1.4355 -1.1639  2.1392
  377MPD2    N1 5647   2.816   1.359  12.494  0.4282  0.0786  0.7848
  377MPD2    H7 5648   2.852   1.441  12.447 -0.3373  0.2224  0.4522
  378TMC3    C1 5649   3.193   1.265  12.384  0.3851  0.1238  0.5232
  378TMC3    C2 5650   3.075   1.325  12.421 -0.4258  0.4061 -0.2411
  378TMC3    C3 5651   3.038   1.306  12.552 -0.4144 -0.1839  0.8036
  378TMC3    C4 5652   3.271   1.197  12.472 -0.2483  0.1437  0.2926
  378TMC3    C5 5653   3.230   1.184  12.598  0.4208  0.1843 -0.1597
  378TMC3    C6 5654   3.116   1.244  12.645 -0.4249  0.9113  0.1343
  378TMC3     C 5655   3.229   1.274  12.242 -0.8510 -0.3051 -0.1318
  378TMC3     O 5656   3.150   1.340  12.176  0.1797 -0.0147 -0.7687
  378TMC3     H 5657   3.013   1.378  12.350  0.4404  2.5099  0.5838
  378TMC3    H1 5658   3.352   1.137  12.433 -0.9034  0.4856 -1.5779
  378TMC3    H2 5659   3.075   1.222  12.744 -0.2424 -0.5375 -0.1042
  378TMC3    C7 5660   3.291   1.091  12.688 -0.7540 -0.4141  0.2330
  378TMC3    C8 5661   2.896   1.291  12.581  0.0691  0.1119  0.0633
  378TMC3    O1 5662   3.231   1.066  12.796  0.7474 -0.5197  0.3841
  378TMC3    O2 5663   2.877   1.230  12.685 -0.1947  0.2608  0.7668
  379MPD2     C 5664   3.787   4.349  15.902 -0.1405 -0.3380  0.0847
  379MPD2    C1 5665   3.715   4.285  16.002  0.5490  0.3723 -0.0743
  379MPD2    C2 5666   3.788   4.196  16.085 -0.2697  0.1147 -0.2281
  379MPD2    C3 5667   3.927   4.190  16.073 -0.1811 -0.1695 -0.4154
  379MPD2    C4 5668   3.995   4.264  15.976 -0.4287  0.3422 -0.5077
  379MPD2    C5 5669   3.921   4.350  15.902 -0.1361 -0.6461 -0.2036
  379MPD2     H 5670   3.730   4.140  16.158  0.5120  2.4921  2.2107
  379MPD2    H1 5671   4.101   4.253  15.957 -0.4056 -2.5981  1.3827
  379MPD2    H2 5672   3.727   4.400  15.828  2.2319  1.8412 -0.3026
  379MPD2    H3 5673   3.971   4.406  15.825  2.3987 -1.4657  0.8502
  379MPD2     N 5674   4.002   4.108  16.160  0.0178 -0.2007  0.2225
  379MPD2    H5 5675   4.102   4.104  16.139  0.1660  1.4347  0.6209
  379MPD2    N1 5676   3.576   4.305  16.021  0.3396  0.1479 -0.1367
  379MPD2    H7 5677   3.532   4.359  15.947  1.3958 -0.9961 -1.5952
  380TMC3    C1 5678   3.369   4.223  16.060  0.0630  0.2296 -0.1568
  380TMC3    C2 5679   3.375   4.092  16.030  0.1016 -0.0799  0.7662
  380TMC3    C3 5680   3.346   4.058  15.902 -0.3743  0.3505 -0.3005
  380TMC3    C4 5681   3.337   4.319  15.961  0.5393  0.0589  0.1953
  380TMC3    C5 5682   3.284   4.277  15.847 -0.0856  0.0551  0.1066
  380TMC3    C6 5683   3.285   4.142  15.812  0.3478  0.0726 -0.5701
  380TMC3     C 5684   3.498   4.251  16.118 -0.2913  0.2573  0.5029
  380TMC3     O 5685   3.523   4.210  16.233  0.1518  0.1210 -0.2658
  380TMC3     H 5686   3.399   4.023  16.111  0.3894  0.4040  1.0959
  380TMC3    H1 5687   3.358   4.423  15.981 -2.1248  0.4635  0.8059
  380TMC3    H2 5688   3.255   4.100  15.717  1.4984 -1.2416 -0.3478
  380TMC3    C7 5689   3.247   4.381  15.755  0.2426  0.2786 -0.3819
  380TMC3    C8 5690   3.457   3.995  15.839 -0.5033 -0.2606  0.3056
  380TMC3    O1 5691   3.296   4.490  15.771  0.1452  0.4608  0.2484
  380TMC3    O2 5692   3.473   4.028  15.720  0.3266 -0.0861 -0.6376
  381TMC3    C1 5693   3.250   0.671  16.212 -0.2177 -0.0130  0.3332
  381TMC3    C2 5694   3.307   0.796  16.203  1.1107  0.3006 -0.1837
  381TMC3    C3 5695   3.329   0.867  16.322  0.4120 -0.1823  0.0592
  381TMC3    C4 5696   3.206   0.609  16.323  0.0514  0.4246 -0.0194
  381TMC3    C5 5697   3.230   0.679  16.438  0.3956  0.4681  0.4647
  381TMC3    C6 5698   3.283   0.813  16.438 -0.0992 -0.3876  0.5811
  381TMC3     C 5699   3.188   0.630  16.088  0.6315 -1.2963 -0.4675
  381TMC3     O 5700   3.136   0.518  16.095 -0.1786 -0.7750  0.1039
  381TMC3     H 5701   3.353   0.843  16.116  0.7843  2.8281  0.9974
  381TMC3    H1 5702   3.136   0.527  16.331  0.1136  0.3462 -0.2760
  381TMC3    H2 5703   3.295   0.876  16.525 -0.4857 -1.2797  1.2835
  381TMC3    C7 5704   3.220   0.606  16.566  0.1638  0.2472  0.5192
  381TMC3    C8 5705   3.462   0.937  16.333 -0.3779 -0.0009  0.3971
  381TMC3    O1 5706   3.212   0.485  16.562 -0.6682 -0.4175 -0.3020
  381TMC3    O2 5707   3.549   0.909  16.249  0.3216  0.4550 -0.0109
  382MPD2     C 5708   2.950   3.053   0.183  0.1110  0.3164  0.7873
  382MPD2    C1 5709   2.977   3.116   0.064  0.5696 -0.4286 -0.6364
  382MPD2    C2 5710   2.930   3.066  17.643  0.5330  0.2320  0.9386
  382MPD2    C3 5711   2.827   2.973  17.642 -0.0317 -0.0781  0.0748
  382MPD2    C4 5712   2.796   2.907   0.059  0.1844 -0.2025  0.0365
  382MPD2    C5 5713   2.854   2.959   0.177 -0.0887 -0.4240 -0.1772
  382MPD2     H 5714   2.954   3.121  17.553  0.4296 -2.0640 -0.4902
  382MPD2    H1 5715   2.716   2.834   0.055 -1.5102  1.5988  1.2563
  382MPD2    H2 5716   2.999   3.077   0.276  0.4893 -0.5223  0.8047
  382MPD2    H3 5717   2.813   2.919   0.269  2.8695 -2.3839  0.2950
  382MPD2     N 5718   2.745   2.950  17.535  0.3296  0.0626 -0.3660
  382MPD2    H5 5719   2.674   2.882  17.561  1.2562 -1.4179 -1.6765
  382MPD2    N1 5720   3.065   3.224   0.051  0.3259  0.4722  0.3361
  382MPD2    H7 5721   3.096   3.249  17.659  0.1364  1.9223  0.6657
  383TMC3    C1 5722   2.617   3.004  17.351  0.1618  0.2055 -0.4385
  383TMC3    C2 5723   2.544   2.888  17.374  0.1530  0.3446 -0.0276
  383TMC3    C3 5724   2.413   2.889  17.337 -0.3325  0.1451  0.5904
  383TMC3    C4 5725   2.559   3.125  17.326 -0.6048 -0.0132  0.5127
  383TMC3    C5 5726   2.422   3.123  17.309 -0.1290 -0.8964 -0.2064
  383TMC3    C6 5727   2.348   3.009  17.314  0.1153 -0.0447 -0.9957
  383TMC3     C 5728   2.750   3.009  17.408  0.6510 -0.1089  0.2635
  383TMC3     O 5729   2.829   3.093  17.366  0.0690  0.6358 -0.0146
  383TMC3     H 5730   2.598   2.795  17.389 -1.7906 -0.7282  0.2650
  383TMC3    H1 5731   2.621   3.212  17.307  0.3343  0.0789  4.1131
  383TMC3    H2 5732   2.240   3.010  17.304 -0.0509  1.2608  0.7148
  383TMC3    C7 5733   2.343   3.245  17.336 -0.7467  0.3839 -0.3499
  383TMC3    C8 5734   2.321   2.773  17.321  0.1925  0.4173 -0.0375
  383TMC3    O1 5735   2.233   3.234  17.394 -0.0741 -0.4625  0.5030
  383TMC3    O2 5736   2.202   2.805  17.310  0.3703 -0.3470 -0.5937
  384MPD2     C 5737   4.647   4.073  12.499 -0.4353  0.4008  0.1980
  384MPD2    C1 5738   4.552   3.995  12.439  0.2148  0.5576  0.1792
  384MPD2    C2 5739   4.595   3.878  12.377  0.6205  0.0880 -0.2485
  384MPD2    C3 5740   0.001   3.838  12.390  0.5173  0.3280  0.1271
  384MPD2    C4 5741   0.085   3.908  12.461  0.5489  0.3006  0.5043
  384MPD2    C5 5742   0.042   4.028  12.516  0.2110 -0.2940  0.5479
  384MPD2     H 5743   4.525   3.815  12.324 -0.2602 -0.8488  2.0124
  384MPD2    H1 5744   0.187   3.881  12.488  0.2423  0.6265  1.9852
  384MPD2    H2 5745   4.625   4.161  12.559  0.5180  0.2624  0.7344
  384MPD2    H3 5746   0.108   4.072  12.590  1.4902 -0.3084 -0.5909
  384MPD2     N 5747   0.044   3.705  12.362 -0.1327 -0.6076 -0.0100
  384MPD2    H5 5748   0.122   3.679  12.422  3.1947  3.0188 -2.7767
  384MPD2    N1 5749   4.417   4.032  12.455  0.2958 -0.5000 -0.6523
  384MPD2    H7 5750   4.398   4.099  12.529 -0.8270 -0.3335 -1.0921
  385TMC3    C1 5751   0.018   3.483  12.347  0.4218 -0.1905  0.4917
  385TMC3    C2 5752   4.693   3.379  12.274  0.4772  0.1930 -0.3905
  385TMC3    C3 5753   4.658   3.268  12.345  0.0974  0.6458 -0.1468
  385TMC3    C4 5754   0.041   3.479  12.478 -0.0707 -0.5925  0.5401
  385TMC3    C5 5755   4.710   3.383  12.554  0.5205 -0.6728  0.8884
  385TMC3    C6 5756   4.664   3.272  12.482 -0.1093  0.2265 -0.0199
  385TMC3     C 5757   4.697   3.613  12.298  0.2245  1.0144  0.4628
  385TMC3     O 5758   4.588   3.614  12.238  0.4592  0.0572 -0.2232
  385TMC3     H 5759   4.710   3.378  12.167  2.6212 -1.8038 -0.0214
  385TMC3    H1 5760   0.081   3.557  12.541 -0.5487 -1.4223  1.8853
  385TMC3    H2 5761   4.616   3.192  12.536  0.9787 -2.3412 -2.8343
  385TMC3    C7 5762   4.612   3.439  12.647  0.2685 -0.3555  0.2016
  385TMC3    C8 5763   4.707   3.140  12.294  0.1801  0.1154  0.4441
  385TMC3    O1 5764   4.602   3.559  12.653 -0.2333 -0.2185 -0.3893
  385TMC3    O2 5765   0.024   3.061  12.378  0.0150  0.4533  0.1975
  386TMC3    C1 5766   4.531   1.160  12.194  0.3167  0.2684 -0.0171
  386TMC3    C2 5767   4.643   1.149  12.110  0.1548 -0.4015  0.4081
  386TMC3    C3 5768   4.641   1.229  12.000 -0.4961 -0.8151 -0.4341
  386TMC3    C4 5769   4.431   1.248  12.171 -0.4050  0.2128 -0.4070
  386TMC3    C5 5770   4.429   1.321  12.058 -0.5172 -0.5957 -0.2815
  386TMC3    C6 5771   4.525   1.299  11.965  0.7523  0.2486  0.4470
  386TMC3     C 5772   4.493   1.050  12.271 -0.1378 -0.3845 -0.4115
  386TMC3     O 5773   4.415   1.070  12.360 -0.2832 -0.7162  0.1220
  386TMC3     H 5774   0.007   1.099  12.146 -1.2793 -1.8142  1.9985
  386TMC3    H1 5775   4.352   1.248  12.245  0.1593  3.0697  0.2181
  386TMC3    H2 5776   4.531   1.366  11.880 -0.8455 -1.0932 -0.7131
  386TMC3    C7 5777   4.315   1.403  12.023  0.3394 -0.1510 -0.4690
  386TMC3    C8 5778   0.019   1.208  11.901  0.9801 -0.0668 -0.1219
  386TMC3    O1 5779   4.235   1.430  12.114  0.3221  0.1325  0.4590
  386TMC3    O2 5780   4.702   1.227  11.785  0.2063  0.4582 -0.1929
  387MPD2     C 5781   2.197   1.601   9.631 -0.3659 -0.2684 -0.0310
  387MPD2    C1 5782   2.271   1.523   9.719  0.0146 -0.1876 -0.4031
  387MPD2    C2 5783   2.237   1.400   9.758  0.3668  0.2330 -0.3696
  387MPD2    C3 5784   2.132   1.341   9.700  0.3314 -0.1406 -0.2774
  387MPD2    C4 5785   2.061   1.410   9.610 -0.4637 -0.9627 -1.0039
  387MPD2    C5 5786   2.086   1.542   9.578 -0.2232 -0.2413  0.4236
  387MPD2     H 5787   2.293   1.345   9.833  0.1086  0.8803  0.2985
  387MPD2    H1 5788   1.970   1.380   9.559 -2.3857  1.2251  1.1429
  387MPD2    H2 5789   2.227   1.703   9.608  1.3816 -0.7396  0.1087
  387MPD2    H3 5790   2.026   1.587   9.499 -0.9743  0.3717  1.3455
  387MPD2     N 5791   2.096   1.211   9.752  0.7397 -0.4233  0.2185
  387MPD2    H5 5792   2.139   1.173   9.836  1.8758  0.9782  0.2663
  387MPD2    N1 5793   2.369   1.571   9.799 -0.7898  0.3814  0.0609
  387MPD2    H7 5794   2.404   1.506   9.868  1.1569  0.2270 -1.0744
  388TMC3    C1 5795   2.519   1.701   9.923  0.0639 -0.2574  0.1956
  388TMC3    C2 5796   2.643   1.763   9.915  1.0945  0.2984  0.3200
  388TMC3    C3 5797   2.719   1.770  10.030  0.0034 -0.1077 -0.2036
  388TMC3    C4 5798   2.478   1.641  10.040  0.7612  0.7500 -0.0871
  388TMC3    C5 5799   2.565   1.647  10.148  0.0406 -0.3952  0.6403
  388TMC3    C6 5800   2.690   1.702  10.147 -0.1796  1.7854  0.4722
  388TMC3     C 5801   2.444   1.685   9.794 -0.9424 -0.5771  0.1718
  388TMC3     O 5802   2.437   1.779   9.716  0.1414  0.1089  0.3646
  388TMC3     H 5803   2.683   1.809   9.826  1.3517  1.0077  0.7942
  388TMC3    H1 5804   2.375   1.614  10.061  1.3654 -1.4100  0.0500
  388TMC3    H2 5805   2.750   1.694  10.237 -0.1112 -0.2674  0.2505
  388TMC3    C7 5806   2.550   1.537  10.240  0.6423  0.3924  0.0804
  388TMC3    C8 5807   2.854   1.828  10.009  0.3187 -0.0216  0.0624
  388TMC3    O1 5808   2.563   1.563  10.361  0.3024  0.1150  0.0144
  388TMC3    O2 5809   2.899   1.851   9.896  0.0207 -0.1228 -0.3124
  389MPD2     C 5810   1.488   4.335  11.807 -0.4118 -0.1775  0.5803
  389MPD2    C1 5811   1.483   4.241  11.711 -0.6971 -1.1026  0.3076
  389MPD2    C2 5812   1.396   4.134  11.734 -0.1628 -0.6889 -0.1621
  389MPD2    C3 5813   1.317   4.126  11.846  0.5194 -0.4128 -0.3191
  389MPD2    C4 5814   1.331   4.224  11.943 -0.5060 -0.4041 -0.0940
  389MPD2    C5 5815   1.414   4.330  11.920  0.1715  0.2005 -0.4826
  389MPD2     H 5816   1.373   4.066  11.653 -0.1325 -0.9962  0.0891
  389MPD2    H1 5817   1.272   4.218  12.033  0.7473  3.8417  1.0067
  389MPD2    H2 5818   1.550   4.423  11.795 -1.4008  0.0529 -2.8070
  389MPD2    H3 5819   1.422   4.413  11.990 -1.2947 -0.5443  0.5670
  389MPD2     N 5820   1.219   4.029  11.878 -0.4254 -0.1592 -0.0559
  389MPD2    H5 5821   1.160   4.045  11.959  0.5482 -2.1820  1.0560
  389MPD2    N1 5822   1.558   4.254  11.591  0.3200  0.0567 -0.2204
  389MPD2    H7 5823   1.603   4.344  11.577 -0.6759  0.7117  0.7327
  390TMC3    C1 5824   1.087   3.825  11.855 -0.3834  0.0085  0.5745
  390TMC3    C2 5825   1.127   3.703  11.881 -0.1519 -0.0769  0.7019
  390TMC3    C3 5826   1.072   3.648  11.994 -0.4198 -0.3170  0.1587
  390TMC3    C4 5827   0.987   3.891  11.926 -0.1346  0.0293 -0.7383
  390TMC3    C5 5828   0.904   3.811  12.004  1.2948  0.5132 -0.4005
  390TMC3    C6 5829   0.964   3.700  12.059  0.6722  0.0210 -0.1627
  390TMC3     C 5830   1.200   3.909  11.805 -0.2928  0.6118 -0.7875
  390TMC3     O 5831   1.270   3.851  11.724 -0.6112  0.5228  0.1885
  390TMC3     H 5832   1.203   3.655  11.821 -0.2192  1.4584 -0.5838
  390TMC3    H1 5833   0.955   3.981  11.873 -0.5395  0.3770  0.0930
  390TMC3    H2 5834   0.920   3.643  12.139 -0.6077 -1.3195 -1.8244
  390TMC3    C7 5835   0.773   3.782  11.945  0.1345 -0.7004  0.1849
  390TMC3    C8 5836   1.041   3.514  11.975 -0.2844 -0.1498  0.1421
  390TMC3    O1 5837   0.723   3.862  11.870 -0.4070  0.3781 -0.2454
  390TMC3    O2 5838   0.971   3.494  11.877 -0.1214 -0.1764  0.5757
  391MPD2     C 5839   0.713   0.331  10.974 -0.7294 -0.9435 -0.2715
  391MPD2    C1 5840   0.813   0.417  10.943 -0.3862 -0.2748 -1.1806
  391MPD2    C2 5841   0.808   0.461  10.813  0.2496 -0.5977 -0.0326
  391MPD2    C3 5842   0.701   0.437  10.721  0.5489 -0.2186  0.4149
  391MPD2    C4 5843   0.601   0.352  10.764 -0.1469 -0.1511  0.4360
  391MPD2    C5 5844   0.616   0.294  10.884  1.0077  0.2139  0.1065
  391MPD2     H 5845   0.881   0.534  10.781 -0.6151 -0.0550 -0.7661
  391MPD2    H1 5846   0.526   0.314  10.695 -0.9248  1.2001  0.5507
  391MPD2    H2 5847   0.706   0.286  11.072 -0.7990 -0.5266 -0.0882
  391MPD2    H3 5848   0.538   0.232  10.927  2.0095 -0.2991  1.1859
  391MPD2     N 5849   0.702   0.488  10.590  0.2411 -0.1081 -0.2392
  391MPD2    H5 5850   0.786   0.540  10.569  0.7190 -0.6073  0.4321
  391MPD2    N1 5851   0.903   0.460  11.047  0.2415 -0.0606 -0.5292
  391MPD2    H7 5852   0.888   0.425  11.141 -0.0210  0.1058 -0.5094
  392TMC3    C1 5853   0.618   0.557  10.378  0.4186  0.2217 -0.0284
  392TMC3    C2 5854   0.523   0.546  10.286 -0.3634 -0.3145 -0.2795
  392TMC3    C3 5855   0.516   0.632  10.179 -0.5621 -0.5625  0.0309
  392TMC3    C4 5856   0.715   0.654  10.364 -0.4494 -0.3916 -0.5190
  392TMC3    C5 5857   0.703   0.742  10.260 -0.6058 -0.6821  0.6352
  392TMC3    C6 5858   0.603   0.738  10.167 -0.2068 -0.3502 -0.1488
  392TMC3     C 5859   0.596   0.492  10.500 -0.4136  0.4943 -0.8958
  392TMC3     O 5860   0.478   0.472  10.528  0.1282 -0.2811  0.0314
  392TMC3     H 5861   0.439   0.477  10.290  0.9000 -1.8875 -0.5015
  392TMC3    H1 5862   0.789   0.664  10.442 -0.8700  2.3577 -0.4681
  392TMC3    H2 5863   0.581   0.803  10.082 -0.6251 -0.3312 -0.0260
  392TMC3    C7 5864   0.788   0.860  10.268  0.4119 -0.1711  1.3999
  392TMC3    C8 5865   0.401   0.625  10.092 -0.4092  0.7123 -0.0320
  392TMC3    O1 5866   0.884   0.845  10.334 -0.2972  0.5474 -0.4370
  392TMC3    O2 5867   0.356   0.515  10.072 -0.9423  0.4493 -0.0729
  393TMC3    C1 5868   0.266   3.028   9.935  0.5959 -0.1686 -0.0280
  393TMC3    C2 5869   0.164   2.935   9.928 -0.1561 -0.5579 -0.1911
  393TMC3    C3 5870   0.182   2.817   9.984  0.5108 -0.0586  0.1222
  393TMC3    C4 5871   0.378   3.003  10.009 -0.3748  0.0202 -0.4322
  393TMC3    C5 5872   0.400   2.875  10.057  0.7260  0.1987  0.2941
  393TMC3    C6 5873   0.300   2.782  10.045 -0.1013  0.8389  0.9831
  393TMC3     C 5874   0.262   3.137   9.832  0.2086 -0.1703 -0.2877
  393TMC3     O 5875   0.175   3.128   9.745 -0.2720 -0.0473  0.0762
  393TMC3     H 5876   0.076   2.960   9.870 -0.6081  3.2798  2.1802
  393TMC3    H1 5877   0.454   3.077  10.032 -0.2978 -0.3099  0.3932
  393TMC3    H2 5878   0.315   2.693  10.104  2.6854 -1.0577 -2.5477
  393TMC3    C7 5879   0.528   2.853  10.129 -0.3051  0.2164 -0.7841
  393TMC3    C8 5880   0.091   2.705   9.988 -0.2067 -0.7865 -0.3631
  393TMC3    O1 5881   0.578   2.956  10.173 -0.2057 -0.6297 -0.3941
  393TMC3    O2 5882   0.106   2.622  10.073 -0.5431 -0.1552 -0.3348
  394TMC3    C1 5883   1.661   4.207  11.392  0.2468  0.0714  0.4651
  394TMC3    C2 5884   1.608   4.324  11.339  0.0911 -0.4069 -0.0582
  394TMC3    C3 5885   1.614   4.331  11.204 -0.0938  0.3099 -0.4780
  394TMC3    C4 5886   1.740   4.125  11.319 -0.3368 -0.2586 -0.5407
  394TMC3    C5 5887   1.751   4.143  11.182 -0.2480  0.4461  0.0018
  394TMC3    C6 5888   1.692   4.254  11.123 -0.6060  0.0706 -0.6952
  394TMC3     C 5889   1.583   4.152  11.502 -0.1180 -0.2248 -0.4011
  394TMC3     O 5890   1.566   4.035  11.522 -0.8584  0.4127  0.3026
  394TMC3     H 5891   1.536   4.385  11.392  1.6866 -0.0493  1.6779
  394TMC3    H1 5892   1.758   4.026  11.359  0.4065  0.2986  0.5009
  394TMC3    H2 5893   1.687   4.284  11.019  3.8496 -1.6072 -1.3999
  394TMC3    C7 5894   1.862   4.089  11.106 -0.0408 -0.2557  0.0823
  394TMC3    C8 5895   1.538   4.430  11.148  0.5528 -0.1606 -0.5697
  394TMC3    O1 5896   1.879   4.144  10.997 -0.0655 -0.1891 -0.4107
  394TMC3    O2 5897   1.535   4.534  11.213  0.5171 -0.5800 -0.5927
  395TMC3    C1 5898   0.707   1.384  14.740  0.8698 -0.9077 -0.5454
  395TMC3    C2 5899   0.588   1.382  14.803 -0.2514 -0.0019 -0.3031
  395TMC3    C3 5900   0.555   1.475  14.896 -0.6882 -0.0351  0.6515
  395TMC3    C4 5901   0.796   1.493  14.752 -0.2378 -0.1980 -0.1263
  395TMC3    C5 5902   0.766   1.583  14.844  0.0054 -0.2492  0.0108
  395TMC3    C6 5903   0.642   1.583  14.902  0.1342 -0.0304  0.3244
  395TMC3     C 5904   0.772   1.268  14.783  0.0036  0.1570 -0.4939
  395TMC3     O 5905   0.729   1.206  14.878 -0.0304  0.4609  0.3409
  395TMC3     H 5906   0.535   1.289  14.786  0.1666 -0.5984  1.6395
  395TMC3    H1 5907   0.872   1.504  14.675 -0.4866  1.5048 -0.1453
  395TMC3    H2 5908   0.622   1.661  14.974  2.4569  1.2586 -0.4220
  395TMC3    C7 5909   0.879   1.630  14.913 -0.0025  0.1029  0.3424
  395TMC3    C8 5910   0.453   1.448  14.999 -0.2797 -1.0595 -0.0772
  395TMC3    O1 5911   0.870   1.732  14.979 -0.4887 -0.5391 -0.0481
  395TMC3    O2 5912   0.429   1.542  15.075  0.6696  0.3307 -0.4580
  396MPD2     C 5913   0.959   2.804  16.742  0.1428 -0.0934 -0.6721
  396MPD2    C1 5914   1.066   2.861  16.811 -0.0562 -0.4373  1.2987
  396MPD2    C2 5915   1.154   2.947  16.746 -0.1669 -0.2046 -1.5577
  396MPD2    C3 5916   1.121   2.992  16.617  0.3636 -0.0651  0.5849
  396MPD2    C4 5917   1.015   2.932  16.554 -0.5781 -0.2544  0.3608
  396MPD2    C5 5918   0.931   2.841  16.608  0.0985 -0.2821  0.5175
  396MPD2     H 5919   1.249   2.964  16.796 -0.9328  1.2587 -0.5773
  396MPD2    H1 5920   0.981   2.960  16.455  0.8780  1.6805  0.4074
  396MPD2    H2 5921   0.893   2.735  16.792 -0.5597 -0.6047 -2.3087
  396MPD2    H3 5922   0.853   2.791  16.551 -1.0674  1.9455  0.1649
  396MPD2     N 5923   1.208   3.087  16.548 -0.3856  0.7824  0.4990
  396MPD2    H5 5924   1.263   3.146  16.610  1.4677  0.6706 -1.0417
  396MPD2    N1 5925   1.095   2.814  16.942 -0.5009  0.0423  0.6620
  396MPD2    H7 5926   1.057   2.722  16.962  0.7863 -0.5452  0.3882
  397TMC3    C1 5927   1.214   2.787  17.148 -0.2582  0.1690  0.0206
  397TMC3    C2 5928   1.346   2.761  17.151  0.2413 -0.2167 -0.3016
  397TMC3    C3 5929   1.391   2.640  17.185 -1.0512 -0.6203 -0.0837
  397TMC3    C4 5930   1.125   2.692  17.168  0.8243 -0.5816  0.2621
  397TMC3    C5 5931   1.169   2.573  17.215 -0.1363  0.1258 -0.3911
  397TMC3    C6 5932   1.301   2.552  17.226  0.3696 -0.9538 -0.3556
  397TMC3     C 5933   1.182   2.870  17.029 -0.5452  0.4851  0.8191
  397TMC3     O 5934   1.227   2.986  17.037 -0.0760 -0.1820 -0.0275
  397TMC3     H 5935   1.399   2.856  17.151  0.1114 -0.1444  0.0115
  397TMC3    H1 5936   1.019   2.709  17.154  1.1938 -0.1994 -2.1664
  397TMC3    H2 5937   1.337   2.451  17.237  0.2559 -0.9269  0.3121
  397TMC3    C7 5938   1.077   2.504  17.307  0.4870  1.0058 -0.1831
  397TMC3    C8 5939   1.530   2.618  17.215 -0.0852  0.3292 -0.1244
  397TMC3    O1 5940   0.963   2.491  17.270  0.2511 -0.0228 -0.7234
  397TMC3    O2 5941   1.553   2.527  17.292 -0.2434 -0.8024 -0.2408
  398MPD2     C 5942   4.102   4.054   0.295  0.3513 -0.1019  0.4812
  398MPD2    C1 5943   4.207   3.974   0.272  0.4884  0.0159  0.1143
  398MPD2    C2 5944   4.330   4.033   0.263 -0.1976  0.2879 -0.2617
  398MPD2    C3 5945   4.354   4.167   0.258  0.1082  0.3322  0.2272
  398MPD2    C4 5946   4.238   4.248   0.285 -0.1976 -0.3324 -0.0239
  398MPD2    C5 5947   4.117   4.190   0.303 -0.3864 -1.0089  0.0325
  398MPD2     H 5948   4.411   3.971   0.225 -1.5425 -0.9186 -1.1841
  398MPD2    H1 5949   4.254   4.353   0.304 -0.2037 -0.6749  1.8553
  398MPD2    H2 5950   4.002   4.013   0.304  0.6559 -1.2434 -1.4137
  398MPD2    H3 5951   4.032   4.245   0.343  0.6028  0.9002 -0.5109
  398MPD2     N 5952   4.486   4.210   0.243 -0.1134  0.5204  0.1698
  398MPD2    H5 5953   4.557   4.137   0.246 -2.0088 -1.4297 -2.2966
  398MPD2    N1 5954   4.188   3.837   0.245 -0.1935 -0.3849 -0.2998
  398MPD2    H7 5955   4.272   3.784   0.223 -0.6275 -0.8645 -0.7891
  399TMC3    C1 5956   4.078   3.625   0.249 -0.8084 -0.4421 -0.3303
  399TMC3    C2 5957   4.176   3.575   0.324  0.1868  0.1593  0.6147
  399TMC3    C3 5958   4.169   3.445   0.346  0.7574 -0.1078  0.0267
  399TMC3    C4 5959   3.964   3.558   0.216 -0.1243 -0.6896  0.0098
  399TMC3    C5 5960   3.950   3.425   0.251  0.4293 -0.1374 -0.1680
  399TMC3    C6 5961   4.053   3.364   0.312  0.4623  0.2562 -0.7455
  399TMC3     C 5962   4.061   3.774   0.246  0.1830 -0.4928  0.5565
  399TMC3     O 5963   3.949   3.814   0.221 -0.0483 -0.1474  0.5404
  399TMC3     H 5964   4.259   3.637   0.358 -0.0703  1.5164 -1.2091
  399TMC3    H1 5965   3.881   3.611   0.171  2.1645  1.8106 -1.2725
  399TMC3    H2 5966   4.046   3.256   0.319  0.8448  0.4230  2.3402
  399TMC3    C7 5967   3.850   3.341   0.194 -0.0523 -0.4111  0.2701
  399TMC3    C8 5968   4.290   3.384   0.386 -0.2465 -0.3941 -0.1645
  399TMC3    O1 5969   3.809   3.245   0.261 -0.1110  0.0562  0.6115
  399TMC3    O2 5970   4.395   3.449   0.397  0.2366 -0.3854 -0.1896
  400TMC3    C1 5971   2.335   2.132  17.015  0.2828  0.0581  0.5701
  400TMC3    C2 5972   2.214   2.122  16.954 -0.1562  1.1008 -0.2095
  400TMC3    C3 5973   2.150   2.235  16.903  0.2764  0.3883 -0.8584
  400TMC3    C4 5974   2.399   2.256  17.021 -0.2410 -0.0342  0.4110
  400TMC3    C5 5975   2.340   2.367  16.969 -0.3756 -0.1729 -0.4556
  400TMC3    C6 5976   2.214   2.355  16.908 -0.7465 -0.2313  0.3619
  400TMC3     C 5977   2.397   2.015  17.076  0.6619 -0.1425 -0.4946
  400TMC3     O 5978   2.348   1.908  17.043 -0.4040 -0.0499  0.3035
  400TMC3     H 5979   2.174   2.024  16.932  2.2018  0.2847 -0.8558
  400TMC3    H1 5980   2.480   2.278  17.090  0.6227  0.9680 -0.9423
  400TMC3    H2 5981   2.177   2.447  16.864  1.8656 -0.9373 -3.3004
  400TMC3    C7 5982   2.410   2.499  16.974  0.1372 -0.6006  0.0851
  400TMC3    C8 5983   2.020   2.216  16.827  0.6779 -0.4528  0.3585
  400TMC3    O1 5984   2.532   2.494  16.976  0.6179 -0.3527 -0.2472
  400TMC3    O2 5985   1.995   2.313  16.755  0.2939 -0.2909 -0.6317
  401MPD2     C 5986   0.376   0.552   0.103  0.2615  0.9694 -0.2808
  401MPD2    C1 5987   0.504   0.541   0.153 -0.5193 -0.2109  0.1526
  401MPD2    C2 5988   0.531   0.432   0.230  0.2951 -0.2303 -0.0432
  401MPD2    C3 5989   0.440   0.333   0.272  0.4295  0.0666  0.3970
  401MPD2    C4 5990   0.312   0.345   0.223  0.0206  0.1751  0.1593
  401MPD2    C5 5991   0.284   0.455   0.139  0.0486  0.5742 -0.2961
  401MPD2     H 5992   0.633   0.421   0.265  0.8346 -1.8577 -2.1180
  401MPD2    H1 5993   0.227   0.281   0.245  0.6002 -0.9591 -0.8752
  401MPD2    H2 5994   0.341   0.630   0.037  1.0418 -0.5762 -2.5282
  401MPD2    H3 5995   0.185   0.473   0.098 -0.3037 -0.5554  0.0619
  401MPD2     N 5996   0.473   0.229   0.357 -0.8473  0.3585 -0.1431
  401MPD2    H5 5997   0.570   0.218   0.383 -0.8760  0.7835  0.1490
  401MPD2    N1 5998   0.601   0.640   0.138  0.2527  0.3367  0.1758
  401MPD2    H7 5999   0.692   0.623   0.178  1.2358  3.1540 -0.8296
  402TMC3    C1 6000   0.433   0.057   0.516 -0.1460  0.1910 -0.3018
  402TMC3    C2 6001   0.370   0.037   0.638  0.3076  0.5985 -1.1033
  402TMC3    C3 6002   0.421   4.672   0.732 -0.1765 -0.2914 -0.0119
  402TMC3    C4 6003   0.554   4.719   0.494  0.0822  0.9468 -0.5392
  402TMC3    C5 6004   0.607   4.641   0.591 -1.0484 -0.0768  0.5718
  402TMC3    C6 6005   0.540   4.601   0.708 -0.0224 -0.3420  0.5487
  402TMC3     C 6006   0.380   0.150   0.420  0.3630 -0.5541 -0.6525
  402TMC3     O 6007   0.261   0.165   0.437  0.5883  0.1229 -0.4955
  402TMC3     H 6008   0.280   0.096   0.652 -0.6544 -0.5634 -2.4437
  402TMC3    H1 6009   0.611   0.004   0.402  1.2659 -2.1941 -0.1617
  402TMC3    H2 6010   0.579   4.528   0.778 -1.5342 -1.4615  0.2346
  402TMC3    C7 6011   0.725   4.576   0.551  0.0045  0.2355  0.4569
  402TMC3    C8 6012   0.377   4.700   0.868 -0.8552 -0.3596 -0.2261
  402TMC3    O1 6013   0.741   4.520   0.444 -0.3245  0.2076 -0.3593
  402TMC3    O2 6014   0.265   0.023   0.879 -0.1129 -0.0521  0.1361
  403MPD2     C 6015   3.608   3.849  13.286 -0.4064 -0.2295 -0.5500
  403MPD2    C1 6016   3.643   3.721  13.322  0.1685 -0.2343 -0.0454
  403MPD2    C2 6017   3.738   3.701  13.414 -0.9696 -0.2805 -0.2136
  403MPD2    C3 6018   3.806   3.799  13.478 -0.3118 -0.2216 -0.0670
  403MPD2    C4 6019   3.764   3.923  13.445 -0.1665  0.6321  0.2303
  403MPD2    C5 6020   3.672   3.949  13.354  0.5918  0.0459 -0.5530
  403MPD2     H 6021   3.763   3.600  13.447 -1.3616  0.1236  1.3156
  403MPD2    H1 6022   3.816   4.010  13.486  2.9473 -2.0522  2.0031
  403MPD2    H2 6023   3.538   3.874  13.207  0.3045 -1.3711 -1.5438
  403MPD2    H3 6024   3.657   4.053  13.330  0.7423  0.6184  1.7520
  403MPD2     N 6025   3.900   3.761  13.583 -0.2897  0.1194 -0.1310
  403MPD2    H5 6026   3.915   3.662  13.601  1.4739  0.3584 -0.3137
  403MPD2    N1 6027   3.570   3.619  13.257 -0.9909 -0.9106 -0.1122
  403MPD2    H7 6028   3.513   3.661  13.184 -0.8947  0.2440  0.4810
  404TMC3    C1 6029   3.495   3.413  13.192  0.0744  0.1763 -0.6428
  404TMC3    C2 6030   3.432   3.341  13.279  0.2484 -0.4301  0.3022
  404TMC3    C3 6031   3.331   3.266  13.233 -0.3173 -0.4552 -0.0757
  404TMC3    C4 6032   3.456   3.442  13.065 -0.1302  0.5775  0.0844
  404TMC3    C5 6033   3.357   3.361  13.026  0.2254 -0.8847 -0.4357
  404TMC3    C6 6034   3.301   3.262  13.100 -0.0220  0.0108 -0.8688
  404TMC3     C 6035   3.598   3.486  13.253 -0.1137 -0.6710  0.5935
  404TMC3     O 6036   3.670   3.424  13.332  0.1042  0.3544  0.2011
  404TMC3     H 6037   3.461   3.349  13.384 -0.0345 -2.8591  0.5501
  404TMC3    H1 6038   3.503   3.525  13.013 -0.2521 -0.0108 -0.9671
  404TMC3    H2 6039   3.215   3.206  13.066  0.3979 -0.2629 -1.4922
  404TMC3    C7 6040   3.305   3.396  12.890 -0.3463 -0.4523 -0.9846
  404TMC3    C8 6041   3.283   3.158  13.312 -0.0701 -0.4838  0.1550
  404TMC3    O1 6042   3.347   3.498  12.851  0.2132 -0.7235  0.0391
  404TMC3    O2 6043   3.251   3.058  13.248 -0.3494 -0.5240  0.0145
  405MPD2     C 6044   4.311   4.183  14.986 -0.1734  0.9449 -0.3045
  405MPD2    C1 6045   4.220   4.085  14.940 -0.7471 -0.2381 -0.1853
  405MPD2    C2 6046   4.148   4.111  14.822  0.3401  0.2090 -0.5543
  405MPD2    C3 6047   4.165   4.228  14.755  0.7780 -0.2217  0.1088
  405MPD2    C4 6048   4.276   4.303  14.781  0.1353  0.1885  0.7175
  405MPD2    C5 6049   4.349   4.276  14.900  0.3033  0.6276  0.1892
  405MPD2     H 6050   4.077   4.035  14.791  0.0779  0.6936 -1.1577
  405MPD2    H1 6051   4.314   4.384  14.720 -2.9172  1.4571  0.4927
  405MPD2    H2 6052   4.356   4.179  15.084  0.9851 -0.4407 -0.8920
  405MPD2    H3 6053   4.419   4.354  14.929 -1.7417  3.0419 -1.4170
  405MPD2     N 6054   4.074   4.245  14.643  0.3366  0.5618  0.0316
  405MPD2    H5 6055   4.003   4.174  14.629  1.0338  0.1396 -1.3630
  405MPD2    N1 6056   4.211   3.965  15.014  0.4626 -0.0506  0.6629
  405MPD2    H7 6057   4.235   3.962  15.113 -0.2743 -0.7429  0.8249
  406TMC3    C1 6058   3.870   4.376  14.286 -0.3226 -0.8927  0.4972
  406TMC3    C2 6059   3.848   4.245  14.247 -0.0815 -0.6247  0.4678
  406TMC3    C3 6060   3.930   4.155  14.309 -0.1009  0.0873  0.5311
  406TMC3    C4 6061   3.955   4.421  14.382 -0.1295  0.4764  0.0362
  406TMC3    C5 6062   4.031   4.328  14.433 -0.5598  0.0660 -0.3407
  406TMC3    C6 6063   4.024   4.194  14.405 -0.4674  0.5134 -0.3049
  406TMC3     C 6064   3.756   4.463  14.264  0.0704 -0.4816  0.4035
  406TMC3     O 6065   3.778   4.581  14.287  0.3572  0.0018  0.5787
  406TMC3     H 6066   3.772   4.222  14.173  0.7402 -1.0808 -0.2464
  406TMC3    H1 6067   3.955   4.522  14.421  3.8751  0.7400 -0.6526
  406TMC3    H2 6068   4.091   4.119  14.446 -1.0736  0.8442  1.2696
  406TMC3    C7 6069   4.081   4.356  14.561 -0.2709 -0.7767  0.3326
  406TMC3    C8 6070   3.890   4.011  14.300 -0.1770 -0.0502 -0.0477
  406TMC3    O1 6071   4.140   4.464  14.584  0.4019  0.0501  0.3570
  406TMC3    O2 6072   3.804   3.978  14.223 -0.5828  0.8492 -0.5630
  407MPD2     C 6073   1.734   1.001   9.285  0.4826  0.4756  0.0971
  407MPD2    C1 6074   1.706   0.891   9.363  0.2963 -0.8817  0.1896
  407MPD2    C2 6075   1.629   0.911   9.475 -0.1654 -0.8088  0.3967
  407MPD2    C3 6076   1.584   1.031   9.516 -0.3436  0.1157  0.2807
  407MPD2    C4 6077   1.610   1.142   9.439 -0.2334 -0.9570  0.2309
  407MPD2    C5 6078   1.693   1.124   9.331  0.0993 -0.5868 -0.0685
  407MPD2     H 6079   1.605   0.820   9.529  0.6136 -1.3643 -0.1715
  407MPD2    H1 6080   1.577   1.243   9.463  2.7315  0.1406 -0.3665
  407MPD2    H2 6081   1.799   0.989   9.199 -2.0062 -1.1851 -1.5430
  407MPD2    H3 6082   1.725   1.215   9.280  1.8141 -1.6900 -0.9917
  407MPD2     N 6083   1.535   1.054   9.650 -0.5098 -0.0372 -0.7713
  407MPD2    H5 6084   1.532   1.149   9.684  1.9046 -0.5398  0.8624
  407MPD2    N1 6085   1.772   0.771   9.338  0.5056 -0.5776  0.1599
  407MPD2    H7 6086   1.748   0.694   9.400 -2.1048 -1.0596 -1.4549
  408TMC3    C1 6087   1.944   0.627   9.291 -0.0360 -0.1752 -0.1047
  408TMC3    C2 6088   2.070   0.631   9.348  0.0097  0.2768 -0.2474
  408TMC3    C3 6089   2.106   0.527   9.431 -0.5625 -0.3301  0.4740
  408TMC3    C4 6090   1.854   0.530   9.327 -0.1385 -0.3140  0.3562
  408TMC3    C5 6091   1.895   0.426   9.407  0.1643  0.4574  0.4795
  408TMC3    C6 6092   2.021   0.424   9.459  0.1719 -0.1973  0.2095
  408TMC3     C 6093   1.887   0.755   9.257 -0.4067 -0.6010  0.2996
  408TMC3     O 6094   1.977   0.837   9.231  0.3473  0.5607  0.3548
  408TMC3     H 6095   2.148   0.696   9.310 -0.0825  0.4191 -0.1941
  408TMC3    H1 6096   1.750   0.524   9.295 -0.3614  0.5695  0.9274
  408TMC3    H2 6097   2.055   0.352   9.533  0.9978  1.5565  1.5186
  408TMC3    C7 6098   1.799   0.326   9.447 -0.2299  0.3398  0.0974
  408TMC3    C8 6099   2.212   0.553   9.532 -0.2770  0.6993  0.1295
  408TMC3    O1 6100   1.681   0.360   9.441 -0.3345 -0.1213 -0.4093
  408TMC3    O2 6101   2.234   0.469   9.614  0.4247  0.1291 -0.3646
  409MPD2     C 6102   1.105   2.011  17.298  0.1918 -0.0638 -0.1474
  409MPD2    C1 6103   1.231   1.976  17.313  0.9719  0.3102  0.3331
  409MPD2    C2 6104   1.330   2.059  17.266  0.2456  0.2342  0.0565
  409MPD2    C3 6105   1.302   2.170  17.188  0.2080 -0.2349 -0.2120
  409MPD2    C4 6106   1.167   2.199  17.170  0.2252 -0.2016  0.1019
  409MPD2    C5 6107   1.073   2.118  17.221  0.4701  0.0811 -0.4258
  409MPD2     H 6108   1.431   2.027  17.291  0.0872 -0.3813 -0.0960
  409MPD2    H1 6109   1.135   2.283  17.108 -1.3712  0.2346  1.5235
  409MPD2    H2 6110   1.020   1.959  17.341  1.1293 -0.6355  1.0013
  409MPD2    H3 6111   0.970   2.147  17.204  0.1937 -1.3008 -1.0948
  409MPD2     N 6112   1.399   2.254  17.125 -0.3975  0.2186 -0.4368
  409MPD2    H5 6113   1.371   2.329  17.063  0.0658 -0.4362 -1.4407
  409MPD2    N1 6114   1.272   1.855  17.376 -0.0880 -0.8075 -0.0816
  409MPD2    H7 6115   1.366   1.854  17.413 -0.7792 -2.2253  1.6375
  410TMC3    C1 6116   1.605   2.327  17.045  0.2728  0.0669  0.4803
  410TMC3    C2 6117   1.725   2.365  17.104  0.0968 -0.4884 -0.3412
  410TMC3    C3 6118   1.810   2.435  17.021  0.6009 -0.2763 -0.0282
  410TMC3    C4 6119   1.577   2.351  16.916 -0.2212 -0.5274 -0.2787
  410TMC3    C5 6120   1.661   2.427  16.844  0.4935 -0.2456  0.3353
  410TMC3    C6 6121   1.779   2.468  16.893  0.2986 -0.2930 -0.0660
  410TMC3     C 6122   1.536   2.242  17.139  0.4257  0.6859 -0.0324
  410TMC3     O 6123   1.609   2.166  17.207  0.1795 -0.2762  0.0546
  410TMC3     H 6124   1.739   2.352  17.210 -0.0209  0.5385 -0.2001
  410TMC3    H1 6125   1.486   2.311  16.872 -0.6062  0.5658 -0.4765
  410TMC3    H2 6126   1.858   2.511  16.832  2.4712 -0.5227  2.5732
  410TMC3    C7 6127   1.626   2.437  16.705 -0.0705 -0.8258  0.8725
  410TMC3    C8 6128   1.939   2.482  17.071  0.0591  0.1951  0.0593
  410TMC3    O1 6129   1.526   2.373  16.674 -0.2819 -0.0026  0.5998
  410TMC3    O2 6130   1.988   2.585  17.029 -0.3927  0.1095 -0.3641
  411MPD2     C 6131   1.527   2.197  14.698  0.3599  0.2811 -0.1143
  411MPD2    C1 6132   1.400   2.230  14.650 -0.2071 -0.4623 -0.5873
  411MPD2    C2 6133   1.312   2.123  14.642  0.0415 -0.1466  0.3615
  411MPD2    C3 6134   1.354   1.992  14.659  0.6741  0.2459  0.1162
  411MPD2    C4 6135   1.487   1.963  14.678  0.0379 -0.4623  0.0065
  411MPD2    C5 6136   1.572   2.064  14.709 -0.3807  0.8572  0.0905
  411MPD2     H 6137   1.209   2.143  14.611  0.5302  1.1752 -0.4171
  411MPD2    H1 6138   1.507   1.864  14.716  2.5879  0.5439  1.2893
  411MPD2    H2 6139   1.598   2.276  14.719  0.3345  0.0825  0.7389
  411MPD2    H3 6140   1.674   2.043  14.739 -0.7450 -2.0255 -0.7408
  411MPD2     N 6141   1.268   1.878  14.657  0.1684  0.1549 -0.1233
  411MPD2    H5 6142   1.318   1.792  14.638  0.9542  0.7203 -0.5974
  411MPD2    N1 6143   1.377   2.368  14.633 -0.1601 -0.0682 -0.7530
  411MPD2    H7 6144   1.456   2.426  14.660  0.3788 -1.5885  0.9193
  412TMC3    C1 6145   1.075   1.751  14.592 -0.7169 -0.2098 -0.1126
  412TMC3    C2 6146   0.961   1.770  14.520 -0.1201 -0.1434  0.5604
  412TMC3    C3 6147   0.940   1.699  14.403  0.2160  0.3664 -0.1230
  412TMC3    C4 6148   1.165   1.663  14.544 -0.3587  0.5244 -0.0869
  412TMC3    C5 6149   1.136   1.577  14.446  0.8490  0.3653  0.2517
  412TMC3    C6 6150   1.023   1.596  14.372  0.0115  0.2501 -0.5070
  412TMC3     C 6151   1.131   1.878  14.630  0.6221 -0.9237  0.7286
  412TMC3     O 6152   1.056   1.974  14.655  0.3061  0.3013  0.4941
  412TMC3     H 6153   0.900   1.857  14.540 -1.6918 -0.8943 -0.9886
  412TMC3    H1 6154   1.262   1.652  14.590 -0.3460  1.2076  0.0500
  412TMC3    H2 6155   1.017   1.539  14.280  2.3606  0.1605 -0.5955
  412TMC3    C7 6156   1.255   1.551  14.383 -1.0334  0.2858 -0.9163
  412TMC3    C8 6157   0.905   1.780  14.286 -0.4107  0.2243  0.4526
  412TMC3    O1 6158   1.323   1.651  14.354  0.2155  0.4844 -0.2330
  412TMC3    O2 6159   0.824   1.873  14.298  0.1148 -0.1151  0.3649
  413MPD2     C 6160   3.236   0.950  15.375  0.9103 -0.0542  0.0723
  413MPD2    C1 6161   3.175   0.848  15.314 -0.1639  0.1649  0.0529
  413MPD2    C2 6162   3.247   0.741  15.271  0.5526 -0.2024 -0.0853
  413MPD2    C3 6163   3.380   0.734  15.299 -0.2851  0.0041 -0.1517
  413MPD2    C4 6164   3.445   0.841  15.363 -0.0387  1.0941  0.0937
  413MPD2    C5 6165   3.374   0.946  15.397  0.9001  0.3952 -0.0967
  413MPD2     H 6166   3.197   0.663  15.216  0.1368  1.2326 -1.7337
  413MPD2    H1 6167   3.552   0.845  15.380  0.1226  0.7789 -0.7955
  413MPD2    H2 6168   3.191   1.040  15.415  0.6925 -0.4415  0.6914
  413MPD2    H3 6169   3.424   1.027  15.449 -1.6855  1.7736  0.2195
  413MPD2     N 6170   3.457   0.622  15.248 -0.9367 -0.3925 -0.1657
  413MPD2    H5 6171   3.413   0.564  15.177  3.0618 -1.0962 -2.0766
  413MPD2    N1 6172   3.037   0.868  15.283 -0.3173  0.3654 -0.4771
  413MPD2    H7 6173   2.999   0.954  15.320 -1.3553 -1.1374  1.9076
  414TMC3    C1 6174   3.631   0.472  15.222 -0.1055 -0.0320 -0.2454
  414TMC3    C2 6175   3.727   0.409  15.292 -0.7120 -0.5583 -0.2899
  414TMC3    C3 6176   3.767   0.294  15.230 -0.5595  0.4678  0.4322
  414TMC3    C4 6177   3.570   0.432  15.104 -0.1439  0.0577 -0.8170
  414TMC3    C5 6178   3.622   0.322  15.049 -0.0624  0.0600  0.7309
  414TMC3    C6 6179   3.717   0.246  15.110 -0.4774  0.4138 -0.1808
  414TMC3     C 6180   3.577   0.583  15.290 -0.1081  0.5332 -0.0637
  414TMC3     O 6181   3.655   0.631  15.376 -0.1901  0.3340 -0.5480
  414TMC3     H 6182   3.769   0.438  15.388 -1.6008 -0.9328  0.2158
  414TMC3    H1 6183   3.484   0.481  15.061  0.2881  0.3098 -1.4028
  414TMC3    H2 6184   3.767   0.168  15.054  0.2407  1.1701 -0.6011
  414TMC3    C7 6185   3.566   0.289  14.919 -0.5229  0.1428  0.7428
  414TMC3    C8 6186   3.863   0.198  15.295 -0.4687 -0.3650  0.2209
  414TMC3    O1 6187   3.444   0.282  14.928  0.2540 -0.3813 -0.0618
  414TMC3    O2 6188   3.863   0.090  15.236  0.2737 -0.1807  0.0500
  415TMC3    C1 6189   0.195   2.515   9.241 -1.0123  0.0825 -0.0522
  415TMC3    C2 6190   0.310   2.588   9.245 -0.6841  0.1977 -0.3519
  415TMC3    C3 6191   0.419   2.530   9.299  0.1402 -0.0716  0.5838
  415TMC3    C4 6192   0.181   2.388   9.277  0.0937 -0.2062 -0.2362
  415TMC3    C5 6193   0.290   2.328   9.337  0.2884 -0.3638 -0.4785
  415TMC3    C6 6194   0.407   2.401   9.348  0.0946  0.3964 -0.0144
  415TMC3     C 6195   0.085   2.557   9.158  0.3085  0.3409  0.3324
  415TMC3     O 6196   0.036   2.460   9.099 -0.0750  0.5962 -0.4731
  415TMC3     H 6197   0.324   2.687   9.202 -2.8982  0.2964 -0.8707
  415TMC3    H1 6198   0.080   2.348   9.271 -1.0456  2.0832  3.7410
  415TMC3    H2 6199   0.493   2.350   9.388  0.1649  0.9111  0.4967
  415TMC3    C7 6200   0.310   2.186   9.336 -0.4123  1.3156 -0.6384
  415TMC3    C8 6201   0.549   2.602   9.284 -0.1651  0.1895 -0.0598
  415TMC3    O1 6202   0.419   2.139   9.341  0.5299  0.6203 -0.4080
  415TMC3    O2 6203   0.650   2.543   9.257  0.1220 -0.1359 -0.1675
  416MPD2     C 6204   1.179   1.976  11.415 -0.1961 -0.0483 -0.3814
  416MPD2    C1 6205   1.089   1.927  11.499  0.1945  0.1460 -0.6441
  416MPD2    C2 6206   1.056   1.793  11.492  0.2337  0.1435 -0.3087
  416MPD2    C3 6207   1.106   1.711  11.394  0.5332 -0.5465 -0.4022
  416MPD2    C4 6208   1.214   1.757  11.319 -0.4912 -0.0664  0.0512
  416MPD2    C5 6209   1.242   1.894  11.323  0.5079  0.4779  0.7121
  416MPD2     H 6210   0.966   1.771  11.549  2.0438 -0.0576  2.4562
  416MPD2    H1 6211   1.256   1.703  11.234 -0.4923  1.0803 -0.6828
  416MPD2    H2 6212   1.209   2.079  11.412 -0.4144  0.0816  1.6123
  416MPD2    H3 6213   1.298   1.943  11.244 -0.0262 -3.0903 -1.8698
  416MPD2     N 6214   1.046   1.584  11.364  0.1734  0.1668  0.4000
  416MPD2    H5 6215   1.091   1.527  11.293  1.9317 -1.1240  2.5435
  416MPD2    N1 6216   1.032   2.012  11.594 -0.4288 -0.0487  0.3683
  416MPD2    H7 6217   1.056   2.111  11.595  2.1871 -0.6771 -1.5215
  417TMC3    C1 6218   0.919   2.099  11.778 -0.4572  0.1299  0.3770
  417TMC3    C2 6219   1.029   2.167  11.814  0.4585 -0.0278  0.2501
  417TMC3    C3 6220   0.992   2.281  11.871  0.3315  0.0560  0.0767
  417TMC3    C4 6221   0.785   2.120  11.791 -1.0056  0.0749  0.4834
  417TMC3    C5 6222   0.754   2.243  11.843 -0.1915  0.0201  0.4731
  417TMC3    C6 6223   0.858   2.319  11.882 -0.1980 -0.3383 -0.4888
  417TMC3     C 6224   0.950   1.976  11.698  0.1128 -0.5537  0.1138
  417TMC3     O 6225   0.903   1.866  11.729 -0.8642 -0.0675 -0.2596
  417TMC3     H 6226   1.130   2.129  11.815  1.0344  1.4795  0.1657
  417TMC3    H1 6227   0.707   2.072  11.734 -0.8834 -0.7820  1.0290
  417TMC3    H2 6228   0.840   2.414  11.930 -0.6043 -0.8306  0.3218
  417TMC3    C7 6229   0.642   2.314  11.775 -1.0349  0.3907  0.8348
  417TMC3    C8 6230   1.087   2.325  11.978 -0.2589  0.8273 -0.1464
  417TMC3    O1 6231   0.664   2.420  11.723 -0.6195  0.0284  0.1467
  417TMC3    O2 6232   1.207   2.332  11.959  0.0515  1.0399  0.6819
  418TMC3    C1 6233   0.090   4.254   0.047 -0.0384 -0.6502 -0.3298
  418TMC3    C2 6234   0.007   4.351   0.078 -0.0717  0.5478  0.1492
  418TMC3    C3 6235   4.677   4.348   0.204 -0.5665  0.2169 -1.1360
  418TMC3    C4 6236   0.151   4.178   0.150  0.5448  0.3803 -0.3210
  418TMC3    C5 6237   0.128   4.204   0.283  0.1357 -0.3782  0.4364
  418TMC3    C6 6238   0.015   4.284   0.306  0.8356 -0.0371  0.5251
  418TMC3     C 6239   0.135   4.238  17.617 -0.0642  0.1364  0.2987
  418TMC3     O 6240   0.118   4.319  17.529  0.8851 -0.1878 -1.0912
  418TMC3     H 6241   4.681   4.405  17.700 -0.0886  1.3472  0.6974
  418TMC3    H1 6242   0.242   4.124   0.130  0.8361  0.9427 -0.5082
  418TMC3    H2 6243   4.684   4.279   0.399 -0.4898  0.5415 -0.2393
  418TMC3    C7 6244   0.155   4.098   0.377  0.4235  0.2941 -0.3768
  418TMC3    C8 6245   4.528   4.336   0.217 -0.4223 -0.7518  0.4238
  418TMC3    O1 6246   0.222   4.004   0.336  0.2291 -0.1987  0.2906
  418TMC3    O2 6247   4.457   4.430   0.180 -0.2273  0.3966  0.0932
  419MPD2     C 6248   2.994   1.708  13.111  0.7740  0.4160  0.5270
  419MPD2    C1 6249   2.954   1.824  13.054  0.3633 -0.8753 -0.0682
  419MPD2    C2 6250   2.965   1.943  13.125 -0.4165 -0.4044 -0.7017
  419MPD2    C3 6251   3.002   1.935  13.260 -0.0469 -0.0978  0.2432
  419MPD2    C4 6252   3.028   1.813  13.322  0.0356  0.0451  0.3974
  419MPD2    C5 6253   3.022   1.699  13.247  0.6824  0.0299 -0.3473
  419MPD2     H 6254   2.934   2.036  13.078  0.0698  0.1531  0.0729
  419MPD2    H1 6255   3.045   1.813  13.429  0.6934  0.5735  0.2895
  419MPD2    H2 6256   2.995   1.617  13.052 -1.0205  0.8830 -0.2241
  419MPD2    H3 6257   3.045   1.605  13.297  0.4342  0.4810  0.6081
  419MPD2     N 6258   2.986   2.059  13.332 -0.3687  1.0146 -0.2170
  419MPD2    H5 6259   2.961   2.137  13.271 -0.9923  0.6110 -0.4791
  419MPD2    N1 6260   2.897   1.837  12.928  0.1112 -0.5174 -0.1331
  419MPD2    H7 6261   2.877   1.932  12.899 -2.5181 -1.2091 -0.5937
  420TMC3    C1 6262   2.916   2.205  13.490  0.6271 -0.0989 -0.2769
  420TMC3    C2 6263   2.948   2.310  13.408 -0.5458 -0.5967 -0.3817
  420TMC3    C3 6264   2.855   2.398  13.373 -0.6193 -0.1204 -0.7504
  420TMC3    C4 6265   2.782   2.189  13.531 -0.2878 -0.1133 -0.6936
  420TMC3    C5 6266   2.687   2.284  13.501 -0.0414  0.0396 -0.6255
  420TMC3    C6 6267   2.725   2.391  13.421 -0.0285 -0.0873  0.4611
  420TMC3     C 6268   2.977   2.083  13.467 -0.6518  0.1686 -0.2132
  420TMC3     O 6269   3.003   2.014  13.565 -0.1284  0.1292  0.7293
  420TMC3     H 6270   3.051   2.326  13.376  0.4256 -0.9590  2.5627
  420TMC3    H1 6271   2.767   2.092  13.577  0.3677  0.5897  0.9906
  420TMC3    H2 6272   2.648   2.467  13.417 -0.5056 -0.6409 -1.1266
  420TMC3    C7 6273   2.557   2.227  13.498 -0.6847  0.4956  0.2089
  420TMC3    C8 6274   2.903   2.522  13.320  0.4187  0.6165 -0.0995
  420TMC3    O1 6275   2.537   2.142  13.584 -0.6434 -0.3261  0.1161
  420TMC3    O2 6276   3.023   2.545  13.338  0.2261 -0.4174  0.1249
  421TMC3    C1 6277   4.035   3.791  13.780 -0.2045 -0.1944  0.0543
  421TMC3    C2 6278   4.069   3.881  13.878 -0.2499 -0.0119 -0.4439
  421TMC3    C3 6279   4.144   3.826  13.980 -0.3770  0.2702 -1.0182
  421TMC3    C4 6280   4.080   3.666  13.760 -0.2349  0.0858 -0.5285
  421TMC3    C5 6281   4.148   3.615  13.861  0.0635  0.0379  0.0162
  421TMC3    C6 6282   4.184   3.693  13.971  0.3703  0.3561 -0.3359
  421TMC3     C 6283   3.951   3.850  13.669  0.3047 -0.5808  0.4491
  421TMC3     O 6284   3.930   3.971  13.666  0.2108 -0.4672 -0.2686
  421TMC3     H 6285   4.023   3.978  13.890 -1.7693 -0.4991 -2.3710
  421TMC3    H1 6286   4.045   3.598  13.683  0.9689  0.2063 -1.1892
  421TMC3    H2 6287   4.258   3.655  14.041  0.1110 -0.4859 -0.5170
  421TMC3    C7 6288   4.214   3.479  13.845  0.0074 -0.2216  0.1667
  421TMC3    C8 6289   4.193   3.911  14.083  0.3953  0.6262 -0.5550
  421TMC3    O1 6290   4.263   3.433  13.948 -0.8299 -0.3976  0.0118
  421TMC3    O2 6291   4.219   4.027  14.058 -0.5962  0.4683  0.0811
  422TMC3    C1 6292   1.616   0.225  12.869 -0.2085  0.6933 -0.3054
  422TMC3    C2 6293   1.679   0.263  12.989 -0.4127  0.3257 -0.4269
  422TMC3    C3 6294   1.590   0.308  13.084  0.3125 -0.1382 -0.2371
  422TMC3    C4 6295   1.486   0.183  12.856  0.0508  0.3455 -1.0371
  422TMC3    C5 6296   1.415   0.194  12.971 -0.3804 -0.2316  0.0421
  422TMC3    C6 6297   1.469   0.255  13.084  0.6156  0.0152  0.0397
  422TMC3     C 6298   1.697   0.235  12.752  0.0976 -0.1023  0.5723
  422TMC3     O 6299   1.791   0.309  12.756 -0.3669  0.2154 -0.5257
  422TMC3     H 6300   1.783   0.294  12.991  0.5981 -3.1959  0.2775
  422TMC3    H1 6301   1.433   0.162  12.763 -3.4159  1.5975  0.6633
  422TMC3    H2 6302   1.397   0.267  13.164  0.0358 -1.9616 -0.1853
  422TMC3    C7 6303   1.272   0.167  12.967  0.1825  0.2405 -0.3117
  422TMC3    C8 6304   1.594   0.447  13.118  0.2629 -0.4463  0.1343
  422TMC3    O1 6305   1.206   0.204  13.062  0.2251  0.2379 -0.3485
  422TMC3    O2 6306   1.709   0.491  13.113  0.3261 -0.0151 -0.2008
  423MPD2     C 6307   3.290   1.429   0.944  0.7711  0.6478 -0.0755
  423MPD2    C1 6308   3.310   1.292   0.958  0.2839  0.8954  0.3088
  423MPD2    C2 6309   3.301   1.214   0.841  0.0090 -0.6765  0.2010
  423MPD2    C3 6310   3.264   1.281   0.717 -0.0850 -0.4143  0.4168
  423MPD2    C4 6311   3.248   1.420   0.713  0.2306  0.4499  0.1580
  423MPD2    C5 6312   3.267   1.496   0.828 -0.1846  0.3242 -0.4371
  423MPD2     H 6313   3.325   1.109   0.848  0.7538 -0.4515  0.9997
  423MPD2    H1 6314   3.221   1.474   0.623  0.8401 -1.2008 -1.0068
  423MPD2    H2 6315   3.279   1.493   1.030 -0.5701  0.4358 -0.0857
  423MPD2    H3 6316   3.249   1.602   0.831  0.2427  0.4242 -1.3638
  423MPD2     N 6317   3.262   1.207   0.592 -0.0266 -0.0024 -0.5329
  423MPD2    H5 6318   3.238   1.272   0.518  0.2962  0.2564 -0.4110
  423MPD2    N1 6319   3.325   1.224   1.078 -0.4970  0.0089 -0.5874
  423MPD2    H7 6320   3.313   1.123   1.074 -2.6722  0.2187  1.1396
  424TMC3    C1 6321   3.390   1.189   1.296 -0.0235 -0.1758 -0.1416
  424TMC3    C2 6322   3.511   1.166   1.354  0.1565 -0.2083  1.1678
  424TMC3    C3 6323   3.529   1.056   1.432  0.2981 -0.2425 -0.4060
  424TMC3    C4 6324   3.288   1.094   1.310 -0.3467  0.0221  0.1231
  424TMC3    C5 6325   3.311   0.979   1.387 -0.3566  0.9336  0.5064
  424TMC3    C6 6326   3.433   0.957   1.448 -0.8452  0.4683  0.0634
  424TMC3     C 6327   3.371   1.286   1.189 -0.2403  0.0155 -0.0679
  424TMC3     O 6328   3.425   1.396   1.200 -0.0860 -0.3712  1.0115
  424TMC3     H 6329   3.584   1.246   1.345  0.3064 -0.7926 -2.7296
  424TMC3    H1 6330   3.201   1.097   1.246 -0.4443  1.0723  0.3114
  424TMC3    H2 6331   3.457   0.862   1.494  0.6834  0.5693 -0.5347
  424TMC3    C7 6332   3.199   0.886   1.407  0.6962  0.2279 -0.0358
  424TMC3    C8 6333   3.663   1.028   1.482  0.0070 -0.2906 -0.2013
  424TMC3    O1 6334   3.222   0.773   1.440 -0.2010  0.4411 -0.4489
  424TMC3    O2 6335   3.753   1.095   1.434 -0.2451 -0.1456 -0.1882
  425MPD2     C 6336   2.353   0.784  17.328 -0.3272  0.7539 -0.2950
  425MPD2    C1 6337   2.288   0.667  17.360 -0.2144 -0.5621  0.1097
  425MPD2    C2 6338   2.174   0.670  17.435 -0.1794 -0.4273 -0.1239
  425MPD2    C3 6339   2.119   0.784  17.469  0.5632  0.2854 -0.4653
  425MPD2    C4 6340   2.181   0.900  17.444 -0.6125  0.2506 -0.0203
  425MPD2    C5 6341   2.293   0.900  17.364 -0.6428 -0.1171  0.1723
  425MPD2     H 6342   2.121   0.578  17.454 -0.9391 -0.0847 -0.6051
  425MPD2    H1 6343   2.155   0.996  17.487 -1.5147 -0.2980  0.6586
  425MPD2    H2 6344   2.447   0.781  17.274 -1.0145 -0.6115 -1.4119
  425MPD2    H3 6345   2.346   0.993  17.342 -0.3470 -0.5476 -0.9792
  425MPD2     N 6346   2.003   0.767  17.545  0.2009 -0.3232 -0.5789
  425MPD2    H5 6347   1.969   0.672  17.554 -0.5836  0.1801  1.8092
  425MPD2    N1 6348   2.345   0.538  17.327  0.2857 -0.4170 -0.2814
  425MPD2    H7 6349   2.436   0.537  17.282 -0.5746 -1.8218 -1.9744
  426TMC3    C1 6350   2.349   0.301  17.289 -0.0988  0.4895  0.1706
  426TMC3    C2 6351   2.304   0.215  17.194 -0.0464  0.5518  0.1730
  426TMC3    C3 6352   2.391   0.125  17.143 -0.6556 -0.0493 -0.1937
  426TMC3    C4 6353   2.475   0.289  17.330 -0.5173  0.2044  0.7833
  426TMC3    C5 6354   2.564   0.196  17.286 -0.4485  0.1139 -0.9441
  426TMC3    C6 6355   2.526   0.114  17.187 -0.5059  0.1229 -0.4109
  426TMC3     C 6356   2.271   0.422  17.317  0.2754  0.1375  0.6645
  426TMC3     O 6357   2.150   0.416  17.317  0.2065 -0.9272 -0.4334
  426TMC3     H 6358   2.203   0.236  17.161 -0.7565  0.6519  2.3532
  426TMC3    H1 6359   2.510   0.368  17.396  0.4347  1.2773 -0.9977
  426TMC3    H2 6360   2.587   0.029  17.159  1.1075  0.3882  2.3022
  426TMC3    C7 6361   2.652   0.139  17.384 -0.3034  0.2616 -0.3530
  426TMC3    C8 6362   2.354   0.045  17.032  0.1318  0.3472 -0.1916
  426TMC3    O1 6363   2.735   0.055  17.351  0.2019  0.2215  0.1886
  426TMC3    O2 6364   2.445   4.712  16.972  0.1441 -0.4524 -0.3528
  427MPD2     C 6365   0.508   2.377  14.944 -1.1629  0.0890 -0.4629
  427MPD2    C1 6366   0.519   2.417  15.081 -0.3769  0.3679  0.3760
  427MPD2    C2 6367   0.416   2.479  15.145 -0.3955 -0.4487  0.9069
  427MPD2    C3 6368   0.294   2.496  15.085  0.0461  0.9925  0.0689
  427MPD2    C4 6369   0.288   2.438  14.963  0.8688  0.8295 -0.4412
  427MPD2    C5 6370   0.390   2.391  14.885  0.0155  0.1250  0.4579
  427MPD2     H 6371   0.433   2.504  15.249  1.3252 -1.6265  0.9180
  427MPD2    H1 6372   0.204   2.430  14.894  0.9824 -1.6082 -0.2953
  427MPD2    H2 6373   0.589   2.325  14.894 -0.5017  0.8571 -0.1918
  427MPD2    H3 6374   0.364   2.370  14.782  0.0505  0.2122  0.4311
  427MPD2     N 6375   0.174   2.534  15.146 -0.2077  0.2020 -0.0936
  427MPD2    H5 6376   0.096   2.515  15.084 -1.3461  0.0168  1.3919
  427MPD2    N1 6377   0.646   2.397  15.148 -0.4294 -0.2770 -0.5412
  427MPD2    H7 6378   0.642   2.385  15.249 -2.0086 -1.0934 -0.7030
  428TMC3    C1 6379   0.872   2.328  15.174 -0.6436  0.8816 -0.2083
  428TMC3    C2 6380   0.830   2.242  15.274  0.0765  0.1311 -0.3190
  428TMC3    C3 6381   0.920   2.217  15.374 -0.7027 -0.0001  0.2145
  428TMC3    C4 6382   0.990   2.398  15.169  0.6852 -0.0860 -0.5620
  428TMC3    C5 6383   1.077   2.360  15.273 -0.2707 -0.1795  0.4060
  428TMC3    C6 6384   1.040   2.280  15.377 -0.2800 -0.7284 -0.2902
  428TMC3     C 6385   0.769   2.374  15.085  0.4657 -0.3008  0.5138
  428TMC3     O 6386   0.805   2.420  14.976  0.6412  0.1633 -0.6576
  428TMC3     H 6387   0.732   2.199  15.263 -0.3260  0.7584  0.7713
  428TMC3    H1 6388   1.013   2.476  15.098  2.3280 -0.5263 -0.5265
  428TMC3    H2 6389   1.109   2.260  15.458 -2.5127 -3.0414  1.0439
  428TMC3    C7 6390   1.210   2.409  15.279 -0.2344 -0.2794  0.1645
  428TMC3    C8 6391   0.940   2.081  15.405 -0.4933 -0.6702 -0.1825
  428TMC3    O1 6392   1.258   2.436  15.384 -0.3446 -0.1270 -0.1758
  428TMC3    O2 6393   1.057   2.048  15.421  0.4847 -0.5642 -0.5397
  429MPD2     C 6394   1.402   2.900  17.516  0.2020  0.4897  0.7044
  429MPD2    C1 6395   1.538   2.895  17.552  0.1936  0.1833 -0.7150
  429MPD2    C2 6396   1.637   2.973  17.483 -0.8994 -0.6904 -0.6503
  429MPD2    C3 6397   1.604   3.044  17.370 -0.2251  0.2149 -0.0378
  429MPD2    C4 6398   1.471   3.055  17.349 -0.9047  0.5319 -0.1603
  429MPD2    C5 6399   1.368   2.982  17.414  0.2215 -0.0185  0.0595
  429MPD2     H 6400   1.740   2.962  17.512 -0.5253  0.1726 -1.6461
  429MPD2    H1 6401   1.438   3.118  17.267 -1.6052 -1.9730 -1.7937
  429MPD2    H2 6402   1.321   2.852  17.569  0.2739 -1.1847 -0.7208
  429MPD2    H3 6403   1.266   2.990  17.379 -1.2115  3.4008  5.0076
  429MPD2     N 6404   1.704   3.106  17.297  0.6824 -0.5131  0.3811
  429MPD2    H5 6405   1.800   3.077  17.317  0.7893 -1.1702 -1.0867
  429MPD2    N1 6406   1.587   2.807  17.656  0.4616 -0.5211  0.8230
  429MPD2    H7 6407   1.685   2.814  17.679 -0.2356  1.8578  3.1155
  430TMC3    C1 6408   1.799   3.235  17.130  0.1723  0.4923 -0.0635
  430TMC3    C2 6409   1.784   3.315  17.016  0.5629 -0.6531 -0.3940
  430TMC3    C3 6410   1.904   3.329  16.938 -0.5849  0.0952 -0.0598
  430TMC3    C4 6411   1.919   3.170  17.159 -0.0906  0.1653  1.2593
  430TMC3    C5 6412   2.026   3.183  17.074 -0.2668  0.0941  0.0722
  430TMC3    C6 6413   2.019   3.262  16.966 -0.2237  0.4988 -0.0920
  430TMC3     C 6414   1.676   3.199  17.194  1.1666 -0.4941 -0.3764
  430TMC3     O 6415   1.571   3.235  17.136 -0.3030 -0.2033  0.0842
  430TMC3     H 6416   1.686   3.338  16.974  1.3377  1.2738 -1.1358
  430TMC3    H1 6417   1.942   3.104  17.242  3.0568 -1.9764 -1.2865
  430TMC3    H2 6418   2.108   3.271  16.906  0.7114  0.2221  1.2496
  430TMC3    C7 6419   2.099   3.059  17.056  0.2426 -0.1939 -0.1100
  430TMC3    C8 6420   1.889   3.334  16.788 -0.5068 -0.1155 -0.8670
  430TMC3    O1 6421   2.041   2.956  17.092 -0.2746  0.3188 -0.1981
  430TMC3    O2 6422   1.985   3.294  16.727 -0.1514 -0.1411  0.3246
  431MPD2     C 6423   2.343   2.482  12.700  0.2535  0.5118  0.4683
  431MPD2    C1 6424   2.456   2.476  12.627  0.0350 -0.7689 -0.2397
  431MPD2    C2 6425   2.532   2.364  12.613  0.4232  1.3596  0.2892
  431MPD2    C3 6426   2.485   2.246  12.663  0.0120 -0.0689 -0.5194
  431MPD2    C4 6427   2.378   2.253  12.758 -0.2426  0.3647 -0.1808
  431MPD2    C5 6428   2.310   2.369  12.771  0.0056 -0.2328  0.3860
  431MPD2     H 6429   2.620   2.368  12.551 -0.4263  1.5789 -0.9044
  431MPD2    H1 6430   2.334   2.172  12.815 -0.1885  0.5712  0.1546
  431MPD2    H2 6431   2.289   2.576  12.712  0.4614  0.5322  1.2568
  431MPD2    H3 6432   2.225   2.376  12.838  0.3279  4.7420  0.2933
  431MPD2     N 6433   2.559   2.122  12.663 -0.2699 -0.3340 -0.3722
  431MPD2    H5 6434   2.518   2.041  12.709 -0.9427  2.0120  3.1383
  431MPD2    N1 6435   2.513   2.592  12.561  0.5181  0.3206 -0.3009
  431MPD2    H7 6436   2.593   2.585  12.498  1.1814 -3.1266  0.8921
  432TMC3    C1 6437   2.726   1.967  12.603 -1.2424  0.4356 -0.6426
  432TMC3    C2 6438   2.778   1.916  12.488 -0.6955  0.1297 -0.3357
  432TMC3    C3 6439   2.826   1.793  12.495 -0.0624  0.1768 -0.1183
  432TMC3    C4 6440   2.740   1.910  12.730 -0.1400  0.1534 -0.0616
  432TMC3    C5 6441   2.799   1.787  12.729  1.1232  0.1976 -0.1552
  432TMC3    C6 6442   2.841   1.729  12.609  0.1239 -0.5150 -0.2088
  432TMC3     C 6443   2.669   2.104  12.585  0.0144 -0.4337  0.2801
  432TMC3     O 6444   2.700   2.173  12.492  0.4732 -0.2984  0.1867
  432TMC3     H 6445   2.761   1.968  12.395  1.1691 -0.5728 -1.0475
  432TMC3    H1 6446   2.707   1.947  12.826 -1.9615  1.5312 -1.2242
  432TMC3    H2 6447   2.884   1.630  12.609  1.7631  0.1907  0.5438
  432TMC3    C7 6448   2.854   1.736  12.849 -0.3491  0.2924  0.0000
  432TMC3    C8 6449   2.894   1.728  12.387 -1.0540 -0.0336  0.2072
  432TMC3    O1 6450   2.881   1.616  12.848 -0.5022  0.0075 -0.5217
  432TMC3    O2 6451   2.899   1.603  12.389 -0.0583  0.6773  0.2312
  433MPD2     C 6452   1.537   0.822  10.465 -0.0369  0.2155  0.6470
  433MPD2    C1 6453   1.566   0.756  10.581 -0.0661 -0.5522  0.5978
  433MPD2    C2 6454   1.610   0.825  10.693 -0.5310 -0.2890  0.6261
  433MPD2    C3 6455   1.628   0.957  10.688 -0.0459  0.4432  0.7375
  433MPD2    C4 6456   1.599   1.026  10.576  0.1015  0.1473 -0.6075
  433MPD2    C5 6457   1.553   0.959  10.463  1.1229  0.3877 -0.1682
  433MPD2     H 6458   1.656   0.768  10.773  1.3721 -0.3989 -0.5336
  433MPD2    H1 6459   1.610   1.133  10.565  0.3702 -0.0533 -2.3060
  433MPD2    H2 6460   1.506   0.769  10.375 -1.5951  0.2490  1.1557
  433MPD2    H3 6461   1.532   1.019  10.375  1.3024  1.4363  0.4984
  433MPD2     N 6462   1.686   1.015  10.800  0.0462 -0.0152  0.1634
  433MPD2    H5 6463   1.701   0.949  10.874 -1.3427  0.2927  0.7264
  433MPD2    N1 6464   1.572   0.618  10.570 -0.5825 -0.5424 -0.3864
  433MPD2    H7 6465   1.552   0.570  10.483 -0.4918 -1.2019 -0.0414
  434TMC3    C1 6466   1.657   0.414  10.612 -0.5651  0.0105  0.5862
  434TMC3    C2 6467   1.719   0.327  10.700  0.4538  0.5512 -0.6775
  434TMC3    C3 6468   1.808   0.239  10.654 -0.4705  0.2688  0.1423
  434TMC3    C4 6469   1.669   0.399  10.477 -0.9344 -0.3362 -0.1249
  434TMC3    C5 6470   1.741   0.291  10.425  0.0676 -0.4066 -0.2841
  434TMC3    C6 6471   1.816   0.208  10.518  0.5712 -0.3715  0.0728
  434TMC3     C 6472   1.621   0.540  10.667 -0.4607  0.2381 -0.1610
  434TMC3     O 6473   1.634   0.553  10.785  0.0357 -0.4854  0.3693
  434TMC3     H 6474   1.715   0.351  10.805  0.0225  3.1314 -1.2694
  434TMC3    H1 6475   1.605   0.456  10.410  1.7741  3.1650  0.2292
  434TMC3    H2 6476   1.887   0.133  10.484  0.5013 -0.6321  0.5037
  434TMC3    C7 6477   1.722   0.249  10.286 -1.0322 -0.5232 -0.1373
  434TMC3    C8 6478   1.929   0.240  10.733 -0.3085  0.3200 -0.0843
  434TMC3    O1 6479   1.656   0.322  10.217  0.1072  0.2728 -0.2487
  434TMC3    O2 6480   1.937   0.334  10.808 -0.2445 -0.0509  0.1436
  435MPD2     C 6481   3.371   1.355  15.623  0.1812 -0.2786  0.1882
  435MPD2    C1 6482   3.386   1.395  15.753  0.2985 -0.5582  1.1134
  435MPD2    C2 6483   3.509   1.373  15.817 -0.3550 -0.3786 -0.5743
  435MPD2    C3 6484   3.617   1.310  15.755 -0.3752  0.3956  0.0665
  435MPD2    C4 6485   3.598   1.270  15.624  0.3260  0.4256  0.3269
  435MPD2    C5 6486   3.475   1.290  15.556 -0.0020  0.6426  0.0286
  435MPD2     H 6487   3.513   1.408  15.920  0.9813  1.8351 -1.3882
  435MPD2    H1 6488   3.683   1.237  15.564  1.6420  2.5558  1.0131
  435MPD2    H2 6489   3.280   1.369  15.566  0.0482  0.3910  0.5571
  435MPD2    H3 6490   3.467   1.263  15.451  0.0444 -0.4228  0.2983
  435MPD2     N 6491   3.739   1.310  15.822  0.4623  0.4815 -0.6588
  435MPD2    H5 6492   3.749   1.362  15.908 -0.5096 -0.5999  0.1000
  435MPD2    N1 6493   3.283   1.457  15.821 -0.0183 -0.3785  0.1439
  435MPD2    H7 6494   3.303   1.479  15.918  0.4164  0.6653 -0.1888
  436TMC3    C1 6495   3.072   1.631  16.090 -0.5976 -0.4035  0.1421
  436TMC3    C2 6496   3.150   1.615  15.977 -0.1775 -0.5118 -0.4729
  436TMC3    C3 6497   3.087   1.575  15.866  0.2623  0.7261 -0.5841
  436TMC3    C4 6498   2.938   1.596  16.088  0.6167  0.1331  1.0133
  436TMC3    C5 6499   2.881   1.556  15.966 -1.0061  0.5009  0.7975
  436TMC3    C6 6500   2.954   1.556  15.854 -0.4433  0.4868 -0.0551
  436TMC3     C 6501   3.142   1.697  16.187 -0.2243 -0.1366 -0.7377
  436TMC3     O 6502   3.261   1.718  16.176 -0.3652 -0.6604 -0.1291
  436TMC3     H 6503   3.254   1.645  15.978  0.0496 -1.3236  1.4597
  436TMC3    H1 6504   2.869   1.601  16.172 -1.5903  1.2160 -0.8821
  436TMC3    H2 6505   2.915   1.534  15.755 -1.3990  0.7488  0.2569
  436TMC3    C7 6506   2.741   1.567  15.942 -0.2652  0.7542 -0.1525
  436TMC3    C8 6507   3.167   1.504  15.769 -0.6022 -1.0178  0.2301
  436TMC3    O1 6508   2.707   1.593  15.828 -0.2572  0.5212  0.1787
  436TMC3    O2 6509   3.120   1.497  15.656 -0.4398  0.0232  0.0423
  437TMC3    C1 6510   2.174   3.561  11.966  1.1905  0.1704 -0.3954
  437TMC3    C2 6511   2.138   3.692  12.002 -0.1745  0.1406 -0.6202
  437TMC3    C3 6512   2.233   3.794  11.991  0.1583  0.0964  0.4995
  437TMC3    C4 6513   2.288   3.546  11.894  0.0509 -0.8175  0.1322
  437TMC3    C5 6514   2.376   3.649  11.878  0.0747  0.0244  0.7356
  437TMC3    C6 6515   2.356   3.776  11.935  0.1923 -0.4194 -0.8206
  437TMC3     C 6516   2.147   3.465  12.073 -0.5133  0.4327  0.2297
  437TMC3     O 6517   2.151   3.345  12.039  0.6411 -0.0809  0.2284
  437TMC3     H 6518   2.044   3.711  12.051 -0.2361 -0.2538 -0.5907
  437TMC3    H1 6519   2.314   3.444  11.866  0.4826  0.2835 -3.4136
  437TMC3    H2 6520   2.432   3.853  11.935  2.2405 -2.4431  0.6113
  437TMC3    C7 6521   2.515   3.600  11.878 -0.1127 -0.1064 -0.7915
  437TMC3    C8 6522   2.188   3.929  12.027 -0.2362 -0.1805 -0.5605
  437TMC3    O1 6523   2.532   3.492  11.824  0.1016  0.3138 -0.4895
  437TMC3    O2 6524   2.096   3.934  12.109  0.1059 -0.4034 -0.5379
  438MPD2     C 6525   0.051   3.988  16.519 -0.2950 -0.3463 -0.7270
  438MPD2    C1 6526   0.157   3.947  16.595 -0.0293  0.4464 -0.6939
  438MPD2    C2 6527   0.135   3.917  16.724  0.0638  0.1728 -0.4752
  438MPD2    C3 6528   0.015   3.930  16.787 -1.4180 -0.2522 -0.3880
  438MPD2    C4 6529   4.636   3.983  16.706  0.1406 -0.1180  0.8645
  438MPD2    C5 6530   4.655   3.999  16.572  0.5736  0.3908 -0.0386
  438MPD2     H 6531   0.225   3.902  16.783 -0.1362 -2.2138 -0.7679
  438MPD2    H1 6532   4.534   3.990  16.743  0.0031  0.6523  0.3615
  438MPD2    H2 6533   0.074   4.009  16.415  2.2529  1.2816  0.1462
  438MPD2    H3 6534   4.580   4.027  16.498 -0.0114 -1.9104 -0.3210
  438MPD2     N 6535   4.716   3.896  16.919 -0.2353 -0.0954  0.4514
  438MPD2    H5 6536   4.631   3.931  16.962 -1.6188  0.1151 -2.4624
  438MPD2    N1 6537   0.283   3.921  16.547 -0.5537  0.4950  0.4581
  438MPD2    H7 6538   0.348   3.872  16.609  0.8432  1.0842 -0.5343
  439TMC3    C1 6539   0.472   3.929  16.403  0.3208 -0.4895  0.2522
  439TMC3    C2 6540   0.509   3.931  16.265 -0.1013  0.5706  0.1268
  439TMC3    C3 6541   0.622   3.855  16.232  0.1696 -0.4659 -0.2332
  439TMC3    C4 6542   0.538   3.850  16.492 -0.1080 -0.0765  0.1708
  439TMC3    C5 6543   0.640   3.778  16.454  0.0788 -0.3146  0.8793
  439TMC3    C6 6544   0.693   3.783  16.324  0.5648 -0.1416 -0.2967
  439TMC3     C 6545   0.330   3.968  16.422 -0.6976 -0.7533  0.0771
  439TMC3     O 6546   0.278   4.036  16.337  0.2068 -0.4944 -0.0645
  439TMC3     H 6547   0.457   3.999  16.199  0.3564  0.0117 -0.8171
  439TMC3    H1 6548   0.506   3.855  16.595  2.4419 -2.6663  1.1000
  439TMC3    H2 6549   0.790   3.738  16.303  0.6519 -0.6103  1.1448
  439TMC3    C7 6550   0.714   3.715  16.566  0.7426 -0.9749  0.3174
  439TMC3    C8 6551   0.694   3.860  16.106  0.6959  0.2149  0.2665
  439TMC3    O1 6552   0.675   3.732  16.684 -0.1910 -0.0210  0.3791
  439TMC3    O2 6553   0.816   3.860  16.089  0.5343 -0.2529  0.0917
  440MPD2     C 6554   3.814   4.554  14.807 -0.1387  0.0582 -0.0993
  440MPD2    C1 6555   3.740   4.494  14.910  0.2323  0.1673 -0.5303
  440MPD2    C2 6556   3.809   4.427  15.011 -0.1574 -0.0985 -0.0160
  440MPD2    C3 6557   3.947   4.413  15.009  0.2782  0.2947 -0.8818
  440MPD2    C4 6558   4.016   4.484  14.917 -0.1453 -0.0917 -0.5410
  440MPD2    C5 6559   3.946   4.548  14.817 -0.1711  1.2862  0.1022
  440MPD2     H 6560   3.747   4.384  15.089  0.6158 -1.0782  0.0631
  440MPD2    H1 6561   4.123   4.478  14.906  0.0679 -0.6849  1.9130
  440MPD2    H2 6562   3.768   4.601  14.721  0.0084 -1.4748 -1.0093
  440MPD2    H3 6563   3.998   4.583  14.729  0.8406  1.0487  0.6028
  440MPD2     N 6564   4.018   4.350  15.115  0.1169 -0.2192 -0.8416
  440MPD2    H5 6565   4.115   4.380  15.121 -0.0088  0.5099 -2.5469
  440MPD2    N1 6566   3.605   4.528  14.925  0.3758  0.3484 -0.1768
  440MPD2    H7 6567   3.556   4.509  15.012  0.9798  2.5798  0.6559
  441TMC3    C1 6568   4.053   4.251  15.321 -0.3441 -0.0627 -1.8060
  441TMC3    C2 6569   4.135   4.359  15.354  0.1091  0.1057 -0.0331
  441TMC3    C3 6570   4.211   4.352  15.472 -0.2734  0.7748 -0.5736
  441TMC3    C4 6571   4.032   4.151  15.407 -0.0186  0.1229  0.0012
  441TMC3    C5 6572   4.100   4.154  15.528  0.0306  0.2506 -0.1236
  441TMC3    C6 6573   4.192   4.252  15.565  0.2220 -0.0936  0.5288
  441TMC3     C 6574   3.963   4.276  15.213  0.2443  0.3674  0.0272
  441TMC3     O 6575   3.853   4.226  15.228  0.3939 -0.6608 -0.5166
  441TMC3     H 6576   4.155   4.446  15.292 -0.2779 -0.1763 -0.5507
  441TMC3    H1 6577   3.956   4.075  15.391 -1.2957  1.7400 -1.5266
  441TMC3    H2 6578   4.227   4.253  15.667  1.1327 -1.2888  0.2215
  441TMC3    C7 6579   4.069   4.055  15.634 -0.4783 -0.0172  0.3882
  441TMC3    C8 6580   4.251   4.483  15.527  0.0113  0.4669  0.7494
  441TMC3    O1 6581   4.166   4.023  15.699 -0.1906 -0.7999 -0.3844
  441TMC3    O2 6582   4.354   4.495  15.590 -0.1392 -0.1324  0.6589
  442MPD2     C 6583   2.101   0.456  16.323  0.1405 -0.2820 -0.0365
  442MPD2    C1 6584   2.002   0.408  16.403  0.4657  0.0374 -0.0856
  442MPD2    C2 6585   1.983   0.275  16.410 -0.3013 -1.1989 -0.3186
  442MPD2    C3 6586   2.054   0.193  16.323  0.5921 -0.5374  0.5856
  442MPD2    C4 6587   2.136   0.239  16.225 -0.9849 -0.7555  0.3884
  442MPD2    C5 6588   2.154   0.375  16.227  0.2895  0.0320  0.3883
  442MPD2     H 6589   1.915   0.234  16.483  1.7475 -0.4990  1.9811
  442MPD2    H1 6590   2.179   0.176  16.149  1.1778  0.4307  0.6196
  442MPD2    H2 6591   2.133   0.559  16.329  0.8094 -0.4340 -0.9289
  442MPD2    H3 6592   2.223   0.424  16.159  1.7900  0.1852  2.0306
  442MPD2     N 6593   2.040   0.054  16.321 -0.6646  0.7400 -0.0647
  442MPD2    H5 6594   2.109   0.009  16.262  0.7209  3.2032 -0.3299
  442MPD2    N1 6595   1.931   0.495  16.488 -0.6058 -0.5551  0.0122
  442MPD2    H7 6596   1.868   0.451  16.554  1.7664 -1.3555  1.7777
  443TMC3    C1 6597   1.806   0.685  16.565 -0.8152  0.6435  0.3996
  443TMC3    C2 6598   1.718   0.763  16.494 -0.0940 -0.2859  1.1824
  443TMC3    C3 6599   1.588   0.772  16.548  0.1292  0.8226  0.5738
  443TMC3    C4 6600   1.784   0.640  16.693 -0.2351 -0.4442  0.1791
  443TMC3    C5 6601   1.659   0.668  16.744  0.7517 -0.0024 -0.2256
  443TMC3    C6 6602   1.564   0.734  16.675  0.8991  0.6829  0.0427
  443TMC3     C 6603   1.920   0.634  16.484 -0.3772 -0.5623 -0.5251
  443TMC3     O 6604   1.959   0.715  16.405  0.1567  0.1033 -0.1202
  443TMC3     H 6605   1.721   0.771  16.386 -0.9148 -0.8722  1.1182
  443TMC3    H1 6606   1.857   0.573  16.737 -0.5613 -0.9492 -0.0368
  443TMC3    H2 6607   1.465   0.739  16.721  0.6308 -0.8903 -0.3484
  443TMC3    C7 6608   1.622   0.607  16.869  0.3631 -0.9150  0.8343
  443TMC3    C8 6609   1.482   0.712  16.470  1.0874 -0.4847 -0.4863
  443TMC3    O1 6610   1.647   0.489  16.894  0.6173  0.3137 -0.0340
  443TMC3    O2 6611   1.406   0.629  16.525 -0.2487 -0.0801  0.3451
  444MPD2     C 6612   2.146   4.369  17.206  0.0457  0.3220  0.3365
  444MPD2    C1 6613   2.026   4.323  17.159 -0.2396 -0.5764  0.1193
  444MPD2    C2 6614   2.019   4.237  17.050  0.3793  0.2414  0.7109
  444MPD2    C3 6615   2.140   4.201  16.988 -0.1283  0.0457  0.3376
  444MPD2    C4 6616   2.261   4.243  17.043 -0.0642  0.7433 -0.2133
  444MPD2    C5 6617   2.265   4.334  17.152  0.6542  0.0438 -0.0723
  444MPD2     H 6618   1.922   4.210  17.010  0.5429  2.1979 -1.0069
  444MPD2    H1 6619   2.359   4.221  17.001 -0.4557 -0.9624 -0.2291
  444MPD2    H2 6620   2.147   4.423  17.300  2.2669  0.6559  0.1165
  444MPD2    H3 6621   2.362   4.362  17.192  1.3408 -0.0839 -1.6585
  444MPD2     N 6622   2.132   4.117  16.878  0.1851  0.2197 -0.7108
  444MPD2    H5 6623   2.041   4.079  16.853 -0.6758  2.1511 -0.4735
  444MPD2    N1 6624   1.905   4.366  17.222 -0.4134  0.7572  0.1992
  444MPD2    H7 6625   1.828   4.317  17.179  0.7840 -1.8786  1.0448
  445TMC3    C1 6626   2.210   3.958  16.715 -0.3487  0.2508 -0.2992
  445TMC3    C2 6627   2.090   3.951  16.650  0.1191  0.6665  0.4336
  445TMC3    C3 6628   2.082   3.854  16.549 -0.2460  0.2412  0.8301
  445TMC3    C4 6629   2.324   3.892  16.666 -0.4968  0.8091 -0.0464
  445TMC3    C5 6630   2.309   3.796  16.568 -0.1725  0.4293  0.0590
  445TMC3    C6 6631   2.189   3.778  16.506  1.2445  0.5836 -0.7036
  445TMC3     C 6632   2.238   4.071  16.802 -0.3177  0.0537 -0.7183
  445TMC3     O 6633   2.351   4.111  16.787  0.3397 -0.4149  0.3026
  445TMC3     H 6634   2.006   4.014  16.674 -1.7227 -1.0816 -1.4001
  445TMC3    H1 6635   2.412   3.906  16.727  0.1099  2.3332 -1.2508
  445TMC3    H2 6636   2.185   3.714  16.418  0.7383 -0.6775  0.2387
  445TMC3    C7 6637   2.432   3.724  16.525  0.2157  0.0351  0.2402
  445TMC3    C8 6638   1.981   3.888  16.450 -0.3090  0.2435 -0.2307
  445TMC3    O1 6639   2.537   3.788  16.538 -0.2879 -0.4581  0.5694
  445TMC3    O2 6640   1.955   4.007  16.432  0.4540  0.0223 -0.4427
  446MPD2     C 6641   1.383   0.294  11.226  0.0096 -0.0854  0.0769
  446MPD2    C1 6642   1.376   0.328  11.091 -0.3586 -0.1194  0.0750
  446MPD2    C2 6643   1.483   0.400  11.039 -0.8202 -0.0878  0.0733
  446MPD2    C3 6644   1.597   0.436  11.117  0.6713 -0.0611 -0.1701
  446MPD2    C4 6645   1.600   0.395  11.246 -0.7496 -0.3890 -0.0770
  446MPD2    C5 6646   1.488   0.338  11.298  0.5925 -0.8888 -0.4997
  446MPD2     H 6647   1.474   0.432  10.935  1.4371 -0.6602 -0.3116
  446MPD2    H1 6648   1.683   0.426  11.308 -0.1463  0.6916 -1.4136
  446MPD2    H2 6649   1.296   0.261  11.281 -0.1196 -0.3161 -0.2670
  446MPD2    H3 6650   1.493   0.320  11.405 -0.2435  1.2083 -0.1094
  446MPD2     N 6651   1.702   0.496  11.047  0.5533  0.6585 -0.0172
  446MPD2    H5 6652   1.687   0.539  10.956  0.0649 -1.2674 -0.8515
  446MPD2    N1 6653   1.263   0.294  11.011 -0.9016  0.5569 -0.1652
  446MPD2    H7 6654   1.246   0.338  10.922 -0.7772  0.6597 -0.1394
  447TMC3    C1 6655   1.933   0.567  11.011  0.0003 -0.2397 -0.7178
  447TMC3    C2 6656   1.895   0.645  10.913 -0.2695  0.3305 -0.0662
  447TMC3    C3 6657   1.995   0.697  10.833 -0.0580  1.0152  0.0820
  447TMC3    C4 6658   2.060   0.522  11.032 -0.2949  0.1554  0.6044
  447TMC3    C5 6659   2.161   0.576  10.952  0.1090 -0.1226 -0.2830
  447TMC3    C6 6660   2.125   0.658  10.854  0.6705 -0.3332  0.7671
  447TMC3     C 6661   1.831   0.504  11.101  0.7358 -0.1661  0.4057
  447TMC3     O 6662   1.877   0.461  11.207 -0.6334 -0.2240  0.0870
  447TMC3     H 6663   1.795   0.682  10.900 -1.1865 -1.8401  0.8063
  447TMC3    H1 6664   2.071   0.449  11.111 -1.9917 -2.1132 -1.2264
  447TMC3    H2 6665   2.207   0.666  10.783  0.0940 -1.4812 -0.0343
  447TMC3    C7 6666   2.294   0.541  10.973  0.4510 -0.2309 -0.1614
  447TMC3    C8 6667   1.954   0.736  10.696  0.7228 -0.8728  0.4096
  447TMC3    O1 6668   2.305   0.435  11.033 -0.2092 -0.1722 -0.8289
  447TMC3    O2 6669   1.930   0.852  10.664 -0.3066  0.5189  0.3998
  448TMC3    C1 6670   4.317   0.729  16.924 -0.4419  0.1179 -0.2384
  448TMC3    C2 6671   4.348   0.620  16.842 -0.7897 -0.3001  0.0672
  448TMC3    C3 6672   4.304   0.494  16.890  0.3170 -0.0660  0.2270
  448TMC3    C4 6673   4.255   0.717  17.047 -0.7584  0.9642 -0.0759
  448TMC3    C5 6674   4.212   0.591  17.074 -1.1031 -0.7261  0.2625
  448TMC3    C6 6675   4.227   0.480  16.998  0.5230  0.0057  0.5127
  448TMC3     C 6676   4.379   0.851  16.885 -1.2422 -0.3278 -0.3276
  448TMC3     O 6677   4.378   0.867  16.761  0.3342  0.0054 -0.3064
  448TMC3     H 6678   4.423   0.639  16.765 -0.3190 -0.8771  0.3848
  448TMC3    H1 6679   4.231   0.800  17.113  0.5308  1.3892 -0.1306
  448TMC3    H2 6680   4.181   0.385  17.023 -1.4424  0.4824 -1.3339
  448TMC3    C7 6681   4.157   0.588  17.207 -0.2278 -0.5049 -0.2225
  448TMC3    C8 6682   4.287   0.384  16.789 -0.0987  0.9309 -0.1607
  448TMC3    O1 6683   4.093   0.678  17.254 -0.0784  0.2344  0.0363
  448TMC3    O2 6684   4.271   0.275  16.840 -0.1725 -0.4882 -0.1089
  449MPD2     C 6685   0.724   3.769  13.374 -0.1432  0.3502 -0.1027
  449MPD2    C1 6686   0.633   3.874  13.367 -0.5050 -0.7519 -0.0355
  449MPD2    C2 6687   0.511   3.849  13.429  0.0960 -0.7933 -0.5652
  449MPD2    C3 6688   0.474   3.741  13.501 -0.1660 -0.0517 -0.0404
  449MPD2    C4 6689   0.565   3.638  13.504 -0.4408  1.1454 -0.3289
  449MPD2    C5 6690   0.686   3.649  13.439  0.5065 -0.2734  0.8379
  449MPD2     H 6691   0.451   3.939  13.435 -1.7959 -1.9490 -2.3303
  449MPD2    H1 6692   0.562   3.555  13.574  1.6317 -0.2408 -1.9068
  449MPD2    H2 6693   0.822   3.779  13.328  0.0189  1.2967  0.4410
  449MPD2    H3 6694   0.757   3.568  13.446  0.3996 -0.4345  0.1403
  449MPD2     N 6695   0.353   3.736  13.579  0.0380  0.4630 -0.6456
  449MPD2    H5 6696   0.286   3.812  13.575 -0.5912 -0.0639 -0.1822
  449MPD2    N1 6697   0.659   4.000  13.309 -0.1644 -0.0316  0.7207
  449MPD2    H7 6698   0.590   4.072  13.329 -0.5204  0.4890 -2.4738
  450TMC3    C1 6699   0.792   4.171  13.225 -0.1264 -0.2860  0.0194
  450TMC3    C2 6700   0.912   4.213  13.282  0.0218  0.2345 -0.6815
  450TMC3    C3 6701   0.906   4.306  13.380 -0.0847  0.5088 -0.2991
  450TMC3    C4 6702   0.681   4.239  13.249  0.1757 -0.3192  0.1146
  450TMC3    C5 6703   0.677   4.332  13.349 -0.0196 -0.2119 -0.0493
  450TMC3    C6 6704   0.792   4.373  13.407 -0.5118 -0.1791 -0.0353
  450TMC3     C 6705   0.775   4.030  13.237 -0.5594 -0.7399 -0.2772
  450TMC3     O 6706   0.875   3.962  13.210 -0.3435 -0.5296 -0.3746
  450TMC3     H 6707   1.000   4.152  13.269  0.3116  0.9415 -2.1011
  450TMC3    H1 6708   0.592   4.211  13.194 -0.6624 -0.2930  1.4581
  450TMC3    H2 6709   0.774   4.440  13.491 -0.2099  0.3824 -0.4203
  450TMC3    C7 6710   0.556   4.304  13.428  0.2130  0.0814  0.6515
  450TMC3    C8 6711   1.022   4.346  13.446 -0.5657  0.0742 -0.1454
  450TMC3    O1 6712   0.499   4.206  13.393  0.0703 -0.1740 -0.3433
  450TMC3    O2 6713   1.018   4.451  13.502 -0.3927  0.3437 -0.0166
  451MPD2     C 6714   3.314   3.347   1.198 -0.1295 -0.1041 -0.0509
  451MPD2    C1 6715   3.200   3.319   1.275 -0.1691  0.0723 -0.1209
  451MPD2    C2 6716   3.153   3.188   1.269  0.0694  0.3146 -0.1922
  451MPD2    C3 6717   3.218   3.084   1.211  0.3687 -0.3065 -0.2154
  451MPD2    C4 6718   3.333   3.111   1.147 -0.0907  0.2177 -0.0461
  451MPD2    C5 6719   3.379   3.239   1.132 -0.7112  0.2930  0.3043
  451MPD2     H 6720   3.061   3.163   1.321  1.6157 -0.5850  2.0777
  451MPD2    H1 6721   3.378   3.034   1.085 -3.2767 -2.2216  0.6744
  451MPD2    H2 6722   3.357   3.446   1.191  1.5150 -0.8010  0.0870
  451MPD2    H3 6723   3.459   3.263   1.063  0.3852 -1.2462  1.0380
  451MPD2     N 6724   3.160   2.953   1.199 -0.2347 -0.3083  0.4523
  451MPD2    H5 6725   3.203   2.891   1.131 -0.5338 -1.2367  1.1125
  451MPD2    N1 6726   3.139   3.421   1.349 -0.0501 -0.9677  0.0232
  451MPD2    H7 6727   3.192   3.507   1.341 -2.8358  0.6705 -0.3926
  452TMC3    C1 6728   3.017   2.772   1.201  0.3219  0.3866 -0.0865
  452TMC3    C2 6729   2.982   2.672   1.285 -0.1987  0.4620 -0.1499
  452TMC3    C3 6730   2.968   2.543   1.232 -0.1825  0.2147 -0.1771
  452TMC3    C4 6731   3.049   2.750   1.071  0.0613  0.1798 -0.4517
  452TMC3    C5 6732   3.023   2.628   1.019  0.7172 -0.3689 -0.2899
  452TMC3    C6 6733   2.987   2.520   1.096  0.0353 -0.4044  0.3537
  452TMC3     C 6734   3.044   2.901   1.257  0.6054  0.9397  0.3567
  452TMC3     O 6735   2.975   2.939   1.348 -0.3992 -0.8706 -0.1262
  452TMC3     H 6736   2.969   2.693   1.390 -1.5493  1.0982 -0.4377
  452TMC3    H1 6737   3.078   2.833   1.008 -0.9893  1.0874  0.2530
  452TMC3    H2 6738   2.994   2.416   1.065  0.2166 -0.4759  0.6306
  452TMC3    C7 6739   3.032   2.613   0.872 -0.6362 -0.4920 -0.5822
  452TMC3    C8 6740   2.937   2.438   1.328  0.8354  0.5084  0.3206
  452TMC3    O1 6741   3.076   2.710   0.816  0.0367 -0.0705  0.0130
  452TMC3    O2 6742   2.917   2.476   1.447  0.6874  0.3095  0.3664
  453TMC3    C1 6743   3.967   4.467  11.789  0.1331  0.5732 -0.7306
  453TMC3    C2 6744   3.873   4.388  11.850 -0.2043  0.1580 -0.3369
  453TMC3    C3 6745   3.856   4.261  11.807  0.7329 -0.1380 -0.2907
  453TMC3    C4 6746   4.064   4.408  11.715  0.3157  0.4741  0.1840
  453TMC3    C5 6747   4.056   4.272  11.684  0.6245 -0.5935 -0.0033
  453TMC3    C6 6748   3.946   4.203  11.717 -0.2159 -0.4710 -0.6776
  453TMC3     C 6749   4.003   4.587  11.858 -0.3173  0.1062  0.1677
  453TMC3     O 6750   4.093   4.653  11.808 -0.0974  0.0301 -0.0575
  453TMC3     H 6751   3.796   4.432  11.912 -0.2607  0.4559 -0.6218
  453TMC3    H1 6752   4.138   4.473  11.670  0.0310 -0.6509 -1.9100
  453TMC3    H2 6753   3.924   4.103  11.682  1.3651 -1.3090  0.6896
  453TMC3    C7 6754   4.152   4.204  11.594 -0.0534  0.0680  0.6311
  453TMC3    C8 6755   3.747   4.179  11.869  0.3910 -0.1738  0.1625
  453TMC3    O1 6756   4.122   4.096  11.542 -0.2104  0.0655 -0.0599
  453TMC3    O2 6757   3.645   4.232  11.912  0.2461  0.5789 -0.3853
  454MPD2     C 6758   2.761   3.885  16.149 -0.0922  0.1692  0.6211
  454MPD2    C1 6759   2.677   3.959  16.069 -0.2105  0.5842  0.3270
  454MPD2    C2 6760   2.615   4.072  16.114 -0.1354  0.2501  0.4289
  454MPD2    C3 6761   2.642   4.127  16.239  0.1257  0.0533  0.5207
  454MPD2    C4 6762   2.715   4.045  16.321 -0.0005  1.0204 -0.8517
  454MPD2    C5 6763   2.760   3.919  16.282 -0.7130 -0.1629 -0.3190
  454MPD2     H 6764   2.543   4.123  16.052 -2.0871 -3.6581 -0.5374
  454MPD2    H1 6765   2.728   4.085  16.421  0.5259 -2.2221  0.3852
  454MPD2    H2 6766   2.807   3.793  16.116 -1.2959 -0.6420  1.2109
  454MPD2    H3 6767   2.811   3.857  16.354 -0.0624 -0.6032 -1.1680
  454MPD2     N 6768   2.574   4.243  16.285 -0.6057  0.6904  0.5216
  454MPD2    H5 6769   2.568   4.258  16.385  0.6575 -1.4000  0.8958
  454MPD2    N1 6770   2.632   3.921  15.938  0.2214 -0.3995  0.1887
  454MPD2    H7 6771   2.565   3.983  15.895  1.0828 -0.6560 -1.5433
  455TMC3    C1 6772   2.399   4.385  16.251  0.0626 -0.0461 -0.1822
  455TMC3    C2 6773   2.418   4.422  16.378  0.5217  0.2965  0.1626
  455TMC3    C3 6774   2.333   4.369  16.472  0.3469  0.4748 -0.3548
  455TMC3    C4 6775   2.302   4.300  16.212 -0.6652 -0.4581  0.2348
  455TMC3    C5 6776   2.223   4.242  16.306 -0.6269  0.6311 -0.5259
  455TMC3    C6 6777   2.230   4.283  16.441 -0.6360  0.9247  0.5987
  455TMC3     C 6778   2.524   4.338  16.196  0.8014 -0.5905 -0.2059
  455TMC3     O 6779   2.537   4.337  16.076  0.0395  0.1289 -0.3296
  455TMC3     H 6780   2.494   4.496  16.401  0.8438  0.3152 -1.0044
  455TMC3    H1 6781   2.300   4.255  16.113  2.1352  2.6591 -1.2497
  455TMC3    H2 6782   2.175   4.221  16.511  0.0972  0.5245  0.8170
  455TMC3    C7 6783   2.238   4.103  16.293 -0.4299  0.5764 -0.0741
  455TMC3    C8 6784   2.315   4.450  16.594 -0.8099 -0.6391 -0.0340
  455TMC3    O1 6785   2.306   4.050  16.379  0.4176  0.2717  0.4814
  455TMC3    O2 6786   2.409   4.523  16.628  0.0735 -0.5597  0.0429
  456MPD2     C 6787   0.397   4.260  15.898 -0.4753 -0.7976 -0.8473
  456MPD2    C1 6788   0.452   4.244  16.022  0.3131  0.5001 -0.4707
  456MPD2    C2 6789   0.367   4.262  16.137 -0.5637 -0.6997  0.3593
  456MPD2    C3 6790   0.232   4.300  16.129 -0.8268 -0.1592 -1.0051
  456MPD2    C4 6791   0.186   4.307  16.002 -0.0375 -0.1921  0.2104
  456MPD2    C5 6792   0.267   4.292  15.885  0.0609  0.0165  0.1213
  456MPD2     H 6793   0.419   4.255  16.231  0.5104  1.8008 -0.0514
  456MPD2    H1 6794   0.082   4.336  15.987  0.1699 -0.9026 -2.5745
  456MPD2    H2 6795   0.458   4.235  15.812  0.2448  0.1332 -0.6039
  456MPD2    H3 6796   0.228   4.303  15.784 -2.3067  2.4028  1.2963
  456MPD2     N 6797   0.164   4.321  16.253  0.2394 -0.0461  0.5751
  456MPD2    H5 6798   0.215   4.298  16.338  0.2194  3.0971  1.4479
  456MPD2    N1 6799   0.593   4.235  16.027 -0.5364 -0.4280  0.3082
  456MPD2    H7 6800   0.632   4.214  15.936  2.7872 -0.4920  1.7631
  457TMC3    C1 6801   0.009   4.412  16.401 -0.0944  0.7192 -0.3092
  457TMC3    C2 6802   4.640   4.511  16.412  0.3968  0.0937  0.5130
  457TMC3    C3 6803   4.616   4.563  16.539 -0.6198  0.3637 -0.3744
  457TMC3    C4 6804   0.075   4.372  16.512 -0.5401  0.1220  0.3468
  457TMC3    C5 6805   0.056   4.435  16.636 -1.0200 -0.1920  0.0324
  457TMC3    C6 6806   4.693   4.533  16.652  0.0164 -0.0587 -0.7704
  457TMC3     C 6807   0.038   4.366  16.264 -0.6040 -0.3485  0.2231
  457TMC3     O 6808   4.687   4.412  16.178  0.2089  0.4283  0.2789
  457TMC3     H 6809   4.588   4.549  16.325 -2.0745 -0.6921  1.6456
  457TMC3    H1 6810   0.150   4.295  16.504 -0.8718 -0.1237 -0.3557
  457TMC3    H2 6811   4.688   4.589  16.745 -0.0566 -0.0772 -0.7638
  457TMC3    C7 6812   0.149   4.405  16.747  0.3902  0.0346  0.4357
  457TMC3    C8 6813   4.529   4.679  16.557 -0.0650  0.3226 -0.2279
  457TMC3    O1 6814   0.236   4.320  16.727  0.4524 -0.5841  0.1179
  457TMC3    O2 6815   4.516   4.709  16.675  0.2955  0.0626 -0.5331
  458MPD2     C 6816   2.981   3.558  12.086  0.2183  0.2544 -0.0878
  458MPD2    C1 6817   2.902   3.632  12.176 -0.6583 -0.6055  0.2640
  458MPD2    C2 6818   2.773   3.658  12.142  0.0661 -0.0597 -0.5652
  458MPD2    C3 6819   2.718   3.605  12.024  0.3758  1.2093 -0.0090
  458MPD2    C4 6820   2.794   3.525  11.941 -0.4468 -0.3809  0.2284
  458MPD2    C5 6821   2.924   3.506  11.976  0.0104 -0.4667 -0.5816
  458MPD2     H 6822   2.708   3.717  12.206 -1.2845 -2.6139  0.4314
  458MPD2    H1 6823   2.755   3.480  11.851 -1.6230  1.7155 -0.3261
  458MPD2    H2 6824   3.085   3.544  12.109  0.2232 -0.1658 -0.3782
  458MPD2    H3 6825   2.988   3.440  11.918 -0.2162 -1.4682  0.3223
  458MPD2     N 6826   2.581   3.643  11.996  0.3030 -0.6218 -0.1773
  458MPD2    H5 6827   2.537   3.708  12.061  2.0402 -0.6248  1.0076
  458MPD2    N1 6828   2.968   3.676  12.294  0.4174  0.1551  0.0358
  458MPD2    H7 6829   3.069   3.666  12.307  0.9458  1.4920 -2.9324
  459TMC3    C1 6830   2.982   3.780  12.507  0.1479 -0.0659  0.0254
  459TMC3    C2 6831   3.109   3.810  12.475  0.2833 -0.5788 -0.3615
  459TMC3    C3 6832   3.199   3.827  12.573 -0.5293 -0.6036 -0.2254
  459TMC3    C4 6833   2.937   3.757  12.636  0.4104 -0.1209  0.5737
  459TMC3    C5 6834   3.037   3.764  12.735 -0.5199  0.7116 -0.8135
  459TMC3    C6 6835   3.167   3.797  12.701  0.1040  0.2397 -0.4019
  459TMC3     C 6836   2.899   3.734  12.400 -0.1294  0.3408  0.0253
  459TMC3     O 6837   2.786   3.707  12.428 -0.2544 -0.1177  0.2582
  459TMC3     H 6838   3.154   3.811  12.377 -0.1421  1.9895 -0.5076
  459TMC3    H1 6839   2.834   3.725  12.651  0.9640 -0.7956  2.9038
  459TMC3    H2 6840   3.240   3.793  12.780  0.8708 -0.4479 -1.1396
  459TMC3    C7 6841   3.021   3.701  12.858 -0.3807 -0.2881  0.3097
  459TMC3    C8 6842   3.337   3.849  12.544  0.2699 -0.0080 -0.0092
  459TMC3    O1 6843   2.920   3.633  12.883  0.5441  0.1062 -0.1741
  459TMC3    O2 6844   3.426   3.783  12.600  0.0968  0.1291  0.1866
  460MPD2     C 6845   1.984   0.492  10.424  0.3453  0.2815  0.1662
  460MPD2    C1 6846   1.936   0.605  10.491  0.0810 -0.4251 -0.1314
  460MPD2    C2 6847   1.862   0.695  10.413 -0.7841 -0.5330 -0.6021
  460MPD2    C3 6848   1.836   0.679  10.279  1.0489  0.9834  0.4751
  460MPD2    C4 6849   1.886   0.573  10.218 -0.1104 -0.4096  0.0480
  460MPD2    C5 6850   1.960   0.477  10.289 -0.0397 -0.2650  0.5620
  460MPD2     H 6851   1.812   0.771  10.472  1.2855  1.5993 -1.6052
  460MPD2    H1 6852   1.871   0.557  10.112 -2.2312  0.5078  0.2085
  460MPD2    H2 6853   2.038   0.418  10.482 -2.4614 -0.5728  1.7052
  460MPD2    H3 6854   2.003   0.397  10.229  0.2990  1.1635 -1.0970
  460MPD2     N 6855   1.760   0.780  10.214 -0.6794  0.4213 -0.1246
  460MPD2    H5 6856   1.730   0.863  10.264  0.9054 -0.5590  2.4684
  460MPD2    N1 6857   1.957   0.619  10.628  0.0119  0.6281 -0.4110
  460MPD2    H7 6858   1.992   0.533  10.668 -1.0649 -0.4688 -1.8278
  461TMC3    C1 6859   1.623   0.888  10.060  0.3446 -0.2089 -0.3382
  461TMC3    C2 6860   1.543   0.877   9.953  0.2039 -0.3629  0.1494
  461TMC3    C3 6861   1.521   0.983   9.871  0.8726 -0.2722 -0.7101
  461TMC3    C4 6862   1.675   1.010  10.090 -0.3715  0.4206 -0.0710
  461TMC3    C5 6863   1.638   1.123  10.017 -0.2837 -0.3955  0.1299
  461TMC3    C6 6864   1.566   1.111   9.900  0.7751  0.1335  0.0674
  461TMC3     C 6865   1.697   0.771  10.094 -0.5395 -0.1961  0.0325
  461TMC3     O 6866   1.708   0.687  10.004 -0.2858  0.6835  0.0025
  461TMC3     H 6867   1.504   0.780   9.924  0.0006 -0.2108 -0.0837
  461TMC3    H1 6868   1.742   1.018  10.175  2.5290 -0.1718 -2.3375
  461TMC3    H2 6869   1.526   1.205   9.863 -2.7913 -1.7118 -0.7554
  461TMC3    C7 6870   1.734   1.230  10.008  0.9502  0.2720  0.0757
  461TMC3    C8 6871   1.491   0.954   9.734  0.7016 -0.0141  0.1355
  461TMC3    O1 6872   1.736   1.280   9.899  0.1053  0.5294 -0.1472
  461TMC3    O2 6873   1.459   0.838   9.715 -1.2164  0.1862 -0.0730
  462TMC3    C1 6874   1.989   1.827   0.211  0.6060 -0.0179 -0.3762
  462TMC3    C2 6875   2.018   1.700   0.182 -0.1194  0.7129 -0.7421
  462TMC3    C3 6876   2.015   1.609   0.284  0.2954  0.4702 -0.7848
  462TMC3    C4 6877   1.950   1.868   0.338 -0.0191  0.0535 -0.0365
  462TMC3    C5 6878   1.950   1.773   0.442  1.1464  0.1101 -0.4766
  462TMC3    C6 6879   1.981   1.646   0.411  0.0405  0.3626  1.2383
  462TMC3     C 6880   1.929   1.900   0.101  0.0148 -0.1822  0.1153
  462TMC3     O 6881   1.884   1.838   0.004 -0.1204 -0.0383  0.4608
  462TMC3     H 6882   2.040   1.676   0.079  1.5609 -0.3272 -0.1309
  462TMC3    H1 6883   1.917   1.969   0.360  0.7429  0.2407  0.2417
  462TMC3    H2 6884   1.962   1.564   0.480  0.6982 -0.2309  0.7100
  462TMC3    C7 6885   1.898   1.816   0.572 -0.8035 -0.9078  0.0351
  462TMC3    C8 6886   2.069   1.477   0.265 -0.2741 -0.5615 -0.4180
  462TMC3    O1 6887   1.898   1.933   0.591 -0.0498  0.3670  0.5866
  462TMC3    O2 6888   2.081   1.395   0.358 -0.0440  0.3300  0.1101
  463MPD2     C 6889   3.262   1.189   1.723 -0.1858 -0.2617  0.3785
  463MPD2    C1 6890   3.131   1.198   1.674 -0.0185  0.6050 -0.6140
  463MPD2    C2 6891   3.105   1.299   1.579 -0.6075  0.0661 -0.3088
  463MPD2    C3 6892   3.207   1.380   1.532  0.2461  0.4492  0.7663
  463MPD2    C4 6893   3.331   1.367   1.588  0.8981 -0.6454  0.0223
  463MPD2    C5 6894   3.362   1.269   1.676  0.4496 -0.5971 -0.0670
  463MPD2     H 6895   3.011   1.305   1.526  0.5903  0.5437 -2.3588
  463MPD2    H1 6896   3.412   1.430   1.554 -0.3634  0.8239 -0.2888
  463MPD2    H2 6897   3.288   1.107   1.789 -0.7413  0.8654  1.9912
  463MPD2    H3 6898   3.464   1.251   1.709  0.8393 -0.5427 -1.2609
  463MPD2     N 6899   3.196   1.489   1.438  0.8542 -0.0188  0.4639
  463MPD2    H5 6900   3.280   1.546   1.433  0.8491  0.0395  1.0989
  463MPD2    N1 6901   3.032   1.113   1.715  0.6235 -0.6658  0.2231
  463MPD2    H7 6902   2.939   1.155   1.715  1.2821  0.7881  1.0864
  464TMC3    C1 6903   2.936   0.927   1.810 -0.6764  0.0802  0.0501
  464TMC3    C2 6904   2.830   1.011   1.852 -0.2119 -0.3252  0.0974
  464TMC3    C3 6905   2.706   0.952   1.864  0.5644  0.0412  0.6792
  464TMC3    C4 6906   2.920   0.799   1.780 -0.0710  0.2265 -0.2026
  464TMC3    C5 6907   2.794   0.744   1.792 -0.6010  0.0715  0.3429
  464TMC3    C6 6908   2.687   0.814   1.840 -0.3924  0.1445 -0.7950
  464TMC3     C 6909   3.059   0.992   1.771 -0.0701  0.4528  0.1659
  464TMC3     O 6910   3.148   0.916   1.733 -0.1957 -0.3677 -0.4809
  464TMC3     H 6911   2.845   1.114   1.881  0.5141  0.2203 -2.1542
  464TMC3    H1 6912   3.003   0.737   1.748  0.5322 -0.9651  3.7239
  464TMC3    H2 6913   2.595   0.770   1.877  0.1659  0.5269  1.0759
  464TMC3    C7 6914   2.780   0.601   1.757 -0.2025 -0.1041 -0.4469
  464TMC3    C8 6915   2.597   1.040   1.894 -0.2738 -0.4174 -0.5421
  464TMC3    O1 6916   2.878   0.533   1.781  0.6570 -0.1195  0.1257
  464TMC3    O2 6917   2.617   1.156   1.933 -0.5741 -0.0331  0.3443
  465MPD2     C 6918   4.399   4.260  16.635 -0.8016 -0.5616  0.5306
  465MPD2    C1 6919   4.275   4.251  16.698 -0.5777  0.0935  0.2036
  465MPD2    C2 6920   4.161   4.289  16.625 -0.3464 -0.2826  0.9563
  465MPD2    C3 6921   4.164   4.336  16.493 -0.4500 -0.5449 -0.1873
  465MPD2    C4 6922   4.288   4.323  16.425  0.0093 -0.1859 -0.2311
  465MPD2    C5 6923   4.400   4.291  16.498  0.1830  0.5614 -0.5114
  465MPD2     H 6924   4.076   4.273  16.690 -0.4461  0.6008  1.0460
  465MPD2    H1 6925   4.304   4.339  16.319 -2.1230 -3.4115 -1.0518
  465MPD2    H2 6926   4.486   4.224  16.689  1.1783 -0.2830 -2.4527
  465MPD2    H3 6927   4.491   4.293  16.439  1.0802  1.1612  0.9032
  465MPD2     N 6928   4.044   4.377  16.431  0.4790 -0.3463 -0.1492
  465MPD2    H5 6929   3.955   4.369  16.480  0.4689  0.5765 -0.0183
  465MPD2    N1 6930   4.256   4.205  16.829  0.1956  0.0154 -0.1148
  465MPD2    H7 6931   4.164   4.197  16.871  0.2415 -0.1004 -0.0344
  466TMC3    C1 6932   3.682   4.460  16.354 -0.0511  0.7401  0.6572
  466TMC3    C2 6933   3.665   4.594  16.326  0.0866  0.3858  0.8174
  466TMC3    C3 6934   3.763   4.656  16.258  0.7546  0.1985 -0.1981
  466TMC3    C4 6935   3.805   4.404  16.343  0.1454 -0.0412  0.4526
  466TMC3    C5 6936   3.904   4.474  16.277 -0.1951 -0.4766  0.0111
  466TMC3    C6 6937   3.878   4.597  16.223 -0.7469 -0.1696  0.7127
  466TMC3     C 6938   3.601   4.421  16.467  0.7084  0.2228 -0.5078
  466TMC3     O 6939   3.644   4.339  16.547  0.3156  0.0040 -0.0541
  466TMC3     H 6940   3.581   4.653  16.361 -0.1344  1.6088 -1.8436
  466TMC3    H1 6941   3.818   4.299  16.363  1.5513  0.5471  2.5623
  466TMC3    H2 6942   3.957   4.660  16.181 -0.0932 -2.0834 -0.9302
  466TMC3    C7 6943   4.043   4.447  16.313 -0.4811  0.7712 -0.0471
  466TMC3    C8 6944   3.752   0.071  16.225  0.1165  0.1711  0.3643
  466TMC3    O1 6945   4.134   4.474  16.236  0.6344  0.4783 -0.0704
  466TMC3    O2 6946   3.817   0.121  16.134  0.2937  0.7612  0.1061
  467TMC3    C1 6947   4.505   2.512  13.658 -0.6531 -0.4114 -0.8456
  467TMC3    C2 6948   4.585   2.546  13.552  0.8729 -0.0669 -0.2034
  467TMC3    C3 6949   4.545   2.643  13.466  0.3900 -0.0805  0.0079
  467TMC3    C4 6950   4.383   2.564  13.683 -0.1116 -1.0267 -1.0017
  467TMC3    C5 6951   4.340   2.657  13.595 -0.3041 -0.0249  0.1188
  467TMC3    C6 6952   4.418   2.697  13.487  0.3262 -0.1572 -0.1707
  467TMC3     C 6953   4.568   2.454  13.770 -0.1144 -0.0687 -0.2852
  467TMC3     O 6954   4.544   2.342  13.808 -0.0454 -0.1974  0.1944
  467TMC3     H 6955   4.680   2.496  13.541 -0.4428 -1.9894 -3.0054
  467TMC3    H1 6956   4.327   2.527  13.768 -2.0881 -0.2094 -1.9516
  467TMC3    H2 6957   4.375   2.775  13.426 -0.4468  1.3194  2.2756
  467TMC3    C7 6958   4.219   2.736  13.614 -0.8040 -0.3766 -0.0844
  467TMC3    C8 6959   4.651   2.736  13.448 -0.5541 -0.4592 -0.2057
  467TMC3    O1 6960   4.178   2.800  13.520  0.2723  0.0889  0.3033
  467TMC3    O2 6961   4.627   2.851  13.479  0.1157 -0.3838 -0.2331
  468MPD2     C 6962   0.370   0.077  11.225  0.7147 -0.3159  0.0918
  468MPD2    C1 6963   0.239   0.118  11.251  0.1094 -0.0455 -0.1049
  468MPD2    C2 6964   0.132   0.043  11.222 -0.8379 -0.1669 -0.3649
  468MPD2    C3 6965   0.146   4.641  11.172  0.6774 -0.3978  0.7502
  468MPD2    C4 6966   0.274   4.595  11.149 -0.2776  0.0863  0.3250
  468MPD2    C5 6967   0.384   4.677  11.169  0.0901 -0.0278 -0.0695
  468MPD2     H 6968   0.039   0.082  11.261  0.2253  0.9583  1.0635
  468MPD2    H1 6969   0.307   4.500  11.108 -1.5783  0.0120 -0.5857
  468MPD2    H2 6970   0.461   0.136  11.234  0.3756  0.5073 -1.7098
  468MPD2    H3 6971   0.480   4.629  11.151  0.5963  0.9075  0.1692
  468MPD2     N 6972   0.036   4.544  11.149 -0.0924 -0.3918  0.3710
  468MPD2    H5 6973   0.068   4.457  11.109 -0.1136 -0.0338 -0.4298
  468MPD2    N1 6974   0.203   0.244  11.289  0.3414  0.5684 -0.3721
  468MPD2    H7 6975   0.104   0.261  11.296  0.0029 -2.2723  1.8620
  469TMC3    C1 6976   0.228   0.474  11.332  0.3918  0.5599  0.6114
  469TMC3    C2 6977   0.309   0.568  11.387  0.3206 -0.3267 -0.1666
  469TMC3    C3 6978   0.248   0.683  11.439  0.4897 -0.0564 -0.3169
  469TMC3    C4 6979   0.089   0.500  11.323 -0.2012 -0.0377  0.8777
  469TMC3    C5 6980   0.033   0.618  11.369 -0.0910 -0.4342  0.4147
  469TMC3    C6 6981   0.115   0.716  11.424  1.0391  0.4415 -0.0454
  469TMC3     C 6982   0.296   0.344  11.310 -1.3339 -0.0164 -0.3816
  469TMC3     O 6983   0.409   0.329  11.354  0.3385 -0.2207 -0.3033
  469TMC3     H 6984   0.414   0.552  11.408  0.5290  1.5525  0.2345
  469TMC3    H1 6985   0.028   0.426  11.271  0.3019 -0.4627  0.8860
  469TMC3    H2 6986   0.058   0.796  11.471  1.1673  0.8866 -0.6396
  469TMC3    C7 6987   4.616   0.608  11.388 -0.0391 -0.3258 -0.2091
  469TMC3    C8 6988   0.331   0.759  11.535 -0.7133  0.5480 -0.2798
  469TMC3    O1 6989   4.575   0.501  11.427 -0.5497  1.0388  0.5380
  469TMC3    O2 6990   0.449   0.739  11.552 -0.5299  0.0202 -0.1438
  470TMC3    C1 6991   2.566   2.675   0.436  0.0042  0.5267  0.2838
  470TMC3    C2 6992   2.590   2.701   0.568 -0.4266  0.2743 -0.2753
  470TMC3    C3 6993   2.637   2.605   0.658  0.5558 -0.0158 -0.7109
  470TMC3    C4 6994   2.565   2.549   0.395 -0.7194 -0.5634 -0.6330
  470TMC3    C5 6995   2.603   2.446   0.483  0.3673 -0.1724 -0.4782
  470TMC3    C6 6996   2.638   2.470   0.615 -0.0437 -0.9575  0.5074
  470TMC3     C 6997   2.543   2.793   0.353  0.0540 -0.0370 -0.2576
  470TMC3     O 6998   2.570   2.900   0.409  0.4228  0.0826 -0.5029
  470TMC3     H 6999   2.602   2.801   0.609  0.2797 -0.0622  0.3299
  470TMC3    H1 7000   2.534   2.524   0.294  2.3617 -3.0413 -0.9751
  470TMC3    H2 7001   2.680   2.397   0.683  1.3823  0.6057  1.2960
  470TMC3    C7 7002   2.606   2.307   0.434  0.2354 -0.1128  0.5908
  470TMC3    C8 7003   2.648   2.632   0.796 -0.2438 -0.9253  0.7520
  470TMC3    O1 7004   2.621   2.289   0.316 -0.2879 -0.0814  0.1605
  470TMC3    O2 7005   2.726   2.560   0.865 -0.0036 -0.0154  0.1123
  471MPD2     C 7006   1.676   3.419  16.340  0.3812 -0.5791 -0.2971
  471MPD2    C1 7007   1.783   3.339  16.374 -0.0308 -0.2401  1.1846
  471MPD2    C2 7008   1.817   3.328  16.510  0.0780  0.0754 -0.1209
  471MPD2    C3 7009   1.742   3.392  16.604  0.3556 -0.2287 -1.0350
  471MPD2    C4 7010   1.629   3.457  16.569  0.8157  0.0214  0.1833
  471MPD2    C5 7011   1.595   3.467  16.439 -0.3535 -0.0775  0.1732
  471MPD2     H 7012   1.894   3.254  16.526 -2.7209 -2.4544  1.7161
  471MPD2    H1 7013   1.571   3.500  16.649  0.4510 -1.8081  0.9019
  471MPD2    H2 7014   1.646   3.440  16.238 -3.1100  1.6486  1.2032
  471MPD2    H3 7015   1.512   3.530  16.408  1.3751  1.4527 -1.3049
  471MPD2     N 7016   1.776   3.390  16.743 -0.0436 -0.2061  0.4960
  471MPD2    H5 7017   1.711   3.433  16.808 -1.0668  1.5779 -1.6989
  471MPD2    N1 7018   1.851   3.258  16.283 -0.4025  0.5031  0.5229
  471MPD2    H7 7019   1.935   3.215  16.321  0.4873 -0.0024 -2.0529
  472TMC3    C1 7020   1.886   3.121  16.097  0.1281  0.2155  0.4784
  472TMC3    C2 7021   1.835   3.081  15.979 -0.4207 -0.2315 -0.3259
  472TMC3    C3 7022   1.854   2.952  15.936  0.3828 -0.1952 -1.1663
  472TMC3    C4 7023   1.959   3.036  16.178 -0.4484 -1.1063 -0.2246
  472TMC3    C5 7024   1.974   2.909  16.142  0.0741  0.3188 -0.7902
  472TMC3    C6 7025   1.931   2.867  16.018  0.3969 -0.1126 -0.0265
  472TMC3     C 7026   1.812   3.224  16.162 -0.0617 -0.1690 -0.2230
  472TMC3     O 7027   1.713   3.262  16.105  0.2741  0.2516 -0.3161
  472TMC3     H 7028   1.769   3.148  15.925 -0.8760  0.6813  1.3927
  472TMC3    H1 7029   2.002   3.065  16.273 -1.6956 -0.3446  0.1090
  472TMC3    H2 7030   1.948   2.763  15.994 -1.4023 -0.5297  0.5327
  472TMC3    C7 7031   1.929   2.811  16.247 -0.1230  0.0673  0.3607
  472TMC3    C8 7032   1.735   2.885  15.888 -0.2013 -0.0762 -0.4778
  472TMC3    O1 7033   1.980   2.818  16.356  0.5771 -0.5805  0.4710
  472TMC3    O2 7034   1.719   2.771  15.924  0.2865  0.1721 -0.5249
  473MPD2     C 7035   1.706   0.076  13.917 -0.5415  0.1556 -0.9024
  473MPD2    C1 7036   1.589   0.142  13.965 -0.4373 -0.8338  0.5184
  473MPD2    C2 7037   1.608   0.267  14.026  0.1126 -0.3937 -0.7111
  473MPD2    C3 7038   1.730   0.310  14.061 -0.0272  0.2414  0.6760
  473MPD2    C4 7039   1.833   0.232  14.023 -0.2147 -0.5998 -0.7177
  473MPD2    C5 7040   1.826   0.117  13.955  0.4132 -0.4752  0.3214
  473MPD2     H 7041   1.526   0.335  14.050 -0.8031 -0.6934 -2.9492
  473MPD2    H1 7042   1.930   0.263  14.059  0.3396 -2.2569 -0.7755
  473MPD2    H2 7043   1.699   4.709  13.860  0.8572 -0.0656 -0.7183
  473MPD2    H3 7044   1.914   0.061  13.930  1.3528  0.4614  1.5354
  473MPD2     N 7045   1.758   0.415  14.146  0.0271  0.0957 -0.3514
  473MPD2    H5 7046   1.854   0.426  14.178  0.7668 -0.7532 -2.3255
  473MPD2    N1 7047   1.454   0.105  13.939 -0.2611  0.2970  0.3196
  473MPD2    H7 7048   1.379   0.172  13.950 -0.6053  0.0568 -0.5173
  474TMC3    C1 7049   1.736   0.612  14.275  0.5347  0.0971  0.4013
  474TMC3    C2 7050   1.651   0.697  14.349  0.3671  0.2509  0.1830
  474TMC3    C3 7051   1.712   0.804  14.397 -0.2187 -0.5075 -0.1565
  474TMC3    C4 7052   1.871   0.608  14.278  0.0701 -0.1276  0.1201
  474TMC3    C5 7053   1.931   0.711  14.355 -0.4529  0.0236 -0.2209
  474TMC3    C6 7054   1.851   0.811  14.413  0.0442 -0.0007  1.2960
  474TMC3     C 7055   1.676   0.515  14.188  0.1028  0.0117  0.4967
  474TMC3     O 7056   1.563   0.540  14.152 -0.4551  0.0811  0.0558
  474TMC3     H 7057   1.544   0.684  14.359  0.8880 -2.1589  2.5024
  474TMC3    H1 7058   1.934   0.543  14.220 -0.2626 -0.7825  0.4999
  474TMC3    H2 7059   1.886   0.896  14.472 -0.6152  1.1449  0.0418
  474TMC3    C7 7060   2.075   0.700  14.367 -0.6537  0.1782 -0.9239
  474TMC3    C8 7061   1.636   0.902  14.455  0.2753 -0.5011  0.7885
  474TMC3    O1 7062   2.137   0.670  14.270 -0.0018 -0.3430  0.3029
  474TMC3    O2 7063   1.536   0.865  14.518  0.2915  0.2586 -0.3862
  475MPD2     C 7064   0.940   2.592  10.277 -0.0360  0.3534  0.2255
  475MPD2    C1 7065   0.868   2.691  10.347 -0.4354 -0.0483  0.2312
  475MPD2    C2 7066   0.751   2.740  10.292  0.4975  0.1033  0.1036
  475MPD2    C3 7067   0.704   2.685  10.168  0.3916  0.0074  0.5365
  475MPD2    C4 7068   0.763   2.574  10.113 -0.6456  0.4858  0.2786
  475MPD2    C5 7069   0.886   2.530  10.169 -0.4551 -0.4127  0.0853
  475MPD2     H 7070   0.693   2.819  10.338 -1.2357 -1.5229  0.7020
  475MPD2    H1 7071   0.732   2.524  10.023 -0.5054  0.2245  0.3765
  475MPD2    H2 7072   1.032   2.548  10.315  0.0369  0.1872 -0.1403
  475MPD2    H3 7073   0.945   2.452  10.123  0.1344 -0.3486  0.7501
  475MPD2     N 7074   0.573   2.726  10.111 -0.0412 -0.5929  0.1186
  475MPD2    H5 7075   0.540   2.667  10.035  0.9817  0.2548 -1.0045
  475MPD2    N1 7076   0.909   2.738  10.479 -0.1312 -0.4814 -0.0528
  475MPD2    H7 7077   0.859   2.806  10.535  1.5337 -0.6579  1.6640
  476TMC3    C1 7078   1.052   2.798  10.655  0.0813 -0.5982 -0.2418
  476TMC3    C2 7079   1.145   2.898  10.624  1.0781  0.2260 -0.2862
  476TMC3    C3 7080   1.137   3.023  10.684  0.0345 -0.8422  1.1533
  476TMC3    C4 7081   0.941   2.821  10.731  0.6135  0.4352 -0.1538
  476TMC3    C5 7082   0.927   2.954  10.765 -0.3946 -0.1655  0.3724
  476TMC3    C6 7083   1.019   3.052  10.744 -0.3982  0.6155  0.3979
  476TMC3     C 7084   1.030   2.717  10.538 -0.0942 -0.5364  0.4984
  476TMC3     O 7085   1.123   2.644  10.502  0.4089 -0.2177 -0.8811
  476TMC3     H 7086   1.233   2.869  10.568  0.8246  1.5145 -1.3684
  476TMC3    H1 7087   0.871   2.743  10.759  0.1410  2.0553  3.1815
  476TMC3    H2 7088   0.998   3.151  10.781 -0.0146  1.2281 -1.0380
  476TMC3    C7 7089   0.811   2.984  10.843 -0.6238  0.1170  0.8663
  476TMC3    C8 7090   1.165   3.123  10.588  0.2707  0.2373 -0.4618
  476TMC3    O1 7091   0.771   2.897  10.919  0.0839 -0.2107 -0.3360
  476TMC3    O2 7092   1.194   3.233  10.630  0.0381 -0.3878 -0.4365
  477MPD2     C 7093   2.808   0.327  11.869 -0.3038 -0.1946  0.3602
  477MPD2    C1 7094   2.771   0.215  11.804  0.5505 -0.1353 -0.0126
  477MPD2    C2 7095   2.774   0.094  11.875  0.5007 -0.0769  0.0299
  477MPD2    C3 7096   2.819   0.092  12.012 -1.2835 -0.2693  0.0228
  477MPD2    C4 7097   2.859   0.214  12.068  0.2506 -0.5106 -0.4451
  477MPD2    C5 7098   2.847   0.331  12.001 -0.2431  0.0406  0.0466
  477MPD2     H 7099   2.740   0.000  11.832 -1.6787  1.0171 -0.6247
  477MPD2    H1 7100   2.906   0.217  12.166  0.4433 -0.9137 -0.5229
  477MPD2    H2 7101   2.801   0.425  11.823 -0.5460  0.1427  1.1003
  477MPD2    H3 7102   2.888   0.420  12.047 -0.3587  0.0211  0.1850
  477MPD2     N 7103   2.817   4.692  12.078  0.4749 -0.0270  1.1095
  477MPD2    H5 7104   2.779   4.617  12.021  2.6142  0.2080 -0.6076
  477MPD2    N1 7105   2.717   0.236  11.676 -0.5552  0.0965  0.4859
  477MPD2    H7 7106   2.738   0.329  11.640  0.9174 -1.3860 -2.4982
  478TMC3    C1 7107   2.549   0.207  11.512  0.1603 -0.3740 -0.0719
  478TMC3    C2 7108   2.539   0.348  11.512 -0.0259 -0.3350 -0.3380
  478TMC3    C3 7109   2.460   0.405  11.418  0.3810  0.4613  0.3079
  478TMC3    C4 7110   2.505   0.131  11.410  0.0899  0.5490 -0.9540
  478TMC3    C5 7111   2.438   0.196  11.310 -0.3437 -0.2212  0.3624
  478TMC3    C6 7112   2.405   0.331  11.317 -0.6008  0.0458 -0.1504
  478TMC3     C 7113   2.645   0.145  11.602  0.4115 -0.4079 -0.8839
  478TMC3     O 7114   2.628   0.026  11.620  0.5358  0.1846 -0.0512
  478TMC3     H 7115   2.589   0.417  11.579  0.6437 -0.2467 -0.9308
  478TMC3    H1 7116   2.523   0.024  11.404  1.8651  0.7563  0.7477
  478TMC3    H2 7117   2.351   0.379  11.235  1.1781 -1.5738 -2.2705
  478TMC3    C7 7118   2.384   0.109  11.209 -0.2395  0.2967 -0.1742
  478TMC3    C8 7119   2.490   0.545  11.388  0.6525 -0.3722  0.4249
  478TMC3    O1 7120   2.402   4.715  11.222  1.0605  0.1759 -0.6461
  478TMC3    O2 7121   2.597   0.588  11.435 -0.4820 -0.0235 -0.2084
  479MPD2     C 7122   1.438   2.485  15.002  0.1732 -0.2875  0.1338
  479MPD2    C1 7123   1.399   2.464  15.132 -0.2565  0.1707  0.1045
  479MPD2    C2 7124   1.490   2.495  15.232 -0.0810 -0.6567  0.3648
  479MPD2    C3 7125   1.605   2.567  15.208  0.6167  0.0589  0.2853
  479MPD2    C4 7126   1.631   2.596  15.070 -0.7637 -0.5683 -0.1240
  479MPD2    C5 7127   1.553   2.548  14.967 -0.4048  0.2991  0.5771
  479MPD2     H 7128   1.462   2.466  15.333 -0.9767  0.2779  0.3909
  479MPD2    H1 7129   1.724   2.647  15.048 -0.5793 -0.6532  0.4371
  479MPD2    H2 7130   1.379   2.448  14.919  1.1388 -1.3029 -0.1027
  479MPD2    H3 7131   1.587   2.560  14.865  1.5894  1.1854  1.3337
  479MPD2     N 7132   1.706   2.599  15.298 -0.3009  0.2957  0.3761
  479MPD2    H5 7133   1.799   2.614  15.259 -0.9297 -0.7298 -1.5037
  479MPD2    N1 7134   1.268   2.408  15.154  0.4118  1.0415  0.1993
  479MPD2    H7 7135   1.220   2.380  15.069 -0.5917  0.6939  0.8939
  480TMC3    C1 7136   1.451   2.607  15.690 -0.1630 -0.1022  0.5911
  480TMC3    C2 7137   1.356   2.686  15.631  0.1359  0.5935  0.3604
  480TMC3    C3 7138   1.375   2.738  15.508 -0.3428 -0.3888 -0.5367
  480TMC3    C4 7139   1.567   2.586  15.620 -1.0333  0.0113 -0.1671
  480TMC3    C5 7140   1.584   2.644  15.500  0.0633  0.0592 -0.5700
  480TMC3    C6 7141   1.483   2.710  15.434  0.7458 -0.6202  0.4300
  480TMC3     C 7142   1.418   2.524  15.806  0.2689  0.0379  0.1349
  480TMC3     O 7143   1.501   2.443  15.834  0.5947  1.0715 -0.1799
  480TMC3     H 7144   1.261   2.711  15.677 -0.8527  1.3626 -2.0625
  480TMC3    H1 7145   1.648   2.526  15.660 -1.2726 -0.4894 -0.4232
  480TMC3    H2 7146   1.507   2.759  15.341 -0.2001 -0.3745  0.3105
  480TMC3    C7 7147   1.707   2.617  15.435  1.0734 -0.2041 -0.1434
  480TMC3    C8 7148   1.256   2.784  15.433  0.1721 -0.5051 -0.1707
  480TMC3    O1 7149   1.801   2.600  15.511 -0.3379  0.1242 -0.9886
  480TMC3    O2 7150   1.149   2.785  15.501 -0.2286 -0.4070 -0.4182
  481MPD2     C 7151   1.980   1.507  14.128  0.1071  0.0264  0.1289
  481MPD2    C1 7152   2.055   1.596  14.054 -0.3623 -0.0900  0.5073
  481MPD2    C2 7153   2.160   1.671  14.106  0.3882  1.5475  0.5800
  481MPD2    C3 7154   2.198   1.649  14.240  0.3981  0.4439 -0.0402
  481MPD2    C4 7155   2.116   1.569  14.314  0.3288  0.1532  0.1760
  481MPD2    C5 7156   2.014   1.494  14.259 -0.4077 -0.2638 -0.0999
  481MPD2     H 7157   2.224   1.741  14.054  2.3664  0.6462  1.7974
  481MPD2    H1 7158   2.134   1.575  14.421 -2.2617 -1.0072  0.6715
  481MPD2    H2 7159   1.897   1.446  14.095 -0.5008  1.2494 -0.5751
  481MPD2    H3 7160   1.969   1.424  14.328  0.5119 -1.2360 -0.4978
  481MPD2     N 7161   2.304   1.704  14.307 -0.2834  0.4524 -0.3586
  481MPD2    H5 7162   2.320   1.675  14.403 -0.0896  3.4203  0.4834
  481MPD2    N1 7163   2.027   1.601  13.918 -0.1158  0.1413  0.1780
  481MPD2    H7 7164   1.979   1.520  13.880  0.3443 -0.4420  0.8417
  482TMC3    C1 7165   2.052   1.658  13.694  0.0328  0.9052  0.3697
  482TMC3    C2 7166   2.066   1.534  13.653 -0.7541  0.6119  0.3603
  482TMC3    C3 7167   2.067   1.507  13.517 -0.1087  0.6189 -0.9686
  482TMC3    C4 7168   2.049   1.771  13.602  0.4648 -0.0170  0.1539
  482TMC3    C5 7169   2.028   1.738  13.472  0.5377  0.5909  0.2557
  482TMC3    C6 7170   2.036   1.608  13.428  0.1342 -0.4796  0.6901
  482TMC3     C 7171   2.078   1.695  13.830  0.2530  0.0661  0.2205
  482TMC3     O 7172   2.116   1.807  13.852  0.5764  0.0676  0.2354
  482TMC3     H 7173   2.086   1.448  13.716 -1.2241 -0.2442 -0.6509
  482TMC3    H1 7174   2.033   1.869  13.646  0.6028 -0.1032  0.3961
  482TMC3    H2 7175   2.012   1.579  13.326  1.8052  0.9953 -0.1293
  482TMC3    C7 7176   2.045   1.839  13.367  0.0556 -0.2772 -0.3420
  482TMC3    C8 7177   2.051   1.366  13.486 -0.2091  0.1669  1.1710
  482TMC3    O1 7178   2.002   1.825  13.251 -0.4541  0.1232  0.1948
  482TMC3    O2 7179   2.119   1.289  13.555  0.0384 -0.1094  0.2139
  483TMC3    C1 7180   0.698   0.859   0.100  0.8342  0.2215 -0.2129
  483TMC3    C2 7181   0.666   0.982   0.133 -0.0634  0.2106  0.2084
  483TMC3    C3 7182   0.761   1.071   0.184  0.3676  0.0396  1.5126
  483TMC3    C4 7183   0.823   0.803   0.111 -0.6441 -0.4893  0.3323
  483TMC3    C5 7184   0.917   0.884   0.161  0.0676  1.1330  0.5017
  483TMC3    C6 7185   0.882   1.014   0.198  0.1657  0.7431  0.3250
  483TMC3     C 7186   0.585   0.765   0.076  0.2399 -0.8864  0.1214
  483TMC3     O 7187   0.490   0.807   0.010  0.2871 -0.2104  0.3079
  483TMC3     H 7188   0.562   1.013   0.126  0.4133  1.5843 -0.9233
  483TMC3    H1 7189   0.836   0.707   0.063  0.8608 -0.9021  1.5555
  483TMC3    H2 7190   0.963   1.079   0.228  0.6080  0.8830 -1.1994
  483TMC3    C7 7191   1.049   0.836   0.204 -0.5749  0.5459 -0.6299
  483TMC3    C8 7192   0.718   1.152   0.297  0.1660  0.2524  0.3588
  483TMC3    O1 7193   1.106   0.914   0.285 -0.0186 -0.7541  0.7279
  483TMC3    O2 7194   0.604   1.195   0.301 -0.0173 -0.5724  0.2086
  484MPD2     C 7195   3.429   4.085  12.275  0.1280 -0.9592 -0.3207
  484MPD2    C1 7196   3.453   3.993  12.379 -1.1643  0.1799  0.5165
  484MPD2    C2 7197   3.582   3.949  12.415  0.1187  0.1114  0.0779
  484MPD2    C3 7198   3.689   3.997  12.347  0.3237  0.7755 -0.3860
  484MPD2    C4 7199   3.667   4.094  12.253 -0.4476 -0.2498  0.2264
  484MPD2    C5 7200   3.541   4.136  12.220 -0.1654 -0.3715 -0.3588
  484MPD2     H 7201   3.606   3.880  12.496 -1.1956  0.4478  0.7551
  484MPD2    H1 7202   3.751   4.138  12.200 -0.7485 -0.9548 -0.8488
  484MPD2    H2 7203   3.331   4.122  12.245  0.1988 -1.1549 -0.7890
  484MPD2    H3 7204   3.532   4.215  12.147 -0.6490  0.8345  1.0164
  484MPD2     N 7205   3.815   3.962  12.380  0.0269  0.0998 -0.4388
  484MPD2    H5 7206   3.895   4.019  12.351  0.9555 -1.2084 -0.4477
  484MPD2    N1 7207   3.345   3.948  12.448 -0.0815  0.5141  0.3742
  484MPD2    H7 7208   3.252   3.986  12.433 -0.7312 -1.3391 -0.3319
  485TMC3    C1 7209   3.999   3.851  12.474 -0.5000  0.1805 -0.3092
  485TMC3    C2 7210   4.029   3.798  12.596  0.2710  0.1292 -0.0164
  485TMC3    C3 7211   4.133   3.840  12.662 -0.2758  0.2473  1.0807
  485TMC3    C4 7212   4.073   3.952  12.421  0.9095  0.3338 -0.6529
  485TMC3    C5 7213   4.192   3.983  12.482  0.3625 -0.3080 -0.2355
  485TMC3    C6 7214   4.212   3.937  12.613  0.2280 -0.1001  0.0494
  485TMC3     C 7215   3.854   3.840  12.441 -1.0144  0.0106  0.0908
  485TMC3     O 7216   3.789   3.742  12.471 -0.0584 -0.2419  0.7461
  485TMC3     H 7217   3.977   3.712  12.635  2.1660 -1.6513 -1.4077
  485TMC3    H1 7218   4.063   3.979  12.317 -0.8523  0.5382 -0.4383
  485TMC3    H2 7219   4.308   3.949  12.661  0.4549  0.5435 -0.5470
  485TMC3    C7 7220   4.312   3.969  12.398 -0.1077 -0.5375  0.0347
  485TMC3    C8 7221   4.194   3.754  12.765  0.0436  0.6159  0.4049
  485TMC3    O1 7222   4.306   3.892  12.298  0.1068 -0.1246 -0.5929
  485TMC3    O2 7223   4.299   3.788  12.822 -0.3756  0.1047  0.3193
  486MPD2     C 7224   1.429   2.623  13.044 -0.5341 -0.0096  0.1025
  486MPD2    C1 7225   1.337   2.553  12.972 -1.3976  0.2371  0.4651
  486MPD2    C2 7226   1.208   2.598  12.972 -0.2444  0.8459  0.4462
  486MPD2    C3 7227   1.173   2.705  13.054 -0.1766 -0.4615  0.3095
  486MPD2    C4 7228   1.268   2.775  13.132 -0.0277  0.2188  0.4458
  486MPD2    C5 7229   1.396   2.738  13.122 -1.1369 -0.1859 -0.3129
  486MPD2     H 7230   1.124   2.558  12.917  0.7110 -2.7237  1.5987
  486MPD2    H1 7231   1.244   2.860  13.194  0.2951  1.8672 -1.6791
  486MPD2    H2 7232   1.532   2.594  13.059 -0.4995 -0.0711 -0.2605
  486MPD2    H3 7233   1.472   2.792  13.178 -0.9665  0.0695 -0.7891
  486MPD2     N 7234   1.039   2.750  13.052 -0.0558  0.2477  0.1113
  486MPD2    H5 7235   0.970   2.694  13.002  2.2617 -0.6683 -2.0559
  486MPD2    N1 7236   1.375   2.430  12.917  0.3138 -0.2942  0.5050
  486MPD2    H7 7237   1.464   2.388  12.941 -0.3975 -0.2612  3.1397
  487TMC3    C1 7238   1.347   2.223  12.807 -0.0631  0.0876  1.0785
  487TMC3    C2 7239   1.253   2.143  12.745  0.2944 -0.4724 -0.4685
  487TMC3    C3 7240   1.269   2.006  12.768 -0.4660  0.4877 -0.2952
  487TMC3    C4 7241   1.456   2.174  12.876 -0.2289  0.0301 -0.1491
  487TMC3    C5 7242   1.478   2.045  12.881 -0.8887  0.2621  0.0427
  487TMC3    C6 7243   1.382   1.956  12.831  0.1737 -0.9323  0.0489
  487TMC3     C 7244   1.302   2.359  12.826 -0.4678 -0.7882  0.2125
  487TMC3     O 7245   1.200   2.389  12.768 -0.0164 -0.5657  0.1038
  487TMC3     H 7246   1.160   2.191  12.716  0.6814 -0.7839 -2.2297
  487TMC3    H1 7247   1.525   2.242  12.925  1.3954 -2.2265  0.7074
  487TMC3    H2 7248   1.390   1.849  12.849 -2.5552 -1.0539  0.4632
  487TMC3    C7 7249   1.544   2.004  13.005  0.5166 -0.2724 -0.2817
  487TMC3    C8 7250   1.148   1.933  12.789  0.0285 -0.2638  0.4176
  487TMC3    O1 7251   1.570   2.089  13.091 -0.2545 -0.2391 -0.3784
  487TMC3    O2 7252   1.157   1.832  12.860 -0.3031 -0.1318 -1.0412
  488MPD2     C 7253   1.044   4.382  16.507  0.0464  0.0470 -0.5741
  488MPD2    C1 7254   1.124   4.494  16.515 -0.0244 -0.0290  0.4345
  488MPD2    C2 7255   1.142   4.561  16.634 -0.6095  0.1672  0.1984
  488MPD2    C3 7256   1.091   4.507  16.747  0.4967  0.1449 -0.2931
  488MPD2    C4 7257   1.015   4.395  16.740 -0.4658 -0.5394  0.9576
  488MPD2    C5 7258   0.987   4.333  16.617  0.5919 -0.4468 -0.6178
  488MPD2     H 7259   1.192   4.657  16.631 -0.3200 -0.0210 -0.7864
  488MPD2    H1 7260   0.963   4.344  16.821 -0.8923 -1.0872  0.3408
  488MPD2    H2 7261   1.015   4.329  16.417 -0.1081  0.2802 -0.6594
  488MPD2    H3 7262   0.927   4.243  16.608  0.1519 -0.4511  2.4056
  488MPD2     N 7263   1.112   4.585  16.867  0.1047 -0.4261 -0.5462
  488MPD2    H5 7264   1.172   4.666  16.856 -0.2533 -0.0864  0.0205
  488MPD2    N1 7265   1.185   4.562  16.405  0.1288 -0.3768  0.4113
  488MPD2    H7 7266   1.242   4.641  16.433  1.7308 -1.4186  0.0461
  489TMC3    C1 7267   1.095   4.657  17.090  0.7178 -0.7067  0.1972
  489TMC3    C2 7268   1.188   0.035  17.066  0.3788  0.0768 -0.5311
  489TMC3    C3 7269   1.190   0.143  17.149  0.0187  0.4577 -0.3128
  489TMC3    C4 7270   1.013   4.659  17.199 -0.4035  0.6737  0.5404
  489TMC3    C5 7271   1.030   0.034  17.285 -0.1307 -0.1250 -0.2207
  489TMC3    C6 7272   1.109   0.143  17.265 -0.3653  0.5505  0.2729
  489TMC3     C 7273   1.061   4.559  16.985 -0.3123 -0.0487 -0.1707
  489TMC3     O 7274   0.987   4.471  17.018 -0.0757  0.2803  0.3117
  489TMC3     H 7275   1.245   0.041  16.974 -2.6994  0.6017 -2.4114
  489TMC3    H1 7276   0.933   4.587  17.212  1.7956 -1.7831  0.2398
  489TMC3    H2 7277   1.117   0.219  17.342 -0.5333  0.9719 -0.1291
  489TMC3    C7 7278   0.915   0.055  17.375  0.1697  0.1989  0.9247
  489TMC3    C8 7279   1.275   0.258  17.106 -0.6659 -0.5699  0.2166
  489TMC3    O1 7280   0.886   4.686  17.445  0.2242 -0.1820 -0.3542
  489TMC3    O2 7281   1.356   0.239  17.016 -0.1264  0.0597  0.5742
  490MPD2     C 7282   2.395   3.676  16.900 -0.3615 -0.3987  0.3213
  490MPD2    C1 7283   2.338   3.762  16.999  0.0393  0.3581 -0.2367
  490MPD2    C2 7284   2.422   3.843  17.073 -0.2236 -0.5554  0.7177
  490MPD2    C3 7285   2.562   3.844  17.049 -0.0173 -0.1795 -0.3212
  490MPD2    C4 7286   2.613   3.750  16.956  0.6196  0.4607  0.1997
  490MPD2    C5 7287   2.534   3.672  16.871  0.9271 -0.0088  0.8280
  490MPD2     H 7288   2.378   3.909  17.146 -0.3866 -0.1479  0.2564
  490MPD2    H1 7289   2.717   3.745  16.929 -0.0621  1.7130 -2.6354
  490MPD2    H2 7290   2.323   3.619  16.842  1.1978 -2.2540  0.2102
  490MPD2    H3 7291   2.574   3.604  16.797  1.1369 -0.5040  1.3953
  490MPD2     N 7292   2.653   3.934  17.113  0.4754 -0.0866 -0.0862
  490MPD2    H5 7293   2.749   3.922  17.081 -0.0483 -1.0168 -1.3394
  490MPD2    N1 7294   2.202   3.766  17.028 -0.2992 -0.8818 -0.4617
  490MPD2    H7 7295   2.173   3.824  17.106 -0.5375 -0.9851 -0.4725
  491TMC3    C1 7296   1.981   3.700  17.038  0.1397  0.4304 -0.2194
  491TMC3    C2 7297   1.982   3.688  17.172 -0.2018 -0.3312  0.7789
  491TMC3    C3 7298   1.866   3.691  17.239 -0.0567 -0.3332  0.3435
  491TMC3    C4 7299   1.865   3.683  16.965 -0.0641  0.1983  0.5658
  491TMC3    C5 7300   1.752   3.687  17.036 -0.6499 -0.3859 -0.3826
  491TMC3    C6 7301   1.747   3.690  17.172 -0.2147  0.2206  0.7043
  491TMC3     C 7302   2.102   3.695  16.964  0.5349 -0.2102  0.3491
  491TMC3     O 7303   2.101   3.650  16.850  0.1036  0.5024 -0.3372
  491TMC3     H 7304   2.074   3.691  17.229  0.5454 -0.3535 -0.4377
  491TMC3    H1 7305   1.864   3.699  16.858  0.9203 -2.4662  0.1547
  491TMC3    H2 7306   1.653   3.684  17.224  1.1962  1.4200  3.3718
  491TMC3    C7 7307   1.633   3.678  16.964  0.4247  0.2350 -1.0670
  491TMC3    C8 7308   1.862   3.691  17.386 -0.2517  0.1126  0.2832
  491TMC3    O1 7309   1.657   3.616  16.863 -0.5516  0.0887  0.5366
  491TMC3    O2 7310   1.764   3.639  17.437  0.1151 -0.0377 -0.0956
  492MPD2     C 7311   2.303   3.564  11.104 -0.6132 -0.1551  0.1791
  492MPD2    C1 7312   2.168   3.579  11.079  0.2081  0.1383 -0.0151
  492MPD2    C2 7313   2.070   3.542  11.179 -0.1185 -0.3231  0.5097
  492MPD2    C3 7314   2.111   3.491  11.295  0.0166  1.0245  0.0702
  492MPD2    C4 7315   2.244   3.481  11.316  0.7435 -0.2361  0.3509
  492MPD2    C5 7316   2.338   3.523  11.227 -0.0723  0.0329  0.2753
  492MPD2     H 7317   1.965   3.558  11.161  0.1692  1.6922  0.6727
  492MPD2    H1 7318   2.292   3.429  11.399  0.1198 -1.3208  0.0350
  492MPD2    H2 7319   2.383   3.585  11.034 -1.2600 -1.4807 -0.9661
  492MPD2    H3 7320   2.442   3.514  11.257 -0.6589 -1.0621  2.0149
  492MPD2     N 7321   2.026   3.431  11.395 -0.1143  0.1038 -0.1857
  492MPD2    H5 7322   2.070   3.416  11.486  3.0768  0.6371 -1.6182
  492MPD2    N1 7323   2.133   3.637  10.953  0.2825 -0.0192  0.3465
  492MPD2    H7 7324   2.209   3.660  10.890  1.1455 -1.3249  0.9258
  493TMC3    C1 7325   2.013   3.737  10.784  0.1566 -0.5467  0.1514
  493TMC3    C2 7326   2.118   3.814  10.740  0.6938 -0.5384 -0.4189
  493TMC3    C3 7327   2.112   3.895  10.629 -0.5367  0.0200 -0.3940
  493TMC3    C4 7328   1.896   3.740  10.711  0.1953  0.2077 -0.3416
  493TMC3    C5 7329   1.891   3.830  10.609 -0.5142  0.2006 -0.4985
  493TMC3    C6 7330   1.996   3.900  10.551  1.1563  0.6337 -0.1995
  493TMC3     C 7331   2.008   3.654  10.904 -0.2853 -0.4485 -0.5408
  493TMC3     O 7332   1.899   3.619  10.950  0.1411 -0.3222 -0.0492
  493TMC3     H 7333   2.214   3.795  10.788  0.2335 -0.9909  0.3183
  493TMC3    H1 7334   1.814   3.695  10.765  1.9393  0.0229  2.1391
  493TMC3    H2 7335   1.995   3.951  10.455  4.3389  3.3076  1.1935
  493TMC3    C7 7336   1.761   3.844  10.550 -0.4205  0.0151 -0.7159
  493TMC3    C8 7337   2.239   3.925  10.570 -0.2331  0.3956 -0.5549
  493TMC3    O1 7338   1.745   3.939  10.471 -0.2741  0.3624  0.1604
  493TMC3    O2 7339   2.330   3.865  10.622 -0.5085  0.0964  0.4829
  494TMC3    C1 7340   2.715   0.636   0.756  0.5826  0.1452  0.9746
  494TMC3    C2 7341   2.772   0.513   0.757 -1.1095  0.5019 -0.2217
  494TMC3    C3 7342   2.855   0.481   0.657 -0.1821 -0.5357 -0.3144
  494TMC3    C4 7343   2.753   0.734   0.667  0.6039  0.6567 -0.1738
  494TMC3    C5 7344   2.837   0.694   0.569 -0.2066 -0.4666 -0.1152
  494TMC3    C6 7345   2.886   0.564   0.559  0.0071  1.2064  0.6956
  494TMC3     C 7346   2.639   0.692   0.863  0.2179  0.0969  0.2759
  494TMC3     O 7347   2.576   0.794   0.838  0.4386  0.1957  0.1505
  494TMC3     H 7348   2.754   0.435   0.830 -0.6548  3.1580  2.7240
  494TMC3    H1 7349   2.721   0.837   0.668  0.1384  0.4966  3.0457
  494TMC3    H2 7350   2.939   0.532   0.470 -0.0081  0.9044  0.7977
  494TMC3    C7 7351   2.848   0.774   0.446 -0.0103 -0.2591  0.4138
  494TMC3    C8 7352   2.942   0.364   0.672  0.2573  0.2000 -0.3257
  494TMC3    O1 7353   2.836   0.724   0.334 -0.1191  0.0032  0.3770
  494TMC3    O2 7354   3.032   0.367   0.592 -0.3376 -0.4749 -0.1313
  495TMC3    C1 7355   1.297   2.563  14.550  0.0301  0.4684  0.3671
  495TMC3    C2 7356   1.234   2.619  14.444  0.0767 -0.2588 -0.2293
  495TMC3    C3 7357   1.203   2.751  14.454  0.1969 -0.5141 -0.0572
  495TMC3    C4 7358   1.341   2.639  14.657  0.3751 -0.3307 -0.2201
  495TMC3    C5 7359   1.329   2.778  14.653  0.0795  0.0654  0.0550
  495TMC3    C6 7360   1.249   2.833  14.558 -0.2110 -0.1853  0.5889
  495TMC3     C 7361   1.279   2.427  14.562 -0.8694 -0.3166  0.4431
  495TMC3     O 7362   1.184   2.366  14.511 -0.0263  0.4134 -0.5512
  495TMC3     H 7363   1.201   2.557  14.362 -0.4530 -1.3934  0.8395
  495TMC3    H1 7364   1.388   2.591  14.742 -0.9229  1.4461  1.4948
  495TMC3    H2 7365   1.236   2.941  14.554 -0.4328 -0.2248  0.2825
  495TMC3    C7 7366   1.315   2.828  14.790  1.0016  0.9237 -0.1302
  495TMC3    C8 7367   1.081   2.785  14.386 -0.0025  0.2212 -0.2869
  495TMC3    O1 7368   1.415   2.844  14.860 -0.0468  0.1845  0.2703
  495TMC3    O2 7369   1.016   2.696  14.331 -0.1254 -0.4434  0.0656
  496MPD2     C 7370   3.487   2.831  15.339 -0.2399  1.1524 -0.2152
  496MPD2    C1 7371   3.581   2.787  15.428  0.2313  0.1580 -0.4760
  496MPD2    C2 7372   3.541   2.769  15.558  0.4674  0.2360 -0.0266
  496MPD2    C3 7373   3.409   2.788  15.603 -0.2860 -0.5862 -1.0605
  496MPD2    C4 7374   3.316   2.834  15.514 -0.4432 -0.0479  0.4113
  496MPD2    C5 7375   3.358   2.850  15.383  0.4574  0.4628 -0.7303
  496MPD2     H 7376   3.611   2.728  15.631  0.9049 -1.1943 -1.2655
  496MPD2    H1 7377   3.215   2.857  15.547  0.7330  1.9735  2.5748
  496MPD2    H2 7378   3.508   2.833  15.233  0.8008 -1.1088 -0.0499
  496MPD2    H3 7379   3.285   2.889  15.313 -0.2342 -0.4345 -0.5122
  496MPD2     N 7380   3.370   2.757  15.738 -0.6125 -0.5423  0.0441
  496MPD2    H5 7381   3.273   2.770  15.764 -0.2341 -0.8696  1.5916
  496MPD2    N1 7382   3.709   2.753  15.379  0.6414 -0.0313  0.3067
  496MPD2    H7 7383   3.710   2.737  15.279  1.7042  0.3527  0.2576
  497TMC3    C1 7384   3.375   2.669  15.960  0.5521  0.0099 -0.4692
  497TMC3    C2 7385   3.267   2.598  15.930  0.0663  1.0126  0.2232
  497TMC3    C3 7386   3.186   2.570  16.037  0.6446  0.3305  0.7534
  497TMC3    C4 7387   3.419   2.691  16.088  0.0275  0.5182  0.2307
  497TMC3    C5 7388   3.336   2.663  16.192 -0.2346  1.5521 -0.3660
  497TMC3    C6 7389   3.216   2.605  16.170  0.0897 -0.0084 -0.2510
  497TMC3     C 7390   3.450   2.711  15.841 -0.4208 -0.2944 -1.1398
  497TMC3     O 7391   3.567   2.715  15.862 -0.8506  0.2225 -0.3006
  497TMC3     H 7392   3.236   2.571  15.830 -1.1455 -0.2140  0.9210
  497TMC3    H1 7393   3.515   2.739  16.106 -0.3072  0.3538  2.4908
  497TMC3    H2 7394   3.137   2.603  16.243 -1.8179 -1.6759 -2.3517
  497TMC3    C7 7395   3.376   2.680  16.332  0.6704  0.3281 -0.4926
  497TMC3    C8 7396   3.061   2.503  16.017  0.2333 -0.2073  0.8834
  497TMC3    O1 7397   3.327   2.610  16.421  0.3189 -0.0170 -0.3096
  497TMC3    O2 7398   2.982   2.506  16.105 -0.3759 -0.0969 -0.5626
  498MPD2     C 7399   0.862   3.010   9.352  0.7069 -0.5817 -0.3633
  498MPD2    C1 7400   0.733   3.047   9.378 -0.3151 -0.4462  0.8242
  498MPD2    C2 7401   0.628   2.961   9.351 -0.2562 -0.3275  0.3664
  498MPD2    C3 7402   0.652   2.829   9.315 -0.1802  0.3143 -0.1663
  498MPD2    C4 7403   0.784   2.792   9.283  0.4888  0.1775 -0.6571
  498MPD2    C5 7404   0.883   2.878   9.306 -0.1739 -0.3956  0.3765
  498MPD2     H 7405   0.527   2.995   9.374 -0.9277 -2.2088  0.2367
  498MPD2    H1 7406   0.827   2.697   9.254  0.2774  0.2643 -1.2430
  498MPD2    H2 7407   0.951   3.066   9.376 -0.0373 -0.9396  3.1764
  498MPD2    H3 7408   0.987   2.851   9.289 -0.4812 -1.5154  0.2377
  498MPD2     N 7409   0.542   2.740   9.311  0.0149  0.0927  0.1653
  498MPD2    H5 7410   0.450   2.771   9.340  0.2442  2.5835 -1.7984
  498MPD2    N1 7411   0.704   3.177   9.432 -0.1245  0.1554 -0.2223
  498MPD2    H7 7412   0.607   3.206   9.433  0.0751  0.6894  2.4130
  499TMC3    C1 7413   0.716   3.393   9.512 -0.4897 -0.4113 -0.1963
  499TMC3    C2 7414   0.761   3.460   9.621  0.6262 -0.1413  0.0150
  499TMC3    C3 7415   0.733   3.598   9.633  0.1074  0.2847  0.9648
  499TMC3    C4 7416   0.664   3.461   9.407 -0.3558 -0.2725  0.7018
  499TMC3    C5 7417   0.641   3.596   9.417 -0.1791 -0.3416  0.2639
  499TMC3    C6 7418   0.668   3.667   9.533  0.3301  0.2321 -0.8042
  499TMC3     C 7419   0.785   3.269   9.487  0.0451  0.3804 -0.4388
  499TMC3     O 7420   0.904   3.261   9.520  0.1078 -0.0097  0.5027
  499TMC3     H 7421   0.830   3.411   9.690 -0.6878  1.7719  2.6659
  499TMC3    H1 7422   0.650   3.409   9.313 -1.7573 -1.7820  1.7358
  499TMC3    H2 7423   0.639   3.771   9.541 -1.7185 -0.8040  4.9522
  499TMC3    C7 7424   0.549   3.662   9.323  0.9732  0.3582  0.0715
  499TMC3    C8 7425   0.749   3.673   9.761  0.3224 -0.9809 -0.3710
  499TMC3    O1 7426   0.530   3.783   9.323  0.1931 -0.3059 -0.2405
  499TMC3    O2 7427   0.761   3.795   9.754  0.2339 -0.1826  0.7028
  500MPD2     C 7428   1.177   0.008  10.221 -0.4845  0.5268  0.7998
  500MPD2    C1 7429   1.177   4.599  10.185 -0.6078 -0.1686 -0.8821
  500MPD2    C2 7430   1.104   4.544  10.083  0.6383 -1.0100 -0.2537
  500MPD2    C3 7431   1.006   4.631  10.014  0.1134  0.2139 -0.1411
  500MPD2    C4 7432   1.001   0.040  10.045 -0.3914 -0.1180  0.5345
  500MPD2    C5 7433   1.081   0.086  10.146  0.7652  0.3715  0.2555
  500MPD2     H 7434   1.119   4.439  10.065 -1.4841 -0.8375 -2.9620
  500MPD2    H1 7435   0.935   0.108   9.994 -0.4995  1.3061  2.5685
  500MPD2    H2 7436   1.228   0.055  10.305 -1.1370 -0.3705  1.6969
  500MPD2    H3 7437   1.061   0.189  10.171  0.3251 -0.3867  3.0531
  500MPD2     N 7438   0.914   4.577   9.928  0.0587 -0.1831 -0.3807
  500MPD2    H5 7439   0.840   4.639   9.896 -0.8238 -0.4853  1.1019
  500MPD2    N1 7440   1.266   4.517  10.254 -0.0989  0.1789 -0.0360
  500MPD2    H7 7441   1.270   4.422  10.217 -2.6418 -0.5924  1.6597
  501TMC3    C1 7442   1.449   4.454  10.396 -0.1331 -0.0349  0.2680
  501TMC3    C2 7443   1.512   4.392  10.292 -0.1525  0.5438  0.4786
  501TMC3    C3 7444   1.638   4.339  10.316  0.4344  0.5461  0.2992
  501TMC3    C4 7445   1.506   4.456  10.519 -0.5408  0.5129  0.1243
  501TMC3    C5 7446   1.619   4.382  10.542  0.8363  0.6556  0.1236
  501TMC3    C6 7447   1.684   4.326  10.438  0.8667  0.8283  0.8479
  501TMC3     C 7448   1.342   4.553  10.370  0.1583 -0.4959  0.3365
  501TMC3     O 7449   1.333   4.644  10.450 -0.2029 -1.0922 -0.0682
  501TMC3     H 7450   1.483   4.402  10.188 -0.3400 -1.5650  0.3234
  501TMC3    H1 7451   1.447   4.490  10.603 -1.4295  1.9853 -1.0872
  501TMC3    H2 7452   1.783   4.285  10.454 -0.0965 -1.0753  1.9200
  501TMC3    C7 7453   1.682   4.385  10.672  0.2247 -0.7882 -0.2188
  501TMC3    C8 7454   1.730   4.298  10.204  0.3521 -1.1258  0.5593
  501TMC3    O1 7455   1.772   4.307  10.703 -0.8656  0.1853  0.7647
  501TMC3    O2 7456   1.761   4.177  10.202 -0.3947  0.3043  0.1239
  502TMC3    C1 7457   0.637   3.450  14.897  0.6058 -0.1747 -0.6556
  502TMC3    C2 7458   0.611   3.581  14.879  0.4555 -0.8492 -0.5343
  502TMC3    C3 7459   0.485   3.617  14.927 -0.1761  1.1571 -0.1357
  502TMC3    C4 7460   0.568   3.363  14.978 -0.2160  0.4934 -0.0392
  502TMC3    C5 7461   0.444   3.405  15.027  0.3253  0.4980  0.2226
  502TMC3    C6 7462   0.401   3.536  15.007  0.0907 -0.3883 -0.8988
  502TMC3     C 7463   0.784   3.425  14.905  0.2028  0.1593 -0.1738
  502TMC3     O 7464   0.828   3.312  14.889  0.2828 -0.1907 -0.7540
  502TMC3     H 7465   0.673   3.650  14.822 -0.2026 -0.5895 -0.9307
  502TMC3    H1 7466   0.614   3.267  14.997 -1.4045  0.7107  4.1071
  502TMC3    H2 7467   0.305   3.575  15.037 -0.0655 -0.0334 -1.8518
  502TMC3    C7 7468   0.388   3.336  15.142  0.4439 -0.4354  0.6353
  502TMC3    C8 7469   0.473   3.761  14.932 -0.7153 -0.2534  0.0158
  502TMC3    O1 7470   0.463   3.277  15.216  0.3339  0.3192  0.1537
  502TMC3    O2 7471   0.560   3.832  14.887  0.0554 -0.4365  0.3025
  503MPD2     C 7472   2.883   4.553  16.920 -0.4099  0.2658  0.0623
  503MPD2    C1 7473   2.944   4.598  17.034 -0.1121 -0.5079 -0.3760
  503MPD2    C2 7474   2.995   4.504  17.121  0.0018  0.2423 -0.0781
  503MPD2    C3 7475   3.013   4.372  17.090  0.2174 -0.1006 -0.8246
  503MPD2    C4 7476   2.953   4.329  16.973  0.1431 -0.6319 -0.7351
  503MPD2    C5 7477   2.873   4.421  16.897 -0.2769 -0.3263  0.6754
  503MPD2     H 7478   3.050   4.549  17.203  1.0435 -0.6578 -0.2797
  503MPD2    H1 7479   2.967   4.228  16.935 -0.7218 -2.5590  4.1125
  503MPD2    H2 7480   2.828   4.625  16.860 -2.5894 -0.9215  0.6148
  503MPD2    H3 7481   2.829   4.387  16.804 -0.6459  0.1442  0.6823
  503MPD2     N 7482   3.101   4.295  17.175  0.0677 -0.1660 -0.3671
  503MPD2    H5 7483   3.126   4.336  17.264 -0.6434  1.1753 -0.7790
  503MPD2    N1 7484   2.945   0.006  17.080 -0.4231  0.3746 -0.3850
  503MPD2    H7 7485   2.981   0.013  17.175 -0.5536  1.6771 -0.4337
  504TMC3    C1 7486   3.269   4.143  17.215 -0.1005  0.3228 -0.3020
  504TMC3    C2 7487   3.282   4.195  17.338  0.1242  0.1484  0.6903
  504TMC3    C3 7488   3.407   4.181  17.388  0.5818  0.3048 -0.0481
  504TMC3    C4 7489   3.372   4.080  17.147  0.5432  0.4970 -0.1029
  504TMC3    C5 7490   3.497   4.066  17.202  0.3294  0.5655 -0.4469
  504TMC3    C6 7491   3.515   4.124  17.323  0.4190  0.1328  0.8428
  504TMC3     C 7492   3.155   4.176  17.137  0.6487  0.5345 -0.0547
  504TMC3     O 7493   3.130   4.096  17.047 -0.5183 -0.1904 -0.5690
  504TMC3     H 7494   3.201   4.238  17.396 -0.8211 -0.5062 -0.1331
  504TMC3    H1 7495   3.350   4.034  17.051  0.1960  0.8877 -0.2121
  504TMC3    H2 7496   3.613   4.136  17.366  0.4794 -0.4055  0.8566
  504TMC3    C7 7497   3.603   4.038  17.112 -0.2346  0.1176  0.8081
  504TMC3    C8 7498   3.428   4.258  17.509 -0.1948  0.1576 -0.1701
  504TMC3    O1 7499   3.573   4.018  16.998 -0.2196 -0.0578  0.3348
  504TMC3    O2 7500   3.346   4.346  17.530  0.2040 -0.0917 -0.5721
  505MPD2     C 7501   4.362   1.899   8.542  0.1330 -0.0554 -0.5927
  505MPD2    C1 7502   4.277   1.894   8.648 -0.0275  0.2354  0.7141
  505MPD2    C2 7503   4.192   2.000   8.677 -0.1373  0.0920  0.2991
  505MPD2    C3 7504   4.192   2.119   8.604  0.2608  0.2133  0.0153
  505MPD2    C4 7505   4.266   2.122   8.491 -0.5886 -0.1525 -0.0359
  505MPD2    C5 7506   4.342   2.011   8.459 -0.4117 -0.2530  0.1857
  505MPD2     H 7507   4.139   2.007   8.771  0.3096 -1.3448  0.6581
  505MPD2    H1 7508   4.275   2.207   8.425 -1.7074 -1.0266 -1.3010
  505MPD2    H2 7509   4.433   1.820   8.519 -0.5231 -1.2455  1.4982
  505MPD2    H3 7510   4.408   2.018   8.373  0.7008  1.0808  1.1550
  505MPD2     N 7511   4.119   2.227   8.653  0.1468 -0.3264  0.4602
  505MPD2    H5 7512   4.069   2.205   8.738  1.8547 -0.8247  1.3224
  505MPD2    N1 7513   4.290   1.781   8.730 -0.3039 -0.0099  0.2944
  505MPD2    H7 7514   4.349   1.707   8.695 -0.3550  0.6367 -1.1511
  506TMC3    C1 7515   4.273   1.649   8.923  0.2592 -0.0508 -0.8404
  506TMC3    C2 7516   4.412   1.642   8.938  0.6905  0.1364  0.9158
  506TMC3    C3 7517   4.458   1.642   9.064 -0.0140  0.0973 -0.1009
  506TMC3    C4 7518   4.196   1.634   9.038  0.2125  0.9782  0.4573
  506TMC3    C5 7519   4.248   1.640   9.163 -0.6515 -0.1337 -0.9691
  506TMC3    C6 7520   4.381   1.653   9.177 -0.6595  0.9652  0.3098
  506TMC3     C 7521   4.222   1.761   8.849 -0.3279 -0.3367 -0.6610
  506TMC3     O 7522   4.131   1.831   8.894 -0.3323  0.2110 -0.5618
  506TMC3     H 7523   4.484   1.664   8.860 -1.5608  1.5604 -0.7612
  506TMC3    H1 7524   4.089   1.641   9.019 -0.0446  0.2066  1.6177
  506TMC3    H2 7525   4.422   1.647   9.278  1.3732  3.6211 -0.3585
  506TMC3    C7 7526   4.176   1.727   9.253 -0.8612 -0.3727 -0.1816
  506TMC3    C8 7527   4.594   1.666   9.077 -0.6193 -0.1419 -0.4515
  506TMC3    O1 7528   4.201   1.731   9.372 -0.3502 -0.2199 -0.3439
  506TMC3    O2 7529   4.665   1.589   9.015  0.2081  0.4488  0.6023
  507TMC3    C1 7530   3.921   3.705  15.166  0.3733  0.0855  0.4014
  507TMC3    C2 7531   3.879   3.606  15.078  0.2544 -0.5012 -0.4446
  507TMC3    C3 7532   3.966   3.570  14.977 -0.2287  0.2113 -0.5800
  507TMC3    C4 7533   4.027   3.781  15.141 -0.0584 -0.4451 -1.0062
  507TMC3    C5 7534   4.122   3.738  15.049 -0.6491 -0.4362  0.6808
  507TMC3    C6 7535   4.084   3.633  14.966 -0.6439 -0.4225  0.6960
  507TMC3     C 7536   3.835   3.740  15.278  0.8268  0.3769 -0.2668
  507TMC3     O 7537   3.883   3.816  15.361  0.0800 -0.5185 -0.3273
  507TMC3     H 7538   3.790   3.548  15.099  0.6446 -0.9579 -0.0611
  507TMC3    H1 7539   4.053   3.868  15.201  2.6570 -0.6443 -1.8906
  507TMC3    H2 7540   4.157   3.609  14.890 -0.7281  2.9394 -0.4748
  507TMC3    C7 7541   4.168   3.844  14.956 -0.0277 -0.1514 -0.4932
  507TMC3    C8 7542   3.907   3.544  14.851  0.1556 -0.1299 -1.5852
  507TMC3    O1 7543   4.160   3.824  14.836 -0.6314 -0.5884  0.4417
  507TMC3    O2 7544   3.839   3.443  14.830 -0.3679  0.1054  0.1775
  508MPD2     C 7545   0.465   1.308  16.398  0.2172  0.5479 -0.1370
  508MPD2    C1 7546   0.438   1.430  16.464 -0.2832  0.5729  0.2334
  508MPD2    C2 7547   0.401   1.544  16.387 -0.2272  0.3376  0.0029
  508MPD2    C3 7548   0.423   1.546  16.252  0.8332 -0.4599  0.2522
  508MPD2    C4 7549   0.452   1.425  16.189 -0.2899 -0.1089 -0.1238
  508MPD2    C5 7550   0.465   1.310  16.265 -0.8747  0.7940 -0.5670
  508MPD2     H 7551   0.370   1.636  16.434  0.7781 -0.3312  1.9862
  508MPD2    H1 7552   0.455   1.423  16.081  1.8033 -0.1055 -0.0646
  508MPD2    H2 7553   0.492   1.219  16.453 -0.7521  0.6682  0.5376
  508MPD2    H3 7554   0.477   1.212  16.220 -1.4888 -0.6339  2.3728
  508MPD2     N 7555   0.394   1.670  16.182  0.2856  0.6366 -0.3808
  508MPD2    H5 7556   0.336   1.738  16.229  0.4501  0.2942  0.3213
  508MPD2    N1 7557   0.457   1.428  16.601  0.2893  0.2198  0.4463
  508MPD2    H7 7558   0.495   1.345  16.646  0.6412 -1.3321 -2.7597
  509TMC3    C1 7559   0.350   2.027  15.978  0.0603  0.0337 -1.0374
  509TMC3    C2 7560   0.438   2.062  15.877  1.1698  0.0884 -0.8901
  509TMC3    C3 7561   0.538   1.970  15.842  0.9304 -0.2015 -0.2411
  509TMC3    C4 7562   0.356   1.920  16.048 -0.2470 -0.5156  0.5190
  509TMC3    C5 7563   0.438   1.822  16.004  0.0171  0.2039 -0.5516
  509TMC3    C6 7564   0.529   1.849  15.910  0.3827  0.0927 -0.3974
  509TMC3     C 7565   0.241   2.115  16.000  0.1881 -0.2292 -1.0160
  509TMC3     O 7566   0.208   2.129  16.115  0.2562  0.0414 -0.1563
  509TMC3     H 7567   0.430   2.162  15.837 -1.2103  1.8202  3.8093
  509TMC3    H1 7568   0.275   1.900  16.118 -0.8708 -0.7506 -0.2741
  509TMC3    H2 7569   0.605   1.773  15.893  0.3704  0.2178 -1.0411
  509TMC3    C7 7570   0.431   1.682  16.048 -0.2825 -0.2802 -0.5124
  509TMC3    C8 7571   0.671   2.028  15.819  0.4687  0.4446  0.4513
  509TMC3    O1 7572   0.483   1.600  15.970  0.6394 -0.0311 -0.1766
  509TMC3    O2 7573   0.762   1.949  15.806  0.4886  0.1343 -0.1011
  510MPD2     C 7574   2.609   2.903  14.506  0.5110 -0.6809  0.5765
  510MPD2    C1 7575   2.678   2.975  14.595  0.0714  0.4304 -0.0820
  510MPD2    C2 7576   2.788   3.049  14.551  0.4440  0.4292  0.1997
  510MPD2    C3 7577   2.830   3.034  14.423 -0.2495 -0.0318  0.6976
  510MPD2    C4 7578   2.754   2.966  14.331 -0.1509 -0.5722 -0.0651
  510MPD2    C5 7579   2.645   2.895  14.376 -0.0285  0.0382  0.6883
  510MPD2     H 7580   2.847   3.105  14.622 -0.2016  0.6924  0.5288
  510MPD2    H1 7581   2.783   2.953  14.227 -1.4747  1.4979 -0.6765
  510MPD2    H2 7582   2.529   2.842  14.546  0.2368 -2.0464 -2.0851
  510MPD2    H3 7583   2.574   2.848  14.309  0.4350 -1.0608  0.9591
  510MPD2     N 7584   2.955   3.086  14.382 -0.3566 -0.0216  0.2121
  510MPD2    H5 7585   3.003   3.138  14.455 -1.5908  0.5457  0.6280
  510MPD2    N1 7586   2.627   2.969  14.723  0.1831  0.4406  0.2712
  510MPD2    H7 7587   2.560   2.894  14.735 -0.7561  0.7417 -3.0310
  511TMC3    C1 7588   2.594   2.964  14.934  0.1344  0.0921 -0.1103
  511TMC3    C2 7589   2.501   3.022  15.012  0.0956 -0.1068  0.0466
  511TMC3    C3 7590   2.422   2.937  15.081 -0.6141  0.4669  0.0084
  511TMC3    C4 7591   2.609   2.830  14.920  0.0886 -0.5571  0.5580
  511TMC3    C5 7592   2.526   2.749  14.987 -0.2365  0.6408 -0.4768
  511TMC3    C6 7593   2.435   2.799  15.076  0.2713  0.1870  0.0675
  511TMC3     C 7594   2.663   3.038  14.834  0.1409  0.3475 -0.0825
  511TMC3     O 7595   2.693   3.157  14.852  0.5268  0.0993  0.7008
  511TMC3     H 7596   2.487   3.129  15.005  0.0578 -0.1789 -0.9099
  511TMC3    H1 7597   2.683   2.786  14.854  3.3835 -0.5524  4.3142
  511TMC3    H2 7598   2.359   2.737  15.122  1.2837 -1.9014 -1.0824
  511TMC3    C7 7599   2.466   2.666  14.885 -0.7197  0.6099 -0.0087
  511TMC3    C8 7600   2.326   2.995  15.171  0.6779 -0.0570  0.0720
  511TMC3    O1 7601   2.495   2.707  14.771 -0.2806  0.9243 -0.7186
  511TMC3    O2 7602   2.292   3.110  15.155  0.2448 -0.4561  0.2508
  512TMC3    C1 7603   2.024   2.348  13.240 -0.1633  0.2924 -0.2043
  512TMC3    C2 7604   1.982   2.285  13.348  0.0469 -0.3114  0.5741
  512TMC3    C3 7605   1.902   2.174  13.341  0.3859  0.6005  0.8725
  512TMC3    C4 7606   1.986   2.301  13.117 -0.8613 -0.1852 -0.6634
  512TMC3    C5 7607   1.906   2.193  13.108 -0.0852  0.2282 -0.5107
  512TMC3    C6 7608   1.862   2.123  13.225  0.1679 -0.0383 -0.6625
  512TMC3     C 7609   2.118   2.463  13.246  0.2105  0.0078  0.0979
  512TMC3     O 7610   2.167   2.490  13.138 -0.0641 -0.4121  0.0946
  512TMC3     H 7611   2.022   2.309  13.446  0.0024  1.0462  0.2678
  512TMC3    H1 7612   2.024   2.351  13.029  0.8683  2.4879  1.5961
  512TMC3    H2 7613   1.786   2.046  13.223  0.1431  0.0273 -2.4831
  512TMC3    C7 7614   1.896   2.127  12.976 -0.9299 -0.2027  0.2272
  512TMC3    C8 7615   1.799   2.174  13.445 -0.1156 -0.0279  0.3249
  512TMC3    O1 7616   1.941   2.186  12.881  0.2637  0.2565  0.1614
  512TMC3    O2 7617   1.736   2.072  13.465 -0.1227  0.7135 -0.1187
  513MPD2     C 7618   3.538   3.214  12.742 -0.9948  0.6081 -0.5857
  513MPD2    C1 7619   3.435   3.123  12.740  0.8392  0.1777 -0.1960
  513MPD2    C2 7620   3.427   3.038  12.848 -0.0008  0.1623  0.2972
  513MPD2    C3 7621   3.521   3.050  12.957  0.1345 -0.1126  0.3482
  513MPD2    C4 7622   3.619   3.143  12.960 -0.5172 -0.4450 -0.5650
  513MPD2    C5 7623   3.628   3.225  12.850  0.4507  0.1404  0.1601
  513MPD2     H 7624   3.364   2.950  12.845  2.7090 -1.8351  2.1654
  513MPD2    H1 7625   3.695   3.147  13.037 -0.2250 -1.1311 -0.8187
  513MPD2    H2 7626   3.542   3.300  12.676  0.6182  0.9243 -0.0622
  513MPD2    H3 7627   3.703   3.302  12.855 -0.3273  0.9585 -0.7599
  513MPD2     N 7628   3.520   2.947  13.051 -0.4568  0.0909  0.4216
  513MPD2    H5 7629   3.441   2.885  13.033  0.0290 -0.8694  1.6526
  513MPD2    N1 7630   3.353   3.120  12.623 -0.4111 -0.0535 -0.7396
  513MPD2    H7 7631   3.369   3.189  12.551  0.3433  0.9549  0.3852
  514TMC3    C1 7632   3.176   3.021  12.484  0.6107  0.3422  0.0974
  514TMC3    C2 7633   3.236   3.051  12.371  0.1321  0.3561  0.6430
  514TMC3    C3 7634   3.208   2.971  12.259  0.2541 -0.9554  0.3371
  514TMC3    C4 7635   3.079   2.921  12.498 -0.0379  0.4022 -0.0813
  514TMC3    C5 7636   3.065   2.835  12.398  0.3134  0.2398  0.0929
  514TMC3    C6 7637   3.127   2.859  12.280  0.5321 -0.2543  0.2486
  514TMC3     C 7638   3.250   3.029  12.605  0.1088  0.1048 -0.3832
  514TMC3     O 7639   3.234   2.932  12.674 -0.2021  0.0475 -0.9187
  514TMC3     H 7640   3.311   3.129  12.370 -0.8777  1.3285  0.9247
  514TMC3    H1 7641   3.026   2.912  12.592 -1.8107  0.6818 -1.0548
  514TMC3    H2 7642   3.119   2.790  12.198  1.1737 -0.8183  0.6705
  514TMC3    C7 7643   3.074   2.699  12.447 -0.1048  0.2441  0.0031
  514TMC3    C8 7644   3.309   2.967  12.150 -0.1220  0.7011  0.3085
  514TMC3    O1 7645   3.036   2.610  12.369  0.4600 -0.0989 -0.6752
  514TMC3    O2 7646   3.386   3.061  12.145 -0.0360  0.0558  0.5084
  515MPD2     C 7647   1.177   4.185  14.989  0.9105 -0.3541  0.8598
  515MPD2    C1 7648   1.286   4.167  14.903 -0.1536  0.8356 -0.2506
  515MPD2    C2 7649   1.413   4.195  14.952  0.2881  0.1414 -1.0298
  515MPD2    C3 7650   1.421   4.228  15.085 -0.4857 -0.1473  0.2346
  515MPD2    C4 7651   1.319   4.254  15.169 -0.1222  0.9104 -0.0847
  515MPD2    C5 7652   1.192   4.233  15.115  0.8608  0.2639  0.4349
  515MPD2     H 7653   1.509   4.195  14.902  1.4423 -0.4953  1.1735
  515MPD2    H1 7654   1.336   4.289  15.270  2.9943  0.6286 -0.5177
  515MPD2    H2 7655   1.081   4.176  14.938 -0.6693  2.5908  3.3322
  515MPD2    H3 7656   1.105   4.271  15.167  1.2306 -0.9420  1.9172
  515MPD2     N 7657   1.542   4.251  15.147  0.0221  0.6593  0.0771
  515MPD2    H5 7658   1.548   4.294  15.239 -0.2490 -0.7923  0.7719
  515MPD2    N1 7659   1.263   4.142  14.767  0.6036 -0.3654 -0.0992
  515MPD2    H7 7660   1.164   4.149  14.744  0.5206 -0.3457  0.2664
  516TMC3    C1 7661   1.300   4.077  14.545 -0.2249 -0.0534 -0.3341
  516TMC3    C2 7662   1.193   4.147  14.498  0.2691  0.0382 -0.3848
  516TMC3    C3 7663   1.133   4.103  14.380  1.0481 -0.1504  0.3830
  516TMC3    C4 7664   1.357   3.974  14.478  0.4217 -0.3796 -0.8254
  516TMC3    C5 7665   1.295   3.927  14.360  0.3198 -0.2341  0.5138
  516TMC3    C6 7666   1.180   3.991  14.317 -0.3591 -0.1874  0.0660
  516TMC3     C 7667   1.356   4.098  14.675 -0.3807  0.1608  0.1831
  516TMC3     O 7668   1.470   4.066  14.707 -0.9152 -0.0130 -0.1679
  516TMC3     H 7669   1.143   4.215  14.565 -1.9357 -1.1549 -0.8169
  516TMC3    H1 7670   1.419   3.905  14.533  1.4101  1.2788  0.1409
  516TMC3    H2 7671   1.136   3.967  14.221 -0.4553  0.0459  0.0514
  516TMC3    C7 7672   1.285   3.783  14.375 -0.6936  0.5965 -0.2467
  516TMC3    C8 7673   1.013   4.164  14.330  1.1622  0.2496  0.2777
  516TMC3    O1 7674   1.382   3.720  14.412  0.3369  0.2321 -0.0282
  516TMC3    O2 7675   0.936   4.088  14.268  0.4708  0.3355  0.0726
  517MPD2     C 7676   1.917   0.910   0.644  0.5972  0.2045  0.3139
  517MPD2    C1 7677   1.789   0.915   0.591 -0.1136  0.3904 -0.1167
  517MPD2    C2 7678   1.686   0.957   0.671  0.0219  0.7268  0.0979
  517MPD2    C3 7679   1.712   1.012   0.795 -0.1093 -1.1380 -0.1811
  517MPD2    C4 7680   1.836   0.999   0.848  0.4411  0.6422 -0.1809
  517MPD2    C5 7681   1.936   0.951   0.774  0.1209 -0.2365  0.1357
  517MPD2     H 7682   1.589   0.971   0.625 -0.3246  0.3762  0.7284
  517MPD2    H1 7683   1.854   1.023   0.952  2.5183  0.0229 -0.4118
  517MPD2    H2 7684   1.995   0.865   0.585  0.6942  2.1724 -1.0592
  517MPD2    H3 7685   2.035   0.949   0.819 -0.9716 -2.1155  2.4970
  517MPD2     N 7686   1.614   1.078   0.871 -0.4592 -0.6937 -0.3680
  517MPD2    H5 7687   1.637   1.107   0.966 -1.1077 -2.1848  0.2392
  517MPD2    N1 7688   1.767   0.881   0.459  0.1899 -0.1253  0.2384
  517MPD2    H7 7689   1.674   0.897   0.420  0.1485  1.1668  0.8530
  518TMC3    C1 7690   1.803   0.831   0.232  0.2015 -1.0214 -0.0677
  518TMC3    C2 7691   1.729   0.715   0.222 -0.2431  0.2683  0.5824
  518TMC3    C3 7692   1.725   0.659   0.101  0.5927 -0.6663  0.0430
  518TMC3    C4 7693   1.868   0.891   0.128 -0.3745 -0.0156 -0.5743
  518TMC3    C5 7694   1.863   0.825   0.013  0.8641 -0.0627  0.2091
  518TMC3    C6 7695   1.796   0.704  17.700 -0.1533 -0.0500  0.5229
  518TMC3     C 7696   1.862   0.860   0.361 -0.2443  0.7847  0.0819
  518TMC3     O 7697   1.981   0.888   0.365  0.0543 -0.0520  0.0174
  518TMC3     H 7698   1.690   0.664   0.309 -0.9981 -1.0945 -0.5486
  518TMC3    H1 7699   1.914   0.990   0.127 -1.4290  0.4302 -3.0793
  518TMC3    H2 7700   1.791   0.655  17.603  0.0378 -0.1273  0.5529
  518TMC3    C7 7701   1.942   0.869  17.606  0.0996  1.0253 -0.2156
  518TMC3    C8 7702   1.699   0.520   0.088 -0.1155 -0.2621  0.2621
  518TMC3    O1 7703   1.961   0.987  17.591  0.4335  0.2472 -0.5031
  518TMC3    O2 7704   1.642   0.486  17.687 -0.5717 -0.1258  0.2655
  519MPD2     C 7705   2.793   4.158  14.226  1.2564 -0.3242  0.1540
  519MPD2    C1 7706   2.694   4.073  14.266  0.0227 -0.0627  0.1478
  519MPD2    C2 7707   2.719   3.957  14.332  0.7117 -0.8325 -1.1222
  519MPD2    C3 7708   2.852   3.921  14.362  0.4296  0.5786 -0.0696
  519MPD2    C4 7709   2.951   4.009  14.325  0.0355 -0.5180 -0.4441
  519MPD2    C5 7710   2.925   4.124  14.254  0.1169  1.0065 -0.7229
  519MPD2     H 7711   2.640   3.902  14.382  0.2465  0.5084 -0.3863
  519MPD2    H1 7712   3.055   3.990  14.351  0.1186 -0.6696 -0.8845
  519MPD2    H2 7713   2.770   4.247  14.169  2.6957 -1.0061 -1.4946
  519MPD2    H3 7714   3.005   4.192  14.227  0.6002 -0.0688 -1.9710
  519MPD2     N 7715   2.898   3.804  14.425  0.7073  0.1943  0.1160
  519MPD2    H5 7716   2.996   3.798  14.451  1.0460 -0.5229 -1.3490
  519MPD2    N1 7717   2.559   4.105  14.221 -0.7377 -0.0929 -1.3794
  519MPD2    H7 7718   2.548   4.175  14.149  0.8890  0.6027 -0.9416
  520TMC3    C1 7719   2.881   3.582  14.368  0.1505 -0.3686 -0.8070
  520TMC3    C2 7720   2.819   3.541  14.256  0.3702 -0.1349 -0.0385
  520TMC3    C3 7721   2.907   3.490  14.163 -0.6219 -0.3762 -0.3210
  520TMC3    C4 7722   3.011   3.562  14.407  1.3620  0.6706 -0.4600
  520TMC3    C5 7723   3.088   3.499  14.311 -0.5920  0.2081 -0.1921
  520TMC3    C6 7724   3.036   3.462  14.188  0.0109 -0.8707  0.6442
  520TMC3     C 7725   2.821   3.690  14.428  1.3098 -0.0282  0.3238
  520TMC3     O 7726   2.696   3.688  14.426  0.1947 -0.1106  0.5326
  520TMC3     H 7727   2.726   3.590  14.227  0.7435  0.7974  0.3473
  520TMC3    H1 7728   3.039   3.595  14.506 -0.5753 -1.3709  0.7562
  520TMC3    H2 7729   3.092   3.414  14.108 -1.2484  0.9333 -1.2997
  520TMC3    C7 7730   3.229   3.464  14.338  0.4650 -0.6761  0.1083
  520TMC3    C8 7731   2.882   3.502  14.019  0.0319  0.6726  0.0521
  520TMC3    O1 7732   3.255   3.405  14.446 -0.0117 -0.2885 -0.2510
  520TMC3    O2 7733   2.975   3.509  13.939  0.1942 -0.1342 -0.3781
  521MPD2     C 7734   3.796   2.413  17.567 -0.4809 -0.1694  0.4810
  521MPD2    C1 7735   3.803   2.299  17.495 -0.7442 -0.1442  0.2635
  521MPD2    C2 7736   3.919   2.261  17.429 -0.7843 -0.0097  0.2333
  521MPD2    C3 7737   4.032   2.337  17.440  0.0882  0.3090  0.0021
  521MPD2    C4 7738   4.029   2.458  17.509  0.2481  1.0246  0.1005
  521MPD2    C5 7739   3.911   2.492  17.575  0.0348  0.2452  0.4325
  521MPD2     H 7740   3.918   2.173  17.367  0.6348 -1.4511  2.2429
  521MPD2    H1 7741   4.112   2.528  17.519 -0.0047  1.3069  0.2409
  521MPD2    H2 7742   3.713   2.454  17.623 -0.1526  0.6882  0.3402
  521MPD2    H3 7743   3.904   2.583  17.634 -1.5897  0.3275  0.1080
  521MPD2     N 7744   4.146   2.283  17.380 -0.6602 -0.3940 -0.0258
  521MPD2    H5 7745   4.140   2.199  17.324 -1.5530 -0.9223  0.8656
  521MPD2    N1 7746   3.693   2.211  17.510 -0.0607 -0.1797 -0.5590
  521MPD2    H7 7747   3.624   2.236  17.579 -0.4191 -1.1566 -0.5667
  522TMC3    C1 7748   4.368   2.244  17.322 -0.3559 -0.4151  0.1441
  522TMC3    C2 7749   4.480   2.212  17.387  0.2319 -0.2506 -0.2781
  522TMC3    C3 7750   4.543   2.106  17.330  0.2534  0.5185  0.5006
  522TMC3    C4 7751   4.314   2.191  17.208  0.5467 -0.2057  0.3401
  522TMC3    C5 7752   4.389   2.095  17.146  0.2255  0.0493 -0.1171
  522TMC3    C6 7753   4.508   2.050  17.208  0.1230  0.1994  0.5304
  522TMC3     C 7754   4.272   2.326  17.392  0.1017 -0.2125 -0.6078
  522TMC3     O 7755   4.323   2.421  17.448  0.3090  0.1962  0.4299
  522TMC3     H 7756   4.512   2.252  17.483 -1.3842 -1.1781  0.6419
  522TMC3    H1 7757   4.234   2.241  17.155 -0.0287 -1.2988  0.1755
  522TMC3    H2 7758   4.564   1.973  17.157 -1.9462  0.0082 -1.4799
  522TMC3    C7 7759   4.371   2.075  16.999 -0.4004  0.0048  0.2729
  522TMC3    C8 7760   4.661   2.066  17.399 -0.1882 -0.0512  0.4668
  522TMC3    O1 7761   4.462   2.020  16.939 -0.7959  0.0531  0.1038
  522TMC3    O2 7762   4.667   2.082  17.516  0.6102 -0.2923 -0.0598
  523MPD2     C 7763   1.994   1.349  10.237 -0.1451 -0.1752 -0.5454
  523MPD2    C1 7764   1.909   1.355  10.133 -0.5278 -0.2251 -0.4776
  523MPD2    C2 7765   1.918   1.466  10.056 -0.8853 -0.2647  0.2993
  523MPD2    C3 7766   2.006   1.568  10.076  0.1698 -0.3577 -0.0459
  523MPD2    C4 7767   2.096   1.554  10.180  1.1416  0.9617  0.4681
  523MPD2    C5 7768   2.091   1.446  10.262  0.0089  0.0354 -0.0038
  523MPD2     H 7769   1.850   1.476   9.972 -0.3434  1.0155  0.0131
  523MPD2    H1 7770   2.173   1.623  10.210  2.6216 -0.0558 -1.0024
  523MPD2    H2 7771   1.987   1.268  10.308  2.2045  0.5808  0.5505
  523MPD2    H3 7772   2.156   1.429  10.347  0.6779 -1.1163 -0.7470
  523MPD2     N 7773   2.015   1.669   9.983  0.4544  0.2287 -0.5083
  523MPD2    H5 7774   1.941   1.667   9.914 -2.4659 -0.2954  2.6292
  523MPD2    N1 7775   1.813   1.247  10.121  0.3647  0.5048 -0.0171
  523MPD2    H7 7776   1.815   1.177  10.195  0.4050  0.5989  0.0702
  524TMC3    C1 7777   2.069   1.863   9.877 -0.1849 -0.1277 -0.0153
  524TMC3    C2 7778   2.182   1.938   9.846  0.0705 -0.8721 -0.0469
  524TMC3    C3 7779   2.178   2.073   9.858 -0.2123 -0.5796  0.4152
  524TMC3    C4 7780   1.948   1.930   9.892  0.4647 -0.2860 -0.2236
  524TMC3    C5 7781   1.946   2.072   9.903  0.9755 -0.8423 -0.2780
  524TMC3    C6 7782   2.065   2.141   9.893  0.0236  0.3880  0.2749
  524TMC3     C 7783   2.104   1.767   9.975  0.5943 -0.4789  1.0993
  524TMC3     O 7784   2.205   1.796  10.041  0.1703 -0.6067  0.3814
  524TMC3     H 7785   2.283   1.899   9.840  0.1291 -0.7086 -0.1420
  524TMC3    H1 7786   1.855   1.876   9.911  0.3155 -0.6465 -1.8877
  524TMC3    H2 7787   2.073   2.249   9.898  1.4504  0.3693 -1.5976
  524TMC3    C7 7788   1.818   2.127   9.943 -0.3914  0.1697  0.0970
  524TMC3    C8 7789   2.296   2.130   9.913 -0.3495  0.0006 -0.9819
  524TMC3    O1 7790   1.738   2.037   9.986 -0.5615  0.0079 -0.4386
  524TMC3    O2 7791   2.311   2.248   9.888  0.5195 -0.4376  0.4553
  525MPD2     C 7792   4.177   3.253  14.738  0.3416 -0.0429 -0.2627
  525MPD2    C1 7793   4.288   3.268  14.812  0.1910  0.4139 -0.5179
  525MPD2    C2 7794   4.383   3.364  14.781 -0.2800 -0.1807 -0.2547
  525MPD2    C3 7795   4.359   3.444  14.671 -0.3516 -0.5645 -0.1135
  525MPD2    C4 7796   4.240   3.443  14.603 -0.8293 -0.0659 -0.2520
  525MPD2    C5 7797   4.154   3.346  14.642  0.2066  0.3113 -0.1483
  525MPD2     H 7798   4.460   3.381  14.856 -0.4522 -0.9258  0.0932
  525MPD2    H1 7799   4.217   3.514  14.524 -2.6669 -0.4689 -0.0664
  525MPD2    H2 7800   4.095   3.194  14.778 -0.5052  0.0073 -1.9291
  525MPD2    H3 7801   4.063   3.335  14.585 -0.2298 -1.4746  0.8821
  525MPD2     N 7802   4.438   3.560  14.655  0.2222 -0.4048  0.2403
  525MPD2    H5 7803   4.397   3.637  14.602 -2.3972 -2.2978 -0.4770
  525MPD2    N1 7804   4.306   3.198  14.930 -0.8509 -0.5136  0.0696
  525MPD2    H7 7805   4.391   3.211  14.985 -0.5503  0.1893 -0.5621
  526TMC3    C1 7806   4.279   3.050  15.105 -0.3797  0.1669  0.1983
  526TMC3    C2 7807   4.196   3.038  15.213 -0.5704  0.5284 -0.3657
  526TMC3    C3 7808   4.253   3.026  15.332 -0.0887 -0.5476  0.2422
  526TMC3    C4 7809   4.417   3.037  15.108 -0.1098 -0.1804  0.4823
  526TMC3    C5 7810   4.469   3.021  15.231 -0.2253 -0.3412  0.4554
  526TMC3    C6 7811   4.391   3.018  15.344  0.7692 -0.1996 -0.9741
  526TMC3     C 7812   4.222   3.101  14.986 -0.3222 -0.1069  0.6552
  526TMC3     O 7813   4.107   3.068  14.958  0.3891 -0.9336 -0.1925
  526TMC3     H 7814   4.094   3.070  15.195 -1.1468 -0.9495  0.3117
  526TMC3    H1 7815   4.470   3.046  15.014  1.4473  0.2667  1.4074
  526TMC3    H2 7816   4.437   3.003  15.441 -1.9690 -0.1297  0.3446
  526TMC3    C7 7817   4.610   3.004  15.240 -0.0740  0.6819 -0.1150
  526TMC3    C8 7818   4.175   3.074  15.443 -0.6035  0.0776 -0.3831
  526TMC3    O1 7819   4.662   3.027  15.350  0.1921  0.0134  0.2857
  526TMC3    O2 7820   4.053   3.074  15.431 -0.3899 -0.2185  0.3193
  527MPD2     C 7821   2.678   0.838   1.437  0.3521  0.2492  0.2102
  527MPD2    C1 7822   2.720   0.972   1.451 -0.8489  0.3548 -0.1790
  527MPD2    C2 7823   2.853   1.005   1.431 -0.6137  0.1618 -0.2983
  527MPD2    C3 7824   2.955   0.911   1.431  0.7527 -0.0578 -0.9925
  527MPD2    C4 7825   2.919   0.776   1.419 -0.0204  0.5825  0.1460
  527MPD2    C5 7826   2.778   0.741   1.422  0.0675  0.3462 -0.2898
  527MPD2     H 7827   2.873   1.110   1.410 -1.7970  0.4448  0.0132
  527MPD2    H1 7828   2.986   0.691   1.418 -2.1852 -1.1325  1.2109
  527MPD2    H2 7829   2.573   0.810   1.437  0.8991 -1.8659  2.1879
  527MPD2    H3 7830   2.752   0.636   1.427  0.7868  0.2277  0.9301
  527MPD2     N 7831   3.090   0.962   1.425 -0.3842 -0.2736 -0.9949
  527MPD2    H5 7832   3.100   1.063   1.412 -0.2318 -0.4060 -1.9023
  527MPD2    N1 7833   2.627   1.077   1.468 -0.2925  0.0369 -0.4804
  527MPD2    H7 7834   2.649   1.174   1.450 -0.6353  0.4378  1.2758
  528TMC3    C1 7835   2.438   1.197   1.510  0.0180 -0.7738 -0.0333
  528TMC3    C2 7836   2.485   1.262   1.621  0.1937 -0.2000 -0.6783
  528TMC3    C3 7837   2.426   1.383   1.647 -0.0674 -0.5001  0.2665
  528TMC3    C4 7838   2.370   1.254   1.413  0.3423  0.5132 -0.2240
  528TMC3    C5 7839   2.323   1.378   1.436 -0.4895 -0.6497  0.3026
  528TMC3    C6 7840   2.343   1.440   1.555  0.7129 -0.3015  0.3388
  528TMC3     C 7841   2.488   1.059   1.487 -0.6353  0.6263  0.5229
  528TMC3     O 7842   2.418   0.961   1.485  0.3347 -0.5661 -0.4030
  528TMC3     H 7843   2.549   1.214   1.695 -0.7757  0.3447  0.5167
  528TMC3    H1 7844   2.330   1.196   1.331 -1.0396  2.1650 -0.7169
  528TMC3    H2 7845   2.295   1.535   1.575  1.9830 -0.0099  2.0010
  528TMC3    C7 7846   2.241   1.433   1.330 -0.0749  0.3229 -0.5651
  528TMC3    C8 7847   2.479   1.456   1.763  0.1430 -0.3876 -0.3836
  528TMC3    O1 7848   2.282   1.404   1.219 -0.2550  0.3234 -0.0484
  528TMC3    O2 7849   2.584   1.427   1.816  0.1904 -0.4985 -0.3443
  529MPD2     C 7850   0.448   4.386   0.100  0.4614 -0.2238 -0.2960
  529MPD2    C1 7851   0.399   4.424   0.219  0.1736 -0.1651 -0.3627
  529MPD2    C2 7852   0.301   4.521   0.227  0.3987 -0.4138 -0.1229
  529MPD2    C3 7853   0.236   4.568   0.117 -0.1932 -0.4315 -1.0998
  529MPD2    C4 7854   0.300   4.533   0.001  0.4954 -0.0998  0.3122
  529MPD2    C5 7855   0.406   4.450  17.689  0.4155 -0.2107  0.1221
  529MPD2     H 7856   0.268   4.532   0.330 -0.8716 -0.3832 -0.5420
  529MPD2    H1 7857   0.257   4.578  17.614 -1.0199 -0.3049  0.9465
  529MPD2    H2 7858   0.527   4.314   0.085 -0.5739 -1.2937 -0.6617
  529MPD2    H3 7859   0.444   4.427  17.590 -0.1381  1.4231 -0.4608
  529MPD2     N 7860   0.128   4.650   0.112 -0.1888 -0.3047  0.2596
  529MPD2    H5 7861   0.094   4.686   0.023 -0.2693 -1.5218 -0.2023
  529MPD2    N1 7862   0.430   4.357   0.339  0.2039  0.0276 -0.2041
  529MPD2    H7 7863   0.379   4.386   0.421  2.6330  0.5494  1.1133
  530TMC3    C1 7864   0.518   4.178   0.466  0.0182 -0.0470 -0.2768
  530TMC3    C2 7865   0.493   4.253   0.578 -0.0900 -0.7908 -0.2910
  530TMC3    C3 7866   0.493   4.188   0.699  0.5537 -0.0412 -0.1942
  530TMC3    C4 7867   0.530   4.043   0.477 -0.3950 -0.7363  0.5184
  530TMC3    C5 7868   0.508   3.986   0.604  0.7630 -0.6555  0.6762
  530TMC3    C6 7869   0.495   4.056   0.722  0.1530 -0.8291 -0.1233
  530TMC3     C 7870   0.505   4.241   0.344  0.2147 -0.5258 -0.5238
  530TMC3     O 7871   0.555   4.169   0.255  0.7832 -0.3338  0.5061
  530TMC3     H 7872   0.491   4.361   0.569 -0.1003 -0.8047 -0.4548
  530TMC3    H1 7873   0.531   3.984   0.386 -0.4928  0.1560 -0.0589
  530TMC3    H2 7874   0.500   4.010   0.820  1.4838  0.1581  0.2699
  530TMC3    C7 7875   0.499   3.840   0.613 -0.0953  0.0493 -0.0774
  530TMC3    C8 7876   0.466   4.265   0.825  0.3077  0.3757 -0.0688
  530TMC3    O1 7877   0.503   3.774   0.509 -0.3911  0.0686  0.0893
  530TMC3    O2 7878   0.376   4.347   0.814  0.1674  0.7535  0.0974
  531MPD2     C 7879   3.215   2.361  12.817 -1.1878 -0.0328  0.0568
  531MPD2    C1 7880   3.233   2.487  12.860 -0.0957  0.1322  0.5673
  531MPD2    C2 7881   3.204   2.588  12.774 -0.1179 -0.1226 -0.6105
  531MPD2    C3 7882   3.152   2.565  12.644 -0.0768 -0.0600  0.4002
  531MPD2    C4 7883   3.128   2.435  12.609  0.3559 -0.3094 -0.0934
  531MPD2    C5 7884   3.157   2.335  12.696  0.4756 -0.1815 -0.3522
  531MPD2     H 7885   3.219   2.693  12.799 -1.8691 -0.1062  0.3811
  531MPD2    H1 7886   3.073   2.413  12.518  1.1209  0.9758 -0.8808
  531MPD2    H2 7887   3.242   2.279  12.882  0.8847  0.9025  0.3877
  531MPD2    H3 7888   3.137   2.232  12.669  0.7083 -0.4941  0.7009
  531MPD2     N 7889   3.127   2.686  12.578 -0.7597 -0.3658  0.0442
  531MPD2    H5 7890   3.165   2.769  12.621 -0.2733 -0.9559  0.7462
  531MPD2    N1 7891   3.280   2.510  12.987 -0.2030 -0.5294 -0.4572
  531MPD2    H7 7892   3.270   2.432  13.051  0.5621 -0.9419 -0.8403
  532TMC3    C1 7893   3.387   2.632  13.160  0.6302 -0.2046 -0.0222
  532TMC3    C2 7894   3.415   2.763  13.183 -0.5754  0.5979 -0.9948
  532TMC3    C3 7895   3.548   2.796  13.212  0.5446  0.8382 -0.4270
  532TMC3    C4 7896   3.485   2.536  13.162  0.2625 -0.3319 -0.0262
  532TMC3    C5 7897   3.616   2.579  13.190 -0.4115  0.0726  0.4029
  532TMC3    C6 7898   3.651   2.708  13.212  0.2505 -0.5269 -0.7496
  532TMC3     C 7899   3.321   2.632  13.030  0.6333  0.3077 -0.1460
  532TMC3     O 7900   3.330   2.741  12.976 -0.1762  0.1464  0.0493
  532TMC3     H 7901   3.337   2.838  13.192  1.1371  2.0315  1.8565
  532TMC3    H1 7902   3.472   2.431  13.136  3.2043 -0.7723  0.3081
  532TMC3    H2 7903   3.750   2.744  13.238  0.0163 -0.7001  0.3748
  532TMC3    C7 7904   3.708   2.470  13.218 -0.6496 -0.4196 -0.4722
  532TMC3    C8 7905   3.590   2.928  13.166  0.2799  0.4619  0.2021
  532TMC3    O1 7906   3.674   2.352  13.191  0.6867 -0.3418 -0.9463
  532TMC3    O2 7907   3.688   2.973  13.218 -0.1810 -0.2925  0.5376
  533TMC3    C1 7908   4.620   3.714  14.705 -0.4222  0.5101 -0.5612
  533TMC3    C2 7909   0.033   3.728  14.703 -0.1987 -0.4302  0.1026
  533TMC3    C3 7910   0.088   3.840  14.765 -0.1817 -0.1274 -0.1465
  533TMC3    C4 7911   4.540   3.787  14.793 -0.3101  0.5771 -1.2200
  533TMC3    C5 7912   4.603   3.879  14.870 -0.1144  0.1890  0.0674
  533TMC3    C6 7913   0.009   3.913  14.854  0.3105  0.6088 -0.4446
  533TMC3     C 7914   4.574   3.572  14.693  0.0283  0.5512 -0.7536
  533TMC3     O 7915   4.649   3.488  14.738  0.0466 -0.2140 -0.2620
  533TMC3     H 7916   0.093   3.667  14.637 -1.6233 -1.5571 -0.1683
  533TMC3    H1 7917   4.439   3.754  14.813  0.8995 -2.6851 -0.5103
  533TMC3    H2 7918   0.060   3.983  14.920 -0.3907  1.2476 -0.5760
  533TMC3    C7 7919   4.544   3.909  14.999 -1.0193  0.1719  0.2618
  533TMC3    C8 7920   0.191   3.928  14.716  0.3010 -0.9664 -0.0072
  533TMC3    O1 7921   4.470   3.825  15.046 -0.3109  0.1369  0.3020
  533TMC3    O2 7922   0.188   4.045  14.751  0.5605  0.2014 -0.4273
  534MPD2     C 7923   2.701   0.322   1.685  0.2572  0.4864 -0.4359
  534MPD2    C1 7924   2.611   0.432   1.686 -0.5339 -0.5316 -0.8115
  534MPD2    C2 7925   2.483   0.411   1.643 -0.5449  0.5432 -0.5378
  534MPD2    C3 7926   2.443   0.287   1.606  0.4147  0.1052 -0.0752
  534MPD2    C4 7927   2.533   0.185   1.600 -0.5810  0.3992 -0.0236
  534MPD2    C5 7928   2.664   0.201   1.637  0.2659  0.4677  0.6190
  534MPD2     H 7929   2.412   0.493   1.637  0.8458  1.6792 -1.2952
  534MPD2    H1 7930   2.499   0.088   1.565 -0.3804 -0.9336  3.3980
  534MPD2    H2 7931   2.805   0.332   1.711  0.4357 -0.3811 -0.7954
  534MPD2    H3 7932   2.725   0.112   1.649 -2.2016 -0.9151  3.2058
  534MPD2     N 7933   2.315   0.260   1.556  0.0174  0.1809 -0.1116
  534MPD2    H5 7934   2.301   0.181   1.494  2.3492  0.8264 -1.4441
  534MPD2    N1 7935   2.652   0.565   1.718  0.2988 -0.1164 -0.3470
  534MPD2    H7 7936   2.574   0.629   1.714 -1.0463 -1.7392  0.0590
  535TMC3    C1 7937   2.089   0.290   1.489  0.2415 -0.2989  0.4608
  535TMC3    C2 7938   1.962   0.322   1.541  0.3067  0.2138  0.2886
  535TMC3    C3 7939   1.858   0.311   1.452  0.3457 -0.2324  0.3215
  535TMC3    C4 7940   2.111   0.256   1.360  0.5532 -0.1072 -0.0817
  535TMC3    C5 7941   1.999   0.235   1.279  0.5713 -0.0529 -0.6245
  535TMC3    C6 7942   1.872   0.276   1.325  0.1550  0.0117 -0.1972
  535TMC3     C 7943   2.202   0.334   1.576 -0.6954 -0.1745 -0.1572
  535TMC3     O 7944   2.184   0.433   1.649  0.5321  0.0226 -0.1774
  535TMC3     H 7945   1.952   0.352   1.645 -1.8664 -2.1764  0.7479
  535TMC3    H1 7946   2.210   0.230   1.326  0.8916 -1.1460  1.6832
  535TMC3    H2 7947   1.784   0.256   1.264  0.9248 -0.5848 -1.1198
  535TMC3    C7 7948   2.028   0.187   1.148  0.1685 -0.0376  0.0347
  535TMC3    C8 7949   1.711   0.297   1.494 -0.3930 -0.0641  0.6038
  535TMC3    O1 7950   2.144   0.152   1.127 -0.7048  0.1624 -0.5335
  535TMC3    O2 7951   1.628   0.256   1.416 -0.1381  0.2312  0.0560
  536MPD2     C 7952   1.514   3.353  15.903 -0.0027  0.0573  0.7446
  536MPD2    C1 7953   1.433   3.445  15.964  0.0614  0.3475 -0.2438
  536MPD2    C2 7954   1.404   3.549  15.879 -0.3269 -0.0271 -0.1705
  536MPD2    C3 7955   1.448   3.571  15.750 -0.1477 -0.1000  0.4828
  536MPD2    C4 7956   1.517   3.469  15.694 -0.8870  0.1463  0.4426
  536MPD2    C5 7957   1.549   3.365  15.769  0.0911  0.2883 -0.0801
  536MPD2     H 7958   1.326   3.615  15.915  0.8247  1.3614 -0.2137
  536MPD2    H1 7959   1.549   3.466  15.590  3.2711  0.7272  1.6772
  536MPD2    H2 7960   1.549   3.267  15.958 -0.2984 -1.5668 -1.6168
  536MPD2    H3 7961   1.595   3.279  15.723  2.5979  1.8852 -0.5518
  536MPD2     N 7962   1.421   3.679  15.665 -0.2560 -0.4346  0.1951
  536MPD2    H5 7963   1.443   3.673  15.566  0.4086  0.0192  0.3152
  536MPD2    N1 7964   1.389   3.425  16.096 -0.4003 -0.7157 -0.3538
  536MPD2    H7 7965   1.418   3.343  16.149 -0.5213 -0.2234  0.4735
  537TMC3    C1 7966   1.251   3.467  16.279  0.1400  0.4541 -0.4116
  537TMC3    C2 7967   1.228   3.555  16.379 -0.3219  0.6980  0.1127
  537TMC3    C3 7968   1.189   3.496  16.501 -0.5196  0.3484  0.1689
  537TMC3    C4 7969   1.247   3.330  16.297  0.1922  1.0299  0.6661
  537TMC3    C5 7970   1.226   3.273  16.421  0.1750 -0.2260 -0.4114
  537TMC3    C6 7971   1.191   3.365  16.520  0.4170 -0.6272 -0.6004
  537TMC3     C 7972   1.313   3.518  16.162 -0.4535 -0.1646  0.5184
  537TMC3     O 7973   1.281   3.630  16.127 -0.0211  0.3236 -0.1797
  537TMC3     H 7974   1.273   3.653  16.378 -0.4063  0.7413  0.4695
  537TMC3    H1 7975   1.244   3.263  16.211 -0.1859 -0.4905  1.8792
  537TMC3    H2 7976   1.146   3.329  16.612 -0.9263  0.5945 -0.7738
  537TMC3    C7 7977   1.190   3.130  16.425  0.6862  0.1340 -1.0168
  537TMC3    C8 7978   1.259   3.561  16.609  0.3566 -0.3794  0.1057
  537TMC3    O1 7979   1.118   3.085  16.335 -0.2758  0.9959 -0.0789
  537TMC3    O2 7980   1.315   3.482  16.684  0.1798  0.3170  0.1052
  538TMC3    C1 7981   2.443   1.505  10.894 -0.6136  0.2926 -0.0352
  538TMC3    C2 7982   2.509   1.385  10.919 -0.3806 -0.8840  0.3176
  538TMC3    C3 7983   2.442   1.274  10.873  0.1549 -0.5074  0.7255
  538TMC3    C4 7984   2.318   1.523  10.832  0.0254 -0.3772 -0.1340
  538TMC3    C5 7985   2.253   1.408  10.802  0.0766 -0.3223 -0.1169
  538TMC3    C6 7986   2.311   1.283  10.821 -0.1272  0.2062 -0.2640
  538TMC3     C 7987   2.512   1.628  10.915 -0.0481 -0.8676  0.6991
  538TMC3     O 7988   2.468   1.725  10.854  0.4501 -0.2941  0.6857
  538TMC3     H 7989   2.606   1.367  10.964  0.2123 -0.2169 -0.6890
  538TMC3    H1 7990   2.271   1.619  10.814 -0.0281 -0.8335 -2.4712
  538TMC3    H2 7991   2.262   1.187  10.811 -0.0506  0.1534 -0.1227
  538TMC3    C7 7992   2.119   1.414  10.753 -0.4565  0.4388 -0.7131
  538TMC3    C8 7993   2.517   1.174  10.807 -0.1925 -0.7074 -0.0474
  538TMC3    O1 7994   2.052   1.311  10.753  0.3271 -0.0222  0.2667
  538TMC3    O2 7995   2.458   1.077  10.760 -0.1303 -0.1412 -0.3596
  539MPD2     C 7996   2.538   0.821  11.285 -0.6361 -0.0621  0.7482
  539MPD2    C1 7997   2.415   0.757  11.274  0.1411  0.3362  0.2194
  539MPD2    C2 7998   2.308   0.827  11.217  0.4011  0.2687  0.2608
  539MPD2    C3 7999   2.312   0.962  11.207  0.4024 -0.3652 -0.5315
  539MPD2    C4 8000   2.433   1.028  11.224 -0.3986  0.5054  0.8327
  539MPD2    C5 8001   2.550   0.954  11.249 -0.7299  0.0441  0.0991
  539MPD2     H 8002   2.216   0.770  11.207  0.9850 -0.3931 -1.3839
  539MPD2    H1 8003   2.448   1.134  11.209 -2.5079  0.7157  0.2047
  539MPD2    H2 8004   2.636   0.780  11.308 -0.0437  0.4400 -0.8717
  539MPD2    H3 8005   2.637   1.016  11.264 -1.5919  1.7284 -1.7351
  539MPD2     N 8006   2.203   1.039  11.154  0.1032 -0.4641  0.5123
  539MPD2    H5 8007   2.219   1.138  11.135 -0.5982  0.2094  3.4966
  539MPD2    N1 8008   2.407   0.616  11.300  0.0471  0.4611 -0.5665
  539MPD2    H7 8009   2.320   0.570  11.277  0.2272 -0.1947  0.0335
  540TMC3    C1 8010   1.990   1.094  11.057  0.2059 -0.6657  0.0010
  540TMC3    C2 8011   1.895   1.066  10.966  0.1819  0.2259 -0.0457
  540TMC3    C3 8012   1.806   1.166  10.928  0.4339  0.4839  0.2164
  540TMC3    C4 8013   1.999   1.212  11.120 -0.7161 -0.0439 -0.4850
  540TMC3    C5 8014   1.908   1.308  11.083  0.0276 -0.1940 -0.5764
  540TMC3    C6 8015   1.817   1.289  10.982 -0.4043  0.5663 -0.5734
  540TMC3     C 8016   2.084   0.989  11.105 -0.8131 -0.1489 -0.6259
  540TMC3     O 8017   2.035   0.876  11.098  0.2180 -0.3206  0.1162
  540TMC3     H 8018   1.900   0.966  10.927 -3.6618 -0.6618  1.7009
  540TMC3    H1 8019   2.065   1.217  11.206 -0.2359  0.5883 -0.8831
  540TMC3    H2 8020   1.750   1.372  10.960 -1.2090  0.4109  1.2748
  540TMC3    C7 8021   1.905   1.422  11.170  0.2819 -0.1180  0.2441
  540TMC3    C8 8022   1.724   1.150  10.811 -0.4512  0.2763 -0.1699
  540TMC3    O1 8023   1.892   1.530  11.117 -0.3323  0.2115  0.0644
  540TMC3    O2 8024   1.678   1.245  10.751 -0.1482  0.0155  0.0446
  541MPD2     C 8025   0.866   2.089  13.563 -0.1035 -0.5457  0.1819
  541MPD2    C1 8026   0.907   2.022  13.446  0.0742  0.0971  0.1205
  541MPD2    C2 8027   0.894   2.079  13.322 -0.8864 -0.5187 -0.2732
  541MPD2    C3 8028   0.832   2.202  13.320  0.4351 -0.4885  0.1422
  541MPD2    C4 8029   0.791   2.265  13.435 -0.3091  0.2282 -0.1596
  541MPD2    C5 8030   0.814   2.209  13.556  0.1214 -0.2054 -0.7850
  541MPD2     H 8031   0.920   2.026  13.231 -1.2866  0.5317 -1.0114
  541MPD2    H1 8032   0.744   2.363  13.436  0.8944  0.8109 -0.7384
  541MPD2    H2 8033   0.870   2.036  13.658  0.5998  1.8929  1.4864
  541MPD2    H3 8034   0.783   2.257  13.648  3.1800 -1.7928  1.0454
  541MPD2     N 8035   0.816   2.272  13.197  0.6902  0.1610  0.1603
  541MPD2    H5 8036   0.757   2.354  13.200  1.0918  0.5906 -3.3323
  541MPD2    N1 8037   0.928   1.887  13.453 -0.3098  0.3124 -0.4782
  541MPD2    H7 8038   0.917   1.850  13.547  0.3852  0.4369 -0.3516
  542TMC3    C1 8039   0.788   2.294  12.955 -0.4284 -0.2981 -0.4229
  542TMC3    C2 8040   0.858   2.288  12.840  0.1458  0.7184 -0.2732
  542TMC3    C3 8041   0.791   2.317  12.728 -0.8453  0.5039  0.2179
  542TMC3    C4 8042   0.657   2.321  12.971  0.2673  0.5899 -0.6060
  542TMC3    C5 8043   0.589   2.337  12.851 -0.9906 -0.3880  0.1445
  542TMC3    C6 8044   0.656   2.331  12.732  0.5009 -0.0683  0.6305
  542TMC3     C 8045   0.858   2.228  13.072 -0.7469 -0.2807 -0.4249
  542TMC3     O 8046   0.960   2.167  13.046 -0.6920  0.3406 -0.1255
  542TMC3     H 8047   0.960   2.252  12.832  0.1040  0.8045 -1.1337
  542TMC3    H1 8048   0.612   2.308  13.069  0.2859 -1.0192 -0.8096
  542TMC3    H2 8049   0.609   2.338  12.634  0.6558  0.9254  0.6298
  542TMC3    C7 8050   0.446   2.356  12.853 -0.5322 -0.1541  0.2125
  542TMC3    C8 8051   0.851   2.298  12.595  0.3672  0.8949  0.7289
  542TMC3    O1 8052   0.392   2.367  12.743 -0.2065 -0.7044  0.1354
  542TMC3    O2 8053   0.775   2.251  12.514  0.0857 -0.0011  0.0438
  543TMC3    C1 8054   0.022   3.809  17.138 -0.2161 -0.8366  0.7225
  543TMC3    C2 8055   0.045   3.685  17.201 -0.1888 -0.5191 -0.0462
  543TMC3    C3 8056   0.026   3.687  17.333  0.6326 -0.0255 -0.1000
  543TMC3    C4 8057   4.715   3.923  17.200 -0.2469 -0.0501  0.5095
  543TMC3    C5 8058   4.692   3.917  17.334  0.5203  0.1376  0.0276
  543TMC3    C6 8059   4.712   3.797  17.407 -0.1303  0.4994  0.0922
  543TMC3     C 8060   0.070   3.818  16.999  0.2642 -0.2919 -0.9311
  543TMC3     O 8061   0.160   3.747  16.962 -0.4318 -0.4575 -0.8712
  543TMC3     H 8062   0.085   3.602  17.144  1.6846 -0.2124  0.8241
  543TMC3    H1 8063   4.713   4.019  17.148 -0.8247 -1.6237 -2.3889
  543TMC3    H2 8064   4.691   3.793  17.513  0.5167 -0.1127  0.1911
  543TMC3    C7 8065   4.648   4.034  17.410  0.5833  0.1097  0.0150
  543TMC3    C8 8066   0.050   3.557  17.395 -0.3646 -0.8910 -0.1898
  543TMC3    O1 8067   4.637   4.015  17.530 -0.0679  0.1963 -0.3757
  543TMC3    O2 8068   0.079   3.464  17.319  0.6052 -0.1234 -0.2478
  544MPD2     C 8069   0.050   3.194   0.067  0.5696 -0.0587 -0.1067
  544MPD2    C1 8070   0.046   3.185  17.633  0.1731  0.4462  0.5710
  544MPD2    C2 8071   0.052   3.300  17.548  0.0845  0.4119  0.5851
  544MPD2    C3 8072   0.058   3.426  17.608  0.1510  0.2479  0.1281
  544MPD2    C4 8073   0.051   3.434   0.046 -0.7023  0.1176  0.4432
  544MPD2    C5 8074   0.056   3.321   0.121 -0.4001 -0.0545  0.3515
  544MPD2     H 8075   0.033   3.290  17.442 -0.9933 -3.4593  1.1192
  544MPD2    H1 8076   0.069   3.528   0.095  1.5751  0.6605 -1.4319
  544MPD2    H2 8077   0.037   3.111   0.136 -0.8686 -0.0494 -0.3580
  544MPD2    H3 8078   0.062   3.334   0.228 -0.2404 -0.3000  0.3729
  544MPD2     N 8079   0.047   3.549  17.528 -0.5401  0.0070 -0.0744
  544MPD2    H5 8080   0.035   3.635  17.579  1.9663  0.7953 -0.8083
  544MPD2    N1 8081   0.017   3.051  17.587  0.1421  0.8564  0.5537
  544MPD2    H7 8082   4.721   2.973  17.649  0.2173  2.2020  2.2677
  545TMC3    C1 8083   4.708   2.878  17.426  0.1093  0.4005 -0.0342
  545TMC3    C2 8084   4.619   2.857  17.328 -1.0398  0.1708  0.2484
  545TMC3    C3 8085   4.544   2.744  17.322  0.4702 -0.1965 -0.0131
  545TMC3    C4 8086   0.006   2.789  17.526 -0.4801  0.0145  1.0750
  545TMC3    C5 8087   4.659   2.673  17.510  0.2623  0.0918 -0.5575
  545TMC3    C6 8088   4.563   2.652  17.414 -0.6408  0.3820 -0.8281
  545TMC3     C 8089   0.024   3.019  17.452 -0.5609  0.1071  0.0437
  545TMC3     O 8090   0.055   3.085  17.356 -0.2749  0.9832  0.3562
  545TMC3     H 8091   4.605   2.921  17.241  2.2439  1.3596  0.6107
  545TMC3    H1 8092   0.068   2.808  17.614 -0.3125 -0.1430  0.9913
  545TMC3    H2 8093   4.519   2.552  17.415  1.3713 -0.4881  2.2765
  545TMC3    C7 8094   4.715   2.552  17.570  0.0995 -0.1336  0.7671
  545TMC3    C8 8095   4.494   2.715  17.194  0.2322 -0.3342 -0.2679
  545TMC3    O1 8096   4.637   2.457  17.587 -0.3515 -0.2542 -0.2920
  545TMC3    O2 8097   4.568   2.739  17.097  0.9714 -0.0286  1.0572
  546MPD2     C 8098   1.492   3.770  17.605  0.1551  0.3669  0.2524
  546MPD2    C1 8099   1.430   3.824  17.498 -0.6022  0.5519  0.4426
  546MPD2    C2 8100   1.453   3.958  17.468 -0.6666  0.9515 -0.3777
  546MPD2    C3 8101   1.527   4.033  17.553 -0.9916  0.2113 -0.3395
  546MPD2    C4 8102   1.580   3.984  17.672 -0.2907 -0.0092 -0.4040
  546MPD2    C5 8103   1.566   3.850  17.691  0.4640  0.4362 -0.5528
  546MPD2     H 8104   1.407   3.989  17.375  1.0810  0.7232 -1.3156
  546MPD2    H1 8105   1.645   4.049   0.028  1.6331 -1.5526 -0.8318
  546MPD2    H2 8106   1.496   3.662  17.619  2.1711  0.5492  1.0332
  546MPD2    H3 8107   1.636   3.809   0.061  0.7467 -0.8158 -1.5480
  546MPD2     N 8108   1.543   4.175  17.536  0.0360 -0.3889 -0.3417
  546MPD2    H5 8109   1.599   4.218  17.610 -0.3879  0.6971 -0.6503
  546MPD2    N1 8110   1.354   3.740  17.412 -0.3293 -0.2259  0.2293
  546MPD2    H7 8111   1.371   3.643  17.437 -0.0678 -0.5139 -1.0560
  547TMC3    C1 8112   1.195   3.650  17.266  0.0092 -0.3185  0.6497
  547TMC3    C2 8113   1.096   3.664  17.168 -0.3810  0.0289  0.1204
  547TMC3    C3 8114   1.025   3.550  17.141 -1.0181  0.5343  0.2236
  547TMC3    C4 8115   1.211   3.532  17.336  0.0777 -0.9977 -0.5007
  547TMC3    C5 8116   1.134   3.428  17.303  0.6769 -0.0171 -0.3538
  547TMC3    C6 8117   1.033   3.426  17.199  0.3511  0.2838  0.1726
  547TMC3     C 8118   1.268   3.771  17.307  0.7635 -0.5655 -0.4014
  547TMC3     O 8119   1.228   3.881  17.272  0.0718  0.8568 -0.5367
  547TMC3     H 8120   1.086   3.760  17.117  0.4903  1.3118  2.3793
  547TMC3    H1 8121   1.292   3.516  17.406 -1.7519 -2.1368  1.3508
  547TMC3    H2 8122   0.959   3.348  17.192 -1.3989  2.1768 -2.4414
  547TMC3    C7 8123   1.128   3.327  17.406  0.3154 -0.7744  0.0716
  547TMC3    C8 8124   0.947   3.556  17.023  0.1648 -0.0551  0.1558
  547TMC3    O1 8125   1.160   3.374  17.516 -0.3032  0.4049  0.7912
  547TMC3    O2 8126   0.920   3.668  16.980 -0.2404 -0.4015  0.2506
  548MPD2     C 8127   1.066   4.073  12.945  0.3073 -0.2206  0.2121
  548MPD2    C1 8128   1.049   3.975  12.847  0.1964  0.6373  0.1199
  548MPD2    C2 8129   1.153   3.885  12.817  0.2923 -0.7041  0.3924
  548MPD2    C3 8130   1.278   3.902  12.872 -0.1987 -0.4973 -0.7543
  548MPD2    C4 8131   1.294   4.000  12.969  0.0167  0.8946 -0.4969
  548MPD2    C5 8132   1.191   4.082  13.002  0.0371  0.6250  0.1296
  548MPD2     H 8133   1.144   3.811  12.738 -0.2365  1.0955 -1.2030
  548MPD2    H1 8134   1.388   4.026  13.017  1.0627 -1.7853 -1.1000
  548MPD2    H2 8135   0.984   4.140  12.969 -0.2043 -1.5411  2.1868
  548MPD2    H3 8136   1.210   4.165  13.069 -0.6987  1.1665 -0.3295
  548MPD2     N 8137   1.382   3.816  12.833  1.2091 -0.5332  0.4332
  548MPD2    H5 8138   1.361   3.741  12.768 -3.1652  2.6434 -1.7845
  548MPD2    N1 8139   0.923   3.959  12.795  0.5227  0.6748 -0.2262
  548MPD2    H7 8140   0.845   4.009  12.836 -0.0023  1.3260 -2.0359
  549TMC3    C1 8141   0.742   3.879  12.660  0.6887 -0.1094 -0.3480
  549TMC3    C2 8142   0.697   4.003  12.625  0.3447 -0.6628  0.6815
  549TMC3    C3 8143   0.559   4.023  12.625 -0.0575 -0.3837  0.7772
  549TMC3    C4 8144   0.661   3.772  12.671 -0.4734 -0.3146 -0.4862
  549TMC3    C5 8145   0.527   3.795  12.657 -1.0705  0.5393  0.4924
  549TMC3    C6 8146   0.475   3.924  12.662 -0.9820 -0.1374  0.1769
  549TMC3     C 8147   0.886   3.865  12.702 -0.2374 -0.6212 -0.1487
  549TMC3     O 8148   0.950   3.792  12.631 -0.0992 -0.0974 -0.0728
  549TMC3     H 8149   0.767   4.082  12.598 -0.0919  0.1552  1.9296
  549TMC3    H1 8150   0.696   3.670  12.662 -0.8040 -0.3457 -1.3652
  549TMC3    H2 8151   0.368   3.944  12.668 -1.0394 -0.3032 -0.3498
  549TMC3    C7 8152   0.424   3.696  12.682  0.1024 -0.6335 -0.4206
  549TMC3    C8 8153   0.501   4.148  12.575 -0.3858  0.8339  0.2453
  549TMC3    O1 8154   0.310   3.717  12.641 -0.1747  0.5789  0.5789
  549TMC3    O2 8155   0.383   4.145  12.538 -0.0538  0.5999 -0.4834
  550TMC3    C1 8156   4.310   1.762  12.209 -0.0311 -0.2770 -0.0185
  550TMC3    C2 8157   4.283   1.774  12.349 -0.2429  0.6146 -0.4553
  550TMC3    C3 8158   4.158   1.817  12.375  0.9667 -0.5645 -0.7176
  550TMC3    C4 8159   4.214   1.775  12.107 -0.0279  0.1107  0.0197
  550TMC3    C5 8160   4.088   1.811  12.151 -0.1380 -0.8222 -0.1409
  550TMC3    C6 8161   4.059   1.842  12.278  0.3751  0.3641  0.4805
  550TMC3     C 8162   4.444   1.711  12.171  0.3784  0.9776  0.6552
  550TMC3     O 8163   4.503   1.650  12.254 -0.1097 -0.1753  0.0671
  550TMC3     H 8164   4.366   1.774  12.419  2.0120  0.5044 -3.1220
  550TMC3    H1 8165   4.230   1.736  12.007 -0.2709  2.4410 -0.9303
  550TMC3    H2 8166   3.960   1.877  12.308  1.5104  2.3713  1.9100
  550TMC3    C7 8167   3.985   1.866  12.055  0.2861 -0.0377 -0.2624
  550TMC3    C8 8168   4.135   1.889  12.499 -0.5481  0.1272 -0.3225
  550TMC3    O1 8169   3.871   1.883  12.088 -0.1776  0.4630  0.5094
  550TMC3    O2 8170   4.050   1.977  12.502  0.6066  0.0793  0.3639
  551TMC3    C1 8171   1.795   0.102  13.430 -0.0330 -0.0395 -0.3256
  551TMC3    C2 8172   1.862   0.085  13.307 -0.4630 -0.5087 -0.2831
  551TMC3    C3 8173   1.986   0.142  13.298 -0.6938 -0.4089  0.1611
  551TMC3    C4 8174   1.848   0.179  13.527  0.3236  0.7735 -0.3055
  551TMC3    C5 8175   1.972   0.237  13.514  0.9920  0.3592  0.4942
  551TMC3    C6 8176   2.036   0.226  13.395 -0.4297  0.1063  0.0639
  551TMC3     C 8177   1.666   0.025  13.441 -0.4389  0.6530 -0.0166
  551TMC3     O 8178   1.665   4.630  13.400  0.5813 -0.1154 -0.1212
  551TMC3     H 8179   1.826   0.024  13.225 -1.6712 -0.0417 -0.0960
  551TMC3    H1 8180   1.792   0.187  13.620 -1.7928 -0.7501 -1.4586
  551TMC3    H2 8181   2.130   0.279  13.387 -0.0233 -0.6737 -0.3208
  551TMC3    C7 8182   2.050   0.234  13.635  0.4363 -0.0498  0.7780
  551TMC3    C8 8183   2.064   0.103  13.185  0.3541 -0.1549 -0.0567
  551TMC3    O1 8184   1.996   0.265  13.738  0.3281 -0.0022 -0.1649
  551TMC3    O2 8185   2.031   0.003  13.128  0.3226  0.3236 -0.3659
  552MPD2     C 8186   3.581   2.122  14.147 -0.3372  0.4818  0.5704
  552MPD2    C1 8187   3.634   1.994  14.166  0.3371  0.6069  0.0453
  552MPD2    C2 8188   3.730   1.987  14.277  0.2905  0.3635  0.2697
  552MPD2    C3 8189   3.774   2.096  14.350 -0.4948 -0.8280  0.0393
  552MPD2    C4 8190   3.723   2.216  14.317  0.0380 -0.8591  0.0679
  552MPD2    C5 8191   3.627   2.230  14.218 -1.6798  0.5015 -0.5948
  552MPD2     H 8192   3.760   1.884  14.293 -0.5960 -0.1805 -1.4508
  552MPD2    H1 8193   3.743   2.301  14.380 -1.8186  0.9780 -1.8352
  552MPD2    H2 8194   3.505   2.140  14.072 -0.9178 -2.1080  0.5548
  552MPD2    H3 8195   3.575   2.325  14.208 -0.2975  1.0967 -2.1142
  552MPD2     N 8196   3.874   2.090  14.450  0.3964 -0.4548  0.5064
  552MPD2    H5 8197   3.921   2.172  14.487  1.0247 -0.9251  0.7377
  552MPD2    N1 8198   3.606   1.878  14.095 -0.7681  0.3508 -0.3109
  552MPD2    H7 8199   3.644   1.791  14.130 -3.2092 -0.3078  0.6718
  553TMC3    C1 8200   3.534   1.730  13.929 -0.5730  0.0556  0.1325
  553TMC3    C2 8201   3.439   1.682  13.837  0.1058 -0.4488  0.0272
  553TMC3    C3 8202   3.473   1.582  13.753  1.1708 -0.0453  0.7334
  553TMC3    C4 8203   3.668   1.693  13.914  0.6703 -0.1243 -0.1895
  553TMC3    C5 8204   3.703   1.596  13.822  0.2143  0.2063  0.2197
  553TMC3    C6 8205   3.604   1.534  13.752 -0.0865 -0.5303 -0.9639
  553TMC3     C 8206   3.520   1.863  13.990  0.0359 -0.3435 -0.1740
  553TMC3     O 8207   3.452   1.944  13.933 -0.2829  0.1928  0.6176
  553TMC3     H 8208   3.341   1.728  13.841  0.0376 -0.5969  0.0503
  553TMC3    H1 8209   3.750   1.751  13.955  0.7088 -1.7748  2.0238
  553TMC3    H2 8210   3.624   1.448  13.689 -1.5371 -0.4150 -1.5855
  553TMC3    C7 8211   3.818   1.625  13.738  0.3112  0.2828 -0.4148
  553TMC3    C8 8212   3.401   1.589  13.630  0.1305 -0.3640  0.4113
  553TMC3    O1 8213   3.790   1.631  13.620 -0.2233  0.0590 -0.0956
  553TMC3    O2 8214   3.294   1.643  13.625  0.3255  0.3826  0.1251
  554TMC3    C1 8215   1.039   0.689  11.361 -0.3311 -0.6312  0.2530
  554TMC3    C2 8216   0.973   0.627  11.251 -0.0557 -0.2062 -0.2365
  554TMC3    C3 8217   1.059   0.592  11.150 -0.2177 -0.0366  0.0396
  554TMC3    C4 8218   1.171   0.730  11.355  0.2330 -0.2974  0.4136
  554TMC3    C5 8219   1.234   0.715  11.232  0.1121  0.6330 -0.0726
  554TMC3    C6 8220   1.189   0.636  11.136 -0.0572 -0.6161 -0.9186
  554TMC3     C 8221   0.981   0.657  11.482  0.5879  0.1462 -0.4318
  554TMC3     O 8222   0.859   0.651  11.484  0.3520 -0.1349 -0.3371
  554TMC3     H 8223   0.870   0.596  11.261  0.1385 -0.7574  0.0954
  554TMC3    H1 8224   1.204   0.791  11.438  1.6398  0.8542 -0.9966
  554TMC3    H2 8225   1.251   0.611  11.051  2.0415  1.2800  0.0427
  554TMC3    C7 8226   1.325   0.821  11.190 -0.2360  0.6885 -0.2845
  554TMC3    C8 8227   1.002   0.551  11.025 -0.5690  1.1789  0.5295
  554TMC3    O1 8228   1.348   0.821  11.065 -0.3182  0.0136 -0.5838
  554TMC3    O2 8229   1.043   0.605  10.923 -0.3534  0.2138 -0.0499
  555TMC3    C1 8230   4.607   1.076  15.553 -0.7137  0.4187 -0.0041
  555TMC3    C2 8231   4.613   1.114  15.686 -0.2447  0.2947  0.8057
  555TMC3    C3 8232   4.640   1.013  15.772  0.1264 -0.3170 -0.3299
  555TMC3    C4 8233   4.620   0.947  15.507  0.6950  0.7502 -0.4887
  555TMC3    C5 8234   4.673   0.855  15.601  0.4783 -0.3638  0.2270
  555TMC3    C6 8235   4.674   0.885  15.733 -0.4817  0.5125 -0.1166
  555TMC3     C 8236   4.572   1.182  15.464  0.5610 -0.0598  0.9474
  555TMC3     O 8237   4.587   1.301  15.497 -0.1984 -0.0867  0.6371
  555TMC3     H 8238   4.593   1.214  15.722 -0.2665  0.7701 -0.5160
  555TMC3    H1 8239   4.601   0.916  15.405 -0.1839  1.2537 -0.4766
  555TMC3    H2 8240   4.681   0.808  15.809 -0.2810  1.0153  0.3777
  555TMC3    C7 8241   0.005   0.728  15.561  0.2917 -0.0313 -0.8062
  555TMC3    C8 8242   4.659   1.057  15.907  0.1535 -0.4462  0.2046
  555TMC3    O1 8243   0.026   0.661  15.659 -0.6470 -0.0005  0.1206
  555TMC3    O2 8244   4.603   1.157  15.950  0.2872 -0.0859  0.1218
  556MPD2     C 8245   3.691   1.859  11.062 -0.4271 -0.3245  0.3690
  556MPD2    C1 8246   3.568   1.895  11.003  0.2089  0.4143 -0.4819
  556MPD2    C2 8247   3.511   1.801  10.922 -0.0222  0.2429  0.0567
  556MPD2    C3 8248   3.568   1.682  10.884  0.4451 -0.4783 -0.0774
  556MPD2    C4 8249   3.691   1.648  10.940 -0.3499 -0.2322  0.3235
  556MPD2    C5 8250   3.747   1.740  11.027  0.3015  0.6074 -0.6785
  556MPD2     H 8251   3.425   1.836  10.865 -0.0273 -1.2246 -0.8419
  556MPD2    H1 8252   3.748   1.559  10.913 -2.0769 -1.3552  0.3585
  556MPD2    H2 8253   3.729   1.920  11.142 -1.4207 -1.7699  1.9545
  556MPD2    H3 8254   3.838   1.710  11.077  1.4845  4.0025 -0.8015
  556MPD2     N 8255   3.500   1.598  10.796  0.2053 -1.0013 -0.0615
  556MPD2    H5 8256   3.404   1.623  10.775 -0.1422 -1.3220  1.1429
  556MPD2    N1 8257   3.495   2.013  11.033 -0.3489  0.1476 -0.2151
  556MPD2    H7 8258   3.396   2.023  11.014 -0.5490 -0.8998  0.3114
  557TMC3    C1 8259   3.471   1.455  10.618  0.0948  0.3507 -0.1628
  557TMC3    C2 8260   3.516   1.436  10.490 -0.5008  0.2982 -0.2193
  557TMC3    C3 8261   3.436   1.378  10.400  0.2927 -1.3638 -0.7894
  557TMC3    C4 8262   3.338   1.440  10.654  0.3495 -0.2238  0.0203
  557TMC3    C5 8263   3.254   1.379  10.565 -0.3459 -0.2681 -0.3646
  557TMC3    C6 8264   3.302   1.349  10.437 -0.0663 -0.1214  0.3596
  557TMC3     C 8265   3.561   1.514  10.712  0.5757  0.1890  0.3038
  557TMC3     O 8266   3.677   1.514  10.680 -0.4621 -0.0631  0.1005
  557TMC3     H 8267   3.622   1.453  10.471  0.1133 -1.3946  1.7356
  557TMC3    H1 8268   3.310   1.459  10.757 -3.2308 -0.1057 -0.9861
  557TMC3    H2 8269   3.232   1.315  10.362  0.4842 -1.0287  0.2519
  557TMC3    C7 8270   3.117   1.341  10.607 -0.3982 -0.0717 -0.2467
  557TMC3    C8 8271   3.486   1.351  10.261 -0.3480  0.3741 -0.1228
  557TMC3    O1 8272   3.092   1.367  10.725  0.1253  0.2934  0.5859
  557TMC3    O2 8273   3.602   1.385  10.232  0.1779  0.1311 -0.0575
  558TMC3    C1 8274   0.772   4.418   9.826 -0.2289 -0.1039 -0.3470
  558TMC3    C2 8275   0.707   4.299   9.847 -0.5725 -0.0372 -0.8456
  558TMC3    C3 8276   0.595   4.274   9.774 -0.1786  0.0403 -0.1088
  558TMC3    C4 8277   0.731   4.500   9.724 -0.0487  1.1520 -0.1876
  558TMC3    C5 8278   0.619   4.467   9.652  0.3464  0.2847  0.4711
  558TMC3    C6 8279   0.538   4.360   9.683 -0.6368 -0.0693 -0.5292
  558TMC3     C 8280   0.900   4.446   9.893 -0.6224  0.3143  0.5714
  558TMC3     O 8281   0.967   4.348   9.929 -0.0063 -0.3711  0.1411
  558TMC3     H 8282   0.742   4.233   9.925 -0.8689  0.3998 -0.3379
  558TMC3    H1 8283   0.788   4.590   9.703 -0.6594  1.4868 -0.4417
  558TMC3    H2 8284   0.453   4.325   9.625  0.6291 -0.1233 -2.3764
  558TMC3    C7 8285   0.605   4.538   9.529 -0.1096 -0.2324 -0.5579
  558TMC3    C8 8286   0.517   4.154   9.806  0.0938 -0.8957  0.3754
  558TMC3    O1 8287   0.676   4.632   9.503  0.2569  0.4034  0.1659
  558TMC3    O2 8288   0.427   4.124   9.731  0.0692 -0.5913 -0.2122
  559MPD2     C 8289   0.698   0.274  10.163  0.5752 -0.0978 -0.0420
  559MPD2    C1 8290   0.635   0.178  10.241 -0.8119  0.2371  0.0999
  559MPD2    C2 8291   0.694   0.136  10.359  0.1022 -0.6472 -0.1504
  559MPD2    C3 8292   0.813   0.195  10.413  0.1948 -0.1237 -0.5239
  559MPD2    C4 8293   0.862   0.303  10.337 -0.1008 -0.9641 -0.4856
  559MPD2    C5 8294   0.801   0.343  10.221 -0.8711  0.3627  0.7103
  559MPD2     H 8295   0.635   0.073  10.425 -1.5238  2.1021  0.9962
  559MPD2    H1 8296   0.944   0.363  10.373 -2.2425  1.1901  0.8493
  559MPD2    H2 8297   0.650   0.315  10.075 -0.6777 -1.5843 -0.0405
  559MPD2    H3 8298   0.821   0.440  10.177 -1.9847 -0.3541 -1.4279
  559MPD2     N 8299   0.868   0.156  10.539 -0.2699 -0.1042  0.4038
  559MPD2    H5 8300   0.819   0.085  10.592  0.0774 -0.6396  0.0091
  559MPD2    N1 8301   0.520   0.102  10.197 -0.2133  0.2792  0.1058
  559MPD2    H7 8302   0.457   0.143  10.129  0.5377  1.1159 -0.0845
  560TMC3    C1 8303   1.013   0.152  10.727  0.4580 -0.4781  0.2753
  560TMC3    C2 8304   0.964   0.033  10.756 -0.3745  0.6613 -0.9778
  560TMC3    C3 8305   0.945   4.721  10.885 -0.3698 -0.2042  0.8304
  560TMC3    C4 8306   1.068   0.226  10.826 -0.0155  0.1351 -0.6440
  560TMC3    C5 8307   1.055   0.183  10.954 -0.1566 -0.5071 -0.0699
  560TMC3    C6 8308   0.987   0.065  10.989  0.6046 -0.2706  0.4813
  560TMC3     C 8309   0.987   0.210  10.596  0.2309  0.2400 -0.9590
  560TMC3     O 8310   1.049   0.313  10.566 -0.3866 -0.2283  0.2579
  560TMC3     H 8311   0.929   4.699  10.673  0.4838 -1.3963  0.1306
  560TMC3    H1 8312   1.122   0.318  10.808  0.4557  0.2914  1.6085
  560TMC3    H2 8313   0.986   0.017  11.086  0.5327  1.7539  1.4806
  560TMC3    C7 8314   1.161   0.204  11.047 -0.3426  0.2213  0.3710
  560TMC3    C8 8315   0.861   4.597  10.898  0.1601  0.7118 -0.9188
  560TMC3    O1 8316   1.168   0.134  11.144 -0.2725  0.4267 -0.3124
  560TMC3    O2 8317   0.846   4.540  10.787 -0.1353 -0.1821 -0.1251
  561TMC3    C1 8318   3.498   3.978  11.332  0.3113  0.4034  0.1088
  561TMC3    C2 8319   3.391   3.959  11.408 -0.1749 -0.1867 -0.5323
  561TMC3    C3 8320   3.393   4.020  11.527  0.2043  1.4960 -0.1638
  561TMC3    C4 8321   3.596   4.070  11.367  0.0051  0.3141 -0.6720
  561TMC3    C5 8322   3.602   4.121  11.492  0.2639 -0.0112  0.8321
  561TMC3    C6 8323   3.504   4.081  11.579 -1.8111  0.5651 -0.6005
  561TMC3     C 8324   3.488   3.946  11.192 -0.9353  0.1847 -0.3804
  561TMC3     O 8325   3.417   3.847  11.165  0.3367  0.1143 -0.0434
  561TMC3     H 8326   3.314   3.892  11.373  0.0959 -0.4295 -0.6666
  561TMC3    H1 8327   3.674   4.092  11.296  0.6503  1.7772  0.4794
  561TMC3    H2 8328   3.510   4.104  11.685  1.6340  0.7560 -0.8237
  561TMC3    C7 8329   3.650   4.253  11.509  0.1545  0.0221  0.3397
  561TMC3    C8 8330   3.303   3.959  11.625 -0.7946  0.3085 -0.2200
  561TMC3    O1 8331   3.590   4.322  11.592 -0.2477  0.2351 -0.4382
  561TMC3    O2 8332   3.241   3.863  11.584  0.4080 -0.4690  0.1708
  562TMC3    C1 8333   4.627   0.789  16.510  0.7746  0.3080 -0.1093
  562TMC3    C2 8334   4.604   0.921  16.504  0.2555  0.2315 -0.0888
  562TMC3    C3 8335   4.574   0.973  16.380 -0.2836  0.6939  0.2176
  562TMC3    C4 8336   4.629   0.704  16.402 -1.0997  0.8026 -0.3773
  562TMC3    C5 8337   4.601   0.765  16.278  0.4144 -0.3373  0.0715
  562TMC3    C6 8338   4.574   0.895  16.269 -0.5419 -0.1798  0.5590
  562TMC3     C 8339   4.669   0.724  16.638  0.0128 -0.0464  0.2871
  562TMC3     O 8340   4.679   0.605  16.638  0.4085 -0.1208  0.0631
  562TMC3     H 8341   4.595   0.982  16.594  3.6371  1.2435 -0.4325
  562TMC3    H1 8342   4.660   0.601  16.413  2.4734  1.7885 -1.3833
  562TMC3    H2 8343   4.549   0.943  16.174 -0.8371 -0.8630  0.2912
  562TMC3    C7 8344   4.615   0.679  16.161 -0.0614  0.3045 -0.1676
  562TMC3    C8 8345   4.531   1.112  16.379 -0.1496  0.4009 -0.2616
  562TMC3    O1 8346   4.557   0.721  16.058  0.4617 -0.1272  0.1159
  562TMC3    O2 8347   4.539   1.168  16.488 -0.6309  0.1916 -0.4662
  563MPD2     C 8348   2.093   2.265  15.659 -0.3879 -0.6328 -0.0426
  563MPD2    C1 8349   2.116   2.276  15.792 -0.1870 -0.3139 -0.0954
  563MPD2    C2 8350   2.225   2.209  15.848 -0.2865  0.0139  0.3679
  563MPD2    C3 8351   2.294   2.117  15.778  0.5441 -0.1442 -0.1273
  563MPD2    C4 8352   2.262   2.088  15.647 -0.0295 -0.2163 -0.5452
  563MPD2    C5 8353   2.175   2.174  15.585  0.0970 -0.0048 -0.3769
  563MPD2     H 8354   2.245   2.214  15.954 -1.8295  2.1177  0.5679
  563MPD2    H1 8355   2.328   2.025  15.589  0.7622  0.7557 -0.6877
  563MPD2    H2 8356   2.020   2.321  15.602  0.7902  0.0255 -0.9152
  563MPD2    H3 8357   2.159   2.175  15.478 -0.9729  0.2360 -0.2154
  563MPD2     N 8358   2.412   2.066  15.839  0.5207  0.1682 -0.6920
  563MPD2    H5 8359   2.417   2.081  15.940  0.1191  0.2352 -0.6813
  563MPD2    N1 8360   2.035   2.350  15.876  0.4174  0.2251 -0.3249
  563MPD2    H7 8361   1.941   2.371  15.844 -0.3762 -1.3243  0.9992
  564TMC3    C1 8362   1.968   2.426  16.088 -0.0102  0.0262 -0.0280
  564TMC3    C2 8363   1.856   2.355  16.061 -0.1944 -0.1239 -0.3276
  564TMC3    C3 8364   1.792   2.293  16.159  0.1142  0.3772 -0.2941
  564TMC3    C4 8365   2.019   2.427  16.216 -0.0633  0.9188  0.4686
  564TMC3    C5 8366   1.960   2.339  16.306 -0.2282 -0.2327  0.2102
  564TMC3    C6 8367   1.838   2.291  16.285 -0.4566  0.0177 -0.3971
  564TMC3     C 8368   2.073   2.411  15.999 -0.3236 -0.0451  0.4189
  564TMC3     O 8369   2.187   2.440  16.029  0.3072  0.0669  0.4467
  564TMC3     H 8370   1.816   2.363  15.961 -2.3915  1.7378  0.7041
  564TMC3    H1 8371   2.114   2.473  16.240  0.2975  0.2698  0.2987
  564TMC3    H2 8372   1.793   2.228  16.362  0.0025 -0.2605 -0.3574
  564TMC3    C7 8373   2.036   2.278  16.418  0.8657 -0.3468 -0.3401
  564TMC3    C8 8374   1.744   2.163  16.127 -0.0851 -1.3972 -0.4597
  564TMC3    O1 8375   2.126   2.342  16.467 -0.3624  0.0203  0.8668
  564TMC3    O2 8376   1.665   2.101  16.201 -0.9015 -0.2918  0.1810
  565TMC3    C1 8377   2.070   4.043   9.658  0.2915  0.4153  0.4633
  565TMC3    C2 8378   2.079   3.916   9.708  0.9617 -0.0086 -0.3742
  565TMC3    C3 8379   1.965   3.866   9.772  0.4470  0.0648 -0.4728
  565TMC3    C4 8380   1.966   4.130   9.698 -0.1731  0.4050  0.1747
  565TMC3    C5 8381   1.866   4.074   9.776  0.3703 -0.7277 -0.0035
  565TMC3    C6 8382   1.857   3.942   9.801  0.6638 -0.0122 -0.4509
  565TMC3     C 8383   2.169   4.103   9.564 -0.1702 -0.0860  0.2153
  565TMC3     O 8384   2.129   4.213   9.524  0.7178 -0.1157 -0.6642
  565TMC3     H 8385   2.159   3.847   9.683  0.0238 -2.0868  2.3304
  565TMC3    H1 8386   1.956   4.235   9.674 -0.9423  0.6635  1.6416
  565TMC3    H2 8387   1.771   3.911   9.859  0.1464 -1.1841 -1.8525
  565TMC3    C7 8388   1.752   4.158   9.784  0.1296 -0.5985 -0.1170
  565TMC3    C8 8389   1.952   3.728   9.818 -0.0146  0.2463 -0.0784
  565TMC3    O1 8390   1.771   4.269   9.832  0.6699 -0.2005  0.3565
  565TMC3    O2 8391   2.053   3.660   9.838 -0.1037  0.3297  0.6045
  566MPD2     C 8392   4.062   0.795  14.189  0.6500 -0.5757  0.1559
  566MPD2    C1 8393   4.136   0.842  14.079 -0.1651 -0.1254 -0.1750
  566MPD2    C2 8394   4.136   0.761  13.968  0.4693  0.4903  0.4554
  566MPD2    C3 8395   4.065   0.641  13.957  0.0978 -0.2160 -1.2022
  566MPD2    C4 8396   3.986   0.608  14.065 -0.4577 -0.6344  0.0472
  566MPD2    C5 8397   3.986   0.683  14.179  0.3174  0.4833  0.2237
  566MPD2     H 8398   4.200   0.780  13.883  0.6253  1.6199  0.8241
  566MPD2    H1 8399   3.918   0.524  14.074  0.0330 -1.0845 -0.3719
  566MPD2    H2 8400   4.060   0.852  14.281 -0.1195 -1.3985  0.6451
  566MPD2    H3 8401   3.922   0.651  14.259 -1.2831  0.7980 -0.9327
  566MPD2     N 8402   4.066   0.563  13.836  0.1683 -0.3917  0.4423
  566MPD2    H5 8403   4.120   0.596  13.757 -1.4274 -1.8789 -1.2782
  566MPD2    N1 8404   4.220   0.959  14.090  0.0323 -0.1846  0.5207
  566MPD2    H7 8405   4.238   0.982  14.187 -0.2163  0.2972  0.4553
  567TMC3    C1 8406   4.388   1.107  14.009  0.7001 -0.3172 -0.2199
  567TMC3    C2 8407   4.474   1.129  13.904  0.0780  0.0260  0.9197
  567TMC3    C3 8408   4.609   1.126  13.934 -0.2059 -0.6305  0.8118
  567TMC3    C4 8409   4.434   1.108  14.140 -0.1289 -0.3960  0.7375
  567TMC3    C5 8410   4.566   1.116  14.156  0.3834 -0.0623 -0.2132
  567TMC3    C6 8411   4.661   1.137  14.059  0.2345 -0.3465 -0.8482
  567TMC3     C 8412   4.278   1.017  13.977 -0.5256 -0.0205 -0.3463
  567TMC3     O 8413   4.241   1.007  13.859 -0.0779  0.3438  0.1397
  567TMC3     H 8414   4.429   1.142  13.806 -0.5413  0.2528  1.2273
  567TMC3    H1 8415   4.367   1.098  14.224  0.4839 -0.1554  1.2511
  567TMC3    H2 8416   0.042   1.126  14.080 -0.3256 -1.7802  1.2516
  567TMC3    C7 8417   4.628   1.102  14.283  0.2511 -0.0031  0.0144
  567TMC3    C8 8418   4.685   1.094  13.818 -0.3762  0.1982 -0.4129
  567TMC3    O1 8419   0.020   1.128  14.282  0.1435  0.0408 -0.0211
  567TMC3    O2 8420   4.627   1.050  13.716  0.2582 -0.2560  0.5705
  568MPD2     C 8421   2.299   1.172  16.884  0.9416  0.2723 -0.1023
  568MPD2    C1 8422   2.167   1.162  16.920  1.1553 -0.2830  0.5957
  568MPD2    C2 8423   2.072   1.227  16.841  0.3512  0.0678 -0.3851
  568MPD2    C3 8424   2.114   1.296  16.730 -0.1116  0.3089  0.2277
  568MPD2    C4 8425   2.247   1.311  16.695  0.6218  0.0671 -0.6739
  568MPD2    C5 8426   2.337   1.247  16.775 -0.8354  0.0278 -0.2608
  568MPD2     H 8427   1.964   1.217  16.851  0.2965  1.0983  0.0330
  568MPD2    H1 8428   2.282   1.382  16.622  2.7289 -0.8818 -0.5741
  568MPD2    H2 8429   2.379   1.117  16.931  0.6175 -1.5269 -1.6498
  568MPD2    H3 8430   2.441   1.260  16.748 -0.8248 -1.3298 -0.8257
  568MPD2     N 8431   2.015   1.343  16.645  0.6393 -0.0009 -0.1703
  568MPD2    H5 8432   1.916   1.345  16.669  0.0537  1.5526 -2.7108
  568MPD2    N1 8433   2.132   1.072  17.019 -0.3261 -0.2954  0.1434
  568MPD2    H7 8434   2.205   1.002  17.025  1.0860  1.3621  2.2611
  569TMC3    C1 8435   1.911   1.414  16.448 -1.0137  0.1042  0.3614
  569TMC3    C2 8436   1.838   1.505  16.519 -0.1580  0.5189  0.2621
  569TMC3    C3 8437   1.732   1.557  16.453  0.3273 -0.7586  0.5553
  569TMC3    C4 8438   1.885   1.370  16.319 -0.0771 -0.1255  0.0543
  569TMC3    C5 8439   1.779   1.432  16.258  0.6995 -0.0445  0.2013
  569TMC3    C6 8440   1.694   1.519  16.323  0.3261  0.1464  0.1571
  569TMC3     C 8441   2.037   1.373  16.510  0.0582  0.2310 -1.0174
  569TMC3     O 8442   2.132   1.345  16.439 -0.4046  0.5264  0.5919
  569TMC3     H 8443   1.864   1.532  16.621 -2.3133  0.4707  0.8412
  569TMC3    H1 8444   1.956   1.306  16.268  1.3653 -0.8748  3.0041
  569TMC3    H2 8445   1.600   1.549  16.279  0.6160  1.4608  0.4355
  569TMC3    C7 8446   1.819   1.501  16.139 -0.3098 -0.2298 -0.7634
  569TMC3    C8 8447   1.693   1.694  16.481 -0.3436  0.4285  0.0593
  569TMC3    O1 8448   1.886   1.436  16.058  0.5006  0.6271  0.0434
  569TMC3    O2 8449   1.639   1.743  16.386 -0.0072  0.4718 -0.0634
  570TMC3    C1 8450   1.262   4.620  16.186  0.2860 -0.4692 -0.5374
  570TMC3    C2 8451   1.282   4.585  16.057  0.0391 -0.1349 -0.8358
  570TMC3    C3 8452   1.332   4.679  15.969 -0.5691 -0.1416 -0.1634
  570TMC3    C4 8453   1.293   0.025  16.226  0.8233 -0.1382 -0.2694
  570TMC3    C5 8454   1.330   0.121  16.137 -1.3238  0.1066  0.2322
  570TMC3    C6 8455   1.356   0.086  16.004  0.1483 -0.5947  0.1568
  570TMC3     C 8456   1.179   4.529  16.270  0.0800 -0.3201  0.2655
  570TMC3     O 8457   1.093   4.456  16.218 -0.2596 -0.0416 -0.2815
  570TMC3     H 8458   1.267   4.480  16.034  1.5363 -0.6010  0.3229
  570TMC3    H1 8459   1.284   0.051  16.330  1.2638  1.2487 -0.5767
  570TMC3    H2 8460   1.398   0.146  15.925 -4.0583  0.8467 -1.0123
  570TMC3    C7 8461   1.369   0.249  16.186 -0.4448  0.1438  0.1354
  570TMC3    C8 8462   1.380   4.640  15.839  0.5508 -0.6463 -0.1169
  570TMC3    O1 8463   1.400   0.268  16.301 -0.1804 -0.0401 -0.4155
  570TMC3    O2 8464   1.366   4.716  15.743  0.6398 -0.1949 -0.1094
  571MPD2     C 8465   4.247   1.780  17.250  0.0660 -0.0970  0.1832
  571MPD2    C1 8466   4.342   1.803  17.346  0.0864  0.0985 -0.2717
  571MPD2    C2 8467   4.309   1.894  17.447  0.0601 -0.0164  0.1718
  571MPD2    C3 8468   4.180   1.944  17.460 -0.3804 -0.6694  0.0098
  571MPD2    C4 8469   4.080   1.904  17.373 -0.1874 -0.1896  0.1549
  571MPD2    C5 8470   4.121   1.824  17.269  0.1731 -0.1880 -0.1046
  571MPD2     H 8471   4.392   1.918  17.512 -0.6885  1.2487  0.6584
  571MPD2    H1 8472   3.976   1.935  17.376 -0.5734 -1.1314 -3.0203
  571MPD2    H2 8473   4.263   1.717  17.163  1.7027  0.5902 -0.0151
  571MPD2    H3 8474   4.043   1.785  17.203  0.2571 -2.2539  0.9992
  571MPD2     N 8475   4.149   2.034  17.566 -0.0619  0.1716  0.4237
  571MPD2    H5 8476   4.054   2.062  17.585 -0.1893  1.0045 -1.4652
  571MPD2    N1 8477   4.471   1.749  17.316 -0.1507  1.1297  0.7734
  571MPD2    H7 8478   4.478   1.715  17.221 -0.5149 -0.0385  1.1563
  572TMC3    C1 8479   4.169   2.197   0.029 -0.5344 -0.5357 -0.3893
  572TMC3    C2 8480   4.035   2.167   0.048  0.1392  0.0292  0.3128
  572TMC3    C3 8481   3.958   2.245   0.131 -0.3723 -0.6124  0.1736
  572TMC3    C4 8482   4.219   2.319   0.059  0.2359  0.1082  0.4633
  572TMC3    C5 8483   4.132   2.403   0.122  0.4704  0.2863  0.4200
  572TMC3    C6 8484   4.009   2.366   0.174 -0.1172  0.3097  0.2817
  572TMC3     C 8485   4.243   2.103  17.643 -0.2558 -0.6922  0.6000
  572TMC3     O 8486   4.365   2.109  17.637 -0.1767 -0.6236  0.3119
  572TMC3     H 8487   3.991   2.067   0.046  1.3359 -0.5035  0.4694
  572TMC3    H1 8488   4.320   2.341   0.028  0.3561 -0.2540  0.5999
  572TMC3    H2 8489   3.947   2.433   0.232  0.5242  1.4967 -0.4013
  572TMC3    C7 8490   4.167   2.540   0.157  0.8332  0.1665 -0.6505
  572TMC3    C8 8491   3.836   2.189   0.183  0.1039  0.4823 -0.0466
  572TMC3    O1 8492   4.075   2.610   0.196 -0.5524 -0.3866  0.1659
  572TMC3    O2 8493   3.805   2.073   0.165 -0.7413 -0.3221  0.2725
  573MPD2     C 8494   0.965   2.206   0.953  0.3726  0.6912 -0.0343
  573MPD2    C1 8495   1.061   2.285   0.899 -0.6604 -1.0899  0.3393
  573MPD2    C2 8496   1.045   2.339   0.774  0.4123 -0.2922  0.5323
  573MPD2    C3 8497   0.923   2.324   0.709  0.1667 -0.1171 -0.3576
  573MPD2    C4 8498   0.830   2.250   0.774 -0.4369 -0.1629  0.3276
  573MPD2    C5 8499   0.845   2.191   0.893  0.2015  0.4456  0.9390
  573MPD2     H 8500   1.121   2.403   0.731 -2.1908  2.5858  0.1454
  573MPD2    H1 8501   0.734   2.219   0.733 -0.2158  0.2391 -0.4923
  573MPD2    H2 8502   0.982   2.159   1.049 -0.4919 -0.4443 -0.4393
  573MPD2    H3 8503   0.779   2.125   0.950 -0.0086 -0.5383 -0.4411
  573MPD2     N 8504   0.889   2.394   0.591 -0.2875  0.2206 -0.6373
  573MPD2    H5 8505   0.796   2.381   0.554 -0.1555  0.7012 -1.1344
  573MPD2    N1 8506   1.177   2.308   0.974 -0.4136 -0.6077 -0.0115
  573MPD2    H7 8507   1.195   2.256   1.059 -2.2282  0.0300  0.7538
  574TMC3    C1 8508   0.904   2.550   0.408  1.1218 -0.4688  0.0215
  574TMC3    C2 8509   0.814   2.468   0.336  0.0430  0.4239  0.2081
  574TMC3    C3 8510   0.736   2.531   0.235 -0.6656  0.6078  0.9217
  574TMC3    C4 8511   0.910   2.690   0.394  1.1270 -0.4070  0.1892
  574TMC3    C5 8512   0.802   2.743   0.325  0.3793  0.0823 -0.7814
  574TMC3    C6 8513   0.717   2.666   0.247 -0.2662 -0.1340 -0.5473
  574TMC3     C 8514   0.966   2.494   0.527 -0.5668  0.1645 -0.3682
  574TMC3     O 8515   1.069   2.543   0.561  0.3516  0.6317 -0.5464
  574TMC3     H 8516   0.825   2.360   0.338 -1.0207  0.2943 -0.5312
  574TMC3    H1 8517   0.973   2.744   0.464  1.3893  1.3064 -1.3399
  574TMC3    H2 8518   0.641   2.705   0.180 -0.4324  0.4372 -0.0286
  574TMC3    C7 8519   0.777   2.883   0.320 -0.9484 -0.2699  0.2633
  574TMC3    C8 8520   0.626   2.442   0.194  0.3451  0.4807  0.2757
  574TMC3    O1 8521   0.691   2.919   0.239 -0.3023 -0.6201 -0.0828
  574TMC3    O2 8522   0.618   2.331   0.238  0.2402 -0.3968 -0.1446
  575TMC3    C1 8523   2.219   3.080  10.311  0.4127  0.4754 -0.4059
  575TMC3    C2 8524   2.138   2.977  10.353  0.2065 -0.4312  0.2109
  575TMC3    C3 8525   2.005   2.986  10.335 -0.0846  0.6655 -0.5313
  575TMC3    C4 8526   2.179   3.180  10.224 -0.2195 -0.5659 -0.3875
  575TMC3    C5 8527   2.038   3.178  10.208  0.3157  0.4343 -0.1636
  575TMC3    C6 8528   1.951   3.085  10.262  0.2119 -0.5818 -0.2015
  575TMC3     C 8529   2.357   3.070  10.338  0.2241 -0.5742 -0.1991
  575TMC3     O 8530   2.390   2.959  10.376  0.5592  0.5349  0.5222
  575TMC3     H 8531   2.174   2.904  10.424 -1.5642 -0.5919  0.9640
  575TMC3    H1 8532   2.245   3.250  10.175  0.6978 -1.6250 -0.6533
  575TMC3    H2 8533   1.844   3.097  10.257  0.5134  1.7498 -0.7451
  575TMC3    C7 8534   1.991   3.281  10.128  0.3869  0.2666  0.0061
  575TMC3    C8 8535   1.915   2.900  10.413  0.3067 -0.9333  0.2269
  575TMC3    O1 8536   2.060   3.377  10.114  0.6594 -0.0383 -0.0798
  575TMC3    O2 8537   1.802   2.934  10.443  0.5625  0.3572  0.2799
  576MPD2     C 8538   2.661   4.418  12.880  0.1183 -0.7270  0.1344
  576MPD2    C1 8539   2.680   4.523  12.793  0.3739 -0.0731  0.3632
  576MPD2    C2 8540   2.673   4.647  12.852 -0.0088  0.2106  0.0173
  576MPD2    C3 8541   2.636   4.670  12.983  0.0511 -0.5439 -0.5826
  576MPD2    C4 8542   2.613   4.559  13.062 -0.5111  0.3265  0.3323
  576MPD2    C5 8543   2.635   4.434  13.010 -0.0440  0.1446 -0.0750
  576MPD2     H 8544   2.677   0.012  12.792 -2.0595  0.3649  0.0983
  576MPD2    H1 8545   2.584   4.565  13.166 -0.5115  0.7415  0.3075
  576MPD2    H2 8546   2.664   4.316  12.842 -1.7657 -0.6726 -0.1356
  576MPD2    H3 8547   2.630   4.344  13.071  0.7100 -0.0224 -0.2654
  576MPD2     N 8548   2.610   0.084  13.009 -0.2210 -0.0473 -0.1066
  576MPD2    H5 8549   2.630   0.143  12.929  1.8056 -0.1346  0.3147
  576MPD2    N1 8550   2.706   4.511  12.655 -0.4942  0.4744  0.4493
  576MPD2    H7 8551   2.715   4.602  12.612 -0.5703 -0.8226 -2.3278
  577TMC3    C1 8552   2.754   4.408  12.447  0.0680 -0.1164 -0.5363
  577TMC3    C2 8553   2.795   4.296  12.376 -0.2920  0.2567 -0.1356
  577TMC3    C3 8554   2.837   4.309  12.248 -0.5964  0.4482  0.0408
  577TMC3    C4 8555   2.774   4.537  12.396 -0.8494 -0.2243 -0.2660
  577TMC3    C5 8556   2.814   4.535  12.261 -0.3595 -0.0090  0.2864
  577TMC3    C6 8557   2.854   4.431  12.188  0.5039 -0.4302 -0.5935
  577TMC3     C 8558   2.729   4.391  12.590 -0.6279  0.3189 -0.2404
  577TMC3     O 8559   2.752   4.277  12.631 -0.3772 -0.0046 -0.0669
  577TMC3     H 8560   2.771   4.199  12.418  0.2264  0.1439 -0.0994
  577TMC3    H1 8561   2.743   4.631  12.439 -0.2742 -0.2425  0.1937
  577TMC3    H2 8562   2.890   4.441  12.086  0.4274  0.2593 -0.5542
  577TMC3    C7 8563   2.837   4.671  12.212  0.2178  0.4747 -0.0680
  577TMC3    C8 8564   2.905   4.196  12.193  0.3854  0.6788  0.2961
  577TMC3    O1 8565   2.899   0.024  12.287 -0.0569 -0.0169 -1.1930
  577TMC3    O2 8566   2.884   4.089  12.250 -0.6301 -0.0334  0.7168
  578MPD2     C 8567   0.347   4.725   1.172 -0.2397  0.0129 -0.6005
  578MPD2    C1 8568   0.464   4.694   1.105  0.9804 -0.1026 -0.7858
  578MPD2    C2 8569   0.572   4.656   1.184  0.5009 -0.3293 -0.3561
  578MPD2    C3 8570   0.575   4.672   1.323 -0.7202  0.2370 -0.9471
  578MPD2    C4 8571   0.458   4.700   1.387 -0.0614  0.4320 -0.2323
  578MPD2    C5 8572   0.344   4.713   1.310 -0.4249  0.0191 -0.4688
  578MPD2     H 8573   0.664   4.644   1.128 -0.8536 -2.5173 -2.1113
  578MPD2    H1 8574   0.449   4.702   1.495  0.6943 -0.4021 -0.1547
  578MPD2    H2 8575   0.250   0.018   1.127  0.2262  0.1978 -1.5361
  578MPD2    H3 8576   0.247   0.016   1.350 -0.1792 -0.7467  0.6543
  578MPD2     N 8577   0.704   4.658   1.377  0.3598 -0.5054  0.0787
  578MPD2    H5 8578   0.775   4.617   1.318 -0.6872 -2.2742  0.0479
  578MPD2    N1 8579   0.479   4.681   0.963 -0.2031  0.0848 -0.1178
  578MPD2    H7 8580   0.573   4.667   0.930 -0.2549 -0.3407 -0.0782
  579TMC3    C1 8581   0.867   4.660   1.544  0.4170 -0.2977 -0.6988
  579TMC3    C2 8582   0.931   0.038   1.614  0.5012 -0.0592  0.1076
  579TMC3    C3 8583   1.063   0.015   1.649  0.4219 -0.0542 -0.1335
  579TMC3    C4 8584   0.922   4.535   1.521  0.1596 -0.2414  0.0777
  579TMC3    C5 8585   1.062   4.517   1.552  0.6687 -0.4440 -0.2419
  579TMC3    C6 8586   1.125   4.618   1.621  0.5965  0.2507 -0.4708
  579TMC3     C 8587   0.732   4.691   1.504  0.1210 -0.3586 -0.4942
  579TMC3     O 8588   0.663   0.046   1.573 -0.0673 -0.2065  0.8544
  579TMC3     H 8589   0.884   0.132   1.639  0.2281 -0.2605  0.3510
  579TMC3    H1 8590   0.868   4.464   1.460  0.7692 -0.5542 -0.0989
  579TMC3    H2 8591   1.230   4.599   1.640  0.2061 -2.9764 -1.5879
  579TMC3    C7 8592   1.141   4.413   1.489  0.4257 -0.0266 -0.3113
  579TMC3    C8 8593   1.136   0.106   1.736 -0.1819  0.4004  0.8328
  579TMC3    O1 8594   1.247   4.395   1.541  0.2135  0.2230  0.1554
  579TMC3    O2 8595   1.072   0.164   1.827  0.1080  0.1662  0.0773
  580TMC3    C1 8596   0.325   3.299  12.321 -0.8433  0.0063  0.2898
  580TMC3    C2 8597   0.308   3.281  12.187 -0.4185 -0.5131 -0.2061
  580TMC3    C3 8598   0.339   3.159  12.132 -0.1431 -0.3363 -0.2909
  580TMC3    C4 8599   0.364   3.192  12.402  0.8041 -0.5555 -0.5880
  580TMC3    C5 8600   0.404   3.079  12.339  0.0514  0.4133 -0.4265
  580TMC3    C6 8601   0.383   3.052  12.202 -0.3446 -0.1537  0.8263
  580TMC3     C 8602   0.367   3.434  12.348 -0.5910 -1.0424  0.1919
  580TMC3     O 8603   0.311   3.522  12.286  0.4381 -0.2286  0.0719
  580TMC3     H 8604   0.275   3.350  12.110  1.4326 -0.4245 -0.9128
  580TMC3    H1 8605   0.374   3.204  12.510  0.5870 -0.2592 -0.6015
  580TMC3    H2 8606   0.409   2.958  12.155 -1.0274 -0.1281  0.3888
  580TMC3    C7 8607   0.431   2.969  12.429  0.4290 -0.0617  0.4064
  580TMC3    C8 8608   0.399   3.183  11.998 -0.8266  0.6050 -0.2965
  580TMC3    O1 8609   0.372   2.971  12.536  0.1857  0.3941 -0.2076
  580TMC3    O2 8610   0.328   3.157  11.901 -0.0433 -0.3530 -0.2765
  581MPD2     C 8611   3.049   3.470  14.861 -0.6331 -0.2320  0.0729
  581MPD2    C1 8612   2.928   3.405  14.886 -0.2475  0.1386  0.8209
  581MPD2    C2 8613   2.811   3.467  14.836  0.2822 -0.1238  0.1499
  581MPD2    C3 8614   2.810   3.591  14.783 -1.1290 -0.1095 -0.0369
  581MPD2    C4 8615   2.932   3.643  14.749  0.2303  0.2586  0.2974
  581MPD2    C5 8616   3.049   3.588  14.793 -0.5397 -0.0882 -0.1634
  581MPD2     H 8617   2.719   3.422  14.871  0.8049 -0.5715  0.9700
  581MPD2    H1 8618   2.951   3.733  14.692 -2.2280 -0.3150 -1.4289
  581MPD2    H2 8619   3.140   3.425  14.899 -0.5249  0.7139  0.9250
  581MPD2    H3 8620   3.147   3.630  14.776  0.0061  0.1346  3.4595
  581MPD2     N 8621   2.689   3.656  14.749  0.0948  0.0696 -0.0138
  581MPD2    H5 8622   2.602   3.606  14.767  1.1941 -1.1644  1.9775
  581MPD2    N1 8623   2.909   3.280  14.950 -0.2087  0.3237 -0.6990
  581MPD2    H7 8624   2.820   3.234  14.931 -0.8707  2.0130 -1.7078
  582TMC3    C1 8625   2.922   3.157  15.140  0.0910 -0.3528 -0.5487
  582TMC3    C2 8626   2.996   3.111  15.249 -0.1408 -0.3869 -0.1275
  582TMC3    C3 8627   2.938   3.123  15.375  0.0354 -0.2100  0.4133
  582TMC3    C4 8628   2.790   3.196  15.154 -0.0288 -0.4376  0.1421
  582TMC3    C5 8629   2.738   3.187  15.276  0.8174 -0.4079 -0.0073
  582TMC3    C6 8630   2.808   3.161  15.382 -0.0974  0.4675  0.7326
  582TMC3     C 8631   2.997   3.231  15.038 -0.1943 -0.7351 -0.2459
  582TMC3     O 8632   3.113   3.261  15.060 -0.0338  0.4404  0.2094
  582TMC3     H 8633   3.090   3.066  15.222 -0.2689 -1.1903  0.7650
  582TMC3    H1 8634   2.727   3.218  15.068 -0.2920  2.0604  0.9529
  582TMC3    H2 8635   2.749   3.159  15.474  2.2519  2.3490  2.2861
  582TMC3    C7 8636   2.620   3.266  15.288  0.0361  0.1755 -0.0350
  582TMC3    C8 8637   3.033   3.136  15.486  0.3144 -0.5995 -0.5508
  582TMC3    O1 8638   2.530   3.234  15.367 -0.0088 -0.1531  0.0924
  582TMC3    O2 8639   2.984   3.110  15.597  0.6836  0.0719  0.3466
  583MPD2     C 8640   3.193   0.512  16.841 -0.6164  0.1796 -0.6424
  583MPD2    C1 8641   3.177   0.643  16.799  0.9003  0.3235 -0.4746
  583MPD2    C2 8642   3.126   0.731  16.896  0.4666 -0.0072 -0.3485
  583MPD2    C3 8643   3.089   0.696  17.028 -0.9000 -0.0553  0.1837
  583MPD2    C4 8644   3.113   0.562  17.065  0.4504  0.5842 -0.4030
  583MPD2    C5 8645   3.168   0.482  16.971  0.2202  0.1648  0.2541
  583MPD2     H 8646   3.119   0.835  16.869 -0.4162 -0.0698 -0.3797
  583MPD2    H1 8647   3.111   0.530  17.168 -0.1802  0.2003 -0.5309
  583MPD2    H2 8648   3.238   0.435  16.781 -0.2398 -0.5776  0.6179
  583MPD2    H3 8649   3.196   0.382  17.002 -0.0078  0.6450  2.0416
  583MPD2     N 8650   3.054   0.800  17.117  0.2450  0.4893 -0.3286
  583MPD2    H5 8651   3.048   0.890  17.072  1.0784  1.4565  1.5043
  583MPD2    N1 8652   3.200   0.693  16.670 -0.1902  0.0530 -0.3150
  583MPD2    H7 8653   3.198   0.794  16.660 -0.7276  0.3306  2.4449
  584TMC3    C1 8654   3.011   0.913  17.318 -0.0447  0.0093 -0.3200
  584TMC3    C2 8655   3.005   1.033  17.252  0.2763  0.9924  0.1279
  584TMC3    C3 8656   2.973   1.138  17.329 -0.0146  0.0991 -0.5412
  584TMC3    C4 8657   2.972   0.904  17.444 -0.2404  0.2969 -1.1006
  584TMC3    C5 8658   2.934   1.015  17.516  0.3101  0.4695  0.4360
  584TMC3    C6 8659   2.936   1.140  17.461 -0.4745 -0.2186  0.3314
  584TMC3     C 8660   3.035   0.786  17.248 -0.0323  0.5018  0.0370
  584TMC3     O 8661   3.048   0.683  17.317  0.7019 -0.2603  0.2211
  584TMC3     H 8662   3.042   1.038  17.150 -2.0013  1.6057 -0.6527
  584TMC3    H1 8663   2.972   0.808  17.495 -1.9543  0.6487 -0.4556
  584TMC3    H2 8664   2.899   1.231  17.506  0.3039 -0.4904  1.5247
  584TMC3    C7 8665   2.938   0.995  17.661 -0.4107  0.4974  0.0812
  584TMC3    C8 8666   2.944   1.258  17.247  0.6902 -0.1765  0.3449
  584TMC3    O1 8667   2.982   0.885  17.695  0.2796 -0.6096 -0.2370
  584TMC3    O2 8668   2.950   1.240  17.128  0.0780 -0.3371 -0.0339
  585MPD2     C 8669   2.340   4.652  17.612 -0.1249 -0.3909  0.5514
  585MPD2    C1 8670   2.435   4.596  17.699 -0.5093  0.5260  0.2532
  585MPD2    C2 8671   2.547   4.525  17.642  0.0802  0.3713  0.3115
  585MPD2    C3 8672   2.561   4.518  17.500 -0.7863  0.3704  0.6984
  585MPD2    C4 8673   2.468   4.577  17.418 -0.0733 -0.2600 -0.1908
  585MPD2    C5 8674   2.356   4.649  17.472 -0.6526  0.3981  0.2036
  585MPD2     H 8675   2.623   4.484   0.005  1.0239  1.3925 -0.1501
  585MPD2    H1 8676   2.477   4.575  17.310  0.4095  0.0602 -0.1576
  585MPD2    H2 8677   2.262   4.713  17.656 -1.6455 -0.8473 -1.5026
  585MPD2    H3 8678   2.286   4.705  17.411 -0.7085  1.7244  1.4577
  585MPD2     N 8679   2.655   4.447  17.438 -0.5935  0.0891  0.7439
  585MPD2    H5 8680   2.629   4.425  17.343 -2.5456  0.8327  1.1092
  585MPD2    N1 8681   2.409   4.621   0.135  0.5323 -0.5094 -0.1547
  585MPD2    H7 8682   2.322   4.661   0.168  1.1006  0.2160  0.4930
  586TMC3    C1 8683   2.793   4.259  17.413  0.0931  0.0935 -0.5340
  586TMC3    C2 8684   2.893   4.175  17.457  0.2698 -0.0590 -0.1396
  586TMC3    C3 8685   2.915   4.057  17.394  0.6476  0.7231  0.0591
  586TMC3    C4 8686   2.705   4.224  17.314 -0.0658 -0.0784 -0.2802
  586TMC3    C5 8687   2.732   4.105  17.247 -0.5950  0.2195  0.2618
  586TMC3    C6 8688   2.832   4.020  17.289 -0.1155 -0.1656  0.5450
  586TMC3     C 8689   2.752   4.370  17.498  0.3931  0.5198  0.8756
  586TMC3     O 8690   2.798   4.358  17.607 -0.1416 -0.0660 -0.7323
  586TMC3     H 8691   2.954   4.214  17.538  1.7632 -0.4910 -1.0732
  586TMC3    H1 8692   2.633   4.291  17.270 -0.4195 -0.4863 -0.3243
  586TMC3    H2 8693   2.836   3.915  17.264  2.3732  0.0402  0.0400
  586TMC3    C7 8694   2.617   4.029  17.197  0.0879  0.0052 -0.0274
  586TMC3    C8 8695   3.037   3.990  17.414  0.5758  0.0079 -0.1006
  586TMC3    O1 8696   2.508   4.078  17.225  0.3095  0.0225 -0.6648
  586TMC3    O2 8697   3.102   4.005  17.516  0.1464 -0.4902 -0.1967
  587TMC3    C1 8698   0.371   3.421  16.419 -0.2372 -0.1950  0.0176
  587TMC3    C2 8699   0.309   3.532  16.361 -0.2257  0.1202 -1.3782
  587TMC3    C3 8700   0.345   3.579  16.233  0.4827 -0.6925  0.0418
  587TMC3    C4 8701   0.482   3.374  16.349  0.1517 -0.4585  0.1478
  587TMC3    C5 8702   0.520   3.428  16.228 -0.1214  0.0162  0.4499
  587TMC3    C6 8703   0.452   3.523  16.167  0.0945 -0.0502 -0.6597
  587TMC3     C 8704   0.310   3.326  16.512  0.0262  0.1657  0.4892
  587TMC3     O 8705   0.388   3.240  16.557 -0.3015 -0.2128 -0.0247
  587TMC3     H 8706   0.230   3.586  16.411  0.4228  0.6870 -0.9668
  587TMC3    H1 8707   0.534   3.282  16.376 -0.2382 -1.2531 -1.8195
  587TMC3    H2 8708   0.478   3.571  16.073  1.5137  1.9027  0.7402
  587TMC3    C7 8709   0.642   3.365  16.173  0.0820 -0.0233 -0.0946
  587TMC3    C8 8710   0.291   3.695  16.171 -0.1553 -0.4038  1.2439
  587TMC3    O1 8711   0.704   3.281  16.243  0.2451 -0.3468  0.4208
  587TMC3    O2 8712   0.359   3.749  16.086  0.0572 -0.2855 -0.5556
  588TMC3    C1 8713   1.988   1.029   9.812 -0.0456  0.2013  0.6830
  588TMC3    C2 8714   1.951   0.907   9.774  0.5989  0.2552  0.1521
  588TMC3    C3 8715   1.973   0.807   9.864  0.5434  0.1436  0.3544
  588TMC3    C4 8716   2.034   1.055   9.939  0.0802 -0.1659  0.8213
  588TMC3    C5 8717   2.045   0.949  10.026 -0.6432  0.0206 -0.0162
  588TMC3    C6 8718   2.014   0.822   9.989  0.3678 -0.6431 -0.3069
  588TMC3     C 8719   1.998   1.126   9.710 -0.4557  0.5933  0.1135
  588TMC3     O 8720   1.931   1.122   9.609  0.5956  0.7051 -0.1698
  588TMC3     H 8721   1.937   0.880   9.670 -2.6953 -0.5646  0.7899
  588TMC3    H1 8722   2.056   1.156   9.973 -0.1627  0.1862 -0.0552
  588TMC3    H2 8723   2.021   0.749  10.069  0.8279  0.8786  1.0343
  588TMC3    C7 8724   2.108   0.963  10.157  0.2624 -0.5889 -0.0445
  588TMC3    C8 8725   1.954   0.668   9.829 -0.0292 -0.0233  0.4281
  588TMC3    O1 8726   2.088   0.887  10.251 -0.0063 -0.2293  0.3550
  588TMC3    O2 8727   1.887   0.642   9.733 -0.3104 -0.7750 -0.2160
  589TMC3    C1 8728   1.926   3.177   1.259 -0.8482  0.6940 -0.9587
  589TMC3    C2 8729   1.969   3.263   1.354 -0.0837 -1.0044 -0.3738
  589TMC3    C3 8730   2.101   3.252   1.390  0.0212  0.3410 -0.2742
  589TMC3    C4 8731   2.010   3.092   1.192 -0.2192  1.1120  0.4222
  589TMC3    C5 8732   2.139   3.092   1.231 -0.5855 -0.9691 -0.5282
  589TMC3    C6 8733   2.199   3.169   1.327 -0.8882  0.0721  0.0750
  589TMC3     C 8734   1.780   3.169   1.232  0.0305  0.3355  0.7967
  589TMC3     O 8735   1.747   3.121   1.124 -0.5945 -0.1814  0.0004
  589TMC3     H 8736   1.896   3.335   1.390  0.2957 -1.1269  0.6509
  589TMC3    H1 8737   1.972   3.022   1.119  0.1052 -0.2843  1.5743
  589TMC3    H2 8738   2.303   3.171   1.358 -0.9149 -1.6658  0.3148
  589TMC3    C7 8739   2.228   3.005   1.152  0.4961  0.4527 -0.0915
  589TMC3    C8 8740   2.142   3.344   1.496 -0.5234  0.2216  0.3371
  589TMC3    O1 8741   2.188   2.961   1.042 -0.2658 -0.2294 -0.1429
  589TMC3    O2 8742   2.052   3.372   1.572 -0.2397  0.3226  0.2123
  590MPD2     C 8743   1.027   1.346  16.710  0.4777  0.4232  0.2984
  590MPD2    C1 8744   0.986   1.477  16.719  0.2588  0.0812 -0.1082
  590MPD2    C2 8745   1.047   1.574  16.646  0.4806 -0.3609  0.5975
  590MPD2    C3 8746   1.149   1.537  16.556  0.2867  0.1765  0.8031
  590MPD2    C4 8747   1.195   1.405  16.556 -0.1080  0.3731 -0.0990
  590MPD2    C5 8748   1.134   1.307  16.629 -0.6318 -0.5780  0.2487
  590MPD2     H 8749   1.020   1.678  16.663 -1.1132 -0.6338 -0.3149
  590MPD2    H1 8750   1.278   1.368  16.497  0.3196  0.7371  0.2733
  590MPD2    H2 8751   0.992   1.268  16.776  0.7548 -1.6788 -2.0689
  590MPD2    H3 8752   1.170   1.205  16.621  0.3991 -0.1495 -0.5299
  590MPD2     N 8753   1.204   1.634  16.475  0.1901  0.6488  0.4085
  590MPD2    H5 8754   1.186   1.731  16.502 -1.4612  0.5829 -0.4687
  590MPD2    N1 8755   0.881   1.499  16.817 -0.7112 -0.1494 -0.1412
  590MPD2    H7 8756   0.830   1.415  16.839 -0.4516 -0.6525 -1.4405
  591TMC3    C1 8757   1.334   1.718  16.295 -0.1473 -0.5143 -0.5150
  591TMC3    C2 8758   1.409   1.694  16.185  0.1325  0.9121  0.2199
  591TMC3    C3 8759   1.445   1.789  16.093  0.1172 -0.4473  0.6025
  591TMC3    C4 8760   1.292   1.841  16.310 -0.3625  0.0714  0.3295
  591TMC3    C5 8761   1.323   1.942  16.228  0.0756 -0.5721 -0.4787
  591TMC3    C6 8762   1.397   1.921  16.111 -0.2553  0.5243 -0.1569
  591TMC3     C 8763   1.285   1.607  16.366  0.1369  0.1712  0.7566
  591TMC3     O 8764   1.311   1.494  16.332  0.3222  0.7274  0.0000
  591TMC3     H 8765   1.441   1.592  16.165 -3.0488  0.1691 -1.0707
  591TMC3    H1 8766   1.227   1.863  16.394 -0.0713 -0.5695  0.7189
  591TMC3    H2 8767   1.411   1.997  16.035 -0.7347 -0.0112 -0.7812
  591TMC3    C7 8768   1.248   2.067  16.234 -0.5150 -0.1414  0.1376
  591TMC3    C8 8769   1.494   1.739  15.966  0.3469 -0.4793  0.0079
  591TMC3    O1 8770   1.148   2.071  16.309  0.4783 -0.2167  0.1374
  591TMC3    O2 8771   1.514   1.621  15.955 -0.0249 -0.3484 -0.0138
  592MPD2     C 8772   1.388   3.461  11.631 -0.3974  0.0778 -0.0464
  592MPD2    C1 8773   1.386   3.469  11.773  0.2144  0.8347 -0.5330
  592MPD2    C2 8774   1.333   3.367  11.850 -1.2300  0.0322 -0.0898
  592MPD2    C3 8775   1.269   3.260  11.789 -0.1109 -0.0439 -0.1621
  592MPD2    C4 8776   1.261   3.258  11.650 -0.4093 -0.4603 -0.0973
  592MPD2    C5 8777   1.325   3.350  11.578 -0.4141  0.2309  0.6048
  592MPD2     H 8778   1.343   3.364  11.958 -1.8974 -3.0306 -0.1040
  592MPD2    H1 8779   1.208   3.177  11.601 -0.5926  0.3947 -1.3294
  592MPD2    H2 8780   1.433   3.539  11.571  1.1883 -1.3386 -0.7104
  592MPD2    H3 8781   1.309   3.341  11.471 -0.4703 -0.5912  0.6821
  592MPD2     N 8782   1.222   3.154  11.888 -0.8437  0.0731  0.0882
  592MPD2    H5 8783   1.249   3.173  11.984 -0.0150 -0.5777 -0.0215
  592MPD2    N1 8784   1.453   3.581  11.829  0.5121  0.1778 -0.2314
  592MPD2    H7 8785   1.493   3.648  11.764  1.9004 -0.8724 -0.4821
  593TMC3    C1 8786   1.510   3.749  11.974  0.2756 -0.2001  0.2161
  593TMC3    C2 8787   1.462   3.829  12.072  0.9321  0.0599  0.1850
  593TMC3    C3 8788   1.510   3.957  12.066  0.4280  0.1052 -0.1313
  593TMC3    C4 8789   1.610   3.794  11.889 -0.4002 -0.4598 -0.1614
  593TMC3    C5 8790   1.662   3.912  11.898 -0.4248 -0.0119  0.0567
  593TMC3    C6 8791   1.608   4.004  11.986  0.8356 -0.1726  0.4263
  593TMC3     C 8792   1.454   3.616  11.960 -0.6176  0.2755 -0.5387
  593TMC3     O 8793   1.392   3.568  12.056 -0.6732  0.2030  0.2480
  593TMC3     H 8794   1.392   3.792  12.145  0.3022  1.1129  0.1067
  593TMC3    H1 8795   1.656   3.730  11.815  0.3558 -1.3874  1.1015
  593TMC3    H2 8796   1.640   4.108  11.986 -1.9609  0.6902 -0.2217
  593TMC3    C7 8797   1.776   3.950  11.810  0.4795  0.5233 -0.4188
  593TMC3    C8 8798   1.491   4.023  12.196  0.2057  0.0383 -0.0075
  593TMC3    O1 8799   1.787   4.070  11.799 -0.1664 -0.0087  0.0435
  593TMC3    O2 8800   1.389   3.996  12.256  0.6185  0.6356 -0.6706
  594MPD2     C 8801   4.489   2.157  14.231 -0.3409 -0.3613 -0.2533
  594MPD2    C1 8802   4.482   2.190  14.368  0.3641 -0.3667 -0.8264
  594MPD2    C2 8803   4.575   2.279  14.424 -1.0322  0.2382 -0.4831
  594MPD2    C3 8804   4.692   2.303  14.354  0.2214 -0.6114 -0.2879
  594MPD2    C4 8805   4.706   2.243  14.231 -0.7309 -0.5456 -0.2513
  594MPD2    C5 8806   4.605   2.175  14.167 -0.8882  0.2823  1.0877
  594MPD2     H 8807   4.554   2.334  14.515  0.8069  1.3183 -0.6929
  594MPD2    H1 8808   0.065   2.269  14.168 -1.1179  2.6631  0.5618
  594MPD2    H2 8809   4.410   2.098  14.184 -1.4891 -0.3333  1.6313
  594MPD2    H3 8810   4.616   2.135  14.067  1.9615  0.8348  1.1709
  594MPD2     N 8811   0.060   2.400  14.410  0.8300  0.0403 -0.0040
  594MPD2    H5 8812   0.027   2.443  14.495 -1.4058  0.7453 -1.2402
  594MPD2    N1 8813   4.368   2.146  14.441 -0.1613 -0.1678  0.8029
  594MPD2    H7 8814   4.303   2.094  14.384  0.4855  0.0062 -0.0873
  595TMC3    C1 8815   0.438   2.668  14.481 -0.0069 -0.3533 -0.1487
  595TMC3    C2 8816   0.370   2.578  14.405  0.1009  0.3496  0.8345
  595TMC3    C3 8817   0.247   2.547  14.437  0.4178 -1.0406 -0.1473
  595TMC3    C4 8818   0.386   2.719  14.601  0.0637 -0.4155  0.4390
  595TMC3    C5 8819   0.261   2.672  14.631 -0.2766  0.4158 -0.0022
  595TMC3    C6 8820   0.185   2.604  14.542  0.5304 -0.0733 -0.5326
  595TMC3     C 8821   0.560   2.721  14.438 -0.1224 -0.1630  0.2820
  595TMC3     O 8822   0.637   2.643  14.383 -0.1071 -0.5813 -0.3248
  595TMC3     H 8823   0.409   2.546  14.310  0.1805 -0.3296  1.0948
  595TMC3    H1 8824   0.439   2.794  14.657  3.0303 -2.9471  0.9912
  595TMC3    H2 8825   0.086   2.571  14.570  0.6695 -1.3699 -1.5385
  595TMC3    C7 8826   0.194   2.705  14.756  0.1565  0.0588  0.2372
  595TMC3    C8 8827   0.187   2.434  14.368  0.8006 -0.1894  0.2674
  595TMC3    O1 8828   0.077   2.678  14.775 -0.1908 -0.1401 -0.4450
  595TMC3    O2 8829   0.243   2.393  14.265  0.5509 -0.4333  0.4476
  596MPD2     C 8830   3.941   0.504  16.815  0.4159  0.2670  0.2519
  596MPD2    C1 8831   3.941   0.637  16.771  0.5520  0.2082 -0.2053
  596MPD2    C2 8832   3.947   0.664  16.638  0.8733 -0.1920 -0.5889
  596MPD2    C3 8833   3.954   0.556  16.545  0.6386 -0.0229 -0.4307
  596MPD2    C4 8834   3.954   0.427  16.593  0.0204 -0.1127 -0.1551
  596MPD2    C5 8835   3.951   0.406  16.726 -0.2178  0.3201  0.1305
  596MPD2     H 8836   3.959   0.767  16.608  0.7868 -0.4845 -1.6614
  596MPD2    H1 8837   3.949   0.343  16.525 -1.3350  0.2130 -0.4556
  596MPD2    H2 8838   3.917   0.477  16.917  1.6034 -3.0462 -0.3526
  596MPD2    H3 8839   3.935   0.303  16.755  1.9893  1.0883  4.0993
  596MPD2     N 8840   3.972   0.567  16.403  0.0520 -0.3107 -0.3584
  596MPD2    H5 8841   3.968   0.481  16.349  0.6569 -0.4113 -0.2536
  596MPD2    N1 8842   3.939   0.753  16.857  0.2373  0.4332  0.0298
  596MPD2    H7 8843   3.975   0.843  16.824  2.7562 -0.9111 -0.9047
  597TMC3    C1 8844   3.911   0.871  17.059 -0.5937 -0.7698  0.1645
  597TMC3    C2 8845   3.980   0.968  17.000  0.2944  0.3251 -0.2985
  597TMC3    C3 8846   3.963   1.096  17.045 -1.3271 -0.3069  0.4555
  597TMC3    C4 8847   3.823   0.898  17.160  0.9006 -0.6375 -0.0944
  597TMC3    C5 8848   3.816   1.030  17.211 -0.4638 -0.3647  0.0713
  597TMC3    C6 8849   3.889   1.129  17.156 -0.7533  0.2070  0.4154
  597TMC3     C 8850   3.887   0.753  16.981  0.0252 -0.5944  0.1272
  597TMC3     O 8851   3.841   0.658  17.041 -0.3559 -0.2720 -0.5486
  597TMC3     H 8852   4.045   0.950  16.915 -0.3164  0.0906 -0.7153
  597TMC3    H1 8853   3.778   0.814  17.211  0.3103  0.9724  2.0445
  597TMC3    H2 8854   3.908   1.221  17.210  0.9481  0.6334 -0.9199
  597TMC3    C7 8855   3.708   1.054  17.303 -0.0606 -0.5849  0.3747
  597TMC3    C8 8856   4.046   1.195  16.982  0.3608 -0.4913  0.1724
  597TMC3    O1 8857   3.644   0.954  17.322 -0.3184  0.3569 -0.2916
  597TMC3    O2 8858   4.138   1.153  16.911 -0.0025  0.4437 -0.2664
  598TMC3    C1 8859   1.992   1.878  15.140  0.7110 -0.5729  0.3229
  598TMC3    C2 8860   1.910   1.781  15.088  0.2777  0.1017 -0.3406
  598TMC3    C3 8861   1.862   1.801  14.964 -0.2012  0.0458  0.6259
  598TMC3    C4 8862   2.026   1.996  15.077 -0.5909 -0.6540  0.0559
  598TMC3    C5 8863   1.962   2.016  14.956 -0.7901 -0.4092  0.0717
  598TMC3    C6 8864   1.887   1.920  14.895 -0.7208  0.2527 -0.3312
  598TMC3     C 8865   2.095   1.846  15.241  0.0675 -0.2238  1.1303
  598TMC3     O 8866   2.194   1.920  15.238 -0.4162  0.2984  0.1766
  598TMC3     H 8867   1.902   1.689  15.144  0.1367 -1.2145 -2.5225
  598TMC3    H1 8868   2.088   2.072  15.123 -0.8158 -0.8298  0.6451
  598TMC3    H2 8869   1.841   1.942  14.800  1.8324  0.3072 -1.5512
  598TMC3    C7 8870   2.023   2.106  14.865  0.1206  0.2089  0.3911
  598TMC3    C8 8871   1.823   1.685  14.887 -0.2231  0.0451  0.5650
  598TMC3    O1 8872   1.977   2.109  14.751  0.5418  0.2218 -0.1365
  598TMC3    O2 8873   1.855   1.678  14.767  0.3157  0.1413  0.4694
  599MPD2     C 8874   2.335   4.392  15.693 -0.1612  1.1075 -0.3347
  599MPD2    C1 8875   2.288   4.281  15.751  0.9050  0.4632  0.2958
  599MPD2    C2 8876   2.189   4.291  15.844  0.0293 -0.1694  0.2032
  599MPD2    C3 8877   2.138   4.414  15.885 -0.0929 -0.7539  0.6589
  599MPD2    C4 8878   2.188   4.527  15.816 -0.4477 -0.6316  0.3765
  599MPD2    C5 8879   2.289   4.515  15.722 -0.5508  0.7273 -0.3571
  599MPD2     H 8880   2.130   4.210  15.887  1.2837  0.0272  2.3148
  599MPD2    H1 8881   2.139   4.621  15.839 -0.3449 -0.5072  0.0923
  599MPD2    H2 8882   2.399   4.398  15.606 -0.4641 -0.2623 -0.6589
  599MPD2    H3 8883   2.321   4.606  15.674  1.2712  0.6284  0.6671
  599MPD2     N 8884   2.037   4.442  15.983 -0.2507 -0.0557 -0.1595
  599MPD2    H5 8885   2.024   4.541  16.005 -0.0120  0.0022 -0.2730
  599MPD2    N1 8886   2.337   4.153  15.709 -0.2594 -0.5134  0.1284
  599MPD2    H7 8887   2.424   4.157  15.656 -1.5741 -1.9639 -2.1682
  600TMC3    C1 8888   1.936   4.408  16.197  0.4091 -0.2624 -0.5552
  600TMC3    C2 8889   1.872   4.320  16.282  0.1697 -0.1704  0.1379
  600TMC3    C3 8890   1.855   4.361  16.407 -0.0478  0.4987  0.1196
  600TMC3    C4 8891   1.988   4.528  16.242 -0.3297  0.0705 -0.4715
  600TMC3    C5 8892   1.969   4.559  16.373  0.1658  0.1021  0.6225
  600TMC3    C6 8893   1.892   4.483  16.457  0.4959 -0.1569 -0.1138
  600TMC3     C 8894   1.994   4.352  16.073  0.3270  0.3659 -0.3750
  600TMC3     O 8895   2.005   4.230  16.084  0.1436 -0.3101 -0.0285
  600TMC3     H 8896   1.834   4.226  16.244  1.8065 -0.9077  0.3452
  600TMC3    H1 8897   2.036   4.595  16.171 -2.1687  0.4875 -1.3254
  600TMC3    H2 8898   1.871   4.517  16.558 -4.5038 -1.5049 -0.7051
  600TMC3    C7 8899   1.970   4.700  16.410  0.1475 -0.3576  0.1225
  600TMC3    C8 8900   1.768   4.283  16.494 -0.3043  0.1358 -0.8700
  600TMC3    O1 8901   1.901   0.014  16.504 -0.1390  0.2194 -0.2219
  600TMC3    O2 8902   1.786   4.256  16.617 -0.2270  0.3365  0.5752
  601MPD2     C 8903   4.421   2.967   0.057  0.4510  0.5248 -0.0598
  601MPD2    C1 8904   4.284   2.934   0.047 -0.7346  0.4459  0.4203
  601MPD2    C2 8905   4.246   2.811   0.087  0.6226 -0.0629 -0.2077
  601MPD2    C3 8906   4.334   2.707   0.109  0.0856  0.9827 -0.5378
  601MPD2    C4 8907   4.465   2.738   0.109  0.3379 -0.1866 -0.6186
  601MPD2    C5 8908   4.514   2.863   0.075 -0.7801  0.4881  0.9558
  601MPD2     H 8909   4.141   2.786   0.083  0.3304  1.2965 -1.3155
  601MPD2    H1 8910   4.546   2.668   0.125  2.2017  1.5118 -2.5657
  601MPD2    H2 8911   4.459   3.067   0.037  2.1690  0.0825  0.9432
  601MPD2    H3 8912   4.621   2.880   0.077 -0.8312  1.0344 -1.8036
  601MPD2     N 8913   4.298   2.575   0.127 -0.2261 -0.0318  0.2211
  601MPD2    H5 8914   4.369   2.502   0.136 -2.7262 -2.0532  3.3937
  601MPD2    N1 8915   4.183   3.020   0.002 -0.2648 -0.2108 -0.2811
  601MPD2    H7 8916   4.089   2.982   0.006 -0.0377 -0.7365  0.0152
  602TMC3    C1 8917   4.102   3.210  17.597 -0.9794  0.5481 -0.4495
  602TMC3    C2 8918   4.148   3.313  17.517  1.0856  0.3610  0.0577
  602TMC3    C3 8919   4.113   3.304  17.385 -0.1500 -0.6851  0.2344
  602TMC3    C4 8920   4.010   3.115  17.550 -0.2202  0.7594 -0.0629
  602TMC3    C5 8921   3.997   3.101  17.416 -0.5494  0.2914  0.0961
  602TMC3    C6 8922   4.052   3.193  17.333  0.6877 -0.2535  0.3264
  602TMC3     C 8923   4.203   3.154  17.683  0.4633  0.1613  0.3011
  602TMC3     O 8924   4.303   3.226   0.007 -0.5431 -0.0651 -0.0695
  602TMC3     H 8925   4.213   3.391  17.556  0.1810  1.5049 -0.7152
  602TMC3    H1 8926   3.948   3.052  17.613  0.1624 -1.2176 -1.7015
  602TMC3    H2 8927   4.069   3.169  17.229 -0.9287 -1.5220  0.3575
  602TMC3    C7 8928   3.883   3.017  17.376 -0.8258 -0.3146  0.2144
  602TMC3    C8 8929   4.046   3.428  17.348  0.1881  0.0035 -0.1944
  602TMC3    O1 8930   3.849   2.924  17.453 -0.3183  0.4456 -0.3174
  602TMC3    O2 8931   4.053   3.518  17.434 -0.1629 -0.7072  0.4045
  603TMC3    C1 8932   2.585   2.827  10.793  0.2320  0.1355 -0.1337
  603TMC3    C2 8933   2.602   2.805  10.927 -0.4551 -0.1312  0.1253
  603TMC3    C3 8934   2.605   2.913  11.005  0.1915  0.2529 -0.2404
  603TMC3    C4 8935   2.536   2.943  10.742 -0.1892 -0.2754  0.4314
  603TMC3    C5 8936   2.536   3.049  10.834 -0.5716 -0.1808  0.7691
  603TMC3    C6 8937   2.581   3.040  10.960  0.1013 -0.0365 -0.3348
  603TMC3     C 8938   2.586   2.710  10.709 -0.0565  0.4245 -0.0794
  603TMC3     O 8939   2.612   2.726  10.590  0.8693  0.0768 -0.1842
  603TMC3     H 8940   2.628   2.709  10.971  1.1312  2.3613  4.5743
  603TMC3    H1 8941   2.499   2.953  10.640 -0.0910  3.3097  0.7429
  603TMC3    H2 8942   2.547   3.117  11.029 -0.1059  0.4406 -0.9679
  603TMC3    C7 8943   2.497   3.179  10.781 -0.6725  0.2505 -0.1514
  603TMC3    C8 8944   2.629   2.889  11.152  0.4428  0.1562 -0.0834
  603TMC3    O1 8945   2.563   3.274  10.807  0.1478 -0.3134 -0.5868
  603TMC3    O2 8946   2.621   2.774  11.194  0.4967  0.3266  0.0380
  604MPD2     C 8947   3.152   1.960  16.627 -0.2220  0.4775 -0.0166
  604MPD2    C1 8948   3.038   1.878  16.629 -0.7542  1.0930  0.6623
  604MPD2    C2 8949   3.001   1.808  16.519  0.3115  0.7565  0.8806
  604MPD2    C3 8950   3.093   1.799  16.410  0.0120 -0.1751 -0.0408
  604MPD2    C4 8951   3.204   1.877  16.410  0.3634  0.0947 -0.0476
  604MPD2    C5 8952   3.231   1.952  16.522 -0.8377  0.0055  0.5542
  604MPD2     H 8953   2.906   1.756  16.515  0.2667  0.9831 -0.7143
  604MPD2    H1 8954   3.277   1.895  16.332  0.3204 -1.1646 -0.3778
  604MPD2    H2 8955   3.171   2.024  16.712  1.5926 -1.6132  1.1222
  604MPD2    H3 8956   3.318   2.018  16.518 -0.1845 -0.7384  2.5191
  604MPD2     N 8957   3.063   1.716  16.300 -0.6119  0.3122 -0.4381
  604MPD2    H5 8958   2.974   1.668  16.305 -1.3266  1.3343 -3.2939
  604MPD2    N1 8959   2.954   1.896  16.742  0.1690  0.0645 -0.7613
  604MPD2    H7 8960   2.972   1.982  16.792 -1.8437 -2.1291  3.7030
  605TMC3    C1 8961   2.744   1.890  16.869 -0.0003  0.7071 -0.1934
  605TMC3    C2 8962   2.808   1.994  16.936  0.4432 -0.5429 -0.9561
  605TMC3    C3 8963   2.759   2.121  16.924  0.6198 -0.6201 -0.1367
  605TMC3    C4 8964   2.614   1.915  16.820 -0.2592  0.0861 -1.0899
  605TMC3    C5 8965   2.571   2.044  16.804 -0.1730  0.6897 -0.9652
  605TMC3    C6 8966   2.644   2.151  16.859 -1.0702  0.5806 -0.1562
  605TMC3     C 8967   2.824   1.836  16.757  0.2954  0.4926 -0.0440
  605TMC3     O 8968   2.765   1.761  16.680  0.3678  0.1670  0.5136
  605TMC3     H 8969   2.895   1.972  16.997  0.5791  0.2266 -0.8699
  605TMC3    H1 8970   2.553   1.833  16.785  0.1516 -0.0801 -1.4065
  605TMC3    H2 8971   2.616   2.251  16.828 -0.0976  1.5100  1.9674
  605TMC3    C7 8972   2.465   2.071  16.709 -0.2867 -0.2091  0.3514
  605TMC3    C8 8973   2.879   2.197  16.907 -0.2093  0.6221 -0.6024
  605TMC3    O1 8974   2.432   2.188  16.688 -0.1475  0.3400  0.6756
  605TMC3    O2 8975   2.978   2.134  16.865  0.5081  0.0210  0.2025
  606TMC3    C1 8976   3.701   0.831   0.195  0.5828 -0.4790  0.2083
  606TMC3    C2 8977   3.776   0.772   0.290 -0.1126  0.1703 -0.3148
  606TMC3    C3 8978   3.813   0.636   0.276  0.4724 -0.2592  0.1910
  606TMC3    C4 8979   3.670   0.760   0.082  0.4236 -0.5410  0.5264
  606TMC3    C5 8980   3.693   0.629   0.072  0.1537 -0.1310 -0.4113
  606TMC3    C6 8981   3.756   0.561   0.174  0.0075 -0.5112 -0.2776
  606TMC3     C 8982   3.679   0.976   0.194 -0.4641 -0.4544 -0.1641
  606TMC3     O 8983   3.644   1.023   0.090  0.0412  0.0518  0.4580
  606TMC3     H 8984   3.823   0.827   0.370 -0.3805  1.5287 -1.0826
  606TMC3    H1 8985   3.628   0.818  17.701 -2.0311  1.7381  3.3737
  606TMC3    H2 8986   3.788   0.458   0.166 -2.7896 -1.3278 -1.2615
  606TMC3    C7 8987   3.710   0.597  17.633 -0.0588 -0.4790  0.7102
  606TMC3    C8 8988   3.953   0.598   0.297 -0.6518 -0.0619  0.8218
  606TMC3    O1 8989   3.767   0.679  17.567  0.2996 -0.1023  0.5308
  606TMC3    O2 8990   4.003   0.538   0.208  0.5744  0.6871  0.1095
  607MPD2     C 8991   1.434   2.837  11.710 -0.0758 -0.3595  0.3719
  607MPD2    C1 8992   1.506   2.929  11.782  0.3064  0.3170 -0.4989
  607MPD2    C2 8993   1.519   2.914  11.916 -0.6718 -0.1745  0.4948
  607MPD2    C3 8994   1.456   2.816  11.989 -0.2800 -0.3246 -0.6592
  607MPD2    C4 8995   1.379   2.725  11.919  0.1578 -0.8885  0.0997
  607MPD2    C5 8996   1.370   2.739  11.788 -0.1175 -0.1562 -0.3416
  607MPD2     H 8997   1.580   2.988  11.967 -1.8326 -0.7048  2.6274
  607MPD2    H1 8998   1.320   2.651  11.972 -0.4059 -0.5544 -0.0655
  607MPD2    H2 8999   1.418   2.842  11.603 -0.2787  0.5471  0.4439
  607MPD2    H3 9000   1.314   2.666  11.731  1.5188 -1.7652  0.1213
  607MPD2     N 9001   1.476   2.820  12.125  1.1433  0.2214  0.1646
  607MPD2    H5 9002   1.533   2.897  12.157  0.7644  2.3840 -4.4747
  607MPD2    N1 9003   1.584   3.035  11.727 -0.5781  0.3599 -0.0970
  607MPD2    H7 9004   1.647   3.071  11.799  0.5279 -0.6602 -0.5571
  608TMC3    C1 9005   1.673   3.211  11.602  0.8565  1.0724 -0.3929
  608TMC3    C2 9006   1.680   3.286  11.714 -0.1963 -0.2042 -0.1739
  608TMC3    C3 9007   1.765   3.394  11.713 -0.1163 -0.0460  0.5327
  608TMC3    C4 9008   1.735   3.246  11.483 -0.3108  0.5093  0.1084
  608TMC3    C5 9009   1.832   3.348  11.497  0.0395 -0.7029 -0.4624
  608TMC3    C6 9010   1.849   3.427  11.607 -0.3566  0.1198  0.2966
  608TMC3     C 9011   1.587   3.090  11.601 -0.5329  0.4387 -0.1599
  608TMC3     O 9012   1.549   3.032  11.501 -0.6187  0.0902 -0.0500
  608TMC3     H 9013   1.615   3.269  11.799 -0.5579 -0.8985 -0.5905
  608TMC3    H1 9014   1.726   3.174  11.402  2.0054 -0.0063  0.2932
  608TMC3    H2 9015   1.918   3.510  11.604  1.5704 -1.4901 -0.0261
  608TMC3    C7 9016   1.902   3.384  11.369 -0.2399 -0.1829 -0.3746
  608TMC3    C8 9017   1.796   3.455  11.837  0.0083 -0.1736  0.4240
  608TMC3    O1 9018   1.844   3.355  11.267 -0.4878  0.6093  0.1546
  608TMC3    O2 9019   1.819   3.575  11.828  0.8267 -0.0105 -0.5056
  609TMC3    C1 9020   0.185   1.783   9.668  0.5754  0.2652  0.6833
  609TMC3    C2 9021   0.073   1.734   9.616 -0.3818  0.4180 -0.0372
  609TMC3    C3 9022   0.063   1.613   9.550 -0.0878 -0.2765  0.2516
  609TMC3    C4 9023   0.301   1.716   9.638  0.2317  0.4711 -0.1374
  609TMC3    C5 9024   0.294   1.597   9.577 -0.9904 -0.0953 -0.6247
  609TMC3    C6 9025   0.179   1.542   9.524  0.2145 -0.3930  0.1300
  609TMC3     C 9026   0.194   1.921   9.722  0.9812 -0.0554  0.6137
  609TMC3     O 9027   0.301   1.980   9.708 -0.0444 -0.0365  0.3581
  609TMC3     H 9028   4.704   1.789   9.619  0.2985  1.6440 -1.3872
  609TMC3    H1 9029   0.391   1.766   9.669  1.0240 -1.4576  0.6956
  609TMC3    H2 9030   0.172   1.435   9.507 -3.7007 -0.0026 -0.8162
  609TMC3    C7 9031   0.415   1.515   9.588  0.4362 -0.7178 -0.4631
  609TMC3    C8 9032   4.657   1.569   9.503  0.1601 -0.7419  0.4373
  609TMC3    O1 9033   0.494   1.548   9.675  0.0977  0.4609 -0.0398
  609TMC3    O2 9034   4.561   1.636   9.534 -0.1241  0.1806  0.4593
  610TMC3    C1 9035   2.180   3.020  12.853 -0.1501  0.0851 -0.6938
  610TMC3    C2 9036   2.231   3.101  12.754 -0.2498  0.7873  0.4436
  610TMC3    C3 9037   2.363   3.138  12.754  0.6932 -0.1224 -0.1079
  610TMC3    C4 9038   2.264   2.973  12.952  0.0857 -0.3432  0.1674
  610TMC3    C5 9039   2.393   3.016  12.951 -0.3504  0.5194  0.8263
  610TMC3    C6 9040   2.443   3.092  12.851  0.2689 -0.0311  0.6482
  610TMC3     C 9041   2.042   2.980  12.836 -0.1395  0.1801  0.0763
  610TMC3     O 9042   1.967   3.070  12.806  0.0403 -0.3083 -0.0712
  610TMC3     H 9043   2.172   3.134  12.670 -1.1825 -0.5748  0.5679
  610TMC3    H1 9044   2.226   2.905  13.028  0.0767  2.6695  2.8859
  610TMC3    H2 9045   2.550   3.109  12.842 -0.2942  1.9743 -2.2120
  610TMC3    C7 9046   2.483   2.916  12.995  0.4541 -0.4634  0.1978
  610TMC3    C8 9047   2.416   3.184  12.634 -0.8567  0.2858  0.8946
  610TMC3    O1 9048   2.439   2.802  13.014 -0.0047 -0.1561 -0.3155
  610TMC3    O2 9049   2.519   3.246  12.647  0.1649 -0.3866  0.2355
  611MPD2     C 9050   1.505   2.751  10.902 -0.4961  0.2985 -0.2245
  611MPD2    C1 9051   1.487   2.735  10.765 -0.9962 -0.1516 -0.4611
  611MPD2    C2 9052   1.514   2.848  10.685 -0.0491  0.0798 -0.3237
  611MPD2    C3 9053   1.527   2.976  10.741 -0.2733 -0.1668  0.0752
  611MPD2    C4 9054   1.545   2.987  10.877  0.0492  0.8122  0.4330
  611MPD2    C5 9055   1.532   2.874  10.959 -0.7842  0.2538 -0.1246
  611MPD2     H 9056   1.513   2.842  10.577  0.7651 -2.5031 -0.1922
  611MPD2    H1 9057   1.568   3.078  10.929  1.6313 -0.7074  2.3795
  611MPD2    H2 9058   1.495   2.668  10.972  0.3945 -1.1203 -1.7951
  611MPD2    H3 9059   1.552   2.872  11.066 -0.5555  0.1186 -0.1705
  611MPD2     N 9060   1.554   3.087  10.658 -0.4077  0.1045  0.4868
  611MPD2    H5 9061   1.599   3.167  10.701  0.5601  0.1885 -0.6982
  611MPD2    N1 9062   1.453   2.600  10.716 -0.2218  0.5510  0.0565
  611MPD2    H7 9063   1.435   2.531  10.788 -3.2097  0.3460 -0.8629
  612TMC3    C1 9064   1.568   3.225  10.469  0.5241  0.2621  0.0838
  612TMC3    C2 9065   1.676   3.281  10.529  0.0501 -0.2179  0.5475
  612TMC3    C3 9066   1.739   3.366  10.452  0.2267 -0.0727  0.5242
  612TMC3    C4 9067   1.513   3.261  10.348 -0.3143 -0.1101  0.3933
  612TMC3    C5 9068   1.572   3.370  10.293  0.2034 -0.0416  0.2341
  612TMC3    C6 9069   1.692   3.418  10.336  0.3272  0.4923 -0.8905
  612TMC3     C 9070   1.516   3.102  10.521  0.0791  0.0452  0.1075
  612TMC3     O 9071   1.449   3.026  10.454  0.1767 -0.5145 -0.2741
  612TMC3     H 9072   1.723   3.248  10.621  0.4872 -1.7891 -0.2451
  612TMC3    H1 9073   1.426   3.207  10.311  1.6659 -1.7990 -1.8214
  612TMC3    H2 9074   1.748   3.488  10.276  0.2453  2.8076  1.7552
  612TMC3    C7 9075   1.492   3.450  10.201  0.0685 -0.9388 -0.1989
  612TMC3    C8 9076   1.867   3.422  10.489  0.6801  0.2483 -1.0460
  612TMC3    O1 9077   1.397   3.392  10.145 -0.2621 -0.0076  0.6434
  612TMC3    O2 9078   1.874   3.539  10.457  0.5015 -0.0077 -0.5549
  613MPD2     C 9079   0.437   0.121  16.892 -0.2333 -0.6268  0.2428
  613MPD2    C1 9080   0.403   0.194  16.777  0.4608  0.0070 -0.2819
  613MPD2    C2 9081   0.370   0.132  16.657 -0.5394  0.2192 -0.5958
  613MPD2    C3 9082   0.378   4.723  16.653 -0.6718 -0.1683 -0.1318
  613MPD2    C4 9083   0.412   4.645  16.761 -0.0711 -0.5608  0.3524
  613MPD2    C5 9084   0.449   4.706  16.877 -0.6404 -0.0895  0.0392
  613MPD2     H 9085   0.331   0.198  16.581  1.0318  0.6398 -1.0376
  613MPD2    H1 9086   0.418   4.537  16.752 -1.2062 -0.4245 -1.8435
  613MPD2    H2 9087   0.478   0.167  16.981 -1.8030 -1.8645  1.5793
  613MPD2    H3 9088   0.479   4.646  16.962 -0.7676  0.3131  0.3652
  613MPD2     N 9089   0.358   4.661  16.525 -0.1340 -0.4110  0.2002
  613MPD2    H5 9090   0.377   4.561  16.532 -0.1501 -0.3567  1.0168
  613MPD2    N1 9091   0.397   0.331  16.803  0.3867  0.7154 -0.3234
  613MPD2    H7 9092   0.471   0.367  16.863  1.0903 -0.8513 -0.2408
  614TMC3    C1 9093   0.417   0.547  16.709 -0.8350 -0.3242 -0.4405
  614TMC3    C2 9094   0.537   0.518  16.647 -0.2002 -0.1258 -0.4135
  614TMC3    C3 9095   0.561   0.555  16.518 -0.1559  0.0969  0.1102
  614TMC3    C4 9096   0.338   0.642  16.644  0.1257  0.1953  0.3984
  614TMC3    C5 9097   0.382   0.703  16.525  0.3553 -0.9005  0.5931
  614TMC3    C6 9098   0.485   0.652  16.452 -0.0681  0.2833 -0.1073
  614TMC3     C 9099   0.339   0.427  16.725 -0.1893 -0.9502 -0.6928
  614TMC3     O 9100   0.239   0.414  16.657 -0.1805  0.0844 -0.2064
  614TMC3     H 9101   0.604   0.448  16.695  1.5707  1.7407 -0.1622
  614TMC3    H1 9102   0.243   0.679  16.682 -0.9682 -0.9386 -1.2970
  614TMC3    H2 9103   0.516   0.699  16.360 -2.6572 -0.0914 -1.1781
  614TMC3    C7 9104   0.303   0.816  16.479 -0.4902 -0.2520 -0.0530
  614TMC3    C8 9105   0.607   0.445  16.436  0.3201 -0.1849 -0.3328
  614TMC3    O1 9106   0.241   0.877  16.564  0.0989  0.1484 -0.2467
  614TMC3    O2 9107   0.584   0.335  16.480  0.8169  0.4062  0.0948
  615MPD2     C 9108   0.088   1.584  16.478 -0.7003  0.2481  0.6407
  615MPD2    C1 9109   0.123   1.708  16.426  0.2018 -0.2629  0.3394
  615MPD2    C2 9110   0.079   1.724  16.291 -0.3840  0.0912  0.4495
  615MPD2    C3 9111   0.009   1.633  16.209  0.4913 -0.6990  0.2367
  615MPD2    C4 9112   4.703   1.516  16.270  0.9878  0.4687  0.2612
  615MPD2    C5 9113   0.016   1.493  16.401  0.3154 -0.4092  0.4622
  615MPD2     H 9114   0.104   1.816  16.239  0.5924 -0.3199  0.1794
  615MPD2    H1 9115   4.642   1.448  16.211  2.0277  1.2053 -1.6620
  615MPD2    H2 9116   0.112   1.558  16.581  1.0943 -0.0038  0.1729
  615MPD2    H3 9117   4.714   1.395  16.439 -1.9082 -0.7400 -2.0021
  615MPD2     N 9118   4.680   1.663  16.081 -0.1023  0.2707 -0.6547
  615MPD2    H5 9119   4.626   1.586  16.043  0.7823 -1.0479  0.7699
  615MPD2    N1 9120   0.195   1.807  16.499  0.8291 -0.4267 -0.1677
  615MPD2    H7 9121   0.230   1.772  16.588  0.1924  0.2077  0.3306
  616TMC3    C1 9122   0.312   2.015  16.545  0.0388 -0.3369  0.1795
  616TMC3    C2 9123   0.387   2.109  16.485 -0.3327  0.5586 -0.0828
  616TMC3    C3 9124   0.457   2.189  16.562 -0.2552 -0.0967  0.1525
  616TMC3    C4 9125   0.288   2.013  16.679  0.0423 -0.7706 -0.1188
  616TMC3    C5 9126   0.363   2.106  16.753 -0.3614  0.1618 -0.0236
  616TMC3    C6 9127   0.449   2.199  16.702 -0.0169 -0.2705 -0.1255
  616TMC3     C 9128   0.228   1.934  16.450 -0.4726  0.4492  0.2348
  616TMC3     O 9129   0.211   1.975  16.339 -0.1939 -0.4929  0.2910
  616TMC3     H 9130   0.389   2.104  16.377  0.5951 -2.0727  0.0561
  616TMC3    H1 9131   0.220   1.947  16.730  1.2733 -0.6779  1.6454
  616TMC3    H2 9132   0.513   2.258  16.766 -1.6448  2.7972 -1.3258
  616TMC3    C7 9133   0.315   2.150  16.883 -0.3434 -0.4098  0.2386
  616TMC3    C8 9134   0.567   2.268  16.502  0.7850 -0.3147 -0.7145
  616TMC3    O1 9135   0.395   2.201  16.962 -0.0894 -0.3169  1.0007
  616TMC3    O2 9136   0.659   2.295  16.580 -0.3725 -0.6252 -0.1946
  617MPD2     C 9137   2.827   4.538  13.570 -0.3539  0.0072  0.1032
  617MPD2    C1 9138   2.792   4.561  13.702 -0.8444  0.7798 -0.4322
  617MPD2    C2 9139   2.662   4.565  13.737 -0.5162 -1.2807 -0.1099
  617MPD2    C3 9140   2.562   4.565  13.635  0.5005  0.2521 -0.7116
  617MPD2    C4 9141   2.596   4.556  13.504 -0.3643 -0.1355 -0.3727
  617MPD2    C5 9142   2.729   4.541  13.479  0.5322  0.5095 -0.2775
  617MPD2     H 9143   2.628   4.574  13.839 -0.2701 -1.3487 -0.0246
  617MPD2    H1 9144   2.517   4.561  13.430 -1.8159  0.0489  1.1769
  617MPD2    H2 9145   2.929   4.528  13.535  0.5036 -0.2055  2.6652
  617MPD2    H3 9146   2.751   4.522  13.375  0.8158  0.8449 -0.2809
  617MPD2     N 9147   2.424   4.579  13.676 -0.1802 -0.2424  0.0481
  617MPD2    H5 9148   2.357   4.579  13.599  0.5018  2.1846 -0.5468
  617MPD2    N1 9149   2.891   4.560  13.806  0.4895 -0.6905  0.1020
  617MPD2    H7 9150   2.987   4.559  13.773  1.0130 -0.3479  1.6077
  618TMC3    C1 9151   2.996   4.551  14.006 -0.2762 -0.1116  0.1635
  618TMC3    C2 9152   3.057   4.432  14.010  0.6773 -0.4337 -0.3404
  618TMC3    C3 9153   3.188   4.423  14.041  0.0091  0.0523 -0.9708
  618TMC3    C4 9154   3.069   4.668  14.012  0.6483  0.2188  0.0333
  618TMC3    C5 9155   3.206   4.653  14.030  0.0894 -0.0811  0.4413
  618TMC3    C6 9156   3.264   4.533  14.059  0.3414 -0.1255 -0.2076
  618TMC3     C 9157   2.868   4.553  13.941  0.0922 -0.3868  0.8665
  618TMC3     O 9158   2.771   4.534  14.013 -0.1516 -0.6232 -0.1926
  618TMC3     H 9159   2.997   4.343  13.995 -0.4905  0.4412 -0.8472
  618TMC3    H1 9160   3.011   0.035  14.002  1.6817  0.9254  0.6201
  618TMC3    H2 9161   3.372   4.533  14.059  0.3573  0.6172 -2.1219
  618TMC3    C7 9162   3.279   0.054  14.027 -0.4098  0.0035  0.0974
  618TMC3    C8 9163   3.261   4.292  14.031  0.0194 -0.1062 -0.2082
  618TMC3    O1 9164   3.226   0.133  14.107 -0.2797  0.0247  0.0274
  618TMC3    O2 9165   3.190   4.194  14.030  0.0166 -0.5660 -0.4272
  619MPD2     C 9166   4.373   1.334  13.324 -0.6346  0.1570 -0.3121
  619MPD2    C1 9167   4.250   1.394  13.341  0.3880  0.3482 -0.0882
  619MPD2    C2 9168   4.174   1.355  13.461 -0.1350  0.6854 -0.5621
  619MPD2    C3 9169   4.226   1.258  13.552  0.6591  0.1654  0.1098
  619MPD2    C4 9170   4.347   1.199  13.524 -0.1485 -0.5512  0.3691
  619MPD2    C5 9171   4.428   1.248  13.418  0.1930  0.1149  0.1943
  619MPD2     H 9172   4.076   1.399  13.472 -1.4014 -2.3939  0.4843
  619MPD2    H1 9173   4.399   1.124  13.583  0.5578  0.6358  1.2701
  619MPD2    H2 9174   4.438   1.358  13.241 -1.3297  0.0991 -0.8692
  619MPD2    H3 9175   4.523   1.199  13.402  1.8673  2.4995  2.9019
  619MPD2     N 9176   4.162   1.209  13.666 -0.1702 -0.0480  0.0734
  619MPD2    H5 9177   4.211   1.142  13.724 -0.9263  0.3153  1.1365
  619MPD2    N1 9178   4.195   1.486  13.250  0.4752  0.0463  0.3828
  619MPD2    H7 9179   4.107   1.528  13.278  0.5370 -0.6580  1.6468
  620TMC3    C1 9180   4.181   1.644  13.077 -0.0407  0.0701 -0.0056
  620TMC3    C2 9181   4.054   1.608  13.061 -0.6118 -0.2299 -0.1707
  620TMC3    C3 9182   3.947   1.690  13.086 -0.3881 -0.5701  0.5553
  620TMC3    C4 9183   4.204   1.775  13.108  0.5915  0.4654 -0.0661
  620TMC3    C5 9184   4.105   1.858  13.151  0.1629  0.5880 -0.1357
  620TMC3    C6 9185   3.973   1.813  13.137  0.4422  0.0688  0.2096
  620TMC3     C 9186   4.262   1.546  13.142  0.5205  0.1351  0.6991
  620TMC3     O 9187   4.380   1.564  13.128  0.2339 -0.6316 -0.0138
  620TMC3     H 9188   4.042   1.502  13.046 -1.1605 -0.2654  0.5211
  620TMC3    H1 9189   4.307   1.796  13.136  0.5765  0.4117  0.0286
  620TMC3    H2 9190   3.893   1.878  13.170  0.1856 -0.3832  0.4859
  620TMC3    C7 9191   4.136   1.980  13.219  0.2074 -0.2346  0.3657
  620TMC3    C8 9192   3.846   1.622  13.165 -1.0827 -0.4295 -0.9751
  620TMC3    O1 9193   4.241   1.992  13.280  0.2688 -0.0004  0.0310
  620TMC3    O2 9194   3.897   1.570  13.265 -0.0716  0.0325 -0.5008
  621MPD2     C 9195   4.491   0.720  10.232  0.0996  0.9172  0.3258
  621MPD2    C1 9196   4.566   0.728  10.348  0.1763 -0.5380  0.9130
  621MPD2    C2 9197   4.648   0.835  10.368  0.3290  0.8549  0.0836
  621MPD2    C3 9198   4.640   0.944  10.282  0.4653  1.2259  0.0505
  621MPD2    C4 9199   4.561   0.942  10.166 -0.2514  0.1238  0.1779
  621MPD2    C5 9200   4.487   0.823  10.141  0.2074 -0.4713  0.2943
  621MPD2     H 9201   4.718   0.840  10.451  0.1930  0.6549  0.2097
  621MPD2    H1 9202   4.545   1.026  10.098  0.7290 -2.0072 -2.6897
  621MPD2    H2 9203   4.417   0.641  10.228 -0.9580  1.8787  1.1081
  621MPD2    H3 9204   4.413   0.808  10.063 -0.5792 -0.0305  0.9627
  621MPD2     N 9205   0.002   1.052  10.303  0.0947  0.4793 -0.1374
  621MPD2    H5 9206   0.081   1.041  10.365 -0.9039 -3.0432  0.4760
  621MPD2    N1 9207   4.541   0.625  10.446  0.5432 -0.3026 -0.0729
  621MPD2    H7 9208   4.476   0.550  10.423  0.3153  0.2485 -1.2243
  622TMC3    C1 9209   4.577   0.491  10.642 -0.0217  0.3949  0.2085
  622TMC3    C2 9210   4.604   0.497  10.776  0.4207 -0.0286  0.2008
  622TMC3    C3 9211   4.587   0.385  10.851  0.0397 -0.2462  0.1460
  622TMC3    C4 9212   4.532   0.379  10.585 -0.1615 -0.2717 -0.0134
  622TMC3    C5 9213   4.512   0.269  10.663  0.2678 -0.2474  0.6495
  622TMC3    C6 9214   4.535   0.274  10.797 -0.6083 -0.6729 -0.5027
  622TMC3     C 9215   4.599   0.613  10.572  0.4928  0.1857 -0.3691
  622TMC3     O 9216   4.692   0.683  10.608 -0.4544  0.0107  0.2179
  622TMC3     H 9217   4.658   0.585  10.809 -0.4463  0.6338 -0.1356
  622TMC3    H1 9218   4.485   0.377  10.488  0.1166 -0.1709 -0.1490
  622TMC3    H2 9219   4.518   0.184  10.855  2.7940 -1.4643 -0.7408
  622TMC3    C7 9220   4.449   0.149  10.610  0.6785  0.2949 -0.0551
  622TMC3    C8 9221   4.522   0.420  10.982  0.6639  0.9387  0.7435
  622TMC3    O1 9222   4.413   0.055  10.683  0.3641  0.3817 -0.2837
  622TMC3    O2 9223   4.480   0.333  11.053 -0.2738 -0.0635 -0.1233
  623MPD2     C 9224   3.260   1.975  15.925 -0.6843  0.6191  0.0344
  623MPD2    C1 9225   3.172   2.039  16.014 -0.4314  0.2999  0.2149
  623MPD2    C2 9226   3.228   2.104  16.124  0.0993  0.4388  0.0633
  623MPD2    C3 9227   3.361   2.101  16.143  0.1702 -0.0156 -0.1924
  623MPD2    C4 9228   3.448   2.038  16.055 -0.3227  0.2978  0.2643
  623MPD2    C5 9229   3.394   1.972  15.947  0.1105 -0.1048 -0.7435
  623MPD2     H 9230   3.167   2.151  16.200  1.5804  1.2718  0.7408
  623MPD2    H1 9231   3.555   2.041  16.073  0.2738 -2.2795 -2.8640
  623MPD2    H2 9232   3.229   1.912  15.842  0.8677 -1.0340  0.7030
  623MPD2    H3 9233   3.455   1.928  15.869  0.0989  0.1537 -0.8993
  623MPD2     N 9234   3.414   2.165  16.262  0.3929 -1.0264 -0.0935
  623MPD2    H5 9235   3.344   2.201  16.326  0.6664 -1.2245  0.3159
  623MPD2    N1 9236   3.035   2.020  16.015 -0.1830 -0.1129 -0.4805
  623MPD2    H7 9237   2.985   2.057  16.095 -0.0428 -2.5022  0.7218
  624TMC3    C1 9238   3.679   2.265  16.627  0.3763 -0.0882 -0.9439
  624TMC3    C2 9239   3.570   2.324  16.692 -0.6871  0.0202 -0.8802
  624TMC3    C3 9240   3.469   2.357  16.606 -0.2880 -0.3631  0.1266
  624TMC3    C4 9241   3.674   2.224  16.493 -0.3543 -0.0834 -0.4800
  624TMC3    C5 9242   3.564   2.259  16.419  0.1078  0.2395 -0.2288
  624TMC3    C6 9243   3.462   2.328  16.472  0.2709 -0.3257  0.4550
  624TMC3     C 9244   3.802   2.240  16.703 -0.2489 -0.5566  0.5630
  624TMC3     O 9245   3.787   2.223  16.823  1.1011 -0.3809  0.1762
  624TMC3     H 9246   3.569   2.344  16.799  2.3374  0.9816 -1.0346
  624TMC3    H1 9247   3.760   2.185  16.441  0.1137 -2.0662  1.7820
  624TMC3    H2 9248   3.374   2.355  16.415 -0.0727  0.3788  1.3191
  624TMC3    C7 9249   3.545   2.185  16.299 -0.5808  0.0499  0.8037
  624TMC3    C8 9250   3.342   2.349  16.681  0.2657  0.2279 -0.3530
  624TMC3    O1 9251   3.649   2.142  16.251 -0.0645 -0.3782 -0.4503
  624TMC3    O2 9252   3.329   2.268  16.773 -0.3210  0.3009  0.7073
  625MPD2     C 9253   3.950   3.467   0.622 -0.0986  0.6478  0.6991
  625MPD2    C1 9254   4.031   3.573   0.660  0.0223 -0.3200 -0.0533
  625MPD2    C2 9255   4.161   3.556   0.711 -0.3058  0.2698  0.9028
  625MPD2    C3 9256   4.208   3.429   0.722 -0.0863  0.2825  0.1228
  625MPD2    C4 9257   4.132   3.320   0.675 -0.2883 -0.3016  0.8752
  625MPD2    C5 9258   4.000   3.342   0.629 -0.0534  0.2392  0.6277
  625MPD2     H 9259   4.222   3.642   0.739  2.0393 -0.5086 -1.8046
  625MPD2    H1 9260   4.166   3.218   0.679 -0.4064 -0.2963  2.1614
  625MPD2    H2 9261   3.848   3.485   0.592  0.6744 -2.6819 -4.0497
  625MPD2    H3 9262   3.935   3.262   0.596 -0.2512  0.1829  1.1586
  625MPD2     N 9263   4.338   3.419   0.767  0.2995  0.2201 -0.4060
  625MPD2    H5 9264   4.383   3.506   0.794 -1.1222  1.0184 -0.6463
  625MPD2    N1 9265   3.984   3.708   0.659 -0.4245  0.1435  0.6444
  625MPD2    H7 9266   4.052   3.770   0.701  1.0811 -1.1473  0.1030
  626TMC3    C1 9267   3.855   3.900   0.632  0.6389  0.1365 -0.0433
  626TMC3    C2 9268   3.798   3.982   0.538  0.3134  0.5163  0.0726
  626TMC3    C3 9269   3.797   4.117   0.565 -0.2565 -0.1917 -0.4273
  626TMC3    C4 9270   3.910   3.953   0.750 -0.2967  0.2427 -0.6287
  626TMC3    C5 9271   3.913   4.084   0.770 -0.0465 -0.1571  0.0420
  626TMC3    C6 9272   3.856   4.163   0.675 -0.1586  0.3767 -1.6146
  626TMC3     C 9273   3.871   3.759   0.605  0.7993 -0.1542  0.8791
  626TMC3     O 9274   3.786   3.700   0.542  0.4976  0.1792  0.2606
  626TMC3     H 9275   3.761   3.939   0.446 -2.0983 -0.6712  1.5974
  626TMC3    H1 9276   3.963   3.899   0.827 -0.3262  0.3990 -0.5006
  626TMC3    H2 9277   3.865   4.269   0.696  0.3134 -0.0192  0.1488
  626TMC3    C7 9278   4.014   4.132   0.867  0.4839  0.2827  0.0877
  626TMC3    C8 9279   3.773   4.211   0.459  0.2619 -0.3731 -0.3691
  626TMC3    O1 9280   4.105   4.054   0.895  0.0351  0.1753  0.5569
  626TMC3    O2 9281   3.803   4.325   0.490  0.0555 -0.0262 -0.2073
  627MPD2     C 9282   2.117   3.557  14.342  0.4045 -0.0148  0.4514
  627MPD2    C1 9283   2.156   3.517  14.463  0.5707  0.0146 -0.0303
  627MPD2    C2 9284   2.131   3.392  14.517 -0.1870 -0.0547  0.1733
  627MPD2    C3 9285   2.050   3.305  14.449 -0.0262 -0.1996 -1.0660
  627MPD2    C4 9286   2.016   3.337  14.312 -0.5316 -0.5202 -0.2780
  627MPD2    C5 9287   2.047   3.465  14.267 -0.2340 -0.0294 -0.6625
  627MPD2     H 9288   2.170   3.369  14.615  1.2395  0.8263 -0.1835
  627MPD2    H1 9289   1.940   3.280  14.260  0.8679 -2.2616 -0.4029
  627MPD2    H2 9290   2.146   3.646  14.288  0.1484  1.1985  2.3416
  627MPD2    H3 9291   2.009   3.495  14.169 -1.9394 -1.7129 -0.5267
  627MPD2     N 9292   1.997   3.192  14.519 -0.7745  0.1422 -0.5754
  627MPD2    H5 9293   2.033   3.179  14.613 -2.6827 -2.3891 -0.1826
  627MPD2    N1 9294   2.243   3.599  14.531 -0.2733 -0.4464 -0.5970
  627MPD2    H7 9295   2.297   3.559  14.607  2.7279  2.6882 -1.1247
  628TMC3    C1 9296   2.341   3.812  14.591 -0.0401  0.2105 -0.2408
  628TMC3    C2 9297   2.454   3.754  14.648 -0.5853 -0.3658  0.0305
  628TMC3    C3 9298   2.550   3.837  14.694 -0.4360 -0.6858  0.6958
  628TMC3    C4 9299   2.330   3.951  14.590 -0.6821 -0.0206 -0.4385
  628TMC3    C5 9300   2.424   4.034  14.654 -0.3359  0.7023 -0.6920
  628TMC3    C6 9301   2.533   3.976  14.708 -0.1605 -0.0930 -0.2539
  628TMC3     C 9302   2.248   3.734  14.509 -0.2703  0.3852 -0.0827
  628TMC3     O 9303   2.153   3.810  14.475 -0.4187  0.6707  0.6278
  628TMC3     H 9304   2.475   3.649  14.629  1.1393 -0.3294  1.7583
  628TMC3    H1 9305   2.253   3.998  14.531 -1.5022 -1.6804 -0.7040
  628TMC3    H2 9306   2.614   4.042  14.736  0.0073  0.2011 -1.4139
  628TMC3    C7 9307   2.430   4.178  14.625 -0.2300 -0.1511 -0.5947
  628TMC3    C8 9308   2.683   3.789  14.708 -0.6494  0.2706  0.3851
  628TMC3    O1 9309   2.500   4.248  14.698  0.3055  0.5764 -0.1716
  628TMC3    O2 9310   2.770   3.867  14.732  0.5019  0.2528  0.2998
  629MPD2     C 9311   0.742   2.619  16.174 -0.4259 -0.2729 -0.9204
  629MPD2    C1 9312   0.795   2.561  16.287 -0.1230 -0.5421 -0.1920
  629MPD2    C2 9313   0.726   2.463  16.359  0.2137  0.0589 -0.1039
  629MPD2    C3 9314   0.608   2.414  16.307  0.4777 -0.2811  0.5169
  629MPD2    C4 9315   0.556   2.475  16.189  0.8928 -0.2359  0.3279
  629MPD2    C5 9316   0.626   2.575  16.128  0.8513  0.1114 -0.0581
  629MPD2     H 9317   0.771   2.426  16.450  1.5461  0.2307 -0.6875
  629MPD2    H1 9318   0.467   2.437  16.142  1.0349  0.9058 -0.8522
  629MPD2    H2 9319   0.795   2.700  16.126  0.5997  0.5623  1.6108
  629MPD2    H3 9320   0.590   2.621  16.037 -1.2751  0.4074  0.9205
  629MPD2     N 9321   0.539   2.314  16.378 -0.0619 -0.1717  0.4925
  629MPD2    H5 9322   0.448   2.290  16.339 -0.7893  0.7401  1.6403
  629MPD2    N1 9323   0.915   2.614  16.334 -0.4239  0.8359 -0.5275
  629MPD2    H7 9324   0.961   2.695  16.294 -0.7915  0.9173 -0.7917
  630TMC3    C1 9325   1.119   2.635  16.433 -0.3262  0.1607  0.1964
  630TMC3    C2 9326   1.176   2.708  16.323 -0.0467  0.7122  0.4015
  630TMC3    C3 9327   1.299   2.765  16.341  0.1179 -0.1986 -0.0544
  630TMC3    C4 9328   1.191   2.613  16.548 -0.0201  0.2721 -0.3353
  630TMC3    C5 9329   1.309   2.690  16.557  0.1524 -0.1952 -0.1273
  630TMC3    C6 9330   1.374   2.750  16.456 -0.4033  0.1933 -0.0337
  630TMC3     C 9331   0.990   2.566  16.434 -0.3707  0.5710  0.0936
  630TMC3     O 9332   0.968   2.471  16.510  0.1119 -0.2400  0.4630
  630TMC3     H 9333   1.134   2.716  16.224 -0.1678 -0.6698  0.3388
  630TMC3    H1 9334   1.142   2.575  16.637 -0.7246 -0.9511 -1.2431
  630TMC3    H2 9335   1.469   2.802  16.466 -0.4806 -0.0852  2.0682
  630TMC3    C7 9336   1.373   2.671  16.686 -0.5808 -0.4844  0.1859
  630TMC3    C8 9337   1.365   2.845  16.235  0.8550  0.2865 -0.5744
  630TMC3    O1 9338   1.332   2.584  16.765  0.1243 -0.0307 -0.0855
  630TMC3    O2 9339   1.482   2.869  16.252  0.3092  1.1982  0.1665
  631MPD2     C 9340   3.911   2.133  15.628  0.5422 -0.1007 -0.3474
  631MPD2    C1 9341   4.018   2.164  15.540 -0.2533  0.9064 -0.1576
  631MPD2    C2 9342   4.129   2.087  15.546  0.3111 -0.4257  0.1885
  631MPD2    C3 9343   4.144   1.985  15.641  0.8915  0.1123  0.5307
  631MPD2    C4 9344   4.039   1.961  15.729  0.0696 -0.0243 -0.4385
  631MPD2    C5 9345   3.922   2.028  15.716  0.2547  0.3470 -0.0503
  631MPD2     H 9346   4.216   2.106  15.484 -0.9878 -1.0999 -1.8090
  631MPD2    H1 9347   4.041   1.885  15.805 -0.1539 -1.7009 -2.1120
  631MPD2    H2 9348   3.827   2.202  15.629 -1.1679 -2.1616 -1.5306
  631MPD2    H3 9349   3.836   2.003  15.777 -0.4589  0.0533 -1.1789
  631MPD2     N 9350   4.263   1.913  15.652 -0.0235  0.4669  0.1232
  631MPD2    H5 9351   4.334   1.952  15.591  1.1982  0.3653  1.4668
  631MPD2    N1 9352   4.007   2.278  15.461  0.5285  0.5790 -0.0454
  631MPD2    H7 9353   3.918   2.327  15.472  0.3862  0.5849 -1.1737
  632TMC3    C1 9354   4.043   2.450  15.325  0.2624 -0.6309 -0.1216
  632TMC3    C2 9355   3.982   2.536  15.411 -0.0653  0.1561 -0.0824
  632TMC3    C3 9356   3.923   2.645  15.360  0.5752  0.2135 -0.0127
  632TMC3    C4 9357   4.074   2.491  15.195 -0.0210  0.4601 -0.4879
  632TMC3    C5 9358   4.006   2.597  15.146  0.2560  0.5815 -0.5010
  632TMC3    C6 9359   3.928   2.675  15.228 -0.6464  0.0797  0.4027
  632TMC3     C 9360   4.100   2.331  15.373 -0.4113 -0.0513  0.3908
  632TMC3     O 9361   4.201   2.294  15.325 -0.1052  0.5888  0.0689
  632TMC3     H 9362   3.967   2.521  15.517 -3.2589  0.0759 -0.5404
  632TMC3    H1 9363   4.110   2.410  15.133  1.7026  0.2330  0.7904
  632TMC3    H2 9364   3.863   2.754  15.192 -2.4091  0.1282  3.7127
  632TMC3    C7 9365   3.962   2.592  15.011  0.0711 -0.6526 -0.0660
  632TMC3    C8 9366   3.820   2.704  15.449 -0.4885  0.4010  0.2397
  632TMC3    O1 9367   3.910   2.694  14.960  0.9266 -0.1672 -0.1946
  632TMC3    O2 9368   3.854   2.698  15.566  0.2951 -0.7323 -0.0078
  633MPD2     C 9369   3.350   0.425  17.420 -0.5997 -0.1600 -0.6911
  633MPD2    C1 9370   3.376   0.366  17.300  1.0718 -0.1832 -0.3090
  633MPD2    C2 9371   3.356   0.227  17.289 -0.1094  0.5713  0.1592
  633MPD2    C3 9372   3.315   0.162  17.399 -0.0839 -0.2515 -0.4523
  633MPD2    C4 9373   3.291   0.219  17.521 -0.1864 -0.1696 -0.4101
  633MPD2    C5 9374   3.312   0.360  17.534 -0.3932  0.3586 -0.4010
  633MPD2     H 9375   3.372   0.184  17.191 -0.6277  1.2024 -0.2012
  633MPD2    H1 9376   3.245   0.168  17.605  0.0716  1.5309  0.7662
  633MPD2    H2 9377   3.382   0.528  17.432 -0.4187  0.0268 -2.7328
  633MPD2    H3 9378   3.296   0.405  17.631  1.4664  1.2201 -0.4894
  633MPD2     N 9379   3.297   0.020  17.399  0.6791 -0.8903 -0.1466
  633MPD2    H5 9380   3.288   4.695  17.487 -0.5263  0.7556  0.6579
  633MPD2    N1 9381   3.435   0.437  17.187  0.0728 -0.3578 -0.1442
  633MPD2    H7 9382   3.465   0.375  17.113  1.8122  0.0928  0.1867
  634TMC3    C1 9383   3.512   0.619  17.040 -0.1535 -0.6630 -0.1845
  634TMC3    C2 9384   3.530   0.537  16.944  0.1652 -0.8512  0.6423
  634TMC3    C3 9385   3.531   0.574  16.814  0.3299 -0.1810 -0.2584
  634TMC3    C4 9386   3.491   0.752  17.014  0.4722  0.1716 -0.9599
  634TMC3    C5 9387   3.480   0.794  16.882  0.5142 -0.1883 -0.5243
  634TMC3    C6 9388   3.503   0.704  16.779 -0.0776 -0.1367 -0.4985
  634TMC3     C 9389   3.465   0.572  17.173  0.4919  0.3790 -0.4321
  634TMC3     O 9390   3.442   0.662  17.250  0.1288  0.5294 -0.6094
  634TMC3     H 9391   3.558   0.434  16.965  3.3989 -0.1422 -0.0644
  634TMC3    H1 9392   3.467   0.817  17.097  2.5443  1.5358 -1.4554
  634TMC3    H2 9393   3.483   0.731  16.676 -3.0832 -2.4813 -0.5202
  634TMC3    C7 9394   3.417   0.919  16.847  0.3855 -0.5017  0.2471
  634TMC3    C8 9395   3.551   0.475  16.713 -0.1308 -0.1472  0.4780
  634TMC3    O1 9396   3.419   0.952  16.727  0.9155 -0.6238 -0.3263
  634TMC3    O2 9397   3.541   0.358  16.742  0.3971 -0.4882 -0.0210
  635TMC3    C1 9398   4.688   1.655  17.370 -0.2191 -0.1966  0.6709
  635TMC3    C2 9399   4.704   1.617  17.237  0.4053  0.5738  0.2166
  635TMC3    C3 9400   0.090   1.549  17.202 -0.1645  0.4653  0.5428
  635TMC3    C4 9401   0.052   1.610  17.462  0.6538  0.5910 -0.1984
  635TMC3    C5 9402   0.167   1.543  17.426 -0.1919  0.2547 -0.4312
  635TMC3    C6 9403   0.187   1.506  17.295  0.0012 -0.0446  0.7666
  635TMC3     C 9404   4.569   1.731  17.416  0.4295  1.2443 -0.6024
  635TMC3     O 9405   4.559   1.770  17.533  0.2233 -0.8699  0.2882
  635TMC3     H 9406   4.640   1.658  17.160  1.7986  2.4628  0.0693
  635TMC3    H1 9407   0.034   1.649  17.562 -1.4558 -2.5053  0.6394
  635TMC3    H2 9408   0.277   1.465  17.252  0.1780  1.0662  0.0653
  635TMC3    C7 9409   0.271   1.489  17.516  0.1152  0.4922  0.0536
  635TMC3    C8 9410   0.114   1.512  17.058 -0.3634 -0.4355 -0.0515
  635TMC3    O1 9411   0.356   1.414  17.466 -0.4636  1.1061 -0.7016
  635TMC3    O2 9412   0.068   1.588  16.974  0.6293  0.0780  0.3365
  636MPD2     C 9413   4.692   0.493  15.947 -0.5401  0.0539  0.6698
  636MPD2    C1 9414   4.718   0.469  16.075 -0.9071 -0.5284  0.5652
  636MPD2    C2 9415   0.051   0.350  16.114  0.3101  1.0499 -0.3922
  636MPD2    C3 9416   0.087   0.257  16.027  0.2045  0.4317  0.2900
  636MPD2    C4 9417   0.066   0.287  15.892  0.6142  0.6569  0.0370
  636MPD2    C5 9418   0.000   0.400  15.854  0.4062  0.4039 -0.7086
  636MPD2     H 9419   0.091   0.339  16.214 -2.2599 -3.3780  0.1188
  636MPD2    H1 9420   0.087   0.217  15.812 -1.3288 -0.5771  0.6043
  636MPD2    H2 9421   4.654   0.590  15.918  2.0990  0.4175 -1.5757
  636MPD2    H3 9422   4.705   0.418  15.749 -1.1694  0.7432 -0.3471
  636MPD2     N 9423   0.145   0.139  16.074 -0.3165 -0.3197  0.1877
  636MPD2    H5 9424   0.162   0.124  16.173 -0.0163 -2.3137 -0.1573
  636MPD2    N1 9425   4.694   0.571  16.175  0.0733 -0.4068 -0.5554
  636MPD2    H7 9426   0.018   0.555  16.262  0.8194  0.7458 -0.7590
  637TMC3    C1 9427   0.257   4.652  16.079 -0.5699 -0.5175  1.1113
  637TMC3    C2 9428   0.211   4.656  16.205  0.2573  0.0646 -0.7403
  637TMC3    C3 9429   0.301   4.618  16.298 -0.1681  0.6517  0.0802
  637TMC3    C4 9430   0.389   4.624  16.047 -0.0581 -0.4031 -0.2956
  637TMC3    C5 9431   0.475   4.596  16.146 -0.2849 -0.5474 -0.2638
  637TMC3    C6 9432   0.432   4.571  16.278  0.4046 -0.4132  0.5137
  637TMC3     C 9433   0.196   0.036  15.998  0.3622 -0.3391 -0.0399
  637TMC3     O 9434   0.210   0.029  15.875 -0.0093 -0.0410  0.3874
  637TMC3     H 9435   0.108   4.678  16.232  0.1142 -0.9157 -0.4779
  637TMC3    H1 9436   0.425   4.628  15.945  0.1970  0.6692 -0.1712
  637TMC3    H2 9437   0.500   4.546  16.359 -1.0495  0.7498  2.0851
  637TMC3    C7 9438   0.567   4.707  16.165 -0.1146  0.4722 -0.1370
  637TMC3    C8 9439   0.296   4.710  16.412  0.9052 -0.4938 -0.6899
  637TMC3    O1 9440   0.612   0.001  16.279 -0.2551 -0.8018 -0.1223
  637TMC3    O2 9441   0.229   0.081  16.391  0.2036  0.1507  0.8872
  638MPD2     C 9442   4.588   4.191  15.244  0.2676  0.5579  0.0462
  638MPD2    C1 9443   4.553   4.067  15.193 -0.0965 -0.0711  0.3442
  638MPD2    C2 9444   4.485   3.985  15.278 -0.5564 -0.0857  0.6092
  638MPD2    C3 9445   4.449   4.021  15.407  0.3349 -0.3069  0.5449
  638MPD2    C4 9446   4.488   4.143  15.457 -0.5685 -0.2336 -0.0410
  638MPD2    C5 9447   4.557   4.226  15.370 -0.0808  0.4482 -0.6942
  638MPD2     H 9448   4.446   3.888  15.251  1.6136 -0.7799 -0.0338
  638MPD2    H1 9449   4.463   4.172  15.559 -0.1728  0.2904 -0.0959
  638MPD2    H2 9450   4.644   4.259  15.180 -0.4473  1.7803  0.7127
  638MPD2    H3 9451   4.590   4.322  15.407  0.7720  0.7716 -2.2955
  638MPD2     N 9452   4.368   3.936  15.485 -0.1514  0.5190 -0.1124
  638MPD2    H5 9453   4.366   3.936  15.586 -0.0907 -1.2588 -0.1049
  638MPD2    N1 9454   4.592   4.024  15.065  0.0359  0.0963 -0.3866
  638MPD2    H7 9455   4.640   4.092  15.008 -4.5622  1.6814 -2.3106
  639TMC3    C1 9456   4.253   3.718  15.502 -0.7821  0.0374 -0.2913
  639TMC3    C2 9457   4.166   3.631  15.435 -1.3839  0.2864 -0.0518
  639TMC3    C3 9458   4.210   3.510  15.399 -0.0696 -0.1572 -0.0633
  639TMC3    C4 9459   4.373   3.667  15.557  0.1410  0.7911  0.4606
  639TMC3    C5 9460   4.403   3.541  15.526 -0.9885  0.1030  0.4843
  639TMC3    C6 9461   4.335   3.469  15.436 -0.5744 -0.1089 -0.0930
  639TMC3     C 9462   4.276   3.843  15.430 -0.2141 -0.1610  0.2467
  639TMC3     O 9463   4.235   3.854  15.319  0.1898 -0.0698 -0.3657
  639TMC3     H 9464   4.071   3.665  15.396 -1.5001 -0.3550 -0.3321
  639TMC3    H1 9465   4.451   3.726  15.604  0.2703  0.5623  0.5313
  639TMC3    H2 9466   4.366   3.372  15.400 -2.2323 -0.3654 -0.8462
  639TMC3    C7 9467   4.541   3.508  15.544  0.0007 -0.9078  1.0537
  639TMC3    C8 9468   4.130   3.430  15.310  0.6746  0.0646 -0.0127
  639TMC3    O1 9469   4.583   3.519  15.661  0.2074 -0.1397  0.1931
  639TMC3    O2 9470   4.197   3.360  15.231  0.6053  0.3891  0.1876
  640MPD2     C 9471   1.519   2.674   9.432 -0.3044  0.3796  0.3010
  640MPD2    C1 9472   1.426   2.577   9.473 -0.3613  0.1108  0.3562
  640MPD2    C2 9473   1.306   2.612   9.526 -0.5036  0.2594 -0.6674
  640MPD2    C3 9474   1.262   2.743   9.528 -0.5335 -0.2179  0.1962
  640MPD2    C4 9475   1.349   2.840   9.483 -0.0178 -0.1507  0.6780
  640MPD2    C5 9476   1.475   2.803   9.436  0.0029 -0.0403 -0.5403
  640MPD2     H 9477   1.238   2.533   9.557  2.2095 -1.6079  0.4817
  640MPD2    H1 9478   1.305   2.939   9.484  1.2254  0.3642  3.7658
  640MPD2    H2 9479   1.619   2.655   9.396 -0.9236 -0.5769 -0.9271
  640MPD2    H3 9480   1.539   2.886   9.411 -1.5723  1.1295 -0.6473
  640MPD2     N 9481   1.137   2.792   9.587  0.3895 -0.4194 -0.6121
  640MPD2    H5 9482   1.131   2.893   9.594 -1.2813 -0.5101 -0.6821
  640MPD2    N1 9483   1.474   2.442   9.469  0.3261 -0.2698  0.8251
  640MPD2    H7 9484   1.564   2.431   9.424  1.2168  1.1762  2.2846
  641TMC3    C1 9485   1.502   2.210   9.528  0.5192 -0.2542  0.1048
  641TMC3    C2 9486   1.449   2.096   9.581  0.5471  0.0309  0.4358
  641TMC3    C3 9487   1.534   2.010   9.640 -0.0098  0.5360  0.1698
  641TMC3    C4 9488   1.635   2.223   9.512 -0.5256 -0.3130  0.1321
  641TMC3    C5 9489   1.717   2.123   9.558  0.6204 -0.1660 -0.1768
  641TMC3    C6 9490   1.670   2.014   9.624  0.1400 -0.0690  0.3309
  641TMC3     C 9491   1.413   2.328   9.516  0.1377  0.2463 -0.2861
  641TMC3     O 9492   1.291   2.321   9.533  0.4810  0.3610 -0.1736
  641TMC3     H 9493   1.345   2.097   9.610  0.2897 -0.4443 -0.4840
  641TMC3    H1 9494   1.680   2.315   9.474  1.8678 -1.4796  0.1473
  641TMC3    H2 9495   1.734   1.936   9.664  0.1462 -1.1911 -1.8778
  641TMC3    C7 9496   1.852   2.148   9.533 -0.5670 -0.1298 -0.5566
  641TMC3    C8 9497   1.477   1.910   9.727  0.0532 -0.3821 -0.1486
  641TMC3    O1 9498   1.886   2.264   9.506  0.5386 -0.1921  0.1255
  641TMC3    O2 9499   1.359   1.886   9.707  0.0760  0.4898  0.0514
  642TMC3    C1 9500   1.588   3.745  12.781  0.7886 -0.2718 -0.7413
  642TMC3    C2 9501   1.655   3.832  12.698 -0.9459  0.1805  0.1056
  642TMC3    C3 9502   1.661   3.797  12.570  0.2749 -0.0672 -0.1710
  642TMC3    C4 9503   1.521   3.638  12.737  0.2688  0.0021  1.0007
  642TMC3    C5 9504   1.525   3.607  12.611 -0.2504  0.8577  0.8478
  642TMC3    C6 9505   1.602   3.680  12.526  0.8218  0.3616 -0.0352
  642TMC3     C 9506   1.514   3.824  12.874  0.0859 -0.2525 -1.1065
  642TMC3     O 9507   1.567   3.919  12.928 -0.8950  0.7910 -0.4893
  642TMC3     H 9508   1.689   3.929  12.733 -2.1647  0.3321  0.8544
  642TMC3    H1 9509   1.462   3.573  12.800 -2.2412  0.1263 -1.2166
  642TMC3    H2 9510   1.608   3.660  12.419 -1.7109 -1.5798  0.1905
  642TMC3    C7 9511   1.474   3.481  12.548  0.7099  0.5656  0.3501
  642TMC3    C8 9512   1.791   3.823  12.512 -0.0898  0.1754  0.6802
  642TMC3    O1 9513   1.457   3.495  12.428 -0.0458 -0.3087  0.2571
  642TMC3    O2 9514   1.808   3.816  12.393 -0.0085  0.2674  0.0611
  643TMC3    C1 9515   1.004   3.381   0.260 -0.2651 -0.1998  0.0749
  643TMC3    C2 9516   0.892   3.394   0.189 -0.1289 -0.5326  0.1139
  643TMC3    C3 9517   0.828   3.288   0.127 -0.0564 -0.0545 -0.5577
  643TMC3    C4 9518   1.082   3.272   0.238 -0.1075  0.2052  0.3249
  643TMC3    C5 9519   1.022   3.167   0.179  0.5781 -0.2080  0.3910
  643TMC3    C6 9520   0.892   3.171   0.137 -0.3059  0.4147  0.0336
  643TMC3     C 9521   1.049   3.494   0.337  0.1954  0.6487 -0.1857
  643TMC3     O 9522   0.995   3.602   0.309 -0.2435  0.1166  0.3844
  643TMC3     H 9523   0.834   3.485   0.201 -3.1693 -2.4915  0.5499
  643TMC3    H1 9524   1.175   3.256   0.290 -1.1543  0.6473  2.3208
  643TMC3    H2 9525   0.852   3.083   0.089  0.8052 -1.4675  2.5667
  643TMC3    C7 9526   1.088   3.043   0.182  0.1966  0.5156 -0.1284
  643TMC3    C8 9527   0.789   3.307  17.684 -0.0402  0.9523  0.1109
  643TMC3    O1 9528   1.154   3.020   0.285 -0.2036 -0.1776  0.0411
  643TMC3    O2 9529   0.780   3.209  17.616 -0.1093 -0.8053 -0.7483
  644MPD2     C 9530   1.165   3.401   9.843 -0.2343 -0.1762 -0.3711
  644MPD2    C1 9531   1.220   3.351   9.730  0.3774  0.3929  0.5230
  644MPD2    C2 9532   1.192   3.416   9.614 -0.5501  0.6123 -0.0202
  644MPD2    C3 9533   1.130   3.538   9.610 -0.3182 -0.0890  0.0009
  644MPD2    C4 9534   1.071   3.570   9.733 -0.2289  0.1848  0.6043
  644MPD2    C5 9535   1.085   3.512   9.854  0.4899  0.7079 -0.1589
  644MPD2     H 9536   1.225   3.370   9.521 -0.4095 -1.8595  1.2625
  644MPD2    H1 9537   1.013   3.661   9.746 -2.7638 -1.0077 -2.4639
  644MPD2    H2 9538   1.184   3.351   9.937  1.9492 -1.8223 -1.6852
  644MPD2    H3 9539   1.051   3.551   9.950 -1.4562 -1.0745 -0.1204
  644MPD2     N 9540   1.103   3.607   9.490  0.3798 -0.5388  0.2165
  644MPD2    H5 9541   1.118   3.561   9.401 -1.7391 -0.2515 -0.2753
  644MPD2    N1 9542   1.300   3.239   9.736  0.5919 -0.4365  0.6444
  644MPD2    H7 9543   1.325   3.199   9.826 -2.7905  0.0791  1.8022
  645TMC3    C1 9544   1.042   3.795   9.358  0.5542  0.7361  0.2523
  645TMC3    C2 9545   1.073   3.930   9.333  0.3378  0.1082 -0.4559
  645TMC3    C3 9546   1.017   3.977   9.217 -0.9764  0.5350 -0.0107
  645TMC3    C4 9547   0.976   3.713   9.270 -0.5001 -0.8739  0.2004
  645TMC3    C5 9548   0.939   3.773   9.151 -0.6513 -0.5153  0.4311
  645TMC3    C6 9549   0.973   3.902   9.118  0.4898 -0.7020 -0.1232
  645TMC3     C 9550   1.082   3.745   9.486  0.3100 -0.2204 -0.0280
  645TMC3     O 9551   1.100   3.826   9.575  0.1839  0.3636 -0.4883
  645TMC3     H 9552   1.119   3.986   9.414 -2.2634  0.7677  0.5553
  645TMC3    H1 9553   0.949   3.611   9.299  0.2484 -1.2646 -0.4764
  645TMC3    H2 9554   0.934   3.951   9.029  0.8746 -1.5719 -0.7628
  645TMC3    C7 9555   0.850   3.695   9.065 -0.1934  0.4641 -0.6022
  645TMC3    C8 9556   1.067   4.103   9.166 -0.7005 -0.4141  0.7080
  645TMC3    O1 9557   0.775   3.759   8.998  0.2476 -0.0144 -0.6845
  645TMC3    O2 9558   1.012   4.152   9.066 -0.0977  0.7204 -0.1873
  646MPD2     C 9559   4.375   2.515  14.850 -0.5494  0.5264 -0.8502
  646MPD2    C1 9560   4.353   2.606  14.946 -0.1723 -0.4745 -0.2966
  646MPD2    C2 9561   4.256   2.704  14.933  0.1449  0.4752 -0.2977
  646MPD2    C3 9562   4.184   2.710  14.815  0.4133  0.1629 -0.3690
  646MPD2    C4 9563   4.204   2.612  14.724  0.6409 -0.6011  0.8511
  646MPD2    C5 9564   4.302   2.517  14.737  0.4601 -0.0608 -0.4442
  646MPD2     H 9565   4.231   2.781  15.005 -0.4455 -0.1661  0.1850
  646MPD2    H1 9566   4.141   2.611  14.636  1.1556  0.8378  0.4703
  646MPD2    H2 9567   4.452   2.442  14.871 -3.1035 -2.6398 -2.4433
  646MPD2    H3 9568   4.323   2.440  14.664 -0.1182  0.6420 -1.3542
  646MPD2     N 9569   4.109   2.827  14.788 -0.0828  0.0906 -0.0141
  646MPD2    H5 9570   4.091   2.892  14.863  1.2604  1.7633 -1.1210
  646MPD2    N1 9571   4.432   2.587  15.065  0.6092  0.1318  0.0436
  646MPD2    H7 9572   4.510   2.521  15.063  0.1068 -0.4455 -0.6625
  647TMC3    C1 9573   4.518   2.649  15.273  0.5755 -0.1855 -0.0679
  647TMC3    C2 9574   4.490   2.656  15.408 -0.1337 -0.4409  0.1335
  647TMC3    C3 9575   4.601   2.649  15.487 -0.8348  0.4215 -0.5143
  647TMC3    C4 9576   4.644   2.632  15.218 -0.3101  0.2165 -0.6303
  647TMC3    C5 9577   0.024   2.635  15.313  0.0019 -0.8814 -0.0535
  647TMC3    C6 9578   4.724   2.651  15.441 -0.8497  0.5518 -0.1332
  647TMC3     C 9579   4.407   2.660  15.181 -0.3303  0.3202 -0.0122
  647TMC3     O 9580   4.319   2.736  15.211  0.0185  0.2834  0.4518
  647TMC3     H 9581   4.391   2.651  15.451 -0.8634 -1.0153 -1.6314
  647TMC3    H1 9582   4.666   2.638  15.112  1.0501  0.3102 -0.3449
  647TMC3    H2 9583   0.077   2.666  15.514  0.1952 -1.5470 -0.8125
  647TMC3    C7 9584   0.158   2.590  15.278  0.6715 -0.2784 -0.0926
  647TMC3    C8 9585   4.590   2.610  15.622  0.1223  1.5856 -0.3682
  647TMC3    O1 9586   0.237   2.601  15.371 -0.8666 -0.1365  0.1188
  647TMC3    O2 9587   4.483   2.631  15.678 -0.7608  0.9586  0.0543
  648TMC3    C1 9588   3.977   0.667  16.186  0.2011  0.1238 -0.2858
  648TMC3    C2 9589   4.032   0.554  16.132 -0.1913 -0.3927  0.6420
  648TMC3    C3 9590   4.010   0.544  15.993 -0.2955 -0.3658 -0.0469
  648TMC3    C4 9591   3.898   0.757  16.110  0.5016  0.6927  0.0286
  648TMC3    C5 9592   3.870   0.729  15.977 -0.0230 -0.8158 -0.3729
  648TMC3    C6 9593   3.925   0.615  15.926 -0.1468  0.7885 -0.3235
  648TMC3     C 9594   3.962   0.687  16.333  0.4457  0.0892  0.3558
  648TMC3     O 9595   3.941   0.800  16.377 -0.1995  0.3806  0.1721
  648TMC3     H 9596   4.087   0.481  16.190  1.0281  0.4975  0.5989
  648TMC3    H1 9597   3.857   0.839  16.169 -0.8354  1.2086 -1.5967
  648TMC3    H2 9598   3.914   0.587  15.822 -0.2369 -0.7279  0.1013
  648TMC3    C7 9599   3.760   0.795  15.904  0.0431  1.0377  0.7731
  648TMC3    C8 9600   4.020   0.407  15.950 -0.4443  0.5833  0.0274
  648TMC3    O1 9601   3.688   0.718  15.838 -0.0515  0.2231  0.2668
  648TMC3    O2 9602   3.925   0.352  15.902  0.0825 -0.8876 -0.4161
  649TMC3    C1 9603   2.760   1.003  13.171  0.0213 -1.0870  0.5051
  649TMC3    C2 9604   2.858   1.090  13.216 -0.0707  0.0938 -0.3532
  649TMC3    C3 9605   2.948   1.034  13.298 -0.0006  0.2459  0.0152
  649TMC3    C4 9606   2.760   0.871  13.191 -0.6905  0.1189 -0.2038
  649TMC3    C5 9607   2.853   0.820  13.276  0.6528  0.9435  0.2727
  649TMC3    C6 9608   2.947   0.901  13.338 -0.5393  0.3999 -0.0814
  649TMC3     C 9609   2.658   1.064  13.089  0.2930  0.3137 -0.2648
  649TMC3     O 9610   2.672   1.184  13.067 -0.4531  0.0624 -0.8774
  649TMC3     H 9611   2.872   1.188  13.170 -0.7294 -0.9140 -2.7138
  649TMC3    H1 9612   2.711   0.805  13.120 -3.1679  1.2392  0.4374
  649TMC3    H2 9613   3.033   0.854  13.384 -1.0474  1.3467  1.8473
  649TMC3    C7 9614   2.786   0.714  13.347 -0.0584 -0.6367 -0.1410
  649TMC3    C8 9615   3.064   1.111  13.324 -0.0961  0.3045  0.0200
  649TMC3    O1 9616   2.700   0.656  13.282  0.0311  0.3422 -0.3556
  649TMC3    O2 9617   3.104   1.196  13.250 -0.3133 -0.1140  0.0863
  650TMC3    C1 9618   0.849   2.876  13.100  0.8467 -0.7416  0.1115
  650TMC3    C2 9619   0.798   2.989  13.048 -0.8743  0.3844  0.0158
  650TMC3    C3 9620   0.685   2.986  12.980 -0.3987 -0.8986 -0.6175
  650TMC3    C4 9621   0.785   2.758  13.079 -0.0152 -0.6996 -0.3923
  650TMC3    C5 9622   0.677   2.755  12.996  0.8202 -0.1848 -0.5618
  650TMC3    C6 9623   0.625   2.873  12.941 -1.1274  0.1159  0.2388
  650TMC3     C 9624   0.991   2.869  13.102 -0.0327  0.2851 -0.0685
  650TMC3     O 9625   1.052   2.970  13.137  0.1644  0.3454  0.0335
  650TMC3     H 9626   0.856   3.080  13.048  0.0309 -0.1843  1.9214
  650TMC3    H1 9627   0.824   2.666  13.121  0.6200  0.3664  1.3356
  650TMC3    H2 9628   0.529   2.865  12.893 -0.2111  1.1719 -1.7392
  650TMC3    C7 9629   0.705   2.654  12.896 -0.6705  0.5623  0.2236
  650TMC3    C8 9630   0.640   3.110  12.912  0.1255 -0.0617  0.4460
  650TMC3    O1 9631   0.816   2.602  12.899 -0.1847 -0.8743 -0.2445
  650TMC3    O2 9632   0.726   3.188  12.882  0.1549  0.3798  0.0251
  651MPD2     C 9633   4.618   4.100  10.607 -0.2878 -0.4569 -0.3953
  651MPD2    C1 9634   4.595   4.232  10.635 -0.8624 -0.1314 -0.9221
  651MPD2    C2 9635   4.650   4.329  10.550 -0.3958 -0.5712 -0.0909
  651MPD2    C3 9636   4.706   4.301  10.430  0.1873 -0.2092  0.2073
  651MPD2    C4 9637   4.725   4.168  10.401 -0.0426  0.7749  0.0755
  651MPD2    C5 9638   4.684   4.070  10.490  0.7149  1.3075  0.1060
  651MPD2     H 9639   4.638   4.435  10.569  1.1880 -0.1585 -1.3823
  651MPD2    H1 9640   0.057   4.133  10.316  0.4020  1.5670  0.0479
  651MPD2    H2 9641   4.590   4.027  10.682  2.4698 -3.1163 -1.9724
  651MPD2    H3 9642   4.692   3.966  10.462  0.0355  0.6972  2.1371
  651MPD2     N 9643   0.032   4.408  10.348 -0.3998  0.2245  0.7356
  651MPD2    H5 9644   0.012   4.503  10.375  1.9282  0.1293  2.7533
  651MPD2    N1 9645   4.567   4.281  10.758  0.1729 -0.4337 -0.0791
  651MPD2    H7 9646   4.581   4.380  10.777 -0.8028 -0.6893  1.8925
  652TMC3    C1 9647   0.336   4.687  10.210  0.0398  0.4797 -0.3965
  652TMC3    C2 9648   0.292   4.560  10.191  0.4880  0.3783 -0.4842
  652TMC3    C3 9649   0.164   4.530  10.192  0.2483 -0.2402  0.0974
  652TMC3    C4 9650   0.244   0.060  10.242  0.5797  0.4956  0.3125
  652TMC3    C5 9651   0.116   0.022  10.261 -0.3565  0.1386 -0.3808
  652TMC3    C6 9652   0.075   4.625  10.218  0.1811 -0.3685 -0.1211
  652TMC3     C 9653   0.475   4.706  10.248 -0.5184  0.4571 -0.5081
  652TMC3     O 9654   0.538   4.614  10.298 -0.9081  0.0510 -0.1372
  652TMC3     H 9655   0.365   4.485  10.161  1.6113  0.4550  2.0980
  652TMC3    H1 9656   0.270   0.164  10.257 -0.2383  0.7410 -0.0031
  652TMC3    H2 9657   4.693   4.603  10.221 -0.1131  1.1009 -0.0428
  652TMC3    C7 9658   0.075   0.047  10.396  0.9210  0.0355  0.4420
  652TMC3    C8 9659   0.127   4.396  10.247  0.0912 -0.4674  0.1698
  652TMC3    O1 9660   0.029   4.675  10.449 -0.1243 -0.3480  0.3919
  652TMC3    O2 9661   0.198   4.301  10.212  0.4145  0.4856 -0.0502
  653MPD2     C 9662   3.098   0.464   0.176  0.6105  0.6387  0.1443
  653MPD2    C1 9663   3.106   0.580   0.091 -0.0815  0.0399  0.4040
  653MPD2    C2 9664   3.066   0.580  17.665 -0.1857 -0.3199  0.2307
  653MPD2    C3 9665   3.021   0.462  17.612  0.1513  0.9443  0.2784
  653MPD2    C4 9666   3.002   0.352  17.687 -0.0429  0.0657  0.2926
  653MPD2    C5 9667   3.038   0.350   0.116  0.0650 -0.1419  0.2441
  653MPD2     H 9668   3.069   0.673  17.609  0.3813 -1.3944 -1.5454
  653MPD2    H1 9669   2.963   0.262  17.642  1.4424 -0.5468  0.2272
  653MPD2    H2 9670   3.142   0.453   0.274 -0.1502  3.0250  0.7520
  653MPD2    H3 9671   3.024   0.254   0.165 -2.3347  0.7266  1.2503
  653MPD2     N 9672   2.987   0.463  17.477  0.6923  0.6369  0.0368
  653MPD2    H5 9673   3.014   0.543  17.421 -2.0257  0.9468 -0.8077
  653MPD2    N1 9674   3.153   0.696   0.151 -0.4505  0.8145  0.1784
  653MPD2    H7 9675   3.134   0.778   0.094  1.6043  0.5675 -0.8680
  654TMC3    C1 9676   2.937   0.359  17.266 -0.1001 -0.1333  0.4139
  654TMC3    C2 9677   2.859   0.458  17.223  0.0484  0.1606  0.4362
  654TMC3    C3 9678   2.806   0.450  17.095 -0.1472  0.1442 -0.4593
  654TMC3    C4 9679   2.966   0.248  17.197 -1.3121  0.2287  0.5926
  654TMC3    C5 9680   2.922   0.240  17.069 -0.7971  0.3341 -0.3738
  654TMC3    C6 9681   2.850   0.344  17.012 -0.6388 -0.1537  0.4057
  654TMC3     C 9682   2.975   0.353  17.407  0.2599  0.1801  0.3266
  654TMC3     O 9683   3.010   0.242  17.443 -0.3139 -0.0880  0.1626
  654TMC3     H 9684   2.819   0.534  17.289 -3.0185 -0.7207 -0.4163
  654TMC3    H1 9685   3.034   0.173  17.235 -0.3127 -0.6181 -2.9256
  654TMC3    H2 9686   2.815   0.347  16.909  2.4270 -0.6317 -0.6464
  654TMC3    C7 9687   2.931   0.114  16.998 -0.3250  0.8043  0.8049
  654TMC3    C8 9688   2.668   0.493  17.078  0.1898 -0.0002 -0.7112
  654TMC3    O1 9689   2.910   0.118  16.877  0.3199  0.9460 -0.0086
  654TMC3    O2 9690   2.615   0.536  17.177 -0.0778 -0.1502 -0.4014
  655MPD2     C 9691   4.328   0.721  15.821  0.5010 -0.3174 -0.0811
  655MPD2    C1 9692   4.298   0.827  15.742  0.3041 -0.4126 -0.4622
  655MPD2    C2 9693   4.305   0.813  15.603  0.0360 -0.1373 -0.4367
  655MPD2    C3 9694   4.354   0.694  15.546  0.3803  0.5244  0.4007
  655MPD2    C4 9695   4.394   0.595  15.633 -0.1835 -0.7687  0.1238
  655MPD2    C5 9696   4.374   0.604  15.767  0.5945  0.6348  0.5971
  655MPD2     H 9697   4.272   0.900  15.548 -1.0303 -0.2871 -0.0297
  655MPD2    H1 9698   4.438   0.506  15.588  2.2291 -0.2806  1.5584
  655MPD2    H2 9699   4.312   0.721  15.928  2.6681 -0.6216  0.2428
  655MPD2    H3 9700   4.411   0.524  15.829 -0.7007  0.4527  1.1224
  655MPD2     N 9701   4.355   0.666  15.404 -0.2922 -0.9283  0.3396
  655MPD2    H5 9702   4.392   0.576  15.373 -0.0038 -0.8452  0.4489
  655MPD2    N1 9703   4.229   0.942  15.794 -0.3959  0.0020  0.2827
  655MPD2    H7 9704   4.206   1.014  15.727  0.0138  0.7989  1.0025
  656TMC3    C1 9705   4.153   1.107  15.951  0.3197  0.4100  0.5280
  656TMC3    C2 9706   4.125   1.125  16.078 -0.3658 -0.1149  0.0857
  656TMC3    C3 9707   4.034   1.220  16.112  0.5043 -0.9236  0.0189
  656TMC3    C4 9708   4.075   1.165  15.851  0.2295  0.9097  0.1641
  656TMC3    C5 9709   3.973   1.245  15.884 -0.5209 -0.3211 -0.6885
  656TMC3    C6 9710   3.956   1.276  16.016  0.5953 -0.1044 -0.0248
  656TMC3     C 9711   4.215   0.972  15.932 -0.0099  0.3951  0.6453
  656TMC3     O 9712   4.253   0.906  16.029 -0.4131  0.7840  0.0236
  656TMC3     H 9713   4.179   1.068  16.153 -0.7633  1.1446  1.3263
  656TMC3    H1 9714   4.071   1.125  15.750  1.5658 -1.5392  1.0774
  656TMC3    H2 9715   3.858   1.295  16.059  0.4028  0.2313 -0.6223
  656TMC3    C7 9716   3.856   1.243  15.786  0.2913 -0.3601  0.1414
  656TMC3    C8 9717   3.939   1.160  16.202  0.3868  0.3127  0.0132
  656TMC3    O1 9718   3.868   1.154  15.703 -0.1430 -0.1817  0.0498
  656TMC3    O2 9719   3.898   1.051  16.168  0.5973 -0.1374  0.1670
  657TMC3    C1 9720   3.383   4.593  14.874  0.4464  0.3779  0.0219
  657TMC3    C2 9721   3.368   4.663  14.995  0.7640  0.2515  0.4115
  657TMC3    C3 9722   3.245   4.714  15.021  0.1978  0.2141  0.0904
  657TMC3    C4 9723   3.287   4.592  14.781  0.0450 -0.5529  0.0538
  657TMC3    C5 9724   3.174   4.662  14.810 -0.4849  0.5810 -0.0112
  657TMC3    C6 9725   3.146   4.711  14.932  0.2027 -0.4095 -0.6074
  657TMC3     C 9726   3.518   4.565  14.826 -0.8020  0.1837 -0.5597
  657TMC3     O 9727   3.535   4.583  14.705 -0.3042 -0.3332  0.0384
  657TMC3     H 9728   3.447   4.653  15.068  2.2909 -0.6783 -1.3763
  657TMC3    H1 9729   3.305   4.551  14.683  2.2633 -1.3603  0.7836
  657TMC3    H2 9730   3.056   0.038  14.963  1.6382  1.3118  0.7463
  657TMC3    C7 9731   3.083   4.705  14.698  0.6402 -0.3264  0.2075
  657TMC3    C8 9732   3.231   0.080  15.125  0.3120  0.0356  0.1700
  657TMC3    O1 9733   3.083   4.634  14.600  0.5751  0.0988  0.0144
  657TMC3    O2 9734   3.120   0.124  15.153  0.0277 -0.5031  0.8535
  658MPD2     C 9735   4.624   1.090  14.798  0.7786 -0.2980 -0.3051
  658MPD2    C1 9736   4.535   0.995  14.752  0.8913  0.0837  0.0226
  658MPD2    C2 9737   4.506   0.980  14.618  0.0876  0.4531  0.2139
  658MPD2    C3 9738   4.586   1.053  14.530  0.2717 -0.1454  0.9819
  658MPD2    C4 9739   4.686   1.140  14.574 -0.4737 -0.6027 -0.8318
  658MPD2    C5 9740   4.701   1.158  14.708  0.0991  0.0070  0.5609
  658MPD2     H 9741   4.439   0.907  14.575 -0.3281 -0.7660  2.9029
  658MPD2    H1 9742   0.024   1.188  14.501 -1.1476  1.6921  0.0946
  658MPD2    H2 9743   4.627   1.100  14.906 -0.5825 -0.7678 -0.2296
  658MPD2    H3 9744   0.052   1.225  14.749 -0.7541  1.3003  0.0292
  658MPD2     N 9745   4.555   1.044  14.392  0.1587  0.0741  0.5510
  658MPD2    H5 9746   4.473   0.989  14.366  0.8135 -1.3376  1.5168
  658MPD2    N1 9747   4.469   0.921  14.854 -0.5307 -0.5001  0.1037
  658MPD2    H7 9748   4.470   0.951  14.951  0.6022  1.0784 -0.4135
  659TMC3    C1 9749   4.356   0.732  14.951  0.7031  0.2142  1.2303
  659TMC3    C2 9750   4.381   0.781  15.076  0.2515 -0.2177  0.0607
  659TMC3    C3 9751   4.339   0.702  15.183  0.0926 -0.4196 -0.1046
  659TMC3    C4 9752   4.273   0.628  14.929 -0.0848 -0.4198  0.0677
  659TMC3    C5 9753   4.227   0.554  15.031 -0.8503  0.6206  0.3600
  659TMC3    C6 9754   4.263   0.583  15.165 -0.5016  0.5202 -0.1319
  659TMC3     C 9755   4.413   0.794  14.832 -0.2694 -0.0827 -0.0416
  659TMC3     O 9756   4.421   0.729  14.729  0.1026 -0.0174  0.7561
  659TMC3     H 9757   4.446   0.867  15.091 -0.2767 -0.2271  2.3674
  659TMC3    H1 9758   4.250   0.597  14.828  3.2376  0.1771 -0.8912
  659TMC3    H2 9759   4.205   0.534  15.243  0.1208 -2.6722 -1.6632
  659TMC3    C7 9760   4.107   0.482  15.014  0.0462 -0.1392  0.9464
  659TMC3    C8 9761   4.329   0.758  15.310 -0.2858  0.2362 -0.2619
  659TMC3    O1 9762   4.007   0.507  15.078 -0.2878  0.2282 -0.5383
  659TMC3    O2 9763   4.332   0.877  15.311  0.1236  0.5937 -0.0651
  660MPD2     C 9764   2.520   4.041  13.020 -0.2427  0.5449 -0.5237
  660MPD2    C1 9765   2.403   4.096  12.962 -0.0131 -0.4287  0.0094
  660MPD2    C2 9766   2.285   4.075  13.038 -0.6594 -0.7883 -0.4148
  660MPD2    C3 9767   2.279   3.998  13.149 -0.8408 -0.1943 -0.1266
  660MPD2    C4 9768   2.389   3.940  13.195 -0.4295 -0.4248  0.3357
  660MPD2    C5 9769   2.508   3.955  13.128 -0.3940 -0.5845  0.2160
  660MPD2     H 9770   2.190   4.114  13.005 -0.2735  1.0464  0.6275
  660MPD2    H1 9771   2.390   3.877  13.283 -0.3745 -1.2908 -0.2820
  660MPD2    H2 9772   2.618   4.055  12.977  0.0755 -1.1845 -0.3426
  660MPD2    H3 9773   2.600   3.926  13.177 -1.0596  2.2560  3.1402
  660MPD2     N 9774   2.161   3.977  13.222  0.7105  0.1303  0.0680
  660MPD2    H5 9775   2.173   3.931  13.312 -0.9113  1.6620  1.0614
  660MPD2    N1 9776   2.403   4.173  12.844  0.5043 -0.3331  0.1392
  660MPD2    H7 9777   2.466   4.139  12.772  1.6777  3.5152 -0.6728
  661TMC3    C1 9778   2.281   4.272  12.673  0.2061  0.2944 -0.0150
  661TMC3    C2 9779   2.383   4.296  12.584  0.1130  0.4657  0.1309
  661TMC3    C3 9780   2.348   4.332  12.457  0.1528  0.0427  0.2111
  661TMC3    C4 9781   2.154   4.307  12.646  0.2688  0.6836  0.3060
  661TMC3    C5 9782   2.125   4.351  12.517  0.3334 -0.4610  0.2019
  661TMC3    C6 9783   2.226   4.364  12.423 -0.4476 -0.4972  0.2324
  661TMC3     C 9784   2.310   4.267  12.817 -0.5357 -0.5013  0.8989
  661TMC3     O 9785   2.246   4.327  12.901  0.5808  0.0286  0.0802
  661TMC3     H 9786   2.481   4.261  12.615 -0.9689  0.0987  3.1557
  661TMC3    H1 9787   2.077   4.288  12.720 -1.4408 -0.6584 -1.8099
  661TMC3    H2 9788   2.199   4.403  12.326  1.3056  1.0552  0.3737
  661TMC3    C7 9789   2.012   4.282  12.459  0.6709  0.3434  0.0382
  661TMC3    C8 9790   2.425   4.296  12.331  0.6545  0.6530  0.6410
  661TMC3    O1 9791   2.041   4.230  12.354  0.3607 -0.1680 -0.0732
  661TMC3    O2 9792   2.488   4.188  12.321 -0.7419 -0.0236  0.1157
  662MPD2     C 9793   3.325   3.592  17.259  0.1432 -0.2581  0.1261
  662MPD2    C1 9794   3.316   3.644  17.386  0.5563  0.0227 -0.2370
  662MPD2    C2 9795   3.243   3.762  17.403  0.4432  0.0993 -0.2800
  662MPD2    C3 9796   3.177   3.817  17.293  0.5426  0.6784 -0.5810
  662MPD2    C4 9797   3.183   3.760  17.169 -0.3636  0.6339  0.2928
  662MPD2    C5 9798   3.261   3.647  17.155 -0.3241 -0.0241  0.0978
  662MPD2     H 9799   3.210   3.789  17.502 -1.2037  1.6480 -1.2590
  662MPD2    H1 9800   3.122   3.802  17.090 -0.4014 -1.3488 -0.7241
  662MPD2    H2 9801   3.366   3.492  17.247 -4.1372 -1.9102 -1.0400
  662MPD2    H3 9802   3.257   3.600  17.057  1.1189  0.9004 -0.4136
  662MPD2     N 9803   3.075   3.913  17.304 -0.2143  0.1158  0.2062
  662MPD2    H5 9804   3.012   3.919  17.224 -1.0121 -0.4350  0.7899
  662MPD2    N1 9805   3.379   3.594  17.499  0.3397  0.0556 -0.3312
  662MPD2    H7 9806   3.393   3.661  17.573 -1.0660  1.4202 -1.3044
  663TMC3    C1 9807   3.399   3.443  17.666 -0.4709  0.6829  0.1807
  663TMC3    C2 9808   3.430   3.558   0.031 -0.2338  0.2781  0.4422
  663TMC3    C3 9809   3.346   3.586   0.141 -1.0211  0.3705 -0.2433
  663TMC3    C4 9810   3.294   3.354   0.004 -0.6769  0.3512  0.3655
  663TMC3    C5 9811   3.222   3.388   0.107 -0.3643  0.1133 -0.5603
  663TMC3    C6 9812   3.238   3.512   0.172  0.3320 -0.1941  0.0835
  663TMC3     C 9813   3.395   3.460  17.518  0.1480 -0.5371 -0.0190
  663TMC3     O 9814   3.360   3.359  17.460 -1.0548 -0.4561  0.1332
  663TMC3     H 9815   3.535   3.587   0.030  0.2857 -1.6286  0.0940
  663TMC3    H1 9816   3.288   3.263  17.648  1.6718 -0.1088  0.8488
  663TMC3    H2 9817   3.186   3.529   0.266  1.8448 -0.5807  0.9861
  663TMC3    C7 9818   3.118   3.301   0.152 -0.2207  0.2167 -0.5595
  663TMC3    C8 9819   3.315   3.723   0.120 -0.3412 -0.7327  0.5371
  663TMC3    O1 9820   3.089   3.295   0.270  0.2640 -0.2709  0.0222
  663TMC3    O2 9821   3.400   3.779   0.050  0.0813 -0.0177  0.1861
  664MPD2     C 9822   0.951   2.326  17.511  0.0501 -0.2059  0.1838
  664MPD2    C1 9823   1.078   2.386  17.519 -0.1160  0.4568  0.3134
  664MPD2    C2 9824   1.150   2.371  17.638 -0.9773  0.2571 -1.0326
  664MPD2    C3 9825   1.096   2.298   0.044 -0.0664  0.0484 -0.3266
  664MPD2    C4 9826   0.969   2.242   0.036 -0.0535 -0.1676  0.1387
  664MPD2    C5 9827   0.904   2.262  17.618 -0.6409 -0.3703 -0.8820
  664MPD2     H 9828   1.249   2.411  17.656 -1.1409 -0.7732  2.1416
  664MPD2    H1 9829   0.922   2.184   0.115  1.4302  0.4553  1.4781
  664MPD2    H2 9830   0.899   2.336  17.417  1.2254  1.5585 -0.2742
  664MPD2    H3 9831   0.808   2.212  17.611 -1.7062  1.7724 -1.2949
  664MPD2     N 9832   1.185   2.305   0.161  0.2530  0.1068 -0.2957
  664MPD2    H5 9833   1.273   2.355   0.157  1.1273 -1.3723  0.5007
  664MPD2    N1 9834   1.143   2.462  17.419 -0.2725  0.2908  0.0815
  664MPD2    H7 9835   1.239   2.492  17.430  0.3735 -1.0822 -1.7287
  665TMC3    C1 9836   1.234   2.293   0.395 -0.1680 -0.4218 -0.1492
  665TMC3    C2 9837   1.252   2.210   0.504 -0.4384 -0.7963 -0.4500
  665TMC3    C3 9838   1.342   2.248   0.599  0.2828  0.2138 -0.1161
  665TMC3    C4 9839   1.289   2.415   0.390  0.7004 -1.0832 -0.0808
  665TMC3    C5 9840   1.374   2.457   0.489  0.2059 -0.1375 -0.5012
  665TMC3    C6 9841   1.406   2.368   0.591  0.6331 -0.8558  0.4471
  665TMC3     C 9842   1.160   2.239   0.279  0.0810 -0.6027 -0.3975
  665TMC3     O 9843   1.059   2.177   0.309  0.1962  0.1691  0.0157
  665TMC3     H 9844   1.200   2.115   0.493 -1.6259 -0.5858  3.5238
  665TMC3    H1 9845   1.245   2.482   0.317  0.2081 -2.2097 -0.8301
  665TMC3    H2 9846   1.475   2.400   0.669 -1.1399  1.3011  1.1288
  665TMC3    C7 9847   1.375   2.598   0.501  0.2583 -0.5879 -0.2726
  665TMC3    C8 9848   1.359   2.166   0.720 -0.1365 -0.1735 -0.3529
  665TMC3    O1 9849   1.407   2.669   0.407  0.0077  0.0502  0.2691
  665TMC3    O2 9850   1.464   2.191   0.782 -0.3451  0.5168  0.2493
  666TMC3    C1 9851   0.123   1.252  10.244 -0.2433 -0.4120  0.2672
  666TMC3    C2 9852   0.235   1.173  10.235 -0.2010  0.1463  0.4994
  666TMC3    C3 9853   0.351   1.241  10.223 -0.1832 -0.0558  0.0673
  666TMC3    C4 9854   0.117   1.389  10.235  0.4696 -0.5670 -0.0727
  666TMC3    C5 9855   0.243   1.444  10.208 -0.9920  0.4244  0.3670
  666TMC3    C6 9856   0.360   1.375  10.206  0.6373 -0.7301  0.1866
  666TMC3     C 9857   4.721   1.173  10.236 -0.0177  0.5351 -0.1530
  666TMC3     O 9858   4.628   1.244  10.203  0.5965  0.5208  0.2135
  666TMC3     H 9859   0.237   1.066  10.253  5.1787  0.2943  0.9077
  666TMC3    H1 9860   0.022   1.440  10.237  0.3448 -0.8301  0.8741
  666TMC3    H2 9861   0.453   1.421  10.176 -0.3877  0.3400 -1.3613
  666TMC3    C7 9862   0.256   1.585  10.215 -0.3279 -0.0926 -0.6903
  666TMC3    C8 9863   0.468   1.171  10.285 -0.0904 -1.0519 -0.1648
  666TMC3    O1 9864   0.168   1.635  10.289  0.1100  0.0782 -0.2239
  666TMC3    O2 9865   0.474   1.051  10.279 -0.1702 -0.3440 -0.1117
  667MPD2     C 9866   1.399   1.601  14.993  0.2883 -0.0953 -0.2863
  667MPD2    C1 9867   1.304   1.686  15.043 -0.4893  0.3485 -0.0187
  667MPD2    C2 9868   1.170   1.671  15.001  0.4199 -0.0813 -0.1857
  667MPD2    C3 9869   1.126   1.567  14.920 -0.0995  0.6474  0.3950
  667MPD2    C4 9870   1.218   1.475  14.877  0.4303  0.3002  0.0768
  667MPD2    C5 9871   1.351   1.502  14.915  0.5801  0.1337  0.3392
  667MPD2     H 9872   1.091   1.733  15.042 -0.0071 -0.3745 -0.5631
  667MPD2    H1 9873   1.188   1.392  14.815  1.8503 -0.9563  1.0797
  667MPD2    H2 9874   1.502   1.613  15.022 -0.2302 -0.6610  1.8206
  667MPD2    H3 9875   1.423   1.425  14.890 -0.9876 -1.5865  1.1681
  667MPD2     N 9876   0.984   1.544  14.883 -0.0207  0.2684 -0.8395
  667MPD2    H5 9877   0.969   1.461  14.827  3.3385  0.3787 -1.9039
  667MPD2    N1 9878   1.333   1.793  15.134  0.1843  0.1642  0.8608
  667MPD2    H7 9879   1.263   1.856  15.172  1.7490  1.2404  1.9233
  668TMC3    C1 9880   1.458   1.928  15.272  0.0566 -0.0948 -0.2185
  668TMC3    C2 9881   1.563   2.013  15.266  0.1896  0.6168  0.1893
  668TMC3    C3 9882   1.557   2.121  15.349 -0.6812  0.4245 -0.6192
  668TMC3    C4 9883   1.360   1.939  15.369 -0.0859  0.1331 -0.5185
  668TMC3    C5 9884   1.366   2.047  15.458 -0.0372  0.1584 -0.4856
  668TMC3    C6 9885   1.467   2.140  15.446 -0.9104 -0.1852 -0.4320
  668TMC3     C 9886   1.462   1.817  15.178 -0.5821  0.2937  0.6188
  668TMC3     O 9887   1.571   1.790  15.130 -0.1774  0.0128  0.1664
  668TMC3     H 9888   1.638   2.003  15.188 -0.9938 -1.3019 -0.6903
  668TMC3    H1 9889   1.269   1.881  15.362 -1.4066  1.8643  2.0456
  668TMC3    H2 9890   1.474   2.227  15.509  1.1476 -0.1381 -0.7217
  668TMC3    C7 9891   1.320   2.033  15.592 -0.3490  0.4198  0.8259
  668TMC3    C8 9892   1.678   2.204  15.365  0.4503 -0.4884  0.5829
  668TMC3    O1 9893   1.348   2.120  15.670  0.4567  0.5805 -0.1777
  668TMC3    O2 9894   1.710   2.246  15.474  0.3374  0.8526  0.3333
  669TMC3    C1 9895   4.157   1.945  14.777 -0.1738  0.4434  0.1712
  669TMC3    C2 9896   4.051   1.913  14.698  0.0710  0.3803  0.2636
  669TMC3    C3 9897   4.037   1.996  14.585  0.2364  0.2684  0.5798
  669TMC3    C4 9898   4.239   2.053  14.760 -0.6627 -0.1249 -0.0479
  669TMC3    C5 9899   4.227   2.118  14.633 -0.0039 -0.3157  0.1632
  669TMC3    C6 9900   4.126   2.094  14.552  0.1593  0.7438 -0.8530
  669TMC3     C 9901   4.187   1.843  14.879 -0.1990  1.2918 -0.5054
  669TMC3     O 9902   4.271   1.868  14.966 -0.3670  0.0288 -0.2824
  669TMC3     H 9903   3.971   1.849  14.734 -1.1873  0.8215 -1.7164
  669TMC3    H1 9904   4.332   2.061  14.815  0.2146  1.5271 -1.7807
  669TMC3    H2 9905   4.113   2.163  14.469 -0.0904 -2.0966 -3.1648
  669TMC3    C7 9906   4.354   2.157  14.574  0.4920 -0.6834 -0.2426
  669TMC3    C8 9907   3.913   1.977  14.513  0.8311  0.2298 -0.1479
  669TMC3    O1 9908   4.434   2.189  14.656  0.3411 -0.0260 -0.4503
  669TMC3    O2 9909   3.859   1.865  14.521 -0.1274  0.0626 -0.5869
  670MPD2     C 9910   2.560   4.222  13.409  0.0497  0.6431  0.0342
  670MPD2    C1 9911   2.638   4.216  13.522 -0.4486  0.6326 -0.3469
  670MPD2    C2 9912   2.586   4.228  13.650 -0.0528  0.6450 -0.1972
  670MPD2    C3 9913   2.448   4.214  13.665  0.7948 -1.3810  0.4766
  670MPD2    C4 9914   2.367   4.210  13.556  0.3384 -0.0411  0.6092
  670MPD2    C5 9915   2.424   4.215  13.427 -0.0767 -0.4835 -0.2257
  670MPD2     H 9916   2.653   4.233  13.736 -1.2070  0.2364  0.7341
  670MPD2    H1 9917   2.259   4.212  13.565  0.3290 -0.1323  0.5135
  670MPD2    H2 9918   2.606   4.222  13.310  0.3129 -1.0334  0.1528
  670MPD2    H3 9919   2.353   4.203  13.347 -1.3633 -1.7801  1.1078
  670MPD2     N 9920   2.393   4.222  13.798 -0.0239  0.7460  0.0505
  670MPD2    H5 9921   2.457   4.264  13.865 -0.2159  0.8175  0.1906
  670MPD2    N1 9922   2.781   4.208  13.515  0.4493  0.2819  0.7070
  670MPD2    H7 9923   2.820   4.214  13.609 -0.1431  1.2503  0.9001
  671TMC3    C1 9924   2.243   4.163  13.980 -0.3371  0.1353 -0.5933
  671TMC3    C2 9925   2.347   4.147  14.070  0.0217  0.2535  0.2710
  671TMC3    C3 9926   2.328   4.072  14.176  0.4075 -0.4700 -0.0209
  671TMC3    C4 9927   2.116   4.113  14.012 -0.2911  0.6648 -0.0435
  671TMC3    C5 9928   2.105   4.030  14.124  1.0217  0.1520  0.4665
  671TMC3    C6 9929   2.211   4.011  14.210  0.1552  0.1731  1.1539
  671TMC3     C 9930   2.271   4.165  13.839 -0.4449  0.5999  0.4501
  671TMC3     O 9931   2.200   4.107  13.763  0.2189 -1.1455 -0.2909
  671TMC3     H 9932   2.446   4.155  14.025  0.0949 -0.5719  0.2842
  671TMC3    H1 9933   2.042   4.090  13.937 -1.1498  0.6359  0.8070
  671TMC3    H2 9934   2.215   3.929  14.281  0.2313 -2.3170 -1.7381
  671TMC3    C7 9935   2.026   3.914  14.095  0.0921  0.0405 -0.5370
  671TMC3    C8 9936   2.447   4.030  14.245 -0.0257 -0.0501  0.0842
  671TMC3    O1 9937   2.088   3.809  14.083  0.0311  0.4627 -0.5894
  671TMC3    O2 9938   2.433   3.928  14.316 -0.1084 -0.4199 -0.7470
  672MPD2     C 9939   3.854   0.624   0.740  0.1721 -0.0637 -0.3697
  672MPD2    C1 9940   3.922   0.523   0.809 -0.3779  0.1307 -0.2757
  672MPD2    C2 9941   4.024   0.563   0.896 -0.7185 -0.0290 -0.5470
  672MPD2    C3 9942   4.047   0.694   0.937  0.1365  0.0199  0.7489
  672MPD2    C4 9943   3.973   0.794   0.876  0.2092  0.8269 -0.2795
  672MPD2    C5 9944   3.882   0.753   0.774 -0.0593 -0.3873  0.7038
  672MPD2     H 9945   4.062   0.486   0.963  2.8689  0.9288 -1.4576
  672MPD2    H1 9946   3.973   0.895   0.914  0.6701  1.0876 -0.9535
  672MPD2    H2 9947   3.779   0.608   0.663  0.6320  1.2783 -1.1140
  672MPD2    H3 9948   3.822   0.827   0.721  0.2831  0.1104  1.0125
  672MPD2     N 9949   4.140   0.725   1.039 -0.1693 -0.1405 -0.5046
  672MPD2    H5 9950   4.148   0.821   1.070 -0.4506 -0.3324  0.1562
  672MPD2    N1 9951   3.886   0.389   0.792  0.1206 -0.5885 -0.4575
  672MPD2    H7 9952   3.950   0.320   0.830  0.5878  0.4262  0.5946
  673TMC3    C1 9953   3.742   0.208   0.743  0.0602 -0.0262  0.4517
  673TMC3    C2 9954   3.839   0.122   0.774  0.4619 -0.4894  0.4794
  673TMC3    C3 9955   3.807   4.716   0.811  0.2195  0.0304  0.1995
  673TMC3    C4 9956   3.608   0.168   0.749  0.1531  0.3229 -0.7463
  673TMC3    C5 9957   3.577   0.042   0.794  0.0299  0.5982 -0.0177
  673TMC3    C6 9958   3.676   4.677   0.818  0.0873  0.3361 -0.7106
  673TMC3     C 9959   3.770   0.350   0.728  0.3311 -0.3014 -0.4183
  673TMC3     O 9960   3.679   0.413   0.672 -0.1104 -0.5131  0.0308
  673TMC3     H 9961   3.943   0.155   0.776  0.8205 -1.5785 -0.8622
  673TMC3    H1 9962   3.526   0.238   0.735  0.0352  0.0275 -1.5691
  673TMC3    H2 9963   3.663   4.583   0.871 -2.5062  1.5715  0.8717
  673TMC3    C7 9964   3.449   4.698   0.781  0.0628 -0.7048  0.1238
  673TMC3    C8 9965   3.902   4.602   0.774 -0.1947 -0.7482  0.6384
  673TMC3    O1 9966   3.438   4.579   0.803 -0.1048 -0.3251 -0.4786
  673TMC3    O2 9967   3.850   4.490   0.766 -0.0759  0.8332  0.2688
  674MPD2     C 9968   2.957   4.242   0.838  0.3800 -0.3878 -0.3526
  674MPD2    C1 9969   2.984   4.298   0.717  0.6144 -0.7932  0.3301
  674MPD2    C2 9970   2.892   4.383   0.657 -0.4741  0.0951 -0.8594
  674MPD2    C3 9971   2.783   4.419   0.725  0.1732  1.0792 -0.2718
  674MPD2    C4 9972   2.751   4.363   0.855  0.3191 -0.0353  0.0157
  674MPD2    C5 9973   2.844   4.275   0.905 -0.0825 -0.6777 -0.3308
  674MPD2     H 9974   2.911   4.431   0.561 -2.5049 -1.4277 -2.0203
  674MPD2    H1 9975   2.671   4.403   0.915 -0.2234 -1.4615  0.2539
  674MPD2    H2 9976   3.033   4.176   0.880 -1.0857 -2.6731 -1.2557
  674MPD2    H3 9977   2.825   4.224   0.998  2.5195 -0.2885  0.4183
  674MPD2     N 9978   2.707   4.512   0.662  0.2001  0.0020 -0.1112
  674MPD2    H5 9979   2.741   4.538   0.570 -0.9483 -0.3178 -0.6236
  674MPD2    N1 9980   3.108   4.277   0.666  0.2117 -0.4699  0.4686
  674MPD2    H7 9981   3.167   4.212   0.718  0.2473 -0.6669  0.1787
  675TMC3    C1 9982   3.290   4.301   0.504  0.8953  0.1216 -0.8807
  675TMC3    C2 9983   3.356   4.222   0.593  0.1793  0.1324 -0.5480
  675TMC3    C3 9984   3.474   4.271   0.644 -0.5494 -0.0725  0.0347
  675TMC3    C4 9985   3.350   4.409   0.447 -0.3079  0.7067  0.3076
  675TMC3    C5 9986   3.475   4.443   0.494 -0.4271  0.1592 -0.2266
  675TMC3    C6 9987   3.532   4.381   0.597 -0.1441  0.6065  0.3828
  675TMC3     C 9988   3.157   4.337   0.553  0.7610  0.0368  0.0345
  675TMC3     O 9989   3.117   4.427   0.486  0.1427  1.1031  0.1635
  675TMC3     H 9990   3.327   4.124   0.629  0.7070 -0.1649 -0.9290
  675TMC3    H1 9991   3.307   4.472   0.371 -2.1912 -1.7680 -0.6647
  675TMC3    H2 9992   3.619   4.413   0.653  0.7464 -0.0676 -0.6290
  675TMC3    C7 9993   3.529   4.568   0.452  0.2243 -0.4253  0.3883
  675TMC3    C8 9994   3.532   4.207   0.760  0.2667 -0.0116  0.6920
  675TMC3    O1 9995   3.460   4.649   0.393  0.4907  0.0924  0.0587
  675TMC3    O2 9996   3.522   4.087   0.776 -0.1960 -0.0568  0.3606
  676MPD2     C 9997   0.942   2.633  11.383  0.3017 -0.2765 -0.0684
  676MPD2    C1 9998   0.855   2.565  11.462 -0.3523  0.0181 -0.3609
  676MPD2    C2 9999   0.841   2.430  11.438 -0.4693  0.0863  0.0430
  676MPD2    C310000   0.913   2.367  11.340 -0.1780  0.1241  1.2568
  676MPD2    C410001   0.993   2.441  11.254  0.0192  0.5527 -0.4761
  676MPD2    C510002   1.010   2.572  11.281 -0.3235  0.1263  0.6392
  676MPD2     H10003   0.769   2.376  11.498  0.4679 -0.9344  0.2614
  676MPD2    H110004   1.040   2.405  11.164 -1.7431 -2.3420 -0.2474
  676MPD2    H210005   0.957   2.739  11.399  1.2575 -0.2390 -1.2266
  676MPD2    H310006   1.074   2.620  11.207 -1.7001  0.4321 -0.3436
  676MPD2     N10007   0.895   2.228  11.316 -0.3835  0.0238 -0.3143
  676MPD2    H510008   0.937   2.202  11.228 -0.6727 -0.3818 -0.3355
  676MPD2    N110009   0.775   2.626  11.563 -0.6042  0.7469 -0.2534
  676MPD2    H710010   0.715   2.563  11.615 -0.8305 -0.8443 -2.4374
  677TMC3    C110011   0.695   2.790  11.709 -0.5380  0.2294 -0.3009
  677TMC3    C210012   0.583   2.719  11.711 -0.2018  0.0478  0.1770
  677TMC3    C310013   0.503   2.727  11.827 -0.2683  0.3420  0.6020
  677TMC3    C410014   0.722   2.892  11.792  0.6012 -0.0948  0.3853
  677TMC3    C510015   0.632   2.901  11.899  1.1293 -0.1704  0.0324
  677TMC3    C610016   0.527   2.816  11.926 -0.4430  0.4608 -0.7600
  677TMC3     C10017   0.788   2.757  11.605 -0.1953  0.1540 -0.8445
  677TMC3     O10018   0.872   2.842  11.580  0.3968 -0.4685 -0.0161
  677TMC3     H10019   0.545   2.660  11.629  1.2311  0.6505 -0.9012
  677TMC3    H110020   0.819   2.939  11.802  0.6034 -0.1165  0.4726
  677TMC3    H210021   0.458   2.831  12.007 -1.2849  1.5308 -1.6716
  677TMC3    C710022   0.685   2.967  12.012  0.4358 -0.8617  0.3847
  677TMC3    C810023   0.403   2.623  11.824  0.6173 -0.7048  0.3159
  677TMC3    O110024   0.641   2.931  12.121  0.1402 -0.1692  0.0857
  677TMC3    O210025   0.339   2.615  11.716  0.1243 -0.3255  0.2028
  678MPD2     C10026   2.479   3.591   1.796  1.4500 -0.2905 -0.6014
  678MPD2    C110027   2.543   3.547   1.681 -0.2558 -0.1104 -0.7512
  678MPD2    C210028   2.465   3.474   1.592 -0.5632  0.4962 -0.2355
  678MPD2    C310029   2.332   3.450   1.598 -0.2050  0.2807  0.2888
  678MPD2    C410030   2.271   3.489   1.718  0.1947  0.6011 -0.3738
  678MPD2    C510031   2.344   3.558   1.813 -0.4164  0.5221 -0.5384
  678MPD2     H10032   2.507   3.425   1.505 -0.8054 -1.9713  1.0234
  678MPD2    H110033   2.168   3.467   1.747 -0.1083  1.5700 -0.6895
  678MPD2    H210034   2.530   3.643   1.876 -0.1599  0.5959 -0.1540
  678MPD2    H310035   2.296   3.577   1.908  1.5221  0.2168  0.4892
  678MPD2     N10036   2.273   3.377   1.496  0.4552 -0.5987  1.1089
  678MPD2    H510037   2.324   3.369   1.409 -0.3226  1.8403  0.4403
  678MPD2    N110038   2.676   3.574   1.654  0.2943 -0.6598  0.0448
  678MPD2    H710039   2.718   3.525   1.576 -1.1616  2.0041 -2.4069
  679TMC3    C110040   2.987   3.548   1.489 -0.4994  0.1231  0.2837
  679TMC3    C210041   2.920   3.545   1.608 -0.3039  0.2235  0.0833
  679TMC3    C310042   2.874   3.671   1.658  0.2769 -0.4481 -0.4810
  679TMC3    C410043   2.986   3.650   1.405  0.1328  0.9196 -0.2516
  679TMC3    C510044   2.936   3.766   1.454  0.1010 -0.4673  0.3373
  679TMC3    C610045   2.892   3.781   1.586  0.2408  0.0999 -0.1082
  679TMC3     C10046   3.037   3.413   1.443 -0.0583 -0.4046  0.4178
  679TMC3     O10047   2.990   3.309   1.484 -0.7842 -0.1692  0.1016
  679TMC3     H10048   2.906   3.451   1.660 -0.0087 -0.8932 -1.8782
  679TMC3    H110049   3.033   3.648   1.307  1.4538  1.4939  0.3779
  679TMC3    H210050   2.864   3.877   1.628  2.8243  0.5392  0.6434
  679TMC3    C710051   2.886   3.844   1.348 -0.2039 -0.1512  0.1495
  679TMC3    C810052   2.745   3.669   1.717  0.0109  0.4779 -0.4433
  679TMC3    O110053   2.889   3.794   1.238 -0.1603 -0.1104  0.5968
  679TMC3    O210054   2.703   3.755   1.790 -0.6073 -0.3263  0.4966
  680MPD2     C10055   1.725   0.983  13.384  0.0281 -0.2385 -0.5801
  680MPD2    C110056   1.854   0.972  13.424  0.5166  0.7515  0.7869
  680MPD2    C210057   1.930   1.093  13.449 -0.0028 -0.2526  0.0880
  680MPD2    C310058   1.873   1.217  13.421  1.2682 -0.0630 -0.2658
  680MPD2    C410059   1.742   1.219  13.370  0.3596 -0.0738 -1.0437
  680MPD2    C510060   1.667   1.107  13.347  0.1741 -0.0952 -0.1664
  680MPD2     H10061   2.036   1.089  13.469 -0.1381  0.8457  1.0316
  680MPD2    H110062   1.702   1.316  13.342 -0.8347  0.0711  1.2331
  680MPD2    H210063   1.671   0.890  13.370  0.8253 -0.6620 -0.8542
  680MPD2    H310064   1.572   1.102  13.296 -1.5180  2.0734  2.8109
  680MPD2     N10065   1.928   1.346  13.433  0.1898 -0.6106 -0.1724
  680MPD2    H510066   1.876   1.425  13.396  1.5370  0.2274 -0.2888
  680MPD2    N110067   1.895   0.839  13.453  0.0451  0.0829 -0.0359
  680MPD2    H710068   1.837   0.765  13.413  1.5689 -0.8873 -0.4644
  681TMC3    C110069   2.025   0.675  13.581  0.4385 -0.2195 -0.0941
  681TMC3    C210070   1.917   0.640  13.662 -0.4664  0.1729 -0.0725
  681TMC3    C310071   1.956   0.596  13.788  0.8904 -0.0003  0.0084
  681TMC3    C410072   2.152   0.641  13.619  0.6172  0.5908 -0.4251
  681TMC3    C510073   2.179   0.592  13.741 -0.4508  0.2842  0.6025
  681TMC3    C610074   2.084   0.573  13.831  0.3428 -0.7115 -0.0013
  681TMC3     C10075   2.013   0.812  13.525 -0.3899 -0.9877  0.0242
  681TMC3     O10076   2.096   0.888  13.571 -0.3040 -0.0756 -0.1298
  681TMC3     H10077   1.819   0.686  13.647 -0.7850 -0.3098  0.5630
  681TMC3    H110078   2.225   0.678  13.548 -0.4199  0.2582 -1.6762
  681TMC3    H210079   2.103   0.529  13.928 -2.8352 -2.7126 -0.3063
  681TMC3    C710080   2.314   0.564  13.792  0.4203 -0.2842  0.3806
  681TMC3    C810081   1.872   0.676  13.888  0.0615  0.2036  0.0309
  681TMC3    O110082   2.332   0.560  13.913 -0.0818  0.5343 -0.3168
  681TMC3    O210083   1.754   0.676  13.863  0.3118 -0.6361  0.5659
  682MPD2     C10084   0.411   2.751  10.877  0.0253 -0.0666  0.0702
  682MPD2    C110085   0.313   2.671  10.925 -0.9114  0.1116 -0.5725
  682MPD2    C210086   0.232   2.707  11.030 -0.7698 -0.1427 -0.0154
  682MPD2    C310087   0.257   2.827  11.092 -0.1415 -0.0906  0.5361
  682MPD2    C410088   0.367   2.902  11.051  1.1309 -0.5608  0.1182
  682MPD2    C510089   0.448   2.860  10.952  0.4294  0.2107  0.7456
  682MPD2     H10090   0.155   2.640  11.065  1.1090 -1.9463  0.6442
  682MPD2    H110091   0.406   2.988  11.105 -0.2689  0.4879 -0.5323
  682MPD2    H210092   0.475   2.733  10.791  1.6844 -3.3279  2.0239
  682MPD2    H310093   0.522   2.929  10.914 -0.2193  0.6591  0.3032
  682MPD2     N10094   0.164   2.884  11.183  0.0033  0.2695 -0.2661
  682MPD2    H510095   0.183   2.979  11.213 -0.1163  0.7318 -1.6553
  682MPD2    N110096   0.276   2.545  10.856 -0.0283  0.5394  0.2309
  682MPD2    H710097   0.201   2.488  10.894 -0.3420  0.0845 -1.0687
  683TMC3    C110098   4.627   2.994  11.519 -0.1698  1.0076  0.3756
  683TMC3    C210099   4.497   3.008  11.470 -0.0710 -0.4080  0.4094
  683TMC3    C310100   4.468   2.969  11.347 -0.2863  0.4847  0.4551
  683TMC3    C410101   0.006   2.952  11.432  0.2930  0.1666 -0.2581
  683TMC3    C510102   4.696   2.929  11.304  0.1079  0.1574  0.1451
  683TMC3    C610103   4.567   2.935  11.261 -0.4636 -0.3267  0.0536
  683TMC3     C10104   4.643   3.022  11.665  0.1727  0.2614  0.4861
  683TMC3     O10105   4.577   3.113  11.713 -0.1139 -0.1810 -0.1155
  683TMC3     H10106   4.421   3.032  11.544 -0.8384 -0.2802 -0.4160
  683TMC3    H110107   0.110   2.947  11.463  0.3124  0.0708 -0.3371
  683TMC3    H210108   4.536   2.907  11.161 -1.8155  2.0037 -0.1923
  683TMC3    C710109   0.041   2.831  11.223  1.0067  0.6761  0.4793
  683TMC3    C810110   4.359   2.872  11.355 -0.5555 -0.3000 -0.0735
  683TMC3    O110111   4.703   2.730  11.192  0.4779  0.4630 -0.3062
  683TMC3    O210112   4.245   2.900  11.397 -0.5498 -0.4023  0.0039
  684MPD2     C10113   2.679   2.221  16.461  0.8683  0.7181 -0.0312
  684MPD2    C110114   2.621   2.244  16.333 -0.3618 -0.5202 -1.2523
  684MPD2    C210115   2.612   2.372  16.294 -0.0479  0.4124 -0.2615
  684MPD2    C310116   2.674   2.477  16.367  0.2992  0.3503 -0.3488
  684MPD2    C410117   2.732   2.448  16.487  0.1763 -0.8449 -0.7395
  684MPD2    C510118   2.731   2.323  16.535  0.4629  0.0349 -0.1418
  684MPD2     H10119   2.562   2.388  16.199  1.0032 -2.9612 -1.3912
  684MPD2    H110120   2.777   2.526  16.549  0.2121 -0.3443 -1.3907
  684MPD2    H210121   2.686   2.125  16.512  2.4277  0.8996  0.0930
  684MPD2    H310122   2.773   2.296  16.631  2.2079 -0.2833 -0.9846
  684MPD2     N10123   2.685   2.609  16.318 -0.5277 -0.2522  0.4481
  684MPD2    H510124   2.734   2.670  16.383 -0.1999 -0.3738  0.3177
  684MPD2    N110125   2.597   2.143  16.238  0.1836 -0.2581 -0.4636
  684MPD2    H710126   2.556   2.163  16.148 -0.4660  0.0127 -0.1030
  685TMC3    C110127   2.674   1.967  16.117 -0.5640  0.0270  0.5590
  685TMC3    C210128   2.575   1.980  16.024 -0.8547 -0.1881 -0.1209
  685TMC3    C310129   2.605   1.956  15.893  0.1229 -0.0100 -0.8306
  685TMC3    C410130   2.808   1.946  16.092  0.0099  1.0648  0.1425
  685TMC3    C510131   2.829   1.921  15.965  0.5347 -0.2009 -0.9433
  685TMC3    C610132   2.735   1.921  15.863 -0.1372 -0.6491  0.4477
  685TMC3     C10133   2.644   2.016  16.246 -0.2415  0.2921 -0.2735
  685TMC3     O10134   2.709   1.960  16.330 -0.2164  0.6541  0.4825
  685TMC3     H10135   2.472   1.996  16.051 -1.3907  2.2157 -3.6895
  685TMC3    H110136   2.879   1.921  16.171 -0.1419  1.4546  0.4041
  685TMC3    H210137   2.767   1.930  15.760  0.3097  2.7147  0.8749
  685TMC3    C710138   2.963   1.952  15.925 -0.1185 -0.5210  0.0359
  685TMC3    C810139   2.509   1.982  15.788 -0.1405  0.7683 -0.1300
  685TMC3    O110140   2.982   1.914  15.813  0.2356  0.1140  0.1833
  685TMC3    O210141   2.542   1.954  15.672  0.3395 -0.4371  0.3313
  686MPD2     C10142   4.405   2.326  15.558 -0.2816  0.5840 -0.2156
  686MPD2    C110143   4.448   2.250  15.669  0.1706 -0.3392 -0.2522
  686MPD2    C210144   4.553   2.153  15.641  0.6074 -0.0820 -0.2553
  686MPD2    C310145   4.597   2.132  15.514  0.3224 -0.3761 -0.1582
  686MPD2    C410146   4.566   2.223  15.418 -0.2532  0.5593  0.4175
  686MPD2    C510147   4.460   2.313  15.438 -0.6471  0.1511  0.1433
  686MPD2     H10148   4.594   2.089  15.718 -1.3784  1.2078  1.9251
  686MPD2    H110149   4.610   2.227  15.319 -0.1425  1.5025  0.5059
  686MPD2    H210150   4.317   2.388  15.560 -1.6451 -1.3999  0.8407
  686MPD2    H310151   4.422   2.375  15.358  0.8086  0.7487 -0.0987
  686MPD2     N10152   4.682   2.031  15.475  0.3753 -0.0834  0.3875
  686MPD2    H510153   4.712   2.054  15.381 -0.6361  1.4035  0.4196
  686MPD2    N110154   4.370   2.240  15.780  0.3240  0.3251 -0.4800
  686MPD2    H710155   4.280   2.288  15.777 -0.4274 -1.1907 -1.9505
  687TMC3    C110156   4.654   1.856  15.648  0.1888  0.8714  0.1891
  687TMC3    C210157   4.522   1.841  15.629 -0.3021 -0.0086 -0.0228
  687TMC3    C310158   4.445   1.798  15.740  0.2286 -0.0764 -0.3006
  687TMC3    C410159   4.715   1.812  15.763 -0.0948  0.6429 -0.3772
  687TMC3    C510160   4.639   1.761  15.867  0.1867  1.2500 -0.3823
  687TMC3    C610161   4.505   1.764  15.860  0.5176  0.6514  0.3297
  687TMC3     C10162   0.015   1.919  15.543  0.0029  0.0975 -0.2666
  687TMC3     O10163   0.117   1.859  15.506 -0.4230 -0.4306 -0.2631
  687TMC3     H10164   4.480   1.869  15.533 -0.1255 -0.8605 -0.3501
  687TMC3    H110165   0.092   1.846  15.775  0.3024 -1.2389  1.5230
  687TMC3    H210166   4.450   1.760  15.954 -0.6226  1.1328 -0.3203
  687TMC3    C710167   4.710   1.762  15.991 -0.1375  0.5617 -0.8764
  687TMC3    C810168   4.302   1.820  15.745 -0.3250  0.9702  0.1176
  687TMC3    O110169   0.058   1.858  16.006  0.5702  0.2660 -0.4136
  687TMC3    O210170   4.244   1.774  15.843 -0.0815  0.2293 -0.2215
  688MPD2     C10171   3.377   1.345  17.582 -0.2856  0.1745  0.0036
  688MPD2    C110172   3.411   1.210  17.586 -0.1127  0.0746  0.0148
  688MPD2    C210173   3.499   1.151  17.497 -0.2314  0.5929  0.1048
  688MPD2    C310174   3.563   1.230  17.403 -0.4104 -0.0045 -0.5897
  688MPD2    C410175   3.538   1.368  17.402  0.6802 -0.0269  0.1138
  688MPD2    C510176   3.440   1.422  17.486  0.2729 -0.0567  0.7626
  688MPD2     H10177   3.528   1.049  17.515  3.6068  1.3169 -2.0265
  688MPD2    H110178   3.594   1.444  17.349  2.7073 -2.0675 -0.6921
  688MPD2    H210179   3.313   1.400  17.650 -1.4361 -0.3256 -0.6725
  688MPD2    H310180   3.418   1.528  17.483 -1.7131 -0.4747  0.4123
  688MPD2     N10181   3.671   1.187  17.327 -0.2692 -0.5936 -0.1097
  688MPD2    H510182   3.718   1.265  17.282 -0.7728 -0.2771 -0.0805
  688MPD2    N110183   3.366   1.128  17.691 -0.4219 -0.1891  0.1127
  688MPD2    H710184   3.406   1.035  17.695 -0.6391 -0.2528  0.8130
  689TMC3    C110185   3.279   1.075   0.201 -0.0531  0.5286  0.8602
  689TMC3    C210186   3.284   1.120   0.328  0.4427 -0.1438  0.3454
  689TMC3    C310187   3.277   1.036   0.437 -0.0137 -0.5348  0.1980
  689TMC3    C410188   3.264   0.946   0.178  0.1140 -0.0639  0.4906
  689TMC3    C510189   3.240   0.865   0.288 -0.1088 -0.1240 -0.6098
  689TMC3    C610190   3.247   0.900   0.419 -0.1558 -0.2658 -0.1537
  689TMC3     C10191   3.282   1.169   0.092 -1.2447 -0.0240 -0.3453
  689TMC3     O10192   3.224   1.277   0.108 -0.6443  0.5391  0.2048
  689TMC3     H10193   3.308   1.226   0.337 -0.2798  0.0576 -0.1395
  689TMC3    H110194   3.251   0.901   0.080  0.0880 -1.3640  1.0989
  689TMC3    H210195   3.219   0.834   0.500 -1.2093  2.0243  1.3590
  689TMC3    C710196   3.217   0.721   0.270  0.0388  0.4338  0.6106
  689TMC3    C810197   3.281   1.076   0.575  0.6213  0.4972  0.6706
  689TMC3    O110198   3.227   0.646   0.363  0.2189 -0.6911 -0.3050
  689TMC3    O210199   3.279   0.990   0.656 -0.1497  0.1906 -0.6069
  690MPD2     C10200   1.132   3.329  15.529  0.5849  0.8871  0.9032
  690MPD2    C110201   1.081   3.207  15.483 -0.2007  0.3674  0.1517
  690MPD2    C210202   1.126   3.149  15.365 -0.0570  0.2048  0.5271
  690MPD2    C310203   1.221   3.222  15.293 -0.0705  0.0832  0.6945
  690MPD2    C410204   1.255   3.347  15.344 -0.2594  0.0737 -0.0970
  690MPD2    C510205   1.209   3.404  15.457  0.9853 -0.4380  0.2388
  690MPD2     H10206   1.090   3.052  15.334  1.6519  0.3552 -1.9463
  690MPD2    H110207   1.320   3.410  15.286  0.4752  0.0571  0.7143
  690MPD2    H210208   1.111   3.360  15.631 -0.9781  0.4607  0.6995
  690MPD2    H310209   1.242   3.502  15.487  0.8405 -0.6281  1.0174
  690MPD2     N10210   1.273   3.167  15.172  0.3306  0.3354 -0.4485
  690MPD2    H510211   1.227   3.089  15.126  1.0576 -0.4097  0.0689
  690MPD2    N110212   1.006   3.131  15.566  0.3211  0.1109 -0.7162
  690MPD2    H710213   1.003   3.031  15.552 -1.1156  0.0303  0.0725
  691TMC3    C110214   0.857   3.070  15.736 -0.3066  0.3032 -0.4355
  691TMC3    C210215   0.761   3.096  15.828 -0.5325 -0.2106  0.4619
  691TMC3    C310216   0.714   2.983  15.892 -0.0026 -0.4471 -0.3447
  691TMC3    C410217   0.914   2.948  15.720  0.2399 -0.1150  0.5827
  691TMC3    C510218   0.857   2.845  15.783 -0.2527 -0.1768  0.8230
  691TMC3    C610219   0.756   2.856  15.869  0.1823  0.0011 -0.0029
  691TMC3     C10220   0.917   3.178  15.665 -0.8731  0.1257 -0.1707
  691TMC3     O10221   0.878   3.291  15.684  0.0943 -0.0564 -0.1472
  691TMC3     H10222   0.710   3.191  15.836  1.2224  0.5537  2.7066
  691TMC3    H110223   1.000   2.927  15.658  1.3882 -0.3725  2.2691
  691TMC3    H210224   0.708   2.771  15.915 -0.5583 -0.6838 -2.0113
  691TMC3    C710225   0.916   2.712  15.768 -0.1325  0.1765 -0.4246
  691TMC3    C810226   0.608   2.998  15.998  0.6823  0.2583  0.7194
  691TMC3    O110227   1.037   2.718  15.781 -0.0073 -0.0722 -0.6665
  691TMC3    O210228   0.609   2.909  16.085 -1.0324  0.0391 -0.2768
  692TMC3    C110229   2.365   3.914  15.723 -0.0376 -0.6310  0.1735
  692TMC3    C210230   2.500   3.936  15.745  0.4907  0.0617  0.3706
  692TMC3    C310231   2.584   3.828  15.738 -0.4630 -0.2351 -0.8534
  692TMC3    C410232   2.304   3.791  15.714  0.8636 -0.3131 -0.0669
  692TMC3    C510233   2.390   3.690  15.705  0.7525  0.3577  0.1466
  692TMC3    C610234   2.524   3.705  15.734  0.2360  0.0497 -0.8848
  692TMC3     C10235   2.278   4.031  15.727  0.0853 -0.5270 -0.9539
  692TMC3     O10236   2.158   4.006  15.739  0.1966 -0.6264 -0.1614
  692TMC3     H10237   2.543   4.035  15.754  0.4768  0.0426  0.6647
  692TMC3    H110238   2.197   3.788  15.699  0.6462  1.1425  1.1960
  692TMC3    H210239   2.579   3.615  15.711  1.5286  0.2213  1.5454
  692TMC3    C710240   2.332   3.558  15.684  0.1141 -0.1758 -0.9649
  692TMC3    C810241   2.674   3.816  15.854  0.2283 -0.4020 -0.5070
  692TMC3    O110242   2.220   3.557  15.636 -0.0059 -0.2055 -0.3627
  692TMC3    O210243   2.748   3.724  15.877  0.2258  0.7379  0.2616
  693MPD2     C10244   1.789   1.661  10.439  0.3593 -0.0766 -0.2007
  693MPD2    C110245   1.771   1.546  10.519 -0.0831 -0.0868 -0.1303
  693MPD2    C210246   1.874   1.499  10.598 -0.1217  0.1916 -0.4602
  693MPD2    C310247   1.991   1.561  10.593 -0.9388  0.2674 -0.5361
  693MPD2    C410248   2.012   1.672  10.514  0.1580  0.7568  0.1261
  693MPD2    C510249   1.908   1.727  10.440  0.5448  0.3833  0.3676
  693MPD2     H10250   1.861   1.417  10.668 -0.3063  1.3611  0.8622
  693MPD2    H110251   2.107   1.725  10.510  1.1027 -0.9474  0.2458
  693MPD2    H210252   1.708   1.709  10.385 -0.6777 -0.6123  0.8651
  693MPD2    H310253   1.919   1.818  10.383 -1.2180  0.0569 -0.4796
  693MPD2     N10254   2.102   1.520  10.666  0.2568 -0.4246 -0.1192
  693MPD2    H510255   2.186   1.573  10.645  0.8047 -1.7254 -1.1600
  693MPD2    N110256   1.647   1.484  10.541  0.7223 -0.3911 -0.0607
  693MPD2    H710257   1.650   1.413  10.613  0.8474  0.3445  0.6666
  694TMC3    C110258   1.417   1.437  10.543 -0.2024 -0.0252  0.3228
  694TMC3    C210259   1.331   1.400  10.442 -0.5296  0.2804 -0.1735
  694TMC3    C310260   1.242   1.294  10.481  0.3931  0.3354  0.2075
  694TMC3    C410261   1.430   1.377  10.668  0.5875 -0.0270  0.7747
  694TMC3    C510262   1.345   1.270  10.693 -0.7027 -0.2549 -0.2474
  694TMC3    C610263   1.253   1.227  10.600  0.0569 -0.1100 -0.6370
  694TMC3     C10264   1.523   1.528  10.502  0.7234  0.3866 -0.0438
  694TMC3     O10265   1.493   1.605  10.410  0.3468 -0.2431 -0.5943
  694TMC3     H10266   1.343   1.432  10.339  1.9624 -2.2221 -0.6566
  694TMC3    H110267   1.507   1.413  10.735  1.1446 -1.2745  0.7934
  694TMC3    H210268   1.181   1.151  10.631 -0.5323  0.1976 -1.2596
  694TMC3    C710269   1.349   1.193  10.818  0.1038 -0.3642  0.3249
  694TMC3    C810270   1.157   1.227  10.386  0.2410  0.6293  0.4369
  694TMC3    O110271   1.268   1.097  10.832  0.1734  0.2534  0.6211
  694TMC3    O210272   1.168   1.106  10.387 -0.0308  0.2078  0.3221
  695MPD2     C10273   2.745   3.534  13.747  0.3419  0.1407 -0.3402
  695MPD2    C110274   2.679   3.524  13.870  0.1076 -0.1974 -0.3713
  695MPD2    C210275   2.542   3.509  13.874 -0.1827 -0.6253  0.0798
  695MPD2    C310276   2.464   3.540  13.765 -0.6712  0.1499 -0.2509
  695MPD2    C410277   2.533   3.575  13.651 -0.0634 -0.1786  0.1671
  695MPD2    C510278   2.673   3.564  13.637  0.2327 -0.0450 -0.3296
  695MPD2     H10279   2.484   3.485  13.962  0.3696  2.0426  1.1660
  695MPD2    H110280   2.483   3.585  13.555  1.6011 -2.4685 -0.9385
  695MPD2    H210281   2.852   3.534  13.733  0.6100 -1.3940  1.8120
  695MPD2    H310282   2.723   3.569  13.540  4.1441 -1.0660  1.6240
  695MPD2     N10283   2.322   3.557  13.788  0.1754  0.0385 -0.3228
  695MPD2    H510284   2.291   3.544  13.884  1.1446 -0.0463 -0.0245
  695MPD2    N110285   2.745   3.499  13.996  0.1895  0.3981 -0.6211
  695MPD2    H710286   2.683   3.494  14.076 -1.2962 -0.4155 -1.8252
  696TMC3    C110287   2.104   3.627  13.735  0.0320  0.2530  0.4560
  696TMC3    C210288   2.048   3.531  13.831  0.3221  0.5296 -0.2275
  696TMC3    C310289   1.917   3.507  13.829  1.1907  0.2506 -0.3759
  696TMC3    C410290   2.018   3.700  13.667 -0.2716 -0.6245 -0.0784
  696TMC3    C510291   1.886   3.671  13.672  0.8559 -0.3551  1.3284
  696TMC3    C610292   1.834   3.570  13.745  0.4210  0.0792 -0.5046
  696TMC3     C10293   2.238   3.606  13.690 -0.1163  0.1811 -0.8623
  696TMC3     O10294   2.270   3.667  13.592  0.1949 -0.0875  0.1167
  696TMC3     H10295   2.119   3.473  13.888  1.0314  0.3670 -1.2709
  696TMC3    H110296   2.058   3.778  13.602 -3.6401 -1.1209 -2.7344
  696TMC3    H210297   1.731   3.536  13.740 -0.1427  1.5532  1.0460
  696TMC3    C710298   1.786   3.769  13.647  0.3301 -0.5277 -0.3848
  696TMC3    C810299   1.860   3.440  13.948  0.5682 -0.8014 -0.8725
  696TMC3    O110300   1.673   3.728  13.647 -0.1294  0.5687 -0.7610
  696TMC3    O210301   1.901   3.326  13.969  0.0457 -0.2830  0.4678
  697MPD2     C10302   2.156   0.811  15.696  0.1134  0.0817  0.0703
  697MPD2    C110303   2.110   0.775  15.567 -0.2024  0.5551 -0.0575
  697MPD2    C210304   2.151   0.854  15.464 -0.2068 -0.2174  0.0894
  697MPD2    C310305   2.232   0.969  15.478 -0.2375  0.0174  0.9976
  697MPD2    C410306   2.266   1.005  15.602  0.5524  0.3284  0.0196
  697MPD2    C510307   2.236   0.924  15.712  0.9885 -0.0190 -0.4590
  697MPD2     H10308   2.121   0.830  15.362  0.1978  1.1693 -0.3589
  697MPD2    H110309   2.334   1.089  15.615  0.1570  1.0190 -2.3537
  697MPD2    H210310   2.143   0.758  15.789 -0.3634 -1.3156 -0.7819
  697MPD2    H310311   2.278   0.948  15.809 -2.3791  0.5039  0.8730
  697MPD2     N10312   2.284   1.026  15.362  0.1446 -0.2451  0.0605
  697MPD2    H510313   2.273   0.970  15.278  1.0353  1.9509 -1.5057
  697MPD2    N110314   2.047   0.653  15.539  0.2047  0.3074 -0.2478
  697MPD2    H710315   2.037   0.631  15.441 -1.9011  0.8026 -0.1455
  698TMC3    C110316   2.446   1.108  15.218  0.3451 -0.1571 -0.1795
  698TMC3    C210317   2.581   1.142  15.212 -0.2011 -0.4684 -0.3015
  698TMC3    C310318   2.637   1.114  15.094  0.4196  0.3412 -0.1469
  698TMC3    C410319   2.366   1.059  15.116 -0.4356  0.0020  0.4853
  698TMC3    C510320   2.435   1.048  14.997 -0.3185  0.4983  0.0818
  698TMC3    C610321   2.570   1.076  14.978  0.3651  0.7490 -0.2506
  698TMC3     C10322   2.388   1.117  15.350 -0.8164  0.6709  0.5677
  698TMC3     O10323   2.451   1.184  15.431  0.8690 -0.6457  0.2856
  698TMC3     H10324   2.641   1.187  15.290 -1.1876  0.2922  0.0182
  698TMC3    H110325   2.259   1.047  15.114 -0.2981 -1.0763  0.0257
  698TMC3    H210326   2.627   1.047  14.890  2.0627 -0.6572  1.3203
  698TMC3    C710327   2.363   1.005  14.884 -0.0864  0.6061 -0.3365
  698TMC3    C810328   2.764   1.181  15.078 -0.5891 -0.0634 -0.0024
  698TMC3    O110329   2.240   0.985  14.907 -0.1522 -0.1204 -0.2165
  698TMC3    O210330   2.831   1.186  15.177 -0.7533 -0.0144 -0.0891
  699TMC3    C110331   1.930   3.953  13.267 -0.1917  0.1353 -0.2569
  699TMC3    C210332   1.944   3.819  13.285 -0.9408  0.0799 -0.4494
  699TMC3    C310333   1.826   3.741  13.285 -0.0736 -0.3434 -0.3814
  699TMC3    C410334   1.815   4.014  13.270  0.9019 -0.0959 -0.1697
  699TMC3    C510335   1.703   3.936  13.270 -0.0090  0.0482  0.0505
  699TMC3    C610336   1.706   3.800  13.290  0.6129  0.4969 -0.0772
  699TMC3     C10337   2.037   4.016  13.184  0.0877  0.3285 -0.0633
  699TMC3     O10338   1.989   4.069  13.081  0.5204  0.2836  0.4948
  699TMC3     H10339   2.045   3.782  13.285 -1.5505 -1.5991  0.3660
  699TMC3    H110340   1.809   4.119  13.242  1.9710  0.3859  1.4323
  699TMC3    H210341   1.613   3.746  13.305  0.1926  0.8109 -1.6247
  699TMC3    C710342   1.573   3.999  13.316  0.0818  0.2902  0.4931
  699TMC3    C810343   1.821   3.596  13.321  0.6628 -0.0170 -0.1660
  699TMC3    O110344   1.474   3.931  13.305  0.4248 -0.0421 -0.2912
  699TMC3    O210345   1.711   3.545  13.343  0.2333  0.2490  0.9488
  700TMC3    C110346   1.246   1.667  17.501 -0.3014 -0.2600  0.2491
  700TMC3    C210347   1.260   1.543  17.458  0.1621 -0.0204 -0.6061
  700TMC3    C310348   1.309   1.448  17.547 -0.5818  0.2142 -0.1685
  700TMC3    C410349   1.275   1.710  17.624 -0.4908  0.2927  0.4198
  700TMC3    C510350   1.324   1.615   0.012  0.8151  1.0128  0.1261
  700TMC3    C610351   1.339   1.481  17.676  0.5692  0.0704 -0.4257
  700TMC3     C10352   1.185   1.757  17.412  0.6427  0.4098 -0.9059
  700TMC3     O10353   1.072   1.743  17.373  0.0183  0.8951 -0.2849
  700TMC3     H10354   1.228   1.520  17.357 -1.6288 -1.0266  0.1903
  700TMC3    H110355   1.245   1.809  17.657 -2.4875 -1.2613  3.2066
  700TMC3    H210356   1.363   1.406   0.049  2.7829  0.6385 -0.5637
  700TMC3    C710357   1.394   1.651   0.139 -0.6230 -0.3593  0.2384
  700TMC3    C810358   1.367   1.329  17.501  0.0911 -0.3325  0.4263
  700TMC3    O110359   1.458   1.568   0.199  0.1962  0.4853  0.4864
  700TMC3    O210360   1.404   1.317  17.383 -0.5758  0.0735  0.0320
  701TMC3    C110361   1.304   0.265  15.644  0.1046  0.3373 -0.8002
  701TMC3    C210362   1.302   0.185  15.540 -0.8805  0.0716 -0.1510
  701TMC3    C310363   1.402   0.200  15.452 -0.5639 -0.0318  0.0766
  701TMC3    C410364   1.399   0.359  15.654  0.5586 -0.3384  0.9711
  701TMC3    C510365   1.503   0.369  15.569 -0.2582 -0.4577  0.2756
  701TMC3    C610366   1.508   0.285  15.465  0.3585  0.0916 -0.1243
  701TMC3     C10367   1.196   0.264  15.748  0.1944  0.0358 -0.2157
  701TMC3     O10368   1.202   0.337  15.846 -0.0361  0.6934 -0.5415
  701TMC3     H10369   1.233   0.102  15.530 -0.7146  0.2576 -2.8405
  701TMC3    H110370   1.405   0.411  15.749  1.7371 -0.7787  1.1421
  701TMC3    H210371   1.582   0.296  15.386 -0.5563  1.7862 -0.7531
  701TMC3    C710372   1.596   0.470  15.574  0.3958  0.3182 -0.2822
  701TMC3    C810373   1.406   0.119  15.330 -0.0651  0.2372 -0.2833
  701TMC3    O110374   1.652   0.511  15.474 -0.0515 -0.5652  0.3538
  701TMC3    O210375   1.516   0.109  15.276 -0.0544 -0.6735  0.0218
  702MPD2     C10376   1.153   1.692  10.907  0.0239 -0.4154 -0.2203
  702MPD2    C110377   1.114   1.823  10.926 -0.0209 -0.7238 -0.1515
  702MPD2    C210378   1.180   1.930  10.867 -1.0114  0.3886  0.0366
  702MPD2    C310379   1.269   1.898  10.767  0.2510  0.3710  0.3040
  702MPD2    C410380   1.302   1.769  10.748 -0.1050  0.3489 -0.1412
  702MPD2    C510381   1.240   1.663  10.809 -0.0820 -0.0314 -0.0371
  702MPD2     H10382   1.148   2.031  10.890  0.1081  0.9710 -1.0241
  702MPD2    H110383   1.367   1.739  10.667 -0.5633 -0.1077 -0.3427
  702MPD2    H210384   1.115   1.614  10.972 -0.7383  1.7502  1.9332
  702MPD2    H310385   1.277   1.567  10.775  1.0054  0.5352 -0.4533
  702MPD2     N10386   1.340   1.996  10.695  0.0996  1.2737 -0.0686
  702MPD2    H510387   1.379   1.976  10.603  1.6548  0.7172  0.7218
  702MPD2    N110388   1.024   1.858  11.026 -0.3623  0.7915 -0.3172
  702MPD2    H710389   1.014   1.957  11.050  1.1268  0.7603  0.4145
  703TMC3    C110390   1.393   2.213  10.630  0.1816 -0.7067 -0.1498
  703TMC3    C210391   1.335   2.170  10.508 -0.0676 -0.4567  0.1405
  703TMC3    C310392   1.306   2.271  10.417  0.0682 -0.2748  0.3010
  703TMC3    C410393   1.430   2.342  10.658 -0.0305 -0.6466 -0.0658
  703TMC3    C510394   1.402   2.433  10.560 -0.5235 -0.5977  0.5175
  703TMC3    C610395   1.340   2.399  10.442 -0.1839 -0.9052 -0.7245
  703TMC3     C10396   1.369   2.123  10.740  0.4395  0.0313  0.0369
  703TMC3     O10397   1.341   2.166  10.853 -0.0081 -0.0017  0.5653
  703TMC3     H10398   1.299   2.071  10.483 -1.1583 -0.1621  0.5544
  703TMC3    H110399   1.473   2.364  10.755 -0.1799  1.4063 -0.4572
  703TMC3    H210400   1.316   2.479  10.373  1.6594 -1.1152 -1.6061
  703TMC3    C710401   1.448   2.571  10.577 -0.3041  0.1228 -0.6948
  703TMC3    C810402   1.168   2.268  10.395  0.6260  0.6151  0.0277
  703TMC3    O110403   1.468   2.635  10.479 -0.3439 -0.0520  0.0508
  703TMC3    O210404   1.132   2.298  10.281  0.2313  0.4850  0.3572
  704TMC3    C110405   3.171   0.657  12.726  0.3512  0.3646  0.0064
  704TMC3    C210406   3.308   0.649  12.718  0.9048 -0.1840  0.2609
  704TMC3    C310407   3.357   0.535  12.774 -0.0936  0.1399 -0.2269
  704TMC3    C410408   3.090   0.573  12.793 -0.6105 -0.0599 -0.2727
  704TMC3    C510409   3.146   0.468  12.862 -0.1716 -0.6060 -0.4272
  704TMC3    C610410   3.283   0.442  12.850  0.5400 -0.0246 -0.0787
  704TMC3     C10411   3.107   0.768  12.661  0.3772 -0.0770  0.3311
  704TMC3     O10412   3.014   0.823  12.709  0.1222  0.2012 -0.0089
  704TMC3     H10413   3.364   0.727  12.667 -0.3531 -0.1769 -1.1166
  704TMC3    H110414   2.984   0.588  12.777 -0.5336  0.2074 -0.5225
  704TMC3    H210415   3.338   0.363  12.899  1.0793  1.1493  1.2016
  704TMC3    C710416   3.065   0.357  12.852 -0.1391 -0.0646  0.4762
  704TMC3    C810417   3.501   0.507  12.770  0.4413  0.0719  0.5998
  704TMC3    O110418   3.022   0.335  12.740  0.0025 -0.2858  0.2090
  704TMC3    O210419   3.548   0.447  12.870  0.2079  0.0293 -0.4838
  705MPD2     C10420   2.674   3.350  16.287  0.3077  0.3986 -0.4454
  705MPD2    C110421   2.718   3.473  16.323 -0.4065 -0.5308  0.2148
  705MPD2    C210422   2.634   3.558  16.392 -0.3915 -0.0212  0.4328
  705MPD2    C310423   2.505   3.518  16.416  1.2345 -0.4189 -0.1692
  705MPD2    C410424   2.455   3.401  16.365  0.8851 -0.0818  0.1679
  705MPD2    C510425   2.549   3.316  16.312 -0.0294  0.0369  0.4052
  705MPD2     H10426   2.674   3.656  16.416  0.0991 -0.3545  0.9660
  705MPD2    H110427   2.352   3.371  16.352  0.6718  1.1542 -0.9694
  705MPD2    H210428   2.730   3.284  16.222  0.3979  0.8925 -0.8670
  705MPD2    H310429   2.519   3.231  16.251  1.0191  0.7788 -1.1251
  705MPD2     N10430   2.406   3.599  16.477  0.5526  0.2142  0.2995
  705MPD2    H510431   2.311   3.562  16.484  1.1639 -1.7882 -2.0639
  705MPD2    N110432   2.847   3.521  16.294 -0.5791 -0.0580 -0.2812
  705MPD2    H710433   2.870   3.614  16.327 -0.4567 -0.3458  0.4268
  706TMC3    C110434   3.259   3.521  16.060  0.6955 -0.0075  0.3148
  706TMC3    C210435   3.264   3.655  16.076 -0.1807  0.2880  0.3880
  706TMC3    C310436   3.182   3.715  16.166 -0.9089 -0.5183 -0.5289
  706TMC3    C410437   3.164   3.446  16.129 -0.2734  0.1537  0.4267
  706TMC3    C510438   3.077   3.515  16.209  0.1166  0.5284 -0.4552
  706TMC3    C610439   3.090   3.647  16.239  0.7010 -0.2295 -0.1625
  706TMC3     C10440   3.331   3.468  15.951 -0.4246  0.2687  0.2633
  706TMC3     O10441   3.436   3.526  15.919 -0.4775  0.0415  0.1247
  706TMC3     H10442   3.317   3.726  16.014 -0.0308  1.0304  1.3695
  706TMC3    H110443   3.156   3.339  16.115 -0.1521  0.5564 -2.8024
  706TMC3    H210444   3.025   3.707  16.302  0.1197 -1.9121  0.8531
  706TMC3    C710445   2.952   3.450  16.238 -0.3704  0.0478  0.3512
  706TMC3    C810446   3.131   3.834  16.111 -0.0950 -0.7119  0.1179
  706TMC3    O110447   2.948   3.339  16.191 -0.0997 -0.1142  1.0331
  706TMC3    O210448   3.106   3.837  15.993  0.3245  0.5256  0.1703
  707TMC3    C110449   1.151   2.553   2.056 -0.0171 -0.2438 -0.4637
  707TMC3    C210450   1.252   2.481   2.108  0.7442 -0.0272 -0.1509
  707TMC3    C310451   1.232   2.408   2.217  0.4605  0.5356 -0.3336
  707TMC3    C410452   1.028   2.546   2.105  0.0929 -0.7574 -0.9305
  707TMC3    C510453   1.013   2.471   2.217  0.4292  0.1883  0.5911
  707TMC3    C610454   1.113   2.400   2.277  0.3089  0.1365 -0.3675
  707TMC3     C10455   1.179   2.587   1.910 -0.4700  0.1854  0.0867
  707TMC3     O10456   1.294   2.582   1.870 -0.5530  0.1486  0.0160
  707TMC3     H10457   1.356   2.493   2.080  1.1021  1.0683  1.6369
  707TMC3    H110458   0.939   2.587   2.058 -0.1999  1.1707  1.3009
  707TMC3    H210459   1.102   2.339   2.366 -1.0979  1.9410  0.7078
  707TMC3    C710460   0.879   2.461   2.276  0.5139  0.6883 -0.2940
  707TMC3    C810461   1.316   2.298   2.229 -0.8715 -0.3532  0.1943
  707TMC3    O110462   0.879   2.401   2.381 -0.8517 -0.0876 -0.1126
  707TMC3    O210463   1.332   2.256   2.343  0.7704  0.7060  0.4552
  708MPD2     C10464   1.493   1.290  14.013 -0.0650  0.1794 -0.4485
  708MPD2    C110465   1.523   1.417  14.063 -0.5254 -1.2444 -0.5844
  708MPD2    C210466   1.455   1.455  14.178 -0.6058  0.5193 -0.2101
  708MPD2    C310467   1.345   1.383  14.230 -0.1051 -0.5719 -0.8092
  708MPD2    C410468   1.316   1.261  14.173  1.0544  0.6659 -0.0555
  708MPD2    C510469   1.397   1.208  14.074 -0.1752 -0.1848  0.0510
  708MPD2     H10470   1.473   1.550  14.226  3.2415  0.2410 -1.1398
  708MPD2    H110471   1.240   1.196  14.215  1.4996 -0.6830 -1.3246
  708MPD2    H210472   1.551   1.243  13.935 -1.2544 -1.2367 -0.4817
  708MPD2    H310473   1.378   1.110  14.029  3.6624 -0.2044 -1.5008
  708MPD2     N10474   1.260   1.430  14.332 -0.4737  0.5157  0.1376
  708MPD2    H510475   1.184   1.365  14.352  0.0293 -0.0765  0.1113
  708MPD2    N110476   1.616   1.505  13.990 -0.3355 -0.3548  0.1305
  708MPD2    H710477   1.633   1.489  13.891 -1.8807  0.2596 -0.2478
  709TMC3    C110478   1.683   1.721  13.931 -0.0402  0.1472  0.4724
  709TMC3    C210479   1.713   1.671  13.807 -0.4780 -0.1414 -0.2204
  709TMC3    C310480   1.680   1.742  13.694 -1.0774 -0.0739 -0.2392
  709TMC3    C410481   1.607   1.829  13.950  0.0852  0.2765  0.2066
  709TMC3    C510482   1.564   1.892  13.836  0.5311 -0.3310  0.2982
  709TMC3    C610483   1.606   1.857  13.715 -0.5238 -0.6991  1.0224
  709TMC3     C10484   1.663   1.628  14.038  0.0229 -0.1093  0.6176
  709TMC3     O10485   1.650   1.681  14.147 -0.2090 -0.3211 -0.2513
  709TMC3     H10486   1.774   1.581  13.800  2.6133  1.8650  0.5825
  709TMC3    H110487   1.596   1.871  14.050  2.4141  0.3707  0.4323
  709TMC3    H210488   1.558   1.905  13.631 -0.6894  0.0335  1.5390
  709TMC3    C710489   1.433   1.953  13.837  0.7189 -0.0222  1.1904
  709TMC3    C810490   1.706   1.686  13.566  0.2193  0.2051  1.2721
  709TMC3    O110491   1.390   1.998  13.732  0.0097 -0.2650 -0.6380
  709TMC3    O210492   1.747   1.572  13.563  0.1616 -0.0629  0.1807
  710TMC3    C110493   2.556   4.184   0.586  1.1406 -0.1505  0.6682
  710TMC3    C210494   2.641   4.137   0.491  0.1351 -0.5832 -0.3247
  710TMC3    C310495   2.706   4.022   0.520  1.0417  0.3255  0.6662
  710TMC3    C410496   2.539   4.120   0.704  0.8524 -0.0851  0.0408
  710TMC3    C510497   2.603   4.005   0.731  0.4379  0.1810  0.1120
  710TMC3    C610498   2.678   3.951   0.633  0.2573  0.5662 -0.1105
  710TMC3     C10499   2.447   4.267   0.535 -0.7156 -0.1193  0.0489
  710TMC3     O10500   2.446   4.300   0.422 -0.2538 -0.6923  1.1863
  710TMC3     H10501   2.660   4.189   0.398  0.9096 -1.4989 -0.6766
  710TMC3    H110502   2.451   4.143   0.764  1.9190  0.5937  1.3301
  710TMC3    H210503   2.724   3.855   0.653  3.0854  1.5661 -1.7945
  710TMC3    C710504   2.636   3.994   0.870  0.1939 -0.4006  0.3539
  710TMC3    C810505   2.812   3.964   0.443 -0.3415 -0.3118 -0.1551
  710TMC3    O110506   2.720   3.907   0.886  0.0613  0.5486  0.1086
  710TMC3    O210507   2.838   3.846   0.461 -0.7580  0.3939 -0.2009
  711TMC3    C110508   1.758   4.236  15.198 -0.3221 -0.6137  0.3004
  711TMC3    C210509   1.829   4.131  15.250  0.8483  0.4418 -0.3054
  711TMC3    C310510   1.920   4.160  15.345 -0.1220  0.0589 -0.6206
  711TMC3    C410511   1.777   4.362  15.236  0.9088  0.4014 -0.3559
  711TMC3    C510512   1.877   4.395  15.328 -0.7420 -0.2698 -0.3626
  711TMC3    C610513   1.940   4.290  15.391 -0.6932 -1.0542 -0.0459
  711TMC3     C10514   1.661   4.204  15.098  0.3028  0.2684  0.4728
  711TMC3     O10515   1.677   4.115  15.010 -0.4329  0.1783  0.3354
  711TMC3     H10516   1.825   4.032  15.206 -1.6200 -1.5002  4.4013
  711TMC3    H110517   1.713   4.440  15.197  1.4516 -0.3483 -2.7226
  711TMC3    H210518   2.008   4.318  15.470  0.6769  0.7891 -1.8644
  711TMC3    C710519   1.985   4.471  15.274 -0.1692 -0.6771  0.2187
  711TMC3    C810520   2.042   4.079  15.329 -0.4707  0.2053 -0.3765
  711TMC3    O110521   2.098   4.440  15.326 -0.0232  0.1157  0.2101
  711TMC3    O210522   2.030   3.961  15.303 -0.1444 -0.2485  0.1443
  712MPD2     C10523   3.569   0.419  13.898  0.2531  0.5326  0.0538
  712MPD2    C110524   3.604   0.478  13.775 -0.2299 -0.3815 -0.0266
  712MPD2    C210525   3.670   0.596  13.777 -0.8334  0.0192  0.5932
  712MPD2    C310526   3.699   0.660  13.896 -0.2042  0.9742  0.2240
  712MPD2    C410527   3.664   0.599  14.011  0.5688  0.5546 -0.0026
  712MPD2    C510528   3.601   0.482  14.011  0.1264 -0.1465 -0.5223
  712MPD2     H10529   3.710   0.637  13.685  0.3611  1.9320  1.9718
  712MPD2    H110530   3.685   0.657  14.100  1.2545  0.4110 -0.0706
  712MPD2    H210531   3.499   0.338  13.913  0.8392  0.0892  0.3669
  712MPD2    H310532   3.578   0.444  14.110 -0.9114 -0.0663 -0.7331
  712MPD2     N10533   3.764   0.782  13.900 -0.0314  0.2776  0.8451
  712MPD2    H510534   3.773   0.816  13.995 -2.5800 -0.3554  1.3045
  712MPD2    N110535   3.568   0.429  13.645  0.2667 -0.4927 -0.4803
  712MPD2    H710536   3.613   0.481  13.571  1.0717  1.5821  1.4687
  713TMC3    C110537   3.854   0.982  13.827 -0.6328 -0.0402 -0.4852
  713TMC3    C210538   3.967   1.041  13.780 -0.7852  0.2976 -0.5615
  713TMC3    C310539   3.992   1.173  13.817  0.0205 -0.7042 -0.6377
  713TMC3    C410540   3.751   1.050  13.901  0.2616 -0.2864  0.4479
  713TMC3    C510541   3.778   1.184  13.910  0.6559 -0.2348  0.4005
  713TMC3    C610542   3.902   1.237  13.889  0.3791  0.4971  0.2375
  713TMC3     C10543   3.829   0.845  13.793 -0.8209  0.4036  0.3070
  713TMC3     O10544   3.887   0.803  13.689 -0.0956  0.3117 -0.3296
  713TMC3     H10545   4.037   0.980  13.723 -0.4355 -1.6685  1.9714
  713TMC3    H110546   3.656   1.015  13.939  0.2293  0.0458  0.6768
  713TMC3    H210547   3.906   1.345  13.891  0.9330  0.4541  1.4081
  713TMC3    C710548   3.677   1.267  13.975 -0.6499 -1.6012 -0.2725
  713TMC3    C810549   4.043   1.253  13.711 -0.6821  0.0423 -0.1759
  713TMC3    O110550   3.722   1.360  14.037 -0.0162 -0.3624 -0.0169
  713TMC3    O210551   3.962   1.334  13.665 -0.2251 -0.2089 -0.9657
  714MPD2     C10552   0.546   4.277   1.352 -0.2120 -0.5757 -0.4036
  714MPD2    C110553   0.629   4.188   1.287 -0.4157 -0.1688 -0.3045
  714MPD2    C210554   0.620   4.171   1.145 -0.3887 -0.0418 -0.2260
  714MPD2    C310555   0.535   4.249   1.066 -0.3870  0.5120  0.1979
  714MPD2    C410556   0.448   4.335   1.129 -0.7754  0.8726 -0.2809
  714MPD2    C510557   0.453   4.345   1.268  0.0589  0.7079  0.0583
  714MPD2     H10558   0.695   4.108   1.097  0.5446  0.4653  0.5813
  714MPD2    H110559   0.374   4.393   1.074  1.2195  0.4565 -3.3717
  714MPD2    H210560   0.545   4.287   1.460  1.2428  1.1931 -0.5630
  714MPD2    H310561   0.381   4.406   1.322 -0.2773 -1.3946  2.0140
  714MPD2     N10562   0.550   4.223   0.929 -0.5051  0.5260 -0.2559
  714MPD2    H510563   0.618   4.150   0.911  0.3379  0.6259  2.5715
  714MPD2    N110564   0.731   4.128   1.366 -0.5137 -0.3136 -0.1100
  714MPD2    H710565   0.737   4.141   1.467  0.9778 -0.1296 -0.2133
  715TMC3    C110566   0.925   4.005   1.429 -0.3817 -0.3016  0.1849
  715TMC3    C210567   1.004   3.895   1.406  0.6883  0.3809  0.3369
  715TMC3    C310568   1.115   3.876   1.479  0.2342  0.7835  0.5081
  715TMC3    C410569   0.964   4.102   1.514  0.5370  0.1630  0.0130
  715TMC3    C510570   1.075   4.077   1.595 -0.0951  0.2285 -0.0697
  715TMC3    C610571   1.144   3.960   1.585  0.0080 -0.2655  0.5326
  715TMC3     C10572   0.830   4.042   1.320 -0.8181 -0.3271 -0.0471
  715TMC3     O10573   0.850   4.002   1.205  0.3568 -0.7610  0.2940
  715TMC3     H10574   0.987   3.834   1.318  1.1389  0.8609 -0.0863
  715TMC3    H110575   0.917   4.199   1.516  0.0333 -0.0620 -0.6510
  715TMC3    H210576   1.225   3.944   1.655 -2.6725  0.5355  3.8244
  715TMC3    C710577   1.109   4.165   1.715 -0.2870  0.6268 -0.1949
  715TMC3    C810578   1.224   3.790   1.416  0.6072  0.0006  0.4302
  715TMC3    O110579   1.217   4.152   1.767  0.1907  0.2843 -0.4968
  715TMC3    O210580   1.204   3.759   1.297 -0.1306 -0.2188 -0.0276
  716MPD2     C10581   1.600   1.733  10.025 -0.6370  0.3766  0.5203
  716MPD2    C110582   1.520   1.754   9.914 -0.3963  0.7668 -0.2457
  716MPD2    C210583   1.416   1.660   9.898 -0.6162  0.3494  0.2346
  716MPD2    C310584   1.404   1.557   9.987 -0.3010 -0.0368 -0.0524
  716MPD2    C410585   1.496   1.533  10.090 -0.7084  0.2948 -0.5185
  716MPD2    C510586   1.597   1.620  10.109  0.2710  0.1390 -0.5727
  716MPD2     H10587   1.350   1.663   9.812 -1.2114 -1.2020  0.6306
  716MPD2    H110588   1.493   1.454  10.164  0.2746  0.3529 -0.4132
  716MPD2    H210589   1.678   1.807  10.043  0.0832 -0.0464 -0.8237
  716MPD2    H310590   1.651   1.613  10.203 -0.3386  2.2465 -0.0419
  716MPD2     N10591   1.294   1.467   9.963 -0.6707  0.6964 -0.0932
  716MPD2    H510592   1.222   1.503   9.901 -1.5137 -2.2509 -0.8493
  716MPD2    N110593   1.553   1.871   9.835 -0.3285 -0.1168  0.3294
  716MPD2    H710594   1.627   1.934   9.864  1.4739 -1.8922 -0.4244
  717TMC3    C110595   1.182   1.263   9.946  1.2541  1.1498  0.3118
  717TMC3    C210596   1.073   1.310   9.887  0.5278 -0.1394  0.6233
  717TMC3    C310597   0.985   1.225   9.830 -1.0421 -0.2398  0.1101
  717TMC3    C410598   1.208   1.131   9.945 -0.4018  0.3266  0.1331
  717TMC3    C510599   1.122   1.043   9.883  0.6436  0.0246  0.0119
  717TMC3    C610600   1.009   1.090   9.818  0.0145 -0.4068  0.0179
  717TMC3     C10601   1.277   1.343  10.016  0.2300  0.2620 -0.2395
  717TMC3     O10602   1.344   1.284  10.102  0.2253  0.2444  0.3564
  717TMC3     H10603   1.043   1.414   9.877  1.0331 -0.1289 -0.7162
  717TMC3    H110604   1.302   1.095   9.984 -0.8096 -0.8683 -0.0121
  717TMC3    H210605   0.943   1.024   9.763 -0.9035 -0.3820  1.0882
  717TMC3    C710606   1.154   0.904   9.883  0.1589  0.4971  0.3314
  717TMC3    C810607   0.869   1.275   9.749 -0.1963 -0.1345  0.0019
  717TMC3    O110608   1.111   0.839   9.788  0.0425  0.4993  1.0631
  717TMC3    O210609   0.827   1.387   9.778 -0.1923 -0.5651 -0.4975
  718MPD2     C10610   0.610   0.977  13.035 -0.8930  0.1870 -0.2791
  718MPD2    C110611   0.549   0.976  12.914 -0.3180  0.2961 -0.2747
  718MPD2    C210612   0.413   0.999  12.904 -0.3973 -0.6201 -0.7332
  718MPD2    C310613   0.346   1.035  13.017 -0.5834  0.8145  0.4856
  718MPD2    C410614   0.408   1.043  13.135 -0.1270 -0.2548  0.5658
  718MPD2    C510615   0.536   1.005  13.146 -0.6693 -0.3091 -0.2652
  718MPD2     H10616   0.361   0.996  12.809  0.0476 -0.9638 -0.9659
  718MPD2    H110617   0.351   1.070  13.223 -0.2449 -1.7342  0.9356
  718MPD2    H210618   0.713   0.946  13.038 -1.2109 -0.3058  4.6748
  718MPD2    H310619   0.587   1.000  13.241  0.0557  0.5012 -0.6077
  718MPD2     N10620   0.211   1.071  13.002 -0.4008  0.2238  0.2414
  718MPD2    H510621   0.185   1.075  12.904  2.6673 -1.6964 -0.6738
  718MPD2    N110622   0.629   0.935  12.807 -0.1656 -0.6122 -0.7915
  718MPD2    H710623   0.729   0.955  12.816 -0.5435  1.3736 -1.0734
  719TMC3    C110624   0.659   0.954  12.566 -0.0041  0.7418 -0.7805
  719TMC3    C210625   0.562   1.013  12.490  0.0576 -0.4236 -0.2005
  719TMC3    C310626   0.572   1.140  12.439 -0.0920  0.3370  0.4430
  719TMC3    C410627   0.775   1.030  12.588  0.2692 -0.1995 -0.6626
  719TMC3    C510628   0.772   1.164  12.536 -0.5298  0.2015 -0.4657
  719TMC3    C610629   0.678   1.213  12.449 -0.5545  0.2426 -0.2031
  719TMC3     C10630   0.586   0.896  12.679  0.0217  0.1491  0.0438
  719TMC3     O10631   0.471   0.860  12.661 -0.0003 -0.6054  0.4909
  719TMC3     H10632   0.463   0.968  12.488  1.0880 -2.7096 -0.6676
  719TMC3    H110633   0.856   0.995  12.650  0.9364  0.7503 -0.9909
  719TMC3    H210634   0.673   1.318  12.421 -0.5573 -0.1952 -1.8012
  719TMC3    C710635   0.894   1.234  12.526 -0.0614  0.1795  0.9512
  719TMC3    C810636   0.463   1.212  12.496 -0.2258  0.4098  0.1277
  719TMC3    O110637   0.903   1.334  12.454  0.6731 -0.6893 -0.4365
  719TMC3    O210638   0.453   1.204  12.619  0.4142  0.5546  0.4057
  720MPD2     C10639   2.879   2.849  13.867  0.3056  0.3509  0.3077
  720MPD2    C110640   2.999   2.869  13.800  0.4262  1.0378  0.5720
  720MPD2    C210641   3.117   2.828  13.867  0.1478 -0.1955 -0.1445
  720MPD2    C310642   3.120   2.772  13.993 -0.9337 -0.6580 -0.3850
  720MPD2    C410643   3.002   2.769  14.061  0.8721 -0.3255 -0.1058
  720MPD2    C510644   2.886   2.814  14.001 -0.0876  0.3939  0.0809
  720MPD2     H10645   3.215   2.842  13.824  0.7876  0.3410  1.4784
  720MPD2    H110646   2.996   2.741  14.165 -0.4299  1.9684  0.4381
  720MPD2    H210647   2.782   2.876  13.828  1.0883  0.4461 -1.5737
  720MPD2    H310648   2.785   2.808  14.041 -1.1453  0.9250 -2.4713
  720MPD2     N10649   3.243   2.740  14.050  0.3326  0.3306 -0.4149
  720MPD2    H510650   3.327   2.757  13.997  0.2764  1.0248 -0.2759
  720MPD2    N110651   3.011   2.933  13.677  0.1161 -0.0172  0.2559
  720MPD2    H710652   3.104   2.959  13.644 -0.3607  3.3789  1.5443
  721TMC3    C110653   3.398   2.658  14.210 -0.4029  0.2233  0.4946
  721TMC3    C210654   3.434   2.635  14.338 -0.0309 -0.8829 -0.4555
  721TMC3    C310655   3.561   2.593  14.362  0.2184 -0.2212  0.6476
  721TMC3    C410656   3.488   2.654  14.108 -0.3359 -0.5657  0.0827
  721TMC3    C510657   3.613   2.600  14.135 -0.3477  0.6171  0.5649
  721TMC3    C610658   3.658   2.575  14.263 -0.1867 -0.6843  0.0932
  721TMC3     C10659   3.261   2.684  14.177 -0.1817 -0.4506 -0.5027
  721TMC3     O10660   3.187   2.663  14.269  0.0906 -0.2434  0.1141
  721TMC3     H10661   3.357   2.627  14.414  0.3424  0.9933  0.0988
  721TMC3    H110662   3.465   2.664  14.003 -0.4281  0.3558  0.1884
  721TMC3    H210663   3.761   2.546  14.279  0.3212  0.2644 -1.5175
  721TMC3    C710664   3.719   2.627  14.047 -0.4869 -0.3614  0.5275
  721TMC3    C810665   3.583   2.524  14.491  0.0630 -0.2789  0.1100
  721TMC3    O110666   3.818   2.554  14.059  0.2511 -0.9711  0.0250
  721TMC3    O210667   3.486   2.455  14.524 -0.2371 -0.3997  0.6713
  722MPD2     C10668   2.521   0.937  13.432  0.3112 -0.1342 -1.0492
  722MPD2    C110669   2.497   1.073  13.422  0.0705  0.5721  0.0577
  722MPD2    C210670   2.387   1.114  13.345 -0.2308  0.1270  0.5222
  722MPD2    C310671   2.292   1.031  13.302  0.0030  0.3242  0.0229
  722MPD2    C410672   2.318   0.897  13.316 -0.0497  0.8350  0.7035
  722MPD2    C510673   2.425   0.856  13.388 -0.3311 -0.1021  0.0746
  722MPD2     H10674   2.389   1.219  13.317  1.1445 -0.1296 -0.3325
  722MPD2    H110675   2.250   0.823  13.274  0.9676  0.2415  0.1164
  722MPD2    H210676   2.605   0.900  13.488 -0.2457 -0.9001 -0.7125
  722MPD2    H310677   2.441   0.751  13.410  2.6615 -0.0664 -2.0151
  722MPD2     N10678   2.183   1.089  13.238  1.1403  0.6575 -0.1506
  722MPD2    H510679   2.183   1.190  13.246 -0.0994  0.6039  0.5042
  722MPD2    N110680   2.594   1.168  13.462  0.5463  0.4705 -0.2668
  722MPD2    H710681   2.567   1.265  13.448 -1.3351  0.1789  1.4605
  723TMC3    C110682   1.997   1.111  13.093 -0.7043 -0.3482 -0.4972
  723TMC3    C210683   1.880   1.054  13.054 -0.3528 -0.0101 -0.0384
  723TMC3    C310684   1.790   1.122  12.978 -0.2739  0.3183  0.5899
  723TMC3    C410685   2.010   1.247  13.069  0.6980  0.0436  0.1490
  723TMC3    C510686   1.930   1.317  12.991  0.1469  0.0914 -0.0910
  723TMC3    C610687   1.811   1.259  12.950  0.4020  0.5323 -0.2702
  723TMC3     C10688   2.088   1.027  13.163  0.5368  0.1985  0.4003
  723TMC3     O10689   2.084   0.909  13.137 -0.0734 -0.2796  0.8603
  723TMC3     H10690   1.871   0.947  13.072  1.0956 -0.4023 -1.6479
  723TMC3    H110691   2.097   1.304  13.099 -1.0284  2.1795  1.1001
  723TMC3    H210692   1.744   1.308  12.881 -0.8261 -0.2826  0.3423
  723TMC3    C710693   1.948   1.461  12.983  0.1778  0.1922  0.3247
  723TMC3    C810694   1.655   1.077  12.981 -0.0626  0.4915 -0.1828
  723TMC3    O110695   2.013   1.508  13.080 -0.0610  0.3634  0.2931
  723TMC3    O210696   1.564   1.161  12.977 -0.1700  0.6871 -0.5263
  724TMC3    C110697   2.433   4.060   9.937 -0.3995 -0.6426  0.4380
  724TMC3    C210698   2.367   4.170   9.929 -0.0264  0.6543 -0.6707
  724TMC3    C310699   2.430   4.273   9.863 -0.1065 -0.0357 -0.1899
  724TMC3    C410700   2.563   4.046   9.894  0.5124  0.4424  0.3363
  724TMC3    C510701   2.628   4.155   9.851 -0.5906  0.2269 -0.5113
  724TMC3    C610702   2.562   4.267   9.825 -0.0459  0.2397 -0.3437
  724TMC3     C10703   2.380   3.949  10.013 -0.3214  0.8497  0.6764
  724TMC3     O10704   2.441   3.843  10.008  0.4168 -0.1046  0.3679
  724TMC3     H10705   2.259   4.178   9.931 -0.0135  0.3172  0.7385
  724TMC3    H110706   2.615   3.954   9.922 -0.6403  1.1231  4.6226
  724TMC3    H210707   2.605   4.340   9.757  0.4221 -0.4825 -0.8205
  724TMC3    C710708   2.770   4.180   9.894  0.6137  0.2523  0.7113
  724TMC3    C810709   2.342   4.371   9.807  0.0379 -0.5287 -0.1118
  724TMC3    O110710   2.816   4.284   9.847 -0.1258 -0.1037  0.1812
  724TMC3    O210711   2.219   4.351   9.790  0.0244  0.1186  0.5107
  725TMC3    C110712   4.050   2.627  13.003 -0.3591  0.1321 -0.2137
  725TMC3    C210713   3.919   2.665  12.988  0.6277 -0.2247 -0.7408
  725TMC3    C310714   3.833   2.580  12.931  0.1179 -0.1826 -0.0698
  725TMC3    C410715   4.095   2.504  12.966 -0.0294  0.2862 -0.4360
  725TMC3    C510716   4.005   2.422  12.900 -0.2054 -0.1260  0.1411
  725TMC3    C610717   3.874   2.451  12.887 -0.2857 -0.2389 -1.0379
  725TMC3     C10718   4.134   2.733  13.052 -0.5112  0.9108 -0.2561
  725TMC3     O10719   4.088   2.842  13.080  0.0862  0.3895  0.5795
  725TMC3     H10720   3.887   2.767  13.008  0.1303 -1.0264  2.4790
  725TMC3    H110721   4.200   2.480  12.956  0.2001  1.7647 -1.6428
  725TMC3    H210722   3.797   2.396  12.834 -1.1498  0.3747 -0.4275
  725TMC3    C710723   4.044   2.292  12.846 -0.0491  0.0221  0.6237
  725TMC3    C810724   3.719   2.635  12.848 -0.5791  0.4105 -0.2466
  725TMC3    O110725   3.968   2.242  12.763  0.0783 -0.3392 -0.1556
  725TMC3    O210726   3.639   2.556  12.804 -0.1206 -0.6041  0.2105
  726MPD2     C10727   2.347   3.947  11.102 -0.1101  0.1183 -0.4170
  726MPD2    C110728   2.274   4.015  11.008 -0.2757  0.0964  0.2119
  726MPD2    C210729   2.140   4.030  11.025  0.2481 -0.0497 -0.2496
  726MPD2    C310730   2.077   3.976  11.135 -0.0084  0.5727  0.8121
  726MPD2    C410731   2.148   3.894  11.218 -0.2920 -0.6210  0.2920
  726MPD2    C510732   2.281   3.887  11.205 -0.0493  0.0251  0.1663
  726MPD2     H10733   2.089   4.088  10.949  0.9204  0.6245 -0.1847
  726MPD2    H110734   2.104   3.836  11.298 -0.1106  0.4975  1.2006
  726MPD2    H210735   2.453   3.927  11.093 -0.0219  0.3579  0.1233
  726MPD2    H310736   2.342   3.818  11.263  2.4886  1.3064 -0.9843
  726MPD2     N10737   1.946   4.015  11.179  0.4593 -0.3275 -0.1396
  726MPD2    H510738   1.923   3.976  11.270 -0.8506  0.4642 -0.1334
  726MPD2    N110739   2.331   4.074  10.892  0.1957 -0.2183 -0.5830
  726MPD2    H710740   2.267   4.120  10.828 -1.5035 -0.2616  1.0949
  727TMC3    C110741   2.502   4.167  10.749 -0.0202  0.4923  0.3855
  727TMC3    C210742   2.624   4.145  10.683  0.6768  0.3110 -0.2181
  727TMC3    C310743   2.659   4.237  10.587 -0.2253 -0.2326  0.2232
  727TMC3    C410744   2.415   4.273  10.722 -0.0706  0.0099 -0.6615
  727TMC3    C510745   2.449   4.353  10.614  0.0444  0.1323  0.3765
  727TMC3    C610746   2.581   4.349  10.558  0.0117 -0.9540 -0.6837
  727TMC3     C10747   2.463   4.069  10.848  0.0205  0.2771  0.8821
  727TMC3     O10748   2.551   3.986  10.881  0.0187 -0.1045  0.3491
  727TMC3     H10749   2.695   4.069  10.711  2.6721  2.8155  1.5423
  727TMC3    H110750   2.317   4.290  10.766  0.6775  1.4385  0.4379
  727TMC3    H210751   2.601   4.403  10.466 -0.3578 -0.4251 -0.4535
  727TMC3    C710752   2.354   4.457  10.569  0.0081  0.1752 -0.6310
  727TMC3    C810753   2.797   4.246  10.540 -0.1547  0.2110 -0.2510
  727TMC3    O110754   2.237   4.433  10.568 -0.0523 -0.0879  0.7163
  727TMC3    O210755   2.833   4.356  10.501  0.4186  0.5679 -0.0643
  728TMC3    C110756   1.396   3.159  14.982 -0.3144 -0.2223  0.1876
  728TMC3    C210757   1.520   3.175  14.919 -0.7265 -0.6771 -0.0241
  728TMC3    C310758   1.533   3.186  14.779  0.3455 -0.3752  0.3221
  728TMC3    C410759   1.282   3.145  14.905 -0.0569 -0.1567  0.5013
  728TMC3    C510760   1.303   3.163  14.766 -0.1856 -0.3739 -0.7786
  728TMC3    C610761   1.424   3.170  14.702 -0.0291 -0.4049  0.0022
  728TMC3     C10762   1.388   3.212  15.116 -0.3419  0.5643  0.0023
  728TMC3     O10763   1.477   3.285  15.156  0.0056 -0.0272  0.2827
  728TMC3     H10764   1.614   3.180  14.973 -1.3520  1.9969  0.7813
  728TMC3    H110765   1.184   3.154  14.949 -0.7932  0.3578 -1.2724
  728TMC3    H210766   1.421   3.174  14.594 -1.8234 -2.0652 -0.0046
  728TMC3    C710767   1.189   3.205  14.688  0.9684 -0.0340  0.5437
  728TMC3    C810768   1.620   3.286  14.725  0.1520 -0.3330  0.1564
  728TMC3    O110769   1.084   3.138  14.697 -0.3755  0.7778 -0.3415
  728TMC3    O210770   1.584   3.335  14.619  0.2496  0.6288 -0.2635
  729MPD2     C10771   3.266   4.512  16.523 -0.2602  0.0276 -0.1274
  729MPD2    C110772   3.396   4.478  16.557 -0.5708  0.1227 -0.2816
  729MPD2    C210773   3.429   4.459  16.687 -0.4111 -0.4265  0.0501
  729MPD2    C310774   3.337   4.477  16.789  0.0315 -0.4207  0.0737
  729MPD2    C410775   3.208   4.519  16.757 -0.3796  0.1241 -0.0860
  729MPD2    C510776   3.176   4.539  16.623 -0.2434  0.1995 -0.0233
  729MPD2     H10777   3.531   4.433  16.710 -0.2015  1.4443  1.2488
  729MPD2    H110778   3.132   4.516  16.834  0.4939  0.5327  0.7938
  729MPD2    H210779   3.232   4.520  16.420  2.8507  1.4101 -1.0183
  729MPD2    H310780   3.073   4.560  16.599  0.7266  3.4820 -1.4035
  729MPD2     N10781   3.375   4.465  16.920  0.1062  0.2574 -0.1311
  729MPD2    H510782   3.301   4.478  16.987 -0.0175 -1.0592 -0.0240
  729MPD2    N110783   3.476   4.459  16.453  0.3333 -0.0529  0.4378
  729MPD2    H710784   3.435   4.487  16.365  1.2003 -1.5159 -0.4223
  730TMC3    C110785   3.506   4.460  17.113  0.2710  0.4470 -0.1997
  730TMC3    C210786   3.626   4.505  17.166  0.5910 -0.0344 -0.5024
  730TMC3    C310787   3.625   4.570  17.287  0.2912  0.3138 -0.3178
  730TMC3    C410788   3.393   4.485  17.182  0.3473  0.0865  0.4897
  730TMC3    C510789   3.393   4.557  17.298  0.3776 -0.3672 -0.1131
  730TMC3    C610790   3.514   4.597  17.356 -0.2973 -0.3953  0.7583
  730TMC3     C10791   3.501   4.438  16.972  0.0330  0.7580  0.1124
  730TMC3     O10792   3.606   4.411  16.916 -0.0478  0.7856  0.2628
  730TMC3     H10793   3.715   4.490  17.106  1.6645  1.2755  0.7570
  730TMC3    H110794   3.295   4.451  17.151  0.3890  0.4652 -0.0612
  730TMC3    H210795   3.515   4.648  17.452 -0.7836  1.5434 -0.2713
  730TMC3    C710796   3.309   4.673  17.284  0.1959  0.3149  0.2229
  730TMC3    C810797   3.689   4.700  17.270 -0.5579  0.1409  0.6930
  730TMC3    O110798   3.257   4.692  17.171 -0.1129  0.4377  0.1532
  730TMC3    O210799   3.704   0.008  17.154  0.4755 -0.6949  0.5553
  731MPD2     C10800   3.568   2.688  11.796 -0.0952  0.4348  0.0602
  731MPD2    C110801   3.448   2.633  11.821  0.8847 -0.1638  0.2736
  731MPD2    C210802   3.366   2.691  11.909 -0.6472  0.2832  0.1092
  731MPD2    C310803   3.402   2.811  11.976  0.0502 -0.2766  0.0948
  731MPD2    C410804   3.517   2.868  11.947 -0.1392 -0.3086  0.6507
  731MPD2    C510805   3.603   2.806  11.859  0.0816 -0.2721 -0.0025
  731MPD2     H10806   3.274   2.644  11.942 -0.6516  0.5609  0.4992
  731MPD2    H110807   3.547   2.957  12.001  0.0740 -1.2799  2.1157
  731MPD2    H210808   3.633   2.635  11.727  0.5024 -1.4270  2.0514
  731MPD2    H310809   3.707   2.833  11.846  0.2052 -1.6023 -1.6653
  731MPD2     N10810   3.307   2.852  12.075 -0.7682 -0.1725 -0.5151
  731MPD2    H510811   3.246   2.772  12.088 -0.0543 -0.1267  2.9906
  731MPD2    N110812   3.435   2.500  11.762 -0.1160  0.3272 -0.0896
  731MPD2    H710813   3.521   2.461  11.724 -0.8011  0.6398 -1.9328
  732TMC3    C110814   3.342   2.290  11.708  0.3937 -0.2977 -0.6655
  732TMC3    C210815   3.240   2.197  11.738 -1.0337 -0.8249  0.4138
  732TMC3    C310816   3.265   2.072  11.690  0.0560  0.6758  0.1749
  732TMC3    C410817   3.455   2.264  11.636  0.6753  0.4082  0.2814
  732TMC3    C510818   3.462   2.138  11.586  0.4593  0.6267 -0.6784
  732TMC3    C610819   3.370   2.042  11.613 -0.3035 -0.0257  0.2002
  732TMC3     C10820   3.326   2.416  11.780  0.1631  0.7904  1.0574
  732TMC3     O10821   3.224   2.446  11.840 -0.5113  0.1198 -0.1391
  732TMC3     H10822   3.159   2.229  11.802 -0.3975 -0.6107  1.1159
  732TMC3    H110823   3.530   2.342  11.627  0.0184  0.9418 -0.5675
  732TMC3    H210824   3.391   1.944  11.572 -2.2163  0.2907 -1.5472
  732TMC3    C710825   3.600   2.089  11.570 -0.3773  0.8641  0.3074
  732TMC3    C810826   3.190   1.954  11.741  0.4974  0.1580  0.4112
  732TMC3    O110827   3.654   2.132  11.466 -0.7814 -0.1779  0.0103
  732TMC3    O210828   3.210   1.861  11.663 -0.8897 -0.2865  0.2764
  733TMC3    C110829   4.491   1.152  13.033 -0.0479  0.5620 -0.1511
  733TMC3    C210830   4.605   1.099  13.092  0.8611  0.1829  0.2844
  733TMC3    C310831   4.722   1.150  13.045  0.5456 -0.1620  0.1837
  733TMC3    C410832   4.491   1.237  12.929  0.1485 -0.1925  0.0563
  733TMC3    C510833   4.614   1.277  12.887 -0.6356  0.1833 -0.7535
  733TMC3    C610834   0.009   1.232  12.944 -0.0257 -0.3528  0.6547
  733TMC3     C10835   4.359   1.087  13.056 -0.2999  0.1587 -0.0908
  733TMC3     O10836   4.274   1.118  12.970 -0.5441 -0.4307  0.1057
  733TMC3     H10837   4.605   1.013  13.159  0.9605  0.3353  0.4786
  733TMC3    H110838   4.402   1.274  12.879  0.1058 -0.4035 -0.0231
  733TMC3    H210839   0.106   1.278  12.929  0.0119 -0.8527 -0.6153
  733TMC3    C710840   4.621   1.336  12.754  0.3489 -0.3550  0.0569
  733TMC3    C810841   0.116   1.098  13.098 -0.5593 -0.1240 -0.6199
  733TMC3    O110842   4.519   1.387  12.711 -0.7180 -0.1394  0.4821
  733TMC3    O210843   0.120   1.063  13.212 -0.1149  0.3105  0.1551
  734MPD2     C10844   1.772   3.413  12.357  0.3459 -0.1970 -0.5257
  734MPD2    C110845   1.729   3.298  12.301 -0.7979  0.0484 -0.9724
  734MPD2    C210846   1.727   3.297  12.157 -0.0995  1.3115  0.3268
  734MPD2    C310847   1.780   3.393  12.080 -0.6107 -0.0262 -0.1054
  734MPD2    C410848   1.817   3.516  12.137  0.6281 -0.0140  0.4231
  734MPD2    C510849   1.804   3.521  12.272 -0.8177  0.3767 -1.3951
  734MPD2     H10850   1.691   3.212  12.099 -3.2216  1.2859  2.2395
  734MPD2    H110851   1.851   3.599  12.076  2.1467 -0.1238  1.1166
  734MPD2    H210852   1.767   3.430  12.464 -0.7473 -0.2240 -0.5717
  734MPD2    H310853   1.841   3.612  12.317 -0.8989 -1.2079  1.9531
  734MPD2     N10854   1.795   3.365  11.940 -0.8636 -0.1779  0.5589
  734MPD2    H510855   1.781   3.267  11.921 -1.3404 -0.0960  0.4851
  734MPD2    N110856   1.687   3.193  12.381  0.0867 -0.2617 -0.2261
  734MPD2    H710857   1.693   3.191  12.482 -0.0897 -2.2823 -0.2484
  735TMC3    C110858   1.610   2.958  12.398 -0.3014 -0.2855 -0.3276
  735TMC3    C210859   1.508   2.877  12.367  0.5241  0.1315 -0.3266
  735TMC3    C310860   1.537   2.747  12.331 -0.8688 -0.2301 -0.0950
  735TMC3    C410861   1.732   2.908  12.431  0.1195  0.1448 -0.2989
  735TMC3    C510862   1.757   2.775  12.395  0.3763  0.9686 -0.0244
  735TMC3    C610863   1.660   2.695  12.351  0.4456  0.4769 -0.0219
  735TMC3     C10864   1.615   3.084  12.327  0.2904  0.3853  0.0829
  735TMC3     O10865   1.565   3.066  12.214  0.0367 -0.1671  0.3378
  735TMC3     H10866   1.414   2.925  12.341  1.2176  1.7690  0.1633
  735TMC3    H110867   1.818   2.972  12.447  0.3736 -0.3784  0.4774
  735TMC3    H210868   1.682   2.601  12.301  1.3751  0.9612 -0.5286
  735TMC3    C710869   1.890   2.728  12.398  1.0602 -0.7263  0.2377
  735TMC3    C810870   1.477   2.711  12.207  0.4523 -0.3337 -0.0266
  735TMC3    O110871   1.965   2.818  12.365  0.2831  0.2381  0.0539
  735TMC3    O210872   1.439   2.601  12.171 -0.3603  0.5772  0.0464
  736MPD2     C10873   2.024   2.398  12.505  1.1401 -0.0399 -0.7861
  736MPD2    C110874   2.020   2.516  12.440  0.1689 -0.1483 -0.1696
  736MPD2    C210875   2.120   2.551  12.349  1.0162 -0.1184  0.9183
  736MPD2    C310876   2.231   2.473  12.326  1.0192 -0.6263  0.1135
  736MPD2    C410877   2.232   2.354  12.393  0.2690 -0.3685 -0.4683
  736MPD2    C510878   2.130   2.311  12.478  0.0720  0.7819 -0.5530
  736MPD2     H10879   2.121   2.648  12.301 -1.6711 -0.5272  0.0095
  736MPD2    H110880   2.309   2.284  12.363  0.5684 -0.0155 -0.5349
  736MPD2    H210881   1.942   2.370  12.569 -1.5701  0.4912 -3.9763
  736MPD2    H310882   2.132   2.215  12.528  0.2407  1.6626  1.1636
  736MPD2     N10883   2.336   2.488  12.231  0.1102 -0.0718 -0.1741
  736MPD2    H510884   2.406   2.415  12.231  0.6847  0.4809  1.1209
  736MPD2    N110885   1.904   2.595  12.444  0.4288 -0.4490 -0.1816
  736MPD2    H710886   1.828   2.570  12.506  2.5372 -1.2853  2.0910
  737TMC3    C110887   2.442   2.590  12.033 -0.3966 -0.8909  0.6145
  737TMC3    C210888   2.475   2.709  11.976  0.3790  0.3874 -0.1402
  737TMC3    C310889   2.556   2.710  11.867  0.0163 -0.2807  0.4385
  737TMC3    C410890   2.509   2.478  11.992  0.5948 -0.2160  0.2668
  737TMC3    C510891   2.598   2.489  11.891 -0.2935  0.4659  0.2636
  737TMC3    C610892   2.621   2.598  11.820  0.7337  0.0873 -0.1408
  737TMC3     C10893   2.347   2.596  12.152  0.5857  0.6491 -0.7125
  737TMC3     O10894   2.297   2.707  12.167  0.1240 -0.0649 -0.0351
  737TMC3     H10895   2.426   2.801  12.004 -1.3948 -1.1389  1.7609
  737TMC3    H110896   2.464   2.384  12.022  2.2485 -2.1686 -3.2956
  737TMC3    H210897   2.700   2.604  11.746 -0.7998 -0.1671 -1.8078
  737TMC3    C710898   2.667   2.361  11.853 -0.1104  0.6664 -0.4911
  737TMC3    C810899   2.576   2.841  11.808  1.4537 -0.3304  0.2444
  737TMC3    O110900   2.682   2.274  11.938 -0.1635  0.2694  0.4071
  737TMC3    O210901   2.533   2.945  11.861 -0.2670  0.5688 -0.2768
  738MPD2     C10902   2.935   1.406  15.019 -0.4309  0.5542 -0.2305
  738MPD2    C110903   2.840   1.358  14.936 -1.1335 -0.4840  0.3293
  738MPD2    C210904   2.798   1.431  14.825  0.7602 -0.0306 -0.6091
  738MPD2    C310905   2.844   1.561  14.814 -0.4719 -0.7945  0.5455
  738MPD2    C410906   2.954   1.599  14.890  0.3814 -1.0863 -0.1090
  738MPD2    C510907   3.002   1.524  14.989  0.6837  0.1540  0.0437
  738MPD2     H10908   2.719   1.395  14.760  1.6955  0.2734 -1.9181
  738MPD2    H110909   2.994   1.698  14.869 -2.8531  0.8445  3.0070
  738MPD2    H210910   2.975   1.355  15.106  1.3571  1.0260 -0.7544
  738MPD2    H310911   3.086   1.548  15.054  1.3098  0.0482 -0.7183
  738MPD2     N10912   2.792   1.653  14.718  0.4737  0.1923 -0.0346
  738MPD2    H510913   2.850   1.734  14.695 -0.2187  0.6884 -0.0332
  738MPD2    N110914   2.765   1.240  14.957 -0.4364  0.1123 -0.6441
  738MPD2    H710915   2.703   1.205  14.885 -0.6086 -0.8244 -0.0471
  739TMC3    C110916   2.659   1.725  14.525 -0.1685 -0.4577  0.3458
  739TMC3    C210917   2.542   1.710  14.456 -0.4247 -0.4581  0.0818
  739TMC3    C310918   2.529   1.775  14.335 -0.7446  0.4565  0.0885
  739TMC3    C410919   2.759   1.803  14.479 -0.2074 -0.0055 -0.6227
  739TMC3    C510920   2.738   1.869  14.363 -0.2141 -0.1462 -0.1133
  739TMC3    C610921   2.627   1.860  14.291  1.0902  0.0980 -0.4708
  739TMC3     C10922   2.683   1.631  14.632 -0.1877 -0.4601  0.1853
  739TMC3     O10923   2.588   1.549  14.644 -0.0829 -0.3204  0.7374
  739TMC3     H10924   2.465   1.641  14.488 -2.4619  0.6472 -2.3925
  739TMC3    H110925   2.860   1.790  14.514  0.4668 -1.8124 -3.2755
  739TMC3    H210926   2.611   1.923  14.204  0.3290 -0.5271 -0.7787
  739TMC3    C710927   2.827   1.980  14.329  0.6891 -0.4196 -0.0403
  739TMC3    C810928   2.411   1.763  14.249  0.2085  0.2467  0.1807
  739TMC3    O110929   2.815   2.033  14.220  0.1420  0.4545  0.0679
  739TMC3    O210930   2.418   1.807  14.131 -0.1390 -0.0056 -0.3770
  740TMC3    C110931   3.162   3.095  14.262  0.0273  0.1697  0.1048
  740TMC3    C210932   3.223   3.057  14.379  0.2804  0.3294  0.1904
  740TMC3    C310933   3.355   3.018  14.367  0.3274 -0.0706 -0.5014
  740TMC3    C410934   3.226   3.107  14.149  0.3384 -0.3215  0.0994
  740TMC3    C510935   3.358   3.069  14.141 -0.5100  0.0305  0.5630
  740TMC3    C610936   3.431   3.029  14.256  0.0653  0.2852 -0.0903
  740TMC3     C10937   3.018   3.081  14.257 -0.2937 -0.3550 -0.3567
  740TMC3     O10938   2.960   3.065  14.153  0.3190  0.2392 -0.0319
  740TMC3     H10939   3.169   3.034  14.470  0.3760 -1.6760 -0.2660
  740TMC3    H110940   3.169   3.126  14.058 -2.5920 -3.2318  1.3164
  740TMC3    H210941   3.534   2.995  14.252 -0.4181 -1.1987 -0.0040
  740TMC3    C710942   3.415   3.036  14.013  0.2432  0.7105  0.0598
  740TMC3    C810943   3.415   2.946  14.477  0.4848  0.0401  0.3018
  740TMC3    O110944   3.503   2.948  14.015  0.0606  0.0792  0.2618
  740TMC3    O210945   3.539   2.944  14.474  0.4828 -0.0888 -0.3188
  741TMC3    C110946   2.637   2.377  14.510  0.3048 -0.4605 -0.3008
  741TMC3    C210947   2.580   2.257  14.550  0.4809  0.0172 -0.2259
  741TMC3    C310948   2.610   2.211  14.673  0.2070 -0.1800 -0.7147
  741TMC3    C410949   2.696   2.455  14.609  0.3626 -0.1898  0.5786
  741TMC3    C510950   2.733   2.397  14.726 -0.2402 -0.1331  0.6318
  741TMC3    C610951   2.704   2.267  14.753  0.0399  0.4597  0.1360
  741TMC3     C10952   2.611   2.437  14.385 -0.1452 -0.0068  0.4231
  741TMC3     O10953   2.614   2.559  14.381 -0.3522  0.2509  0.2650
  741TMC3     H10954   2.499   2.225  14.485  1.2492 -1.1472 -0.6126
  741TMC3    H110955   2.689   2.562  14.591 -0.5304 -0.1000  1.4514
  741TMC3    H210956   2.731   2.224  14.849 -2.1278  0.4079  0.7367
  741TMC3    C710957   2.825   2.468  14.810  0.0938 -0.9456 -0.6917
  741TMC3    C810958   2.547   2.093  14.728  0.0290  0.0109 -0.6813
  741TMC3    O110959   2.871   2.412  14.908 -0.3263 -0.4656  0.0274
  741TMC3    O210960   2.560   2.060  14.844 -0.3996 -0.0070 -0.4348
  742TMC3    C110961   2.660   0.813  15.389  0.6974  0.1034 -0.4199
  742TMC3    C210962   2.569   0.775  15.298  0.5043 -0.2482 -0.2381
  742TMC3    C310963   2.608   0.754  15.170 -0.5358  0.3607  0.0735
  742TMC3    C410964   2.781   0.861  15.354  0.5806  1.0662  0.0599
  742TMC3    C510965   2.823   0.824  15.229  0.1172 -0.5514  0.1666
  742TMC3    C610966   2.736   0.777  15.132 -0.5153 -0.6232 -0.5588
  742TMC3     C10967   2.620   0.830  15.525  0.7379 -0.6080  0.6937
  742TMC3     O10968   2.545   0.744  15.573 -0.1285  0.2564  0.2901
  742TMC3     H10969   2.466   0.753  15.325  0.2661 -0.0077 -0.9687
  742TMC3    H110970   2.853   0.885  15.432  1.5442  0.0803 -0.5196
  742TMC3    H210971   2.780   0.741  15.040  0.3425 -0.4834 -0.2060
  742TMC3    C710972   2.960   0.786  15.206 -0.0082 -0.3898  0.5064
  742TMC3    C810973   2.523   0.703  15.066 -0.3587  0.0209  1.0438
  742TMC3    O110974   2.984   0.684  15.143 -0.0489 -0.3613  1.4220
  742TMC3    O210975   2.568   0.702  14.954 -0.3805  0.1654 -0.1635
  743MPD2     C10976   2.175   1.899   1.681 -0.1672  0.2196 -0.6549
  743MPD2    C110977   2.119   1.920   1.558 -0.1766 -0.5006 -0.0088
  743MPD2    C210978   2.188   1.866   1.447  0.2237  0.0123 -0.0297
  743MPD2    C310979   2.320   1.818   1.464 -0.6450 -0.6864  0.4122
  743MPD2    C410980   2.376   1.831   1.585  0.0357  0.5744  0.0286
  743MPD2    C510981   2.302   1.859   1.695 -0.6419 -0.1186  0.2839
  743MPD2     H10982   2.139   1.868   1.350  1.0435  1.6732 -0.4155
  743MPD2    H110983   2.480   1.806   1.601 -0.0583  0.6365  0.7316
  743MPD2    H210984   2.119   1.918   1.772  1.4324  3.5816 -0.3457
  743MPD2    H310985   2.347   1.855   1.793 -0.3563  1.5636  0.2284
  743MPD2     N10986   2.388   1.764   1.352  0.1180 -0.3045  0.2411
  743MPD2    H510987   2.344   1.779   1.262  0.8915 -3.2167 -0.6246
  743MPD2    N110988   1.988   1.964   1.550  0.1804 -1.0779  0.0767
  743MPD2    H710989   1.936   1.968   1.637  0.3877  2.3222  0.0674
  744TMC3    C110990   1.782   2.023   1.446  0.3024 -0.4307 -0.1539
  744TMC3    C210991   1.718   1.998   1.572  0.0357 -0.0358  0.0004
  744TMC3    C310992   1.579   2.000   1.570 -0.0635 -0.0353 -0.0423
  744TMC3    C410993   1.706   2.037   1.333  0.5116  0.7750 -0.1656
  744TMC3    C510994   1.567   2.026   1.340  0.1245  0.6357 -0.4994
  744TMC3    C610995   1.501   2.013   1.455  0.5326  0.6995 -0.3942
  744TMC3     C10996   1.922   1.983   1.430 -0.0353 -0.7350 -0.3586
  744TMC3     O10997   1.972   2.013   1.325 -0.3091  0.6844  0.5874
  744TMC3     H10998   1.775   1.972   1.660 -0.3666 -1.9979 -0.3364
  744TMC3    H110999   1.759   2.041   1.238 -1.4644  1.9836 -1.2101
  744TMC3    H211000   1.394   2.029   1.456  0.8279  2.7258 -1.2235
  744TMC3    C711001   1.491   2.055   1.223  0.2016 -0.2243 -0.0148
  744TMC3    C811002   1.508   2.009   1.695  0.2044 -0.2928  0.2127
  744TMC3    O111003   1.555   2.117   1.138  0.3802 -0.0046  0.1490
  744TMC3    O211004   1.392   2.049   1.683  0.2988 -0.6564 -0.5977
  745TMC3    C111005   3.479   0.262  13.493 -0.1216  0.0693 -0.4203
  745TMC3    C211006   3.430   0.133  13.492  0.0266 -0.0090  0.4357
  745TMC3    C311007   3.322   0.091  13.412  0.1721 -0.5561 -0.1104
  745TMC3    C411008   3.419   0.352  13.411 -0.4113 -0.2970 -0.0766
  745TMC3    C511009   3.329   0.309  13.325 -0.2166  0.3415  0.7540
  745TMC3    C611010   3.281   0.183  13.324 -0.2844  0.0927  0.4708
  745TMC3     C11011   3.510   0.307  13.626 -0.4476 -0.0103 -0.3137
  745TMC3     O11012   3.438   0.244  13.706  0.2919  0.4640  0.6807
  745TMC3     H11013   3.472   0.076  13.574 -2.5638 -1.9858  0.3782
  745TMC3    H111014   3.448   0.457  13.416 -0.9335 -0.1826  0.7067
  745TMC3    H211015   3.205   0.159  13.251  0.7913 -0.2966 -0.5220
  745TMC3    C711016   3.255   0.415  13.251  0.1993  0.3873  0.5386
  745TMC3    C811017   3.206   0.050  13.485  0.6584  0.1812 -0.4644
  745TMC3    O111018   3.143   0.387  13.204 -0.1117  0.5889 -0.0969
  745TMC3    O211019   3.110   0.020  13.421  0.5650 -0.3702 -0.4643
  746TMC3    C111020   0.795   2.007  11.329  0.0717  0.2568  0.1182
  746TMC3    C211021   0.882   1.953  11.242 -0.7783 -0.0442  0.8578
  746TMC3    C311022   0.853   1.827  11.191 -0.1926  0.0609  0.0186
  746TMC3    C411023   0.686   1.936  11.366 -0.2576  0.3054 -0.2572
  746TMC3    C511024   0.667   1.808  11.323  0.4291 -0.8010  0.5872
  746TMC3    C611025   0.746   1.754  11.225 -0.0050  0.3020 -0.5223
  746TMC3     C11026   0.813   2.138  11.387 -0.5624 -0.1581 -0.9284
  746TMC3     O11027   0.757   2.155  11.499 -0.5406  0.2402 -0.3988
  746TMC3     H11028   0.980   1.996  11.227 -1.3827  1.0738  0.1632
  746TMC3    H111029   0.610   1.992  11.419  0.2763 -1.2808  2.1592
  746TMC3    H211030   0.722   1.658  11.181 -1.1605  0.6955 -0.7603
  746TMC3    C711031   0.536   1.760  11.320 -0.3874 -0.5058 -0.7440
  746TMC3    C811032   0.935   1.768  11.089  0.0172 -0.7856  0.3096
  746TMC3    O111033   0.491   1.719  11.213  0.3205  0.4578 -0.2407
  746TMC3    O211034   0.928   1.649  11.064 -0.0480  0.0312 -0.1108
  747TMC3    C111035   3.446   2.201  11.159  0.3337  0.1612 -0.2917
  747TMC3    C211036   3.326   2.146  11.187 -0.3646  0.0899  0.3513
  747TMC3    C311037   3.235   2.223  11.260 -0.1911  0.1716 -0.9716
  747TMC3    C411038   3.481   2.320  11.215  0.2054 -0.2030 -0.2100
  747TMC3    C511039   3.389   2.396  11.281  0.7023 -0.4206  0.1192
  747TMC3    C611040   3.259   2.355  11.296  0.6152  0.1930 -0.2113
  747TMC3     C11041   3.551   2.117  11.106  0.0368 -0.5281 -0.0993
  747TMC3     O11042   3.668   2.157  11.109  0.6634  0.8014 -0.5002
  747TMC3     H11043   3.299   2.045  11.158  0.6027  0.2699 -1.2159
  747TMC3    H111044   3.582   2.360  11.205 -0.0255  0.6049  0.6514
  747TMC3    H211045   3.204   2.403  11.375 -1.1832 -0.5620 -1.0016
  747TMC3    C711046   3.418   2.525  11.345  0.4164  0.5179  0.7519
  747TMC3    C811047   3.128   2.146  11.330 -0.6785  0.7005 -0.5266
  747TMC3    O111048   3.327   2.587  11.402 -0.2428  0.4586 -0.0967
  747TMC3    O211049   3.151   2.022  11.336 -0.2690  0.5208 -0.2315
  748MPD2     C11050   0.182   4.086   2.061 -0.2159  0.5115 -0.1871
  748MPD2    C111051   0.161   4.028   1.940 -0.1133 -0.1110  0.7949
  748MPD2    C211052   0.250   3.934   1.885 -0.0395  0.6135  0.0273
  748MPD2    C311053   0.366   3.897   1.952 -0.3025  0.1945  0.1646
  748MPD2    C411054   0.387   3.952   2.079  0.0572  0.1459 -0.2931
  748MPD2    C511055   0.289   4.040   2.135 -0.6859  0.0197 -0.5623
  748MPD2     H11056   0.231   3.891   1.787  0.3540  1.0341 -0.2349
  748MPD2    H111057   0.471   3.926   2.142  0.8752  4.3959  0.3399
  748MPD2    H211058   0.104   4.141   2.112  1.4946  2.1887  0.6064
  748MPD2    H311059   0.300   4.075   2.237 -1.5729 -0.6409 -0.2460
  748MPD2     N11060   0.458   3.809   1.885  0.0729 -0.0010  0.2307
  748MPD2    H511061   0.430   3.778   1.793  0.9863 -0.6044  0.1543
  748MPD2    N111062   0.042   4.071   1.880  0.4020 -0.2516  0.1701
  748MPD2    H711063   4.709   4.135   1.934  1.4266 -0.8489  1.9760
  749TMC3    C111064   0.631   3.650   1.857 -0.1829  0.1843 -0.2982
  749TMC3    C211065   0.666   3.533   1.916  0.0857 -0.2224  0.1220
  749TMC3    C311066   0.726   3.439   1.830 -0.0057  0.0972  0.3169
  749TMC3    C411067   0.629   3.661   1.722 -0.6967 -0.7203 -0.2646
  749TMC3    C511068   0.666   3.562   1.640  0.2642 -0.3662 -0.3791
  749TMC3    C611069   0.714   3.448   1.696 -0.6193 -0.4249 -0.1998
  749TMC3     C11070   0.567   3.748   1.944  0.0500 -0.2026 -0.1868
  749TMC3     O11071   0.599   3.755   2.058 -0.5508 -0.9310  0.2257
  749TMC3     H11072   0.672   3.536   2.024  2.2518  0.4915 -0.0097
  749TMC3    H111073   0.627   3.758   1.673 -1.3656  0.5754  2.3027
  749TMC3    H211074   0.742   3.366   1.630 -0.2379  1.1219 -1.9527
  749TMC3    C711075   0.668   3.595   1.497  0.1448 -0.6134  0.2386
  749TMC3    C811076   0.792   3.329   1.885  0.1542 -0.0884  0.0143
  749TMC3    O111077   0.699   3.710   1.470 -0.0426  0.2662  0.4825
  749TMC3    O211078   0.783   3.325   2.006  0.1585  0.1323 -0.1027
  750MPD2     C11079   0.203   3.858  11.803 -0.1677 -0.4109 -0.0010
  750MPD2    C111080   0.329   3.912  11.780 -0.9658  0.5615  0.4201
  750MPD2    C211081   0.395   3.885  11.663 -0.2709  0.0044 -0.0581
  750MPD2    C311082   0.346   3.793  11.573 -0.0317 -0.1665 -0.3545
  750MPD2    C411083   0.224   3.736  11.601  0.0851 -0.7359  0.2468
  750MPD2    C511084   0.147   3.781  11.712 -0.1169  0.1373 -0.4296
  750MPD2     H11085   0.499   3.918  11.662 -0.5519  0.8493 -0.9313
  750MPD2    H111086   0.177   3.673  11.526 -0.8567 -0.7765  0.8714
  750MPD2    H211087   0.143   3.872  11.892  2.2271 -1.5249  1.7671
  750MPD2    H311088   0.047   3.744  11.728  0.3943 -0.4451  1.3582
  750MPD2     N11089   0.423   3.738  11.466  0.4378  0.3984  0.4586
  750MPD2    H511090   0.380   3.661  11.415  0.1109 -0.8849  2.6574
  750MPD2    N111091   0.382   3.995  11.881 -0.3429 -0.4708  0.2647
  750MPD2    H711092   0.327   4.004  11.966  0.7110 -1.4325  1.0541
  751TMC3    C111093   0.625   3.692  11.358 -1.2274 -0.9031  0.1379
  751TMC3    C211094   0.600   3.561  11.375 -0.5676 -0.1460  0.4506
  751TMC3    C311095   0.694   3.472  11.333  0.1319  0.3232 -0.3479
  751TMC3    C411096   0.726   3.742  11.281 -0.2929  0.4832  0.4037
  751TMC3    C511097   0.810   3.650  11.220  0.1855  0.2018  0.3655
  751TMC3    C611098   0.790   3.517  11.241  0.3772 -0.3141  0.0606
  751TMC3     C11099   0.544   3.791  11.425 -0.4295  0.4514  0.0828
  751TMC3     O11100   0.609   3.883  11.468 -0.1914  0.0377 -0.2404
  751TMC3     H11101   0.518   3.529  11.438 -1.6363 -1.0693 -1.4313
  751TMC3    H111102   0.730   3.846  11.252  0.1201  0.0903 -0.9665
  751TMC3    H211103   0.858   3.445  11.197  0.1947  0.3658 -1.3490
  751TMC3    C711104   0.862   3.683  11.087 -0.4612 -1.0950 -0.0785
  751TMC3    C811105   0.692   3.330  11.368 -0.1260 -0.7281  0.6589
  751TMC3    O111106   0.853   3.804  11.067 -0.0916 -0.5161  0.3555
  751TMC3    O211107   0.773   3.269  11.299 -0.0338 -1.1462  0.3258
  752TMC3    C111108   4.298   4.136  17.053 -0.4009 -0.6885  0.3336
  752TMC3    C211109   4.348   4.036  17.129  0.7268  0.3320 -0.2395
  752TMC3    C311110   4.332   4.026  17.262  0.4470 -0.1970 -0.2988
  752TMC3    C411111   4.238   4.244  17.120  0.0163 -0.0257 -0.1640
  752TMC3    C511112   4.214   4.230  17.249  0.5775 -0.0387  0.7990
  752TMC3    C611113   4.256   4.122  17.329 -0.3624 -0.9862 -0.1993
  752TMC3     C11114   4.357   4.160  16.922 -0.0660 -0.3476 -0.7714
  752TMC3     O11115   4.479   4.157  16.917  0.3377  0.0410  0.7786
  752TMC3     H11116   4.408   3.965  17.073  1.1430  0.4717  0.0331
  752TMC3    H111117   4.195   4.320  17.056 -2.3167 -0.5003  0.8608
  752TMC3    H211118   4.234   4.111  17.434  2.9438  1.8610  0.7874
  752TMC3    C711119   4.153   4.337  17.327  0.2431  0.0927 -0.6035
  752TMC3    C811120   4.352   3.897  17.322 -0.7717  0.3737 -0.1380
  752TMC3    O111121   4.119   4.315  17.442  0.4559  0.5928 -0.1739
  752TMC3    O211122   4.399   3.808  17.250  0.2614  0.5532 -0.3367
  753TMC3    C111123   1.063   0.086  13.828 -0.0577  0.2802  0.0890
  753TMC3    C211124   1.197   0.099  13.845 -0.4203  0.1485  0.1689
  753TMC3    C311125   1.277   4.710  13.844 -0.2655 -0.0679  0.1355
  753TMC3    C411126   1.003   4.691  13.810  0.0464  0.1785 -0.1217
  753TMC3    C511127   1.087   4.584  13.817  0.1865  0.7098 -0.1025
  753TMC3    C611128   1.219   4.589  13.824  0.9124  0.4608 -0.8801
  753TMC3     C11129   0.969   0.197  13.840 -0.5115 -0.2935  0.2718
  753TMC3     O11130   0.855   0.176  13.801  0.0252  0.3365 -0.4057
  753TMC3     H11131   1.245   0.196  13.860  2.2360 -1.1762  0.3248
  753TMC3    H111132   0.898   4.669  13.791 -0.0172  0.6346 -0.3084
  753TMC3    H211133   1.281   4.502  13.845  0.4479 -0.1365 -1.9483
  753TMC3    C711134   1.027   4.453  13.841  0.1541  0.4138 -0.7615
  753TMC3    C811135   1.417   4.713  13.878  0.5979 -0.4123 -0.1110
  753TMC3    O111136   0.907   4.443  13.863 -0.0075  0.0300 -0.6239
  753TMC3    O211137   1.488   4.616  13.847  0.5779  0.1666  0.8974
  754MPD2     C11138   0.353   3.884  12.995  0.0298  0.2526  0.4114
  754MPD2    C111139   0.355   3.747  13.017  0.2647  0.2174 -0.2872
  754MPD2    C211140   0.241   3.681  13.000 -0.4324 -0.0829 -0.5181
  754MPD2    C311141   0.123   3.749  12.968  0.1846  0.2094  0.3815
  754MPD2    C411142   0.124   3.881  12.944  0.1282  1.1185  0.3252
  754MPD2    C511143   0.243   3.947  12.944  0.0419 -0.8362 -0.3064
  754MPD2     H11144   0.233   3.575  13.024  1.3839 -0.2244 -0.5881
  754MPD2    H111145   0.034   3.936  12.922 -1.4665 -0.7639  2.1649
  754MPD2    H211146   0.448   3.936  13.000  1.0686 -1.5376 -0.6903
  754MPD2    H311147   0.248   4.046  12.901  1.1656 -1.5913 -1.9216
  754MPD2     N11148   4.719   3.684  12.979  0.2189 -0.5598 -0.0879
  754MPD2    H511149   4.644   3.744  12.945  0.3787  0.5080  1.4373
  754MPD2    N111150   0.480   3.697  13.054 -0.2931 -0.3323 -0.4410
  754MPD2    H711151   0.564   3.753  13.041 -0.7981  0.1346 -1.6917
  755MPD2     C11152   4.013   4.123  13.195  0.8231  0.0341 -0.5745
  755MPD2    C111153   4.077   4.059  13.300  0.3371  0.2856  0.0978
  755MPD2    C211154   4.132   3.936  13.264  0.2414 -0.3427 -0.4661
  755MPD2    C311155   4.138   3.892  13.133  0.5589  0.1912 -0.1417
  755MPD2    C411156   4.078   3.964  13.033  0.6813  0.0148  0.0170
  755MPD2    C511157   4.014   4.076  13.068  0.0099  0.9379 -0.1900
  755MPD2     H11158   4.171   3.874  13.345  1.1393  1.8274  0.7712
  755MPD2    H111159   4.085   3.938  12.928 -2.0599 -2.7996  0.5462
  755MPD2    H211160   3.961   4.217  13.212  1.1218 -0.0394  0.7689
  755MPD2    H311161   3.971   4.136  12.989 -0.4312 -0.8669 -1.3279
  755MPD2     N11162   4.222   3.786  13.090 -0.3648 -0.0313  0.1545
  755MPD2    H511163   4.251   3.781  12.993 -1.9259 -0.7687 -0.2742
  755MPD2    N111164   4.096   4.128  13.426  0.1221  0.3256  0.2154
  755MPD2    H711165   4.042   4.209  13.452  1.4457  1.4373 -0.4674
  756MPD2     C11166   0.552   4.629   9.249  0.4793 -0.3420  1.1037
  756MPD2    C111167   0.511   4.506   9.304  0.5210 -0.4577  0.2820
  756MPD2    C211168   0.437   4.418   9.229 -0.1670 -0.4557 -0.6685
  756MPD2    C311169   0.393   4.448   9.099 -0.1328  0.5031 -0.0976
  756MPD2    C411170   0.424   4.572   9.054  0.0297  0.5823 -0.0467
  756MPD2    C511171   0.506   4.654   9.127  0.1711 -0.1049 -0.6290
  756MPD2     H11172   0.400   4.324   9.270 -0.6153 -0.2973 -0.7049
  756MPD2    H111173   0.395   4.607   8.956  1.3854  0.9296 -0.3278
  756MPD2    H211174   0.612   4.701   9.302  1.6230 -0.9356  0.6182
  756MPD2    H311175   0.522   0.028   9.086 -1.1737  1.1551  1.9403
  756MPD2     N11176   0.327   4.351   9.019 -0.6779  0.0524  0.1981
  756MPD2    H511177   0.330   4.255   9.052 -1.2305 -0.0648 -0.0777
  756MPD2    N111178   0.538   4.463   9.438 -0.5996  0.1145  0.0589
  756MPD2    H711179   0.486   4.384   9.475 -0.0284 -0.8265 -1.1495
  757MPD2     C11180   0.340   3.491   9.072 -0.6102 -0.2451  0.7674
  757MPD2    C111181   0.407   3.598   9.124 -0.7571 -0.1370 -0.6287
  757MPD2    C211182   0.393   3.727   9.073  0.1152  0.3114  0.1978
  757MPD2    C311183   0.315   3.749   8.956 -0.1613  0.2348 -0.3945
  757MPD2    C411184   0.257   3.631   8.905  0.6277  0.1040 -0.6309
  757MPD2    C511185   0.265   3.510   8.955 -0.0548  0.0020  0.2760
  757MPD2     H11186   0.448   3.813   9.111  0.4280  0.4006 -0.4456
  757MPD2    H111187   0.221   3.634   8.803 -1.4300  1.2636  0.1322
  757MPD2    H211188   0.349   3.388   9.105 -2.7084 -0.9444 -0.8034
  757MPD2    H311189   0.222   3.430   8.896 -0.5273 -0.3469  1.0866
  757MPD2     N11190   0.293   3.873   8.893  0.2604  0.1526 -0.2577
  757MPD2    H511191   0.313   3.948   8.958  1.6332 -1.6182  1.3892
  757MPD2    N111192   0.483   3.570   9.242  0.3107  0.0285  0.3918
  757MPD2    H711193   0.502   3.471   9.253  1.1288  0.3584  1.8489
  758MPD2     C11194   0.679   3.832  15.600  0.4208 -1.1018 -0.0462
  758MPD2    C111195   0.783   3.886  15.689 -0.0432  0.0380 -0.6052
  758MPD2    C211196   0.745   3.898  15.823 -0.1559  0.7922 -0.1395
  758MPD2    C311197   0.626   3.841  15.870  0.1596  0.7616  0.5956
  758MPD2    C411198   0.522   3.810  15.781  0.3453 -0.0894  0.0879
  758MPD2    C511199   0.553   3.807  15.646  0.4330 -0.1767 -0.1337
  758MPD2     H11200   0.808   3.963  15.882  1.7377 -0.0795 -1.1917
  758MPD2    H111201   0.425   3.777  15.815  0.7049 -1.7849 -0.5413
  758MPD2    H211202   0.703   3.821  15.495  0.6140  0.3099 -0.1492
  758MPD2    H311203   0.478   3.774  15.575 -0.7685  4.4060 -1.0016
  758MPD2     N11204   0.601   3.844  16.005  0.0237  0.4142 -0.0439
  758MPD2    H511205   0.506   3.832  16.039  0.4515  0.1048  1.0290
  758MPD2    N111206   0.906   3.926  15.621  0.9487  0.2024 -0.1692
  758MPD2    H711207   0.905   3.930  15.519 -1.3827 -1.3483 -0.2105
  759MPD2     C11208   4.405   1.368  10.669  0.5756  0.7391 -0.3998
  759MPD2    C111209   4.304   1.445  10.719  0.0063 -0.5536 -0.0552
  759MPD2    C211210   4.314   1.581  10.689  0.3785  0.0696  0.0823
  759MPD2    C311211   4.413   1.638  10.616  0.3470  0.3312  1.0190
  759MPD2    C411212   4.517   1.556  10.574 -0.3512 -0.2269 -0.5080
  759MPD2    C511213   4.511   1.421  10.594 -0.0891 -0.2450 -0.7738
  759MPD2     H11214   4.246   1.646  10.744  1.0689  0.8506  0.0245
  759MPD2    H111215   4.607   1.594  10.527 -0.0316 -2.0646 -1.4003
  759MPD2    H211216   4.398   1.260  10.673  1.3388  0.6436 -1.9201
  759MPD2    H311217   4.573   1.351  10.539  2.7358  0.8306  1.0539
  759MPD2     N11218   4.405   1.777  10.602  0.0456 -0.4623 -0.0203
  759MPD2    H511219   4.334   1.831  10.650  0.7768 -0.0384  0.5749
  759MPD2    N111220   4.202   1.395  10.800  0.1550 -0.2827 -0.7336
  759MPD2    H711221   4.128   1.462  10.822 -0.0911 -0.3149 -1.4782
  760MPD2     C11222   3.564   3.955  11.940  0.1151 -0.4597  0.6260
  760MPD2    C111223   3.706   3.947  11.942 -0.0910 -0.3029 -0.5131
  760MPD2    C211224   3.767   3.842  12.010  0.5522  0.4765  0.1297
  760MPD2    C311225   3.696   3.752  12.091 -0.6971  0.5254  0.2884
  760MPD2    C411226   3.558   3.763  12.084  0.3270  0.0115  0.4919
  760MPD2    C511227   3.494   3.864  12.013  0.1912  0.5135 -0.6923
  760MPD2     H11228   3.875   3.834  12.014  0.4607 -0.4910  0.5622
  760MPD2    H111229   3.498   3.689  12.134  0.5058 -1.0382 -0.8516
  760MPD2    H211230   3.504   4.030  11.889  1.7751  0.5410  0.1203
  760MPD2    H311231   3.386   3.862  12.014  0.1767  2.2213 -0.0449
  760MPD2     N11232   3.759   3.646  12.166 -0.4724  0.1977 -0.2740
  760MPD2    H511233   3.698   3.592  12.226 -1.9041  1.1503 -0.8779
  760MPD2    N111234   3.781   4.048  11.881  0.1047  0.3169 -0.1777
  760MPD2    H711235   3.880   4.027  11.887  0.5750  2.0285 -2.0048
  761MPD2     C11236   0.408   2.911  11.511  0.3584 -0.9289 -0.1966
  761MPD2    C111237   0.513   2.920  11.418 -0.1169 -0.6120 -0.5681
  761MPD2    C211238   0.577   3.043  11.393 -0.2926 -0.8094 -0.3807
  761MPD2    C311239   0.535   3.154  11.463 -0.1365  0.2750 -0.3149
  761MPD2    C411240   0.434   3.141  11.560  0.0503  0.6640 -0.1442
  761MPD2    C511241   0.372   3.024  11.587  0.1826 -0.7271  0.5069
  761MPD2     H11242   0.651   3.061  11.316  1.7926  0.6667  1.9685
  761MPD2    H111243   0.394   3.225  11.617 -0.0748  1.1452 -0.9467
  761MPD2    H211244   0.351   2.819  11.516 -1.1492  0.0814  1.3058
  761MPD2    H311245   0.294   3.012  11.661 -0.4604 -0.3480 -0.1054
  761MPD2     N11246   0.586   3.286  11.449 -0.4954  0.5235 -0.0209
  761MPD2    H511247   0.546   3.357  11.508 -0.5395 -0.2093  0.8351
  761MPD2    N111248   0.543   2.808  11.343  0.0271  0.1913 -0.0076
  761MPD2    H711249   0.478   2.732  11.359 -0.8722  0.7261 -1.0723
  762MPD2     C11250   0.708   2.344  10.570 -0.3913  0.8222 -0.0663
  762MPD2    C111251   0.793   2.388  10.674  0.1715  0.0035  0.7381
  762MPD2    C211252   0.930   2.361  10.659  0.5885  0.0042 -0.5031
  762MPD2    C311253   0.975   2.314  10.534  0.1911 -0.1856 -0.5290
  762MPD2    C411254   0.888   2.299  10.428  0.0904 -0.4861  0.0130
  762MPD2    C511255   0.754   2.308  10.451 -0.6414  0.3502  1.0787
  762MPD2     H11256   1.005   2.397  10.729 -1.2387 -0.4904  1.6974
  762MPD2    H111257   0.915   2.264  10.329 -0.1988 -1.8698  0.4203
  762MPD2    H211258   0.601   2.335  10.586 -0.5231 -1.1544 -2.0611
  762MPD2    H311259   0.687   2.280  10.370 -0.2883 -2.4090  1.7562
  762MPD2     N11260   1.116   2.293  10.516  0.4089 -0.2159 -0.8609
  762MPD2    H511261   1.180   2.300  10.595  0.0174 -1.5858 -0.4264
  762MPD2    N111262   0.734   2.444  10.793 -0.3501 -0.3052 -0.1503
  762MPD2    H711263   0.633   2.442  10.801 -0.2819  0.4644  0.9637
  763MPD2     C11264   2.235   3.676  16.033 -0.2761  0.2623  0.6420
  763MPD2    C111265   2.115   3.740  16.003 -0.4659 -0.1980  0.3857
  763MPD2    C211266   2.095   3.864  16.059 -0.2103 -0.0949 -0.1919
  763MPD2    C311267   2.195   3.918  16.135  0.6342 -0.1213  0.3361
  763MPD2    C411268   2.308   3.852  16.161  0.5589 -0.0810 -0.2065
  763MPD2    C511269   2.321   3.722  16.120  0.0032  0.5269  0.4701
  763MPD2     H11270   2.000   3.916  16.058  0.2914  0.8368  0.6778
  763MPD2    H111271   2.396   3.890  16.212 -0.2952  1.2219  0.2938
  763MPD2    H211272   2.252   3.584  15.979  1.4717 -0.4816  2.4627
  763MPD2    H311273   2.423   3.685  16.119  0.1731  1.0236 -0.0517
  763MPD2     N11274   2.183   4.054  16.176 -0.3239 -0.3992 -0.1567
  763MPD2    H511275   2.107   4.105  16.133  0.6130  1.1393  0.0126
  763MPD2    N111276   2.012   3.678  15.930  0.0731  0.3016  0.3050
  763MPD2    H711277   1.946   3.736  15.879  0.9161  2.0276  1.1727
  764MPD2     C11278   4.082   0.489  17.470 -0.2237 -0.6626  0.2692
  764MPD2    C111279   4.196   0.445  17.405 -0.1229 -0.1644 -1.0383
  764MPD2    C211280   4.291   0.367  17.472 -0.9013 -0.0976  0.4092
  764MPD2    C311281   4.258   0.310  17.596  0.2518 -0.1039  0.0169
  764MPD2    C411282   4.135   0.348  17.660 -0.3604 -0.4752  0.1169
  764MPD2    C511283   4.050   0.431  17.588  0.2699  0.1712  0.2175
  764MPD2     H11284   4.380   0.352  17.411 -0.5756  1.2321  0.5488
  764MPD2    H111285   4.104   0.312   0.056 -0.6014  0.2577  0.3115
  764MPD2    H211286   4.015   0.559  17.422 -0.2694  2.1687  4.5207
  764MPD2    H311287   3.955   0.462  17.631 -0.1913  1.5846 -1.7983
  764MPD2     N11288   4.349   0.226  17.669  0.3633  0.2585 -0.7398
  764MPD2    H511289   4.334   0.206   0.066  1.2946  1.1066 -0.4246
  764MPD2    N111290   4.222   0.483  17.270  0.1779 -0.1890  0.0116
  764MPD2    H711291   4.298   0.444  17.215 -0.2408 -1.1790  0.1240
  765MPD2     C11292   0.186   3.230  16.188  0.4369  0.7000 -0.7364
  765MPD2    C111293   0.214   3.282  16.066 -0.9513 -0.4774  0.1920
  765MPD2    C211294   0.318   3.235  15.997 -0.3661  0.2025 -0.3143
  765MPD2    C311295   0.396   3.126  16.044  0.0215  0.6310  0.0859
  765MPD2    C411296   0.368   3.076  16.173  0.1989 -0.0370  0.0532
  765MPD2    C511297   0.263   3.126  16.237  0.3844  0.1134 -0.3913
  765MPD2     H11298   0.348   3.290  15.908  1.8943 -1.5567 -0.6191
  765MPD2    H111299   0.436   3.009  16.224 -0.2116 -1.2255 -0.9697
  765MPD2    H211300   0.092   3.260  16.232 -0.0254 -0.1332 -1.1709
  765MPD2    H311301   0.236   3.087  16.335 -0.9057  2.6870  0.2965
  765MPD2     N11302   0.510   3.095  15.962 -0.0729 -0.2951 -0.1902
  765MPD2    H511303   0.520   3.151  15.878 -0.8701 -1.3896 -1.0182
  765MPD2    N111304   0.120   3.382  16.029 -0.1338  0.1506 -0.3562
  765MPD2    H711305   0.037   3.392  16.087 -0.6234  2.4203 -1.4424
  766MPD2     C11306   4.146   3.402  15.835  0.3832 -0.1016 -0.1999
  766MPD2    C111307   4.286   3.391  15.805  0.3464 -0.3679 -0.4231
  766MPD2    C211308   4.315   3.289  15.710  0.3993  0.7942  0.7095
  766MPD2    C311309   4.213   3.222  15.640  0.5393  0.1298  0.0041
  766MPD2    C411310   4.082   3.233  15.684 -0.7811 -0.1110 -0.8529
  766MPD2    C511311   4.052   3.315  15.787 -0.3523  0.1795 -0.3107
  766MPD2     H11312   4.420   3.271  15.689  0.0581  0.8358 -1.0619
  766MPD2    H111313   4.000   3.183  15.636 -0.5625 -0.0779 -1.2575
  766MPD2    H211314   4.109   3.478  15.903  0.2179  1.0052 -1.5129
  766MPD2    H311315   3.947   3.338  15.803 -0.9710  0.1556 -4.2121
  766MPD2     N11316   4.252   3.137  15.536 -0.2479  0.2287 -0.0874
  766MPD2    H511317   4.350   3.132  15.510 -0.2307 -2.0129  0.3738
  766MPD2    N111318   4.396   3.463  15.865 -0.7829 -0.2224  0.3688
  766MPD2    H711319   4.489   3.434  15.837 -1.5438 -2.1820 -0.1118
  767MPD2     C11320   3.768   3.367  15.334  0.1646 -0.1398 -0.0499
  767MPD2    C111321   3.896   3.356  15.293  0.3525 -0.0861  0.2589
  767MPD2    C211322   3.912   3.289  15.173  0.1397  0.0648 -1.3699
  767MPD2    C311323   3.803   3.239  15.097  0.1263 -0.4742 -0.0942
  767MPD2    C411324   3.676   3.264  15.140 -0.2251  0.1166 -0.5911
  767MPD2    C511325   3.663   3.316  15.265  0.3678  0.2231  0.0899
  767MPD2     H11326   4.008   3.290  15.122  0.5281  1.1722 -0.6236
  767MPD2    H111327   3.588   3.235  15.083  0.3024  1.1199 -1.9013
  767MPD2    H211328   3.748   3.425  15.424 -0.8611 -0.8503  0.1833
  767MPD2    H311329   3.563   3.344  15.295 -0.6744 -2.6622 -0.7261
  767MPD2     N11330   3.832   3.170  14.973  0.0968 -0.2922  0.0192
  767MPD2    H511331   3.928   3.142  14.955 -0.1500 -0.1103 -1.6342
  767MPD2    N111332   4.001   3.427  15.357 -0.4538 -0.2258 -0.7391
  767MPD2    H711333   3.968   3.491  15.429 -1.8697 -0.4671 -1.1619
  768MPD2     C11334   0.258   1.112  10.875  0.1645  0.3623  0.0850
  768MPD2    C111335   0.226   1.182  10.988  0.1714  0.7056  0.5068
  768MPD2    C211336   0.335   1.208  11.076  1.1573 -0.0757  0.5795
  768MPD2    C311337   0.463   1.158  11.055  0.5172  0.3338 -0.9293
  768MPD2    C411338   0.484   1.078  10.947  0.1317  0.3051  0.0884
  768MPD2    C511339   0.387   1.065  10.855  0.2771 -0.3371 -0.6695
  768MPD2     H11340   0.316   1.282  11.152 -1.0673  1.4398 -1.4647
  768MPD2    H111341   0.579   1.031  10.922  0.7888  1.9211 -0.4557
  768MPD2    H211342   0.190   1.101  10.791 -0.2054  2.6790  0.0765
  768MPD2    H311343   0.414   1.006  10.768  1.3867 -0.1546 -0.4584
  768MPD2     N11344   0.575   1.173  11.146  0.0992  0.1418 -0.3654
  768MPD2    H511345   0.655   1.117  11.120 -0.1949 -0.7399  0.6269
  768MPD2    N111346   0.100   1.240  11.020 -0.2162  1.0187  0.9937
  768MPD2    H711347   0.092   1.296  11.104 -1.3098  2.2981  0.0264
  769MPD2     C11348   1.226   4.528  14.977 -0.3568 -0.1969 -0.5814
  769MPD2    C111349   1.116   4.600  15.017  0.7529  0.2817  0.1838
  769MPD2    C211350   1.130   4.703  15.106 -0.3990  0.5333  0.3060
  769MPD2    C311351   1.256   0.003  15.163  0.5319  0.3238  0.3004
  769MPD2    C411352   1.363   4.651  15.114  0.1459  0.2341 -0.2652
  769MPD2    C511353   1.349   4.552  15.028 -0.3840 -0.7110  0.3490
  769MPD2     H11354   1.046   0.027  15.154 -0.4323  0.4226  0.3599
  769MPD2    H111355   1.462   4.656  15.155 -1.0248  0.6647  2.4970
  769MPD2    H211356   1.220   4.451  14.901 -2.0425  1.0134 -1.6928
  769MPD2    H311357   1.433   4.488  15.002 -0.5328 -1.0616  0.7216
  769MPD2     N11358   1.276   0.089  15.278  0.0102  0.2616 -0.0498
  769MPD2    H511359   1.195   0.126  15.327 -0.3895 -0.0100 -0.4994
  769MPD2    N111360   0.991   4.566  14.962 -0.2457  0.2620  0.4776
  769MPD2    H711361   1.014   4.487  14.903  0.9806  0.6199  0.4713
  770MPD2     C11362   0.248   3.963  15.137 -0.4424  0.2747  0.3744
  770MPD2    C111363   0.350   3.939  15.051 -0.1357 -0.2846  0.6480
  770MPD2    C211364   0.410   4.054  15.006  0.5792  0.6688 -0.3390
  770MPD2    C311365   0.370   4.184  15.040 -0.3382  0.5320 -0.4279
  770MPD2    C411366   0.267   4.204  15.129 -0.2759  0.6938 -0.2368
  770MPD2    C511367   0.209   4.087  15.173  0.0665 -0.5475 -0.1806
  770MPD2     H11368   0.490   4.048  14.933  2.0228  1.1899  1.2125
  770MPD2    H111369   0.209   4.295  15.145 -2.0925 -0.3757 -0.7665
  770MPD2    H211370   0.191   3.877  15.170  0.3224 -0.9500 -1.4994
  770MPD2    H311371   0.122   4.099  15.237 -0.0785 -0.3257 -0.4184
  770MPD2     N11372   0.450   4.292  14.990 -0.2006  0.4400  0.2850
  770MPD2    H511373   0.516   4.270  14.916  0.7026  0.3836  1.1008
  770MPD2    N111374   0.373   3.803  15.017  0.3966  0.4878  0.5941
  770MPD2    H711375   0.328   3.737  15.080  3.8653 -1.8723  0.6234
  771MPD2     C11376   1.509   2.443  13.779  0.3002  0.9361 -0.6508
  771MPD2    C111377   1.607   2.527  13.734 -0.2034 -0.2254 -0.6713
  771MPD2    C211378   1.704   2.476  13.649  0.5002  0.4196 -0.5107
  771MPD2    C311379   1.701   2.344  13.605  0.0090  0.0677  0.4496
  771MPD2    C411380   1.593   2.264  13.644 -0.4512 -0.4789 -0.4531
  771MPD2    C511381   1.501   2.317  13.731 -0.3270 -0.1883 -0.4087
  771MPD2     H11382   1.784   2.539  13.613  1.4636 -0.9714 -0.8271
  771MPD2    H111383   1.582   2.159  13.623  0.2390 -0.6211 -0.0996
  771MPD2    H211384   1.442   2.470  13.860  0.4944 -0.6922  0.0368
  771MPD2    H311385   1.418   2.255  13.764  1.9648 -3.4702 -0.7828
  771MPD2     N11386   1.800   2.293  13.521 -0.5843 -0.4140  0.2932
  771MPD2    H511387   1.869   2.364  13.495 -0.8913 -0.5130 -0.7964
  771MPD2    N111388   1.634   2.657  13.777 -0.2152 -0.5146 -0.2821
  771MPD2    H711389   1.712   2.706  13.734 -0.4659  0.3628  0.2785
  772MPD2     C11390   1.241   3.370  14.054  0.1511  0.2877  0.1757
  772MPD2    C111391   1.226   3.242  14.007  0.4477 -0.1713  0.2266
  772MPD2    C211392   1.101   3.183  14.011  0.3514  0.3258 -0.2576
  772MPD2    C311393   0.990   3.239  14.073 -0.0223 -0.6850  0.0566
  772MPD2    C411394   1.017   3.360  14.141 -0.3850 -0.3983 -0.0746
  772MPD2    C511395   1.136   3.425  14.125  0.5462 -0.5437  0.0999
  772MPD2     H11396   1.096   3.087  13.960 -2.7411  1.0329 -1.2795
  772MPD2    H111397   0.942   3.406  14.204  0.5148 -0.5041  1.0694
  772MPD2    H211398   1.336   3.422  14.048  0.4146 -0.4352 -1.6837
  772MPD2    H311399   1.156   3.523  14.167 -1.2744 -0.5470  0.9448
  772MPD2     N11400   0.853   3.188  14.061 -0.2110 -0.8536 -0.3808
  772MPD2    H511401   0.781   3.253  14.091 -0.5975 -1.5383  0.1781
  772MPD2    N111402   1.326   3.170  13.936  0.1587 -0.4874 -0.4753
  772MPD2    H711403   1.299   3.082  13.894 -0.2850 -0.2194 -0.7593
  773MPD2     C11404   1.189   4.336  17.660 -0.7140 -0.4682  0.6294
  773MPD2    C111405   1.166   4.205  17.622  0.1187  0.1467 -0.8063
  773MPD2    C211406   1.226   4.105   0.001  0.6241  0.3714 -0.4526
  773MPD2    C311407   1.294   4.141   0.119  0.2715  0.3205  0.4866
  773MPD2    C411408   1.314   4.270   0.152 -0.1508 -0.1286  0.1528
  773MPD2    C511409   1.271   4.364   0.061  0.2763  0.3097  1.2300
  773MPD2     H11410   1.216   4.001  17.673 -0.8541  0.7772 -1.3540
  773MPD2    H111411   1.364   4.301   0.243 -1.3655  0.6000  0.5600
  773MPD2    H211412   1.135   4.420  17.617 -0.6932 -0.0037  1.5223
  773MPD2    H311413   1.272   4.467   0.095  1.2533  0.6675  0.1101
  773MPD2     N11414   1.342   4.036   0.203  0.2519 -0.2482  0.0327
  773MPD2    H511415   1.337   3.941   0.170 -0.9743 -0.4812  0.8953
  773MPD2    N111416   1.071   4.180  17.522  0.0548  0.4199  0.5265
  773MPD2    H711417   1.033   4.086  17.529  1.8746 -0.4147 -1.1059
  774MPD2     C11418   0.259   2.662  13.322 -0.0979 -0.4593  0.2013
  774MPD2    C111419   0.164   2.747  13.376 -0.5624 -0.4939 -0.2713
  774MPD2    C211420   0.181   2.885  13.386  0.1017  0.6980 -0.5588
  774MPD2    C311421   0.299   2.934  13.335  0.1925  0.7619 -0.6353
  774MPD2    C411422   0.401   2.849  13.293 -0.0818 -0.6655  0.4214
  774MPD2    C511423   0.374   2.719  13.278 -0.2557 -0.4032  0.2734
  774MPD2     H11424   0.102   2.955  13.409  2.0663  3.3631 -1.8374
  774MPD2    H111425   0.495   2.887  13.255 -0.4780  0.0007  0.1031
  774MPD2    H211426   0.240   2.556  13.310  0.3614 -0.5845  0.6392
  774MPD2    H311427   0.436   2.650  13.222  3.3023  3.0045  0.0209
  774MPD2     N11428   0.322   3.076  13.335  0.3143 -0.4247  0.2621
  774MPD2    H511429   0.241   3.128  13.366  0.7361 -0.4492  1.3794
  774MPD2    N111430   0.043   2.675  13.406 -0.0538 -0.0934  0.0361
  774MPD2    H711431   0.045   2.576  13.381  1.4869  0.0442 -0.3587
  775MPD2     C11432   1.636   4.392  15.770  0.7332  0.0022 -0.0959
  775MPD2    C111433   1.573   4.514  15.771 -0.6092  0.4001 -0.0379
  775MPD2    C211434   1.638   4.629  15.720  0.3443  0.2260  0.7875
  775MPD2    C311435   1.761   4.619  15.665  0.3228  0.1000 -0.4924
  775MPD2    C411436   1.820   4.496  15.666  0.5511 -0.0289  0.3640
  775MPD2    C511437   1.760   4.383  15.717  0.4629  0.5278  0.2993
  775MPD2     H11438   1.588   4.725  15.722 -0.0951  0.0139 -0.4273
  775MPD2    H111439   1.915   4.492  15.614 -0.5632 -1.0218 -1.5995
  775MPD2    H211440   1.584   4.306  15.809 -1.2906  0.4833 -1.7326
  775MPD2    H311441   1.810   4.287  15.712 -0.6837  0.0060 -1.1760
  775MPD2     N11442   1.826   0.001  15.593  0.3091  0.6013  0.1450
  775MPD2    H511443   1.905   4.705  15.533 -0.2978 -0.6800 -0.2071
  775MPD2    N111444   1.461   4.532  15.851 -0.9054 -0.2861  0.0577
  775MPD2    H711445   1.432   4.455  15.910  1.3794 -0.6071  0.7507
  776MPD2     C11446   1.007   4.592  12.273 -0.1918  0.4897  0.5176
  776MPD2    C111447   0.915   4.578  12.167 -0.7072 -0.3688 -0.1344
  776MPD2    C211448   0.942   4.649  12.049  0.1757 -0.4776  0.2405
  776MPD2    C311449   1.037   0.026  12.044  0.0525 -0.0933 -0.2611
  776MPD2    C411450   1.122   0.039  12.152 -0.0998 -0.2243 -0.6314
  776MPD2    C511451   1.106   4.688  12.265  0.3046 -0.3812 -0.2718
  776MPD2     H11452   0.885   4.635  11.958 -1.8221  2.4801  1.0423
  776MPD2    H111453   1.201   0.112  12.148  0.5180 -0.8070  0.9547
  776MPD2    H211454   1.007   4.533  12.364  3.2557  1.3020  1.0594
  776MPD2    H311455   1.174   4.698  12.348  0.4472 -0.7445 -0.3431
  776MPD2     N11456   1.064   0.107  11.924  0.5443  0.5647 -0.7907
  776MPD2    H511457   1.147   0.165  11.929  0.4202  0.5557  1.3882
  776MPD2    N111458   0.809   4.480  12.169 -0.5261  0.0155 -0.7577
  776MPD2    H711459   0.790   4.437  12.259  3.8026  1.5372  0.8698
  777MPD2     C11460   1.563   2.982   0.789  0.3914 -0.1129 -0.3337
  777MPD2    C111461   1.498   2.890   0.867 -0.1621  0.4841  0.0943
  777MPD2    C211462   1.425   2.787   0.808 -0.1820 -0.5753 -0.1714
  777MPD2    C311463   1.440   2.756   0.673 -0.8855  0.4433  0.3705
  777MPD2    C411464   1.516   2.846   0.597  0.3447 -0.0582  0.6816
  777MPD2    C511465   1.568   2.958   0.657  0.2691 -0.8942  0.0425
  777MPD2     H11466   1.361   2.720   0.864 -2.5515  2.5701  0.9364
  777MPD2    H111467   1.517   2.835   0.490  1.0908 -1.4035  0.8292
  777MPD2    H211468   1.602   3.076   0.825 -0.6650 -0.2939  1.3084
  777MPD2    H311469   1.617   3.031   0.593  0.7683  1.1989  2.8249
  777MPD2     N11470   1.376   2.642   0.630 -0.0787 -0.1219  0.1641
  777MPD2    H511471   1.330   2.583   0.699 -1.7088  0.3136 -0.5362
  777MPD2    N111472   1.490   2.918   1.007 -0.2103  0.7883 -0.6015
  777MPD2    H711473   1.554   2.990   1.038  1.0010  0.2237 -1.7844
  778MPD2     C11474   1.937   2.346  15.339 -0.0155  0.1359  0.1960
  778MPD2    C111475   1.843   2.328  15.240  0.7953  0.1832 -0.6085
  778MPD2    C211476   1.872   2.377  15.117 -0.1140 -0.5259  0.3834
  778MPD2    C311477   1.977   2.470  15.101 -0.4606 -0.7016 -0.2194
  778MPD2    C411478   2.069   2.491  15.201  0.0237  0.1251  0.3105
  778MPD2    C511479   2.050   2.416  15.314 -0.9051  0.5800 -0.8877
  778MPD2     H11480   1.797   2.356  15.042 -1.0326  2.4963  0.4497
  778MPD2    H111481   2.164   2.540  15.182 -0.9046  2.6356  2.1365
  778MPD2    H211482   1.932   2.296  15.435  1.9611  1.4029  0.9550
  778MPD2    H311483   2.117   2.415  15.399 -0.6343 -1.0093 -1.1291
  778MPD2     N11484   2.000   2.531  14.969 -0.5703 -0.0135 -0.1962
  778MPD2    H511485   1.942   2.490  14.896  1.0835 -1.7645 -0.4936
  778MPD2    N111486   1.727   2.256  15.246  0.7741 -0.0499 -0.7623
  778MPD2    H711487   1.667   2.246  15.165 -0.0754 -0.5698 -0.0702
  779MPD2     C11488   1.518   1.136  14.596 -0.9348  0.4820 -0.5968
  779MPD2    C111489   1.605   1.142  14.484 -1.0328 -0.5966 -0.0403
  779MPD2    C211490   1.649   1.269  14.454 -0.0246 -0.7879  0.0309
  779MPD2    C311491   1.596   1.387  14.507  0.2330 -0.5960 -0.4436
  779MPD2    C411492   1.507   1.372  14.607  0.0548 -0.2904 -0.0633
  779MPD2    C511493   1.482   1.248  14.656 -0.6855  0.1185  0.0125
  779MPD2     H11494   1.718   1.279  14.371 -1.0102  5.2263 -0.1307
  779MPD2    H111495   1.462   1.456  14.660 -0.5223 -2.1306  2.3175
  779MPD2    H211496   1.499   1.041  14.644 -0.1037  0.0755 -1.0761
  779MPD2    H311497   1.414   1.243  14.740  0.1297  0.1772  0.6785
  779MPD2     N11498   1.637   1.521  14.469  0.3931  0.4837 -0.3534
  779MPD2    H511499   1.696   1.530  14.387  0.1985  2.3132 -0.2941
  779MPD2    N111500   1.675   1.032  14.431 -0.0185 -0.1185  0.3807
  779MPD2    H711501   1.760   1.044  14.377 -0.0103 -0.6758  0.2680
  780MPD2     C11502   0.702   1.299   0.546  0.5529  0.0118  0.3426
  780MPD2    C111503   0.800   1.211   0.515  0.3585 -1.4806 -0.3544
  780MPD2    C211504   0.895   1.186   0.615  0.2141 -0.1611 -0.4702
  780MPD2    C311505   0.909   1.269   0.727 -0.0631 -0.5727  0.1905
  780MPD2    C411506   0.819   1.373   0.743 -0.4308  0.5671  0.5187
  780MPD2    C511507   0.711   1.380   0.658 -0.2601 -0.0144  0.3300
  780MPD2     H11508   0.976   1.117   0.592  1.4761  1.6288 -1.4337
  780MPD2    H111509   0.820   1.437   0.830 -1.7588  1.9324 -0.4748
  780MPD2    H211510   0.619   1.326   0.480 -1.4474  2.1918  3.7793
  780MPD2    H311511   0.628   1.442   0.690 -1.8615 -1.8143 -0.2668
  780MPD2     N11512   1.028   1.247   0.803  0.1529 -0.1851 -0.5676
  780MPD2    H511513   1.092   1.172   0.780  0.9855  0.2954  0.1702
  780MPD2    N111514   0.804   1.136   0.401 -0.3587 -0.1633 -0.2248
  780MPD2    H711515   0.890   1.085   0.384  0.1775  0.5235  0.4145
  781MPD2     C11516   2.914   2.735  11.977  0.4377  0.9000 -0.3445
  781MPD2    C111517   2.892   2.867  12.020  0.2812 -0.7008  0.3355
  781MPD2    C211518   2.968   2.967  11.960  0.4572 -0.4412  0.0398
  781MPD2    C311519   3.050   2.935  11.855 -0.4353  0.3335 -0.7029
  781MPD2    C411520   3.053   2.806  11.808  0.2708  0.2268 -0.2599
  781MPD2    C511521   2.993   2.707  11.869 -0.1390 -0.6713 -0.4956
  781MPD2     H11522   2.949   3.070  11.988  0.3627 -0.3354 -0.4062
  781MPD2    H111523   3.126   2.791  11.729 -0.5943  2.0059 -1.4141
  781MPD2    H211524   2.862   2.650  12.020 -1.5173  1.4709 -1.5797
  781MPD2    H311525   3.019   2.605  11.841 -0.2530 -1.2282  1.4043
  781MPD2     N11526   3.134   3.026  11.795 -0.7448  0.3889  0.1435
  781MPD2    H511527   3.176   2.999  11.706  0.8295  0.1216  0.9684
  781MPD2    N111528   2.811   2.905  12.129 -0.0813 -0.5165  0.0537
  781MPD2    H711529   2.786   3.003  12.135 -2.9754 -1.2608  0.2884
  782MPD2     C11530   1.251   4.622  10.782 -1.6052  0.1405  0.1599
  782MPD2    C111531   1.241   4.485  10.767 -0.3167  0.1442 -0.3023
  782MPD2    C211532   1.310   4.405  10.858 -1.0447  0.3603 -0.0392
  782MPD2    C311533   1.374   4.468  10.964 -0.5805  0.2800 -0.1255
  782MPD2    C411534   1.391   4.604  10.970 -0.3423 -0.4116 -0.5486
  782MPD2    C511535   1.318   4.684  10.884 -0.2573 -0.3786  0.5542
  782MPD2     H11536   1.288   4.300  10.871 -0.6771  0.4950  1.6595
  782MPD2    H111537   1.459   4.660  11.035 -1.4234 -0.6892  0.8309
  782MPD2    H211538   1.207   4.686  10.706  1.3056  1.6276 -0.2743
  782MPD2    H311539   1.331   0.065  10.864  1.3133 -1.1371 -2.5785
  782MPD2     N11540   1.455   4.386  11.044  0.2782  0.1394 -0.3077
  782MPD2    H511541   1.465   4.288  11.020  0.4748 -0.1474  0.9358
  782MPD2    N111542   1.169   4.438  10.660  0.2374  0.3484  0.3455
  782MPD2    H711543   1.142   4.492  10.579  1.2176  0.4964  0.1172
  783MPD2     C11544   0.938   3.468  10.799  0.7406 -0.5756  0.6181
  783MPD2    C111545   0.918   3.587  10.867 -0.0287  0.1106 -0.0052
  783MPD2    C211546   0.908   3.708  10.798 -0.0106 -0.5932 -0.0741
  783MPD2    C311547   0.894   3.708  10.660  0.1098 -0.4760  0.0889
  783MPD2    C411548   0.922   3.594  10.594  0.3498 -0.0018 -0.2955
  783MPD2    C511549   0.943   3.479  10.664  0.6681 -0.6625 -0.7222
  783MPD2     H11550   0.895   3.796  10.860  2.5567  0.0799 -0.4742
  783MPD2    H111551   0.939   3.585  10.488 -0.4701 -0.2358 -0.4081
  783MPD2    H211552   0.948   3.375  10.854  1.5489 -1.8634 -1.7314
  783MPD2    H311553   0.964   3.390  10.606  1.9171 -1.6057  1.1483
  783MPD2     N11554   0.888   3.829  10.581 -0.4242 -0.1995  0.4071
  783MPD2    H511555   0.888   3.820  10.480 -0.3571 -0.7315  0.4589
  783MPD2    N111556   0.902   3.575  11.002 -0.4638  0.4888  1.0760
  783MPD2    H711557   0.913   3.483  11.045  0.2730 -1.1476 -2.6161
  784MPD2     C11558   4.347   4.371   0.706 -0.0048 -0.6051 -0.1178
  784MPD2    C111559   4.372   4.480   0.787  0.8366 -0.4305  0.4841
  784MPD2    C211560   4.265   4.570   0.820  0.3123 -0.0681  0.3203
  784MPD2    C311561   4.140   4.547   0.766 -0.1527  0.4247  0.0313
  784MPD2    C411562   4.119   4.449   0.675  0.0650 -0.9985 -0.1982
  784MPD2    C511563   4.217   4.358   0.652  0.3981  1.3764  0.0028
  784MPD2     H11564   4.274   4.662   0.877 -0.8424  0.7737 -0.8385
  784MPD2    H111565   4.029   4.426   0.619 -0.8077  0.1020  0.7624
  784MPD2    H211566   4.425   4.306   0.669  0.0083 -1.2864  1.0981
  784MPD2    H311567   4.198   4.271   0.589  2.5823  1.6904 -1.1226
  784MPD2     N11568   4.035   4.638   0.785 -0.0159  0.0581  0.6958
  784MPD2    H511569   4.059   4.719   0.840 -0.9794  0.9883 -0.2428
  784MPD2    N111570   4.494   4.499   0.858 -0.1203  0.4338 -0.3295
  784MPD2    H711571   4.501   4.582   0.915 -0.5761 -0.1841  0.6362
  785MPD2     C11572   3.971   2.188   9.336 -0.2582  0.1302  0.9757
  785MPD2    C111573   4.000   2.169   9.204  0.4718  0.5390  0.0628
  785MPD2    C211574   4.026   2.046   9.150  0.1219 -0.0783 -0.3013
  785MPD2    C311575   4.060   1.943   9.230  0.3955 -0.0142  0.5505
  785MPD2    C411576   4.031   1.961   9.367  0.1904 -0.7465 -0.6862
  785MPD2    C511577   3.989   2.078   9.418  0.0519 -0.2633 -1.0067
  785MPD2     H11578   4.045   2.034   9.044 -1.0282 -1.9688 -0.3016
  785MPD2    H111579   4.027   1.880   9.439  1.3424 -0.6541 -0.5058
  785MPD2    H211580   3.933   2.285   9.368 -1.4410 -0.1722  0.4780
  785MPD2    H311581   3.960   2.094   9.522 -0.5235 -1.3457 -1.0006
  785MPD2     N11582   4.111   1.824   9.178 -0.5980 -0.7262  0.0488
  785MPD2    H511583   4.124   1.817   9.077  0.4212 -0.9541  0.1962
  785MPD2    N111584   3.980   2.281   9.118  0.2161  0.2953 -0.1676
  785MPD2    H711585   3.977   2.371   9.164 -0.0802  0.3869 -0.3651
  786MPD2     C11586   2.084   0.539  14.864  0.3593 -0.6356 -0.0007
  786MPD2    C111587   2.211   0.547  14.804  0.1689  0.2759 -0.2063
  786MPD2    C211588   2.312   0.597  14.878 -0.1518 -0.4839 -0.1973
  786MPD2    C311589   2.293   0.627  15.014  0.2060  0.0076 -0.5032
  786MPD2    C411590   2.168   0.609  15.073  0.1203 -0.2063  0.5184
  786MPD2    C511591   2.060   0.568  14.993  0.3215  0.1936  0.1864
  786MPD2     H11592   2.408   0.601  14.828  0.2378  1.7456  0.7598
  786MPD2    H111593   2.141   0.624  15.177 -1.3283  2.9974 -0.3041
  786MPD2    H211594   2.006   0.484  14.812  0.5765  0.4948 -1.5226
  786MPD2    H311595   1.963   0.546  15.035  1.2429 -2.2057  1.1034
  786MPD2     N11596   2.396   0.675  15.101  0.0823  0.5252 -0.0937
  786MPD2    H511597   2.378   0.655  15.199 -0.3094 -1.7530 -0.6369
  786MPD2    N111598   2.247   0.494  14.677  0.4817  0.4617 -0.7769
  786MPD2    H711599   2.344   0.489  14.646  1.2626 -0.8540  1.8456
  787MPD2     C11600   2.595   0.062  14.880  0.4050  0.3888 -0.3267
  787MPD2    C111601   2.593   0.029  14.747 -0.9393 -0.1163  0.0338
  787MPD2    C211602   2.670   4.645  14.704 -0.0703  0.8215  0.2020
  787MPD2    C311603   2.757   4.583  14.797  0.4645 -0.1630 -0.4248
  787MPD2    C411604   2.761   4.620  14.923 -0.6131  0.4863  0.3363
  787MPD2    C511605   2.680   4.715  14.966 -0.5942 -0.3928  0.6898
  787MPD2     H11606   2.663   4.615  14.600  1.6431 -0.2926  0.4129
  787MPD2    H111607   2.826   4.581  15.001 -2.8005  0.5386  2.1782
  787MPD2    H211608   2.525   0.131  14.926 -1.0147 -1.4634  0.2832
  787MPD2    H311609   2.681   0.024  15.069 -1.9281  0.5677  0.3811
  787MPD2     N11610   2.842   4.483  14.745 -0.6954 -0.2818 -0.4926
  787MPD2    H511611   2.822   4.459  14.649  0.5026  0.7046 -0.9921
  787MPD2    N111612   2.505   0.100  14.667  0.1549 -0.4694 -0.1752
  787MPD2    H711613   2.461   0.177  14.718 -0.3191 -0.8037 -0.0844
  788MPD2     C11614   0.114   3.912   0.864 -0.3754 -0.4184 -0.4186
  788MPD2    C111615   0.094   3.849   0.739 -0.1673  0.1186 -0.2656
  788MPD2    C211616   0.091   3.926   0.621 -0.4508  0.6604  0.4201
  788MPD2    C311617   0.122   4.066   0.625  0.4238 -0.0775  0.3395
  788MPD2    C411618   0.133   4.126   0.751  0.5951  0.6889  1.0449
  788MPD2    C511619   0.136   4.051   0.867 -0.9864 -0.3447  0.6980
  788MPD2     H11620   0.082   3.874   0.527  1.2404 -1.3115  1.3559
  788MPD2    H111621   0.136   4.234   0.763 -0.3541  0.9205 -0.7746
  788MPD2    H211622   0.115   3.861   0.960  1.6595  1.1234  0.3782
  788MPD2    H311623   0.172   4.095   0.959 -0.2408  0.5664 -0.0202
  788MPD2     N11624   0.131   4.143   0.505 -0.2447 -0.1439  0.8552
  788MPD2    H511625   0.134   4.243   0.519 -0.6107  0.0930 -0.7889
  788MPD2    N111626   0.076   3.708   0.728  0.2017  0.6134 -0.1386
  788MPD2    H711627   0.082   3.659   0.640 -0.9600 -0.0057  0.1194
  789MPD2     C11628   0.114   3.922  16.076 -1.1559  1.1481 -0.1143
  789MPD2    C111629   0.077   3.822  16.165  0.6003 -0.0054  0.1555
  789MPD2    C211630   4.670   3.828  16.206 -0.2913 -0.6755 -0.6723
  789MPD2    C311631   4.580   3.926  16.171  0.1436  0.1891 -0.6016
  789MPD2    C411632   4.614   4.019  16.083  0.5716  0.6906  0.1165
  789MPD2    C511633   0.023   4.018  16.039 -0.0050  0.1455 -0.0690
  789MPD2     H11634   4.641   3.747  16.272 -1.5425 -0.6108 -1.1463
  789MPD2    H111635   4.548   4.092  16.038 -0.3943 -0.6551 -0.6033
  789MPD2    H211636   0.215   3.940  16.038 -0.5358  0.9652  1.4487
  789MPD2    H311637   0.058   4.094  15.971 -1.7682  0.3439 -0.7618
  789MPD2     N11638   4.446   3.922  16.218 -0.1274  0.5209 -0.0267
  789MPD2    H511639   4.377   3.986  16.182  1.1155  0.8306 -1.8679
  789MPD2    N111640   0.169   3.718  16.215  0.3792  0.2432  0.2116
  789MPD2    H711641   0.128   3.660  16.288 -3.3618  1.4485 -0.8852
  790MPD2     C11642   0.287   0.190  13.825  0.4881 -0.0452 -0.4406
  790MPD2    C111643   0.397   0.108  13.825 -0.3104  0.1659 -0.0937
  790MPD2    C211644   0.444   0.066  13.696 -0.0387 -0.2331  0.1567
  790MPD2    C311645   0.380   0.102  13.580 -0.3034 -0.0141 -0.7246
  790MPD2    C411646   0.272   0.189  13.587  0.2639 -0.1013 -0.3718
  790MPD2    C511647   0.230   0.230  13.709  0.5711  0.3277 -0.1645
  790MPD2     H11648   0.541   0.019  13.688 -0.1456 -0.3582 -0.3739
  790MPD2    H111649   0.213   0.224  13.503 -0.5619 -0.6587 -0.0267
  790MPD2    H211650   0.247   0.222  13.921  0.2713  1.9102 -1.1866
  790MPD2    H311651   0.153   0.306  13.712  0.9596  0.7719 -1.2502
  790MPD2     N11652   0.416   0.058  13.451 -0.3225  0.2616 -0.2851
  790MPD2    H511653   0.363   0.084  13.368 -0.4762 -0.6375 -0.4689
  790MPD2    N111654   0.468   0.080  13.943  0.0419  0.2073 -0.0415
  790MPD2    H711655   0.445   0.136  14.025 -0.3772 -1.2979  0.8711
  791MPD2     C11656   4.659   0.048  13.020  0.5444  0.0908  0.2744
  791MPD2    C111657   0.013   4.681  12.955 -0.1091 -0.3531  0.0782
  791MPD2    C211658   4.688   4.615  12.849  0.0991  0.0243 -0.0874
  791MPD2    C311659   4.568   4.647  12.796 -0.1582 -0.7415  1.6943
  791MPD2    C411660   4.491   0.028  12.850 -1.0283 -0.9121  0.1024
  791MPD2    C511661   4.544   0.083  12.964 -0.2693 -0.7655 -0.2368
  791MPD2     H11662   0.013   4.537  12.794 -0.6179  1.1966 -2.4408
  791MPD2    H111663   4.405   0.072  12.802 -0.8537 -0.8187 -0.1253
  791MPD2    H211664   4.693   0.112  13.101  1.1858  2.1345 -1.6079
  791MPD2    H311665   4.493   0.171  13.001  0.1222 -0.5633 -0.1801
  791MPD2     N11666   4.516   4.563  12.691 -0.0015 -0.3896  0.1142
  791MPD2    H511667   4.573   4.497  12.640 -2.3623 -2.1249 -0.3080
  791MPD2    N111668   0.142   4.644  13.002 -0.4381 -0.2283  0.1003
  791MPD2    H711669   0.205   4.604  12.934  0.4484  0.6570  0.4028
  792MPD2     C11670   0.670   4.456  11.174 -0.4567 -0.4906  0.2240
  792MPD2    C111671   0.724   4.456  11.048 -0.1239 -0.1622  0.1951
  792MPD2    C211672   0.688   4.355  10.961 -0.2097 -0.4769  0.5800
  792MPD2    C311673   0.610   4.249  11.011  0.1656 -0.0739  0.1776
  792MPD2    C411674   0.569   4.248  11.141 -0.2996 -0.1948 -0.0615
  792MPD2    C511675   0.592   4.352  11.218  0.1970  0.3874 -0.1495
  792MPD2     H11676   0.728   4.349  10.861 -1.2597 -0.3881  0.1529
  792MPD2    H111677   0.509   4.164  11.172 -1.5737  1.5694  2.1999
  792MPD2    H211678   0.675   4.542  11.240 -0.2228  0.3747 -0.9122
  792MPD2    H311679   0.565   4.362  11.323  0.4875 -0.0907 -0.0288
  792MPD2     N11680   0.571   4.129  10.941  0.0421 -0.7585 -0.4918
  792MPD2    H511681   0.536   4.046  10.989  0.5378 -0.7649 -0.1469
  792MPD2    N111682   0.806   4.568  11.021 -0.3591  0.2835 -0.6330
  792MPD2    H711683   0.826   4.628  11.100 -0.3574 -0.4959 -0.0432
  793MPD2     C11684   0.348   3.954   9.961 -0.1597 -0.4477  0.0494
  793MPD2    C111685   0.461   4.019  10.012 -0.5180 -0.2288  0.0154
  793MPD2    C211686   0.497   4.005  10.147  0.0294 -0.4723  0.5126
  793MPD2    C311687   0.430   3.918  10.229 -0.6278 -0.6553  0.5461
  793MPD2    C411688   0.320   3.848  10.176 -0.0344 -0.2872 -0.0552
  793MPD2    C511689   0.283   3.865  10.047  0.1838 -0.0613 -0.5490
  793MPD2     H11690   0.568   4.080  10.180  1.3773 -0.9045 -1.4291
  793MPD2    H111691   0.268   3.771  10.233 -1.5457  2.9669  2.9409
  793MPD2    H211692   0.323   3.960   9.856 -1.3386 -1.2636  0.2836
  793MPD2    H311693   0.200   3.802  10.016 -0.1726  0.4945 -0.7261
  793MPD2     N11694   0.470   3.918  10.364  0.5125  0.7771  0.4357
  793MPD2    H511695   0.531   3.990  10.402  1.4220 -0.2679  0.9479
  793MPD2    N111696   0.533   4.111   9.936 -1.1822  0.2776  0.0506
  793MPD2    H711697   0.603   4.164   9.988 -0.0942  0.6987 -1.8343
  794MPD2     C11698   0.345   4.472  17.221  0.6937  1.1072  0.4243
  794MPD2    C111699   0.397   4.412  17.107  0.1999 -0.3661 -1.5006
  794MPD2    C211700   0.320   4.411  16.989  0.1456  1.0119  0.4929
  794MPD2    C311701   0.187   4.455  16.987  0.5232 -0.0607 -0.1231
  794MPD2    C411702   0.138   4.512  17.109 -0.5511 -0.2641  0.2850
  794MPD2    C511703   0.210   4.505  17.224  0.2254  0.5165  0.6249
  794MPD2     H11704   0.373   4.359  16.910 -0.6679  0.4374  0.3347
  794MPD2    H111705   0.036   4.547  17.102  0.4121  1.2479 -5.9457
  794MPD2    H211706   0.384   4.467  17.322 -2.3183  0.0555  1.5355
  794MPD2    H311707   0.166   4.539  17.317 -0.8630  0.9366 -0.0380
  794MPD2     N11708   0.109   4.460  16.864  0.2391 -0.0820  0.5734
  794MPD2    H511709   0.021   4.509  16.861 -0.2087 -1.0008 -1.3636
  794MPD2    N111710   0.530   4.354  17.120  0.2500  0.5685 -0.1827
  794MPD2    H711711   0.567   4.310  17.036 -0.7843 -0.8073  0.0931
  795MPD2     C11712   3.211   1.466  14.024  0.3570 -0.2843 -0.5562
  795MPD2    C111713   3.211   1.380  13.918  0.5146 -0.0082  0.2368
  795MPD2    C211714   3.321   1.309  13.883 -0.1110  0.1773 -0.5812
  795MPD2    C311715   3.435   1.331  13.956 -0.2672  0.2158  0.1615
  795MPD2    C411716   3.439   1.421  14.057 -0.2263  0.8597 -0.3743
  795MPD2    C511717   3.326   1.485  14.095  0.9573  0.1458 -0.3368
  795MPD2     H11718   3.331   1.240  13.800 -0.5154 -0.9283  0.2895
  795MPD2    H111719   3.529   1.445  14.113 -0.9485  0.2754  1.0361
  795MPD2    H211720   3.123   1.522  14.052 -0.5461 -2.2360  0.5059
  795MPD2    H311721   3.340   1.563  14.169  0.3592  0.4114 -0.5118
  795MPD2     N11722   3.546   1.249  13.926 -0.0782  0.0074 -0.1228
  795MPD2    H511723   3.536   1.169  13.865  1.0043 -0.0797 -0.1848
  795MPD2    N111724   3.104   1.358  13.829  0.2671 -0.6742  0.7306
  795MPD2    H711725   3.117   1.283  13.762  0.1598 -0.1083  0.0690
  796MPD2     C11726   2.299   3.060  15.818  0.2951 -0.5719  0.2896
  796MPD2    C111727   2.424   3.109  15.830  0.0018 -0.5645  0.5832
  796MPD2    C211728   2.452   3.239  15.813 -0.0557 -0.0360  0.0074
  796MPD2    C311729   2.360   3.322  15.756 -0.8998  0.3904  0.1307
  796MPD2    C411730   2.235   3.277  15.728  0.2091  0.4714  0.9082
  796MPD2    C511731   2.205   3.149  15.767 -0.1989 -0.2346 -0.5364
  796MPD2     H11732   2.551   3.277  15.836  0.0585  0.0664 -0.6619
  796MPD2    H111733   2.155   3.343  15.697 -2.5415 -1.7076  3.3572
  796MPD2    H211734   2.267   2.966  15.860  2.3375 -1.4998 -0.1950
  796MPD2    H311735   2.102   3.120  15.753  0.3134 -1.6843 -1.2646
  796MPD2     N11736   2.408   3.456  15.739  0.2314  0.0713  0.3144
  796MPD2    H511737   2.499   3.479  15.777  0.3822  0.4727 -0.2828
  796MPD2    N111738   2.524   3.017  15.878  0.4437  0.1969 -0.1033
  796MPD2    H711739   2.493   2.921  15.887  0.9164  0.0557  0.0427
  797MPD2     C11740   3.635   2.905  17.249 -0.2630 -0.5108  0.0915
  797MPD2    C111741   3.710   3.012  17.203  0.1331  0.1958 -0.4358
  797MPD2    C211742   3.676   3.083  17.089 -0.0862  0.7443 -0.1750
  797MPD2    C311743   3.553   3.051  17.027  0.4100  0.5977  0.1132
  797MPD2    C411744   3.480   2.939  17.066  0.2634 -0.3921  0.4012
  797MPD2    C511745   3.521   2.869  17.178  0.4756 -0.2325  0.4185
  797MPD2     H11746   3.735   3.170  17.062 -0.6213  0.8782 -0.9240
  797MPD2    H111747   3.389   2.912  17.012 -0.7168  2.0206  0.8511
  797MPD2    H211748   3.658   2.853  17.341  0.2406  0.1142  0.3185
  797MPD2    H311749   3.457   2.786  17.208  0.7498  0.4283  2.8743
  797MPD2     N11750   3.508   3.142  16.927  0.0890 -0.5248  0.3974
  797MPD2    H511751   3.576   3.213  16.902  1.4801 -2.0536 -0.2165
  797MPD2    N111752   3.832   3.053  17.259 -0.1323  0.4739  0.1335
  797MPD2    H711753   3.881   3.129  17.215 -0.3696 -0.0754 -1.0831
  798MPD2     C11754   3.649   3.638  17.128 -0.2195 -0.2592 -0.5629
  798MPD2    C111755   3.698   3.553  17.039  0.0095 -0.1702 -0.3376
  798MPD2    C211756   3.808   3.483  17.082  0.3813 -0.3919  0.4141
  798MPD2    C311757   3.871   3.505  17.199  0.5565 -1.1789  0.5241
  798MPD2    C411758   3.818   3.600  17.284 -0.8009 -0.5430  0.2056
  798MPD2    C511759   3.704   3.659  17.249 -0.9296 -0.2640 -0.0674
  798MPD2     H11760   3.852   3.409  17.015  0.1104 -0.0365 -0.1544
  798MPD2    H111761   3.863   3.639  17.375  0.9519 -0.0209 -0.8799
  798MPD2    H211762   3.568   3.704  17.098 -0.6367  0.2880  1.7153
  798MPD2    H311763   3.658   3.730  17.316 -1.8489  1.2564 -2.2871
  798MPD2     N11764   3.983   3.427  17.226  0.4521  0.2681 -0.0926
  798MPD2    H511765   4.005   3.350  17.163 -1.0948 -0.5661  0.3874
  798MPD2    N111766   3.633   3.547  16.913  0.6622 -0.2951 -0.0850
  798MPD2    H711767   3.553   3.608  16.899  1.4546  1.4391  2.9706
  799MPD2     C11768   2.520   4.387  14.453 -0.6110  0.5978  0.2198
  799MPD2    C111769   2.389   4.333  14.445  0.2846 -0.0493  0.4808
  799MPD2    C211770   2.306   4.377  14.340  0.3484 -0.5459  0.5348
  799MPD2    C311771   2.348   4.484  14.258 -0.7267  0.2749 -0.1193
  799MPD2    C411772   2.477   4.520  14.261 -0.3136  0.3349  0.0205
  799MPD2    C511773   2.563   4.478  14.355  0.3365 -0.0717  0.1628
  799MPD2     H11774   2.203   4.344  14.330 -0.1986  1.1897  0.4792
  799MPD2    H111775   2.512   4.590  14.185 -0.1500  0.1898 -0.0384
  799MPD2    H211776   2.591   4.352  14.527  0.3742  0.3868 -0.8282
  799MPD2    H311777   2.665   4.515  14.348  0.2830  0.3195  1.6158
  799MPD2     N11778   2.280   4.539  14.148 -0.6622  0.0989  0.1122
  799MPD2    H511779   2.329   4.589  14.075 -0.9379  0.2509  0.0323
  799MPD2    N111780   2.352   4.224  14.525  0.2732 -0.2953  0.5198
  799MPD2    H711781   2.279   4.168  14.483  0.6180 -0.0751 -0.3707
  800MPD2     C11782   2.890   0.252  13.835 -0.3487 -0.3039  0.0353
  800MPD2    C111783   3.011   0.303  13.857  0.2192  0.4453 -0.5904
  800MPD2    C211784   3.120   0.253  13.785  0.4740 -0.1623 -0.3165
  800MPD2    C311785   3.105   0.161  13.682 -0.2123 -0.1679 -0.3744
  800MPD2    C411786   2.979   0.113  13.660 -0.0149  0.5928 -0.0080
  800MPD2    C511787   2.871   0.156  13.740 -0.0940  0.3075 -0.7673
  800MPD2     H11788   3.218   0.298  13.796  0.3971  0.1813 -1.0460
  800MPD2    H111789   2.959   0.042  13.580 -1.9475 -0.2412  1.2005
  800MPD2    H211790   2.801   0.278  13.891 -1.4019 -1.6556 -0.9904
  800MPD2    H311791   2.776   0.112  13.713 -0.1853  0.4887 -0.7416
  800MPD2     N11792   3.213   0.120  13.601 -0.4749 -0.4103  0.0127
  800MPD2    H511793   3.302   0.158  13.631  0.1972 -0.9722 -1.3007
  800MPD2    N111794   3.024   0.406  13.956 -0.4117 -0.2412  0.4415
  800MPD2    H711795   2.941   0.428  14.010  0.9854  0.5178  2.2684
  801MPD2     C11796   2.772   1.061  13.933 -0.4086 -0.3764 -0.0551
  801MPD2    C111797   2.817   1.065  14.066  0.5316  0.0692 -0.6143
  801MPD2    C211798   2.734   1.135  14.151  0.3433 -0.4659 -0.2207
  801MPD2    C311799   2.613   1.196  14.118  0.2836  1.2036 -0.6694
  801MPD2    C411800   2.569   1.183  13.988  0.2537 -0.3313 -0.0315
  801MPD2    C511801   2.653   1.124  13.898  0.5269 -0.1353  0.1038
  801MPD2     H11802   2.754   1.135  14.258  1.5457 -2.2771 -0.4437
  801MPD2    H111803   2.471   1.220  13.961 -0.6540 -0.9297  2.5051
  801MPD2    H211804   2.817   1.005  13.852  1.3815 -1.0046  1.3779
  801MPD2    H311805   2.619   1.117  13.795 -0.6709 -1.6206  0.6008
  801MPD2     N11806   2.526   1.263  14.215  0.0785 -0.2531  0.8437
  801MPD2    H511807   2.437   1.300  14.183 -0.6199 -1.3875  1.4850
  801MPD2    N111808   2.920   0.983  14.117 -0.2743  0.8136  0.1388
  801MPD2    H711809   2.933   0.999  14.216 -0.7189  1.2215  0.1293
  802MPD2     C11810   2.155   1.216   0.145  0.0610  0.1289 -0.7401
  802MPD2    C111811   2.183   1.334   0.093 -0.0723  0.3409 -0.3943
  802MPD2    C211812   2.265   1.340  17.680  0.1488  0.3529 -0.0627
  802MPD2    C311813   2.335   1.228  17.641  0.2481 -0.1502 -0.4267
  802MPD2    C411814   2.306   1.102  17.696  0.4438  0.0672 -0.0732
  802MPD2    C511815   2.223   1.101   0.102 -0.5708 -0.5896  0.2238
  802MPD2     H11816   2.279   1.438  17.635 -0.6547 -0.0153 -1.1127
  802MPD2    H111817   2.352   1.010  17.662 -2.8830 -1.1515 -1.2193
  802MPD2    H211818   2.087   1.197   0.227  1.0247  2.1420  0.5529
  802MPD2    H311819   2.204   1.007   0.153 -1.3050 -0.6375 -0.1444
  802MPD2     N11820   2.417   1.250  17.525 -0.1275  0.0140  0.3435
  802MPD2    H511821   2.407   1.341  17.481  1.3234 -0.4568 -0.9237
  802MPD2    N111822   2.129   1.457   0.141  0.2639  0.3228  0.3206
  802MPD2    H711823   2.134   1.534   0.075 -1.8028  1.6962  1.7906
  803MPD2     C11824   3.496   4.706  11.872  0.1013  0.4104 -0.3334
  803MPD2    C111825   3.566   4.708  11.987 -0.3554 -0.5316  0.1079
  803MPD2    C211826   3.518   4.646  12.103 -0.1219 -1.2604 -0.3107
  803MPD2    C311827   3.400   4.580  12.095 -0.1023  0.2619 -0.0823
  803MPD2    C411828   3.332   4.572  11.980 -0.5222 -0.0983  0.0349
  803MPD2    C511829   3.378   4.632  11.868 -0.3283  0.3344 -0.1273
  803MPD2     H11830   3.582   4.654  12.191 -1.2139 -4.1540  0.7705
  803MPD2    H111831   3.241   4.513  11.974 -0.7296  0.2147  0.1648
  803MPD2    H211832   3.524   0.032  11.781  2.6061 -0.5699 -0.0993
  803MPD2    H311833   3.318   4.636  11.778 -1.1945  0.4534  0.4494
  803MPD2     N11834   3.364   4.521  12.220 -0.1397 -0.8860 -0.2662
  803MPD2    H511835   3.439   4.515  12.288 -0.0288  0.4144 -0.2590
  803MPD2    N111836   3.682   0.065  11.998  0.1009  0.6673  0.2392
  803MPD2    H711837   3.726   0.076  12.089 -0.3059  0.2721  0.4799
  804MPD2     C11838   2.973   1.529  17.131  0.2024 -0.3379  0.4558
  804MPD2    C111839   3.000   1.491  17.262 -0.0437  0.3403  0.0260
  804MPD2    C211840   3.063   1.592  17.338 -0.2073  0.3268  1.1651
  804MPD2    C311841   3.101   1.709  17.283  0.2134 -0.0236 -0.7668
  804MPD2    C411842   3.050   1.753  17.161  0.6116 -0.0896 -0.1523
  804MPD2    C511843   2.992   1.656  17.082 -0.4165  0.5088  0.2684
  804MPD2     H11844   3.100   1.561  17.435 -0.3669  0.8682  1.3979
  804MPD2    H111845   3.064   1.853  17.124 -1.0302 -0.0429 -0.6637
  804MPD2    H211846   2.925   1.457  17.066 -1.1122  0.0340  1.0179
  804MPD2    H311847   2.963   1.683  16.981  1.9259  2.3361  0.1029
  804MPD2     N11848   3.180   1.797  17.365 -0.1567  0.1499 -0.1000
  804MPD2    H511849   3.196   1.778  17.463  1.0750 -1.6772 -0.6532
  804MPD2    N111850   2.973   1.370  17.316 -0.0977  0.2060  0.2794
  804MPD2    H711851   3.005   1.352  17.411  0.8817  0.3599 -0.0223
  805MPD2     C11852   2.327   3.974  15.354  0.2084  0.3421 -0.1195
  805MPD2    C111853   2.294   4.109  15.341 -0.4069 -0.8412  0.2970
  805MPD2    C211854   2.391   4.207  15.350  0.7074 -0.5164  0.2174
  805MPD2    C311855   2.508   4.176  15.409  1.3192  1.3655  0.4368
  805MPD2    C411856   2.549   4.041  15.419 -0.4622  0.3593  0.3835
  805MPD2    C511857   2.455   3.939  15.396 -0.1334 -0.7071 -0.7999
  805MPD2     H11858   2.361   4.311  15.337  0.8509 -0.3219  1.3855
  805MPD2    H111859   2.648   4.020  15.459 -0.2968  0.9622  0.2909
  805MPD2    H211860   2.263   3.888  15.337 -0.4715  0.7749  0.2740
  805MPD2    H311861   2.487   3.835  15.398  0.4294 -0.5223  0.0125
  805MPD2     N11862   2.586   4.278  15.467 -0.3200  0.2595  0.2548
  805MPD2    H511863   2.546   4.369  15.447  3.2649  1.7105 -0.4092
  805MPD2    N111864   2.155   4.150  15.332  0.0022 -0.1774  0.0031
  805MPD2    H711865   2.143   4.250  15.346 -1.8513 -0.6517  1.7669
  806MPD2     C11866   3.691   4.249   1.248  0.1249  0.1344  1.0031
  806MPD2    C111867   3.642   4.372   1.212  0.0340 -0.0742  0.0522
  806MPD2    C211868   3.578   4.380   1.088 -1.1428 -0.1367  0.4724
  806MPD2    C311869   3.585   4.275   0.993  0.2852  0.5537  0.1065
  806MPD2    C411870   3.650   4.157   1.032  0.6032  0.2723  0.5194
  806MPD2    C511871   3.686   4.142   1.162 -0.1349  0.3201 -0.4052
  806MPD2     H11872   3.524   4.468   1.056  2.6171  1.3948 -1.5703
  806MPD2    H111873   3.656   4.071   0.967  1.0656  0.5471  0.2057
  806MPD2    H211874   3.745   4.234   1.341 -0.1454 -1.3749  0.9104
  806MPD2    H311875   3.729   4.048   1.195  0.4513  0.1384 -1.6960
  806MPD2     N11876   3.540   4.300   0.863 -0.6137  0.3268  0.1303
  806MPD2    H511877   3.508   4.393   0.838  0.0970  0.2617 -1.0590
  806MPD2    N111878   3.660   4.484   1.297 -0.5409  0.0448 -0.7014
  806MPD2    H711879   3.712   4.457   1.379 -0.7358  0.6910 -0.3675
  807MPD2     C11880   3.725   4.424   1.946  0.0285  0.8044  0.0818
  807MPD2    C111881   3.639   4.440   1.842  0.0139  0.2679  0.0083
  807MPD2    C211882   3.522   4.360   1.843 -0.1531 -0.4965 -0.0019
  807MPD2    C311883   3.498   4.271   1.937  0.4189  0.7157 -0.2117
  807MPD2    C411884   3.585   4.266   2.044  0.4247  0.0090 -0.3022
  807MPD2    C511885   3.696   4.343   2.049  0.3416  0.6916 -0.0144
  807MPD2     H11886   3.454   4.365   1.758  0.8060  3.7233 -0.4858
  807MPD2    H111887   3.587   4.200   2.129  1.1427  0.7710  0.2828
  807MPD2    H211888   3.805   4.495   1.960 -0.9062  2.0135 -0.6757
  807MPD2    H311889   3.759   4.336   2.137 -1.0036 -2.8305  0.6941
  807MPD2     N11890   3.380   4.191   1.927 -0.2652  0.0190  0.6710
  807MPD2    H511891   3.350   4.187   1.830  1.0518  0.1717  0.2472
  807MPD2    N111892   3.660   4.529   1.732  0.0130  0.0079 -0.3476
  807MPD2    H711893   3.580   4.543   1.671  0.4485 -1.6038 -1.3069
  808MPD2     C11894   3.063   0.726   9.490 -0.0041  0.4842  0.1145
  808MPD2    C111895   3.046   0.733   9.625 -0.0637  1.4323 -0.3445
  808MPD2    C211896   3.140   0.789   9.705 -0.0170  0.0962  0.2752
  808MPD2    C311897   3.271   0.823   9.657  0.7685  0.1358 -0.3081
  808MPD2    C411898   3.288   0.810   9.517  1.0274  0.2187 -0.6716
  808MPD2    C511899   3.178   0.775   9.437  0.5841  0.6538  0.8323
  808MPD2     H11900   3.132   0.779   9.812 -0.5908  0.5533  0.2688
  808MPD2    H111901   3.381   0.839   9.469  0.2768  0.3243 -2.0616
  808MPD2    H211902   2.994   0.697   9.413  0.2712 -0.0934  0.0909
  808MPD2    H311903   3.191   0.784   9.330 -1.6293 -2.6557  0.2833
  808MPD2     N11904   3.378   0.892   9.731  0.2959  0.4855  0.3134
  808MPD2    H511905   3.467   0.915   9.690  0.2398  2.3640  1.2715
  808MPD2    N111906   2.933   0.686   9.694 -0.0238  0.3384  0.1198
  808MPD2    H711907   2.940   0.687   9.795 -0.9253 -2.1682  0.1995
  809MPD2     C11908   4.357   0.767   9.778 -0.2351  0.0481 -0.4909
  809MPD2    C111909   4.248   0.675   9.777  0.1278  0.5172  0.0990
  809MPD2    C211910   4.123   0.708   9.817  0.1827 -0.3464  0.2011
  809MPD2    C311911   4.099   0.837   9.869 -0.1373  0.3093  0.2597
  809MPD2    C411912   4.208   0.922   9.883 -0.1688 -0.0425 -0.0147
  809MPD2    C511913   4.330   0.894   9.820  0.3946 -0.6641 -0.2448
  809MPD2     H11914   4.046   0.632   9.812  0.6756 -0.8277 -0.0264
  809MPD2    H111915   4.190   1.018   9.930 -3.8191 -1.9296  2.4799
  809MPD2    H211916   4.454   0.745   9.736  0.0288  0.5589 -0.1454
  809MPD2    H311917   4.410   0.967   9.814 -0.7702  0.6935  0.7191
  809MPD2     N11918   3.967   0.881   9.915  0.0838  0.3265 -0.2942
  809MPD2    H511919   3.957   0.972   9.958 -1.1999  0.0497 -0.0069
  809MPD2    N111920   4.269   0.545   9.728 -0.1409 -0.2339 -0.2095
  809MPD2    H711921   4.187   0.485   9.726 -1.3220  1.3446  0.7389
  810MPD2     C11922   2.985   0.313  10.012  0.2102 -0.4167 -0.6454
  810MPD2    C111923   2.969   0.188  10.072 -0.2755 -0.1420  0.1016
  810MPD2    C211924   3.077   0.131  10.136  0.5979 -0.2902  0.2694
  810MPD2    C311925   3.203   0.183  10.136  0.0836  0.2079  0.0208
  810MPD2    C411926   3.223   0.304  10.074  0.0032  0.6177 -0.7479
  810MPD2    C511927   3.114   0.369  10.016 -0.0034  0.3306 -0.1164
  810MPD2     H11928   3.066   0.030  10.172  1.6403 -0.3476  0.4280
  810MPD2    H111929   3.320   0.354  10.082  0.0756  0.2752  0.5761
  810MPD2    H211930   2.906   0.363   9.956  2.9669  0.1623 -3.9973
  810MPD2    H311931   3.128   0.462   9.961 -1.3354  1.0380  0.7544
  810MPD2     N11932   3.311   0.115  10.204  0.2817  0.4583 -0.3810
  810MPD2    H511933   3.401   0.138  10.165  0.8129 -1.8006 -0.4697
  810MPD2    N111934   2.838   0.142  10.084 -0.6579 -0.3596  0.2716
  810MPD2    H711935   2.766   0.200  10.043 -0.2015 -0.4784 -0.6967
  811MPD2     C11936   2.004   0.165   9.909  0.6183  0.7194  0.2913
  811MPD2    C111937   2.105   0.220   9.977  0.2601 -0.5356 -0.4797
  811MPD2    C211938   2.118   0.360   9.969  0.3329 -0.2431  0.2753
  811MPD2    C311939   2.029   0.444   9.897  0.6126  0.0747  0.7788
  811MPD2    C411940   1.925   0.372   9.838 -0.4104 -0.4760 -0.4231
  811MPD2    C511941   1.916   0.237   9.839 -0.0035 -0.1807  0.1766
  811MPD2     H11942   2.191   0.407  10.035 -0.5889 -0.0450  1.1459
  811MPD2    H111943   1.852   0.435   9.789 -1.9768 -1.1634  1.0269
  811MPD2    H211944   1.987   0.058   9.919 -0.4525  0.9437  0.8470
  811MPD2    H311945   1.828   0.187   9.799  1.0983 -1.6448 -0.3920
  811MPD2     N11946   2.043   0.584   9.899 -0.3378 -0.8501 -0.1784
  811MPD2    H511947   2.111   0.622   9.964 -0.6023 -0.9735  0.1695
  811MPD2    N111948   2.202   0.136  10.036  0.6249  0.3868 -0.4012
  811MPD2    H711949   2.177   0.038  10.026  0.6001  0.3091  0.4130
  812MPD2     C11950   1.481   4.523  12.260 -0.4567 -0.5559 -0.2149
  812MPD2    C111951   1.448   4.620  12.357 -0.4738 -0.3708  0.3561
  812MPD2    C211952   1.393   4.586  12.483 -0.4952  0.5980 -0.2414
  812MPD2    C311953   1.352   4.460  12.512 -0.5166 -0.7950 -0.7015
  812MPD2    C411954   1.358   4.371  12.403  0.3079 -0.1728 -0.0398
  812MPD2    C511955   1.426   4.402  12.288  0.2613  0.4579 -0.2806
  812MPD2     H11956   1.373   4.665  12.554  3.4901  1.1468  0.2905
  812MPD2    H111957   1.328   4.269  12.422  2.5521 -0.5919  1.1594
  812MPD2    H211958   1.521   4.546  12.162 -1.0931 -0.9746 -0.5744
  812MPD2    H311959   1.431   4.333  12.205 -4.1978  1.4086 -1.3537
  812MPD2     N11960   1.285   4.416  12.627  0.0649 -0.1056 -0.7954
  812MPD2    H511961   1.241   4.324  12.627 -0.2116  0.0252 -0.6501
  812MPD2    N111962   1.484   0.035  12.329  0.4309 -0.0266  0.2438
  812MPD2    H711963   1.528   0.058  12.241 -0.4787  0.8403  0.0059
  813MPD2     C11964   0.797   1.962  12.679  0.5813  1.1447 -0.2272
  813MPD2    C111965   0.906   1.933  12.756 -0.2074  0.7169 -0.9593
  813MPD2    C211966   0.878   1.893  12.886 -0.3154  0.1733  0.2374
  813MPD2    C311967   0.753   1.853  12.928 -0.0925 -0.2347 -0.4578
  813MPD2    C411968   0.644   1.873  12.848 -0.7057  0.2414  0.2585
  813MPD2    C511969   0.670   1.930  12.728 -0.2745  0.2748  0.1036
  813MPD2     H11970   0.958   1.890  12.960  0.5788  2.0254 -0.6486
  813MPD2    H111971   0.542   1.849  12.874 -1.0856  1.0394 -0.4765
  813MPD2    H211972   0.808   2.000  12.578 -2.0263  0.9135 -0.5736
  813MPD2    H311973   0.595   1.946  12.651 -0.6789 -2.2214 -0.0455
  813MPD2     N11974   0.745   1.803  13.056  0.1772  0.4698  0.2856
  813MPD2    H511975   0.833   1.800  13.106 -0.8703  1.8117  2.2420
  813MPD2    N111976   1.036   1.969  12.717  0.1375 -0.2096 -0.2673
  813MPD2    H711977   1.048   2.024  12.632 -1.4399  1.3024  0.4610
  814MPD2     C11978   1.280   3.006  12.589  0.1923 -0.3157  0.7415
  814MPD2    C111979   1.276   3.095  12.484 -0.8069 -0.2318 -1.0923
  814MPD2    C211980   1.342   3.215  12.500 -0.5075 -0.5013 -0.3713
  814MPD2    C311981   1.403   3.253  12.619  0.5627  0.0312 -0.3310
  814MPD2    C411982   1.405   3.153  12.720 -0.1223 -0.2161  0.1819
  814MPD2    C511983   1.351   3.028  12.700 -0.7759  0.3892 -0.4747
  814MPD2     H11984   1.367   3.270  12.410  0.3218  0.0350  0.1863
  814MPD2    H111985   1.461   3.163  12.812 -2.6578 -0.6611  1.7835
  814MPD2    H211986   1.239   2.905  12.589  2.3078 -1.1879 -1.8192
  814MPD2    H311987   1.356   2.948  12.773  1.2922  1.1307  0.1775
  814MPD2     N11988   1.462   3.375  12.638  0.3436 -0.0178 -0.1058
  814MPD2    H511989   1.492   3.386  12.735 -0.9376 -0.1286  0.3025
  814MPD2    N111990   1.219   3.060  12.359 -0.3026 -0.2067  0.0070
  814MPD2    H711991   1.240   3.119  12.280  0.5841  0.6308  0.8631
  815MPD2     C11992   1.834   1.594  11.395  0.0067 -0.2393 -0.1037
  815MPD2    C111993   1.836   1.462  11.405  0.0595 -0.5854 -0.6737
  815MPD2    C211994   1.796   1.396  11.522 -0.2610  0.8813  0.2710
  815MPD2    C311995   1.756   1.471  11.632  0.2697 -0.1125  0.0960
  815MPD2    C411996   1.748   1.608  11.623  0.1822 -0.3850  0.7162
  815MPD2    C511997   1.787   1.659  11.504  0.7994 -0.6717  0.6188
  815MPD2     H11998   1.800   1.289  11.536  1.7904  0.9887  0.5246
  815MPD2    H111999   1.712   1.675  11.700 -0.6386 -1.1153  0.9681
  815MPD2    H212000   1.871   1.646  11.308 -0.4155  1.5548  0.7832
  815MPD2    H312001   1.779   1.766  11.490 -1.7664 -0.9481 -0.1318
  815MPD2     N12002   1.711   1.399  11.742  0.1972 -0.2046  0.1871
  815MPD2    H512003   1.716   1.297  11.734 -1.2133 -0.2257 -0.5351
  815MPD2    N112004   1.877   1.377  11.304  0.4205  0.8734  0.1792
  815MPD2    H712005   1.892   1.281  11.332 -2.7215  0.9012  2.0113
  816MPD2     C12006   1.382   1.006  17.676  0.3340  0.7875 -0.6840
  816MPD2    C112007   1.402   1.103  17.579 -0.1960 -0.2775 -0.0245
  816MPD2    C212008   1.494   1.067  17.478  0.2131  1.3399  0.7561
  816MPD2    C312009   1.544   0.935  17.471  0.6262  0.7514 -0.4588
  816MPD2    C412010   1.503   0.840  17.563 -0.0202  0.4333  0.7830
  816MPD2    C512011   1.416   0.873  17.662  0.3942 -0.0418  0.6456
  816MPD2     H12012   1.525   1.143  17.407  2.5196  0.5884  0.9555
  816MPD2    H112013   1.525   0.734  17.559 -1.5839  0.0770  1.4735
  816MPD2    H212014   1.313   1.026   0.055  0.9119  2.1163 -0.5054
  816MPD2    H312015   1.384   0.793   0.026  0.7408 -1.6996 -1.1905
  816MPD2     N12016   1.637   0.916  17.366 -0.9783  0.3342 -0.2177
  816MPD2    H512017   1.646   0.994  17.301 -0.2470  0.9178  0.5932
  816MPD2    N112018   1.347   1.230  17.591  0.2541  0.0787 -0.0344
  816MPD2    H712019   1.288   1.240  17.673 -0.2550  0.0278 -0.3940
  817MPD2     C12020   1.568   2.278   9.971  0.9008 -0.8775  0.2684
  817MPD2    C112021   1.683   2.331   9.919  0.5399  0.9767 -0.1980
  817MPD2    C212022   1.683   2.455   9.873 -0.2456  0.3476  1.4004
  817MPD2    C312023   1.565   2.537   9.876 -0.9966 -0.5708  0.3596
  817MPD2    C412024   1.454   2.483   9.929 -0.0581 -0.2527  0.1616
  817MPD2    C512025   1.452   2.352   9.984  0.3752 -0.3975 -0.0667
  817MPD2     H12026   1.774   2.505   9.841 -2.0647  1.6249 -1.7546
  817MPD2    H112027   1.358   2.532   9.937  0.8191  1.3953  0.6229
  817MPD2    H212028   1.564   2.176  10.006  0.0960 -0.7057  0.6755
  817MPD2    H312029   1.355   2.314  10.014 -0.2791  1.5031  0.2562
  817MPD2     N12030   1.571   2.672   9.835 -0.0636 -0.0473  0.2760
  817MPD2    H512031   1.663   2.696   9.800 -0.1487 -1.0947 -0.6731
  817MPD2    N112032   1.801   2.257   9.901  0.1144 -0.0022  0.2688
  817MPD2    H712033   1.880   2.307   9.863 -1.2014  2.2188  0.4365
  818MPD2     C12034   0.405   2.066  10.114  0.0025 -0.0212  0.3143
  818MPD2    C112035   0.350   2.007  10.228 -0.4445  0.1968  0.5255
  818MPD2    C212036   0.327   1.864  10.235 -0.3381 -0.6062  0.3078
  818MPD2    C312037   0.358   1.783  10.129  0.7066 -0.2551  0.7755
  818MPD2    C412038   0.418   1.845  10.024  0.2067 -1.0101 -0.3289
  818MPD2    C512039   0.436   1.976  10.010  0.1305  0.2131 -0.3588
  818MPD2     H12040   0.290   1.815  10.324 -0.5416  1.2434  1.2383
  818MPD2    H112041   0.454   1.791   9.937  2.2466  0.3481 -0.3374
  818MPD2    H212042   0.424   2.172  10.106  0.7502 -0.1230  0.7716
  818MPD2    H312043   0.478   2.021   9.921 -0.3970 -1.6864 -1.5646
  818MPD2     N12044   0.336   1.644  10.124 -0.0699 -0.4277  0.3846
  818MPD2    H512045   0.360   1.594  10.039  2.0463  0.5140  0.4377
  818MPD2    N112046   0.318   2.083  10.343  0.5964  0.5675 -0.5867
  818MPD2    H712047   0.304   2.032  10.430  1.3411 -0.3493 -1.0082
  819MPD2     C12048   3.055   4.517  15.297  0.1239  0.2631  0.3366
  819MPD2    C112049   3.017   4.386  15.317  1.7167  0.4022 -0.7201
  819MPD2    C212050   3.060   4.327  15.434  0.3741 -0.1954  0.1662
  819MPD2    C312051   3.141   4.388  15.529  0.4539 -0.3151 -0.4660
  819MPD2    C412052   3.188   4.513  15.503  0.3664  1.1623 -0.0165
  819MPD2    C512053   3.137   4.579  15.393 -0.7066  0.1826 -0.1829
  819MPD2     H12054   3.014   4.233  15.461  0.3159  0.5037  2.5430
  819MPD2    H112055   3.259   4.572  15.561 -1.8182  2.4525  1.3354
  819MPD2    H212056   3.020   4.578  15.215  1.0315  0.4842  0.1165
  819MPD2    H312057   3.164   4.684  15.391  1.0848 -0.2850 -0.4390
  819MPD2     N12058   3.176   4.327  15.648 -0.2386 -0.6047 -0.1257
  819MPD2    H512059   3.140   4.232  15.652  1.2864 -1.1105  1.3794
  819MPD2    N112060   2.919   4.330  15.233 -0.6794  0.1639 -0.7658
  819MPD2    H712061   2.888   4.394  15.160 -0.0830  0.5969 -0.6345
  820MPD2     C12062   1.990   4.518  14.908  0.6098  0.6421  0.3340
  820MPD2    C112063   2.052   4.513  15.030  0.3471 -0.1742  1.1470
  820MPD2    C212064   2.193   4.492  15.048 -0.2074 -0.5803 -0.2918
  820MPD2    C312065   2.260   4.451  14.928 -0.1991  0.2861 -0.4895
  820MPD2    C412066   2.192   4.438  14.815 -0.6521  0.1681  0.5462
  820MPD2    C512067   2.062   4.464  14.804  0.1121 -0.2557 -0.4296
  820MPD2     H12068   2.240   4.473  15.144 -2.6838  0.0938  1.0301
  820MPD2    H112069   2.249   4.398  14.732 -1.8862  0.5411 -0.4822
  820MPD2    H212070   1.885   4.538  14.890  0.2479 -0.2397  1.5202
  820MPD2    H312071   2.005   4.453  14.712  0.3865 -1.8434 -0.4100
  820MPD2     N12072   2.388   4.393  14.928 -0.9601  0.0098 -0.0485
  820MPD2    H512073   2.409   4.337  14.847 -1.4722 -1.2877  0.7276
  820MPD2    N112074   1.960   4.500  15.139 -0.2266  0.1270  0.3574
  820MPD2    H712075   1.863   4.517  15.114 -0.6802 -0.5816  1.6676
  821MPD2     C12076   3.137   0.643  13.122 -0.5102  0.1057 -0.4512
  821MPD2    C112077   3.250   0.651  13.197  0.8845  0.3618 -0.2333
  821MPD2    C212078   3.327   0.763  13.214  0.1782  0.5210 -0.5018
  821MPD2    C312079   3.279   0.884  13.161 -0.9968 -0.0368 -0.5711
  821MPD2    C412080   3.159   0.879  13.091 -0.1010 -0.8985  0.1862
  821MPD2    C512081   3.099   0.766  13.069 -0.4112  0.1938  0.4459
  821MPD2     H12082   3.425   0.764  13.260  0.3040  1.3376 -0.7812
  821MPD2    H112083   3.121   0.973  13.050 -0.4874 -1.5030 -0.8407
  821MPD2    H212084   3.074   0.557  13.102  0.4367 -0.4207 -1.1482
  821MPD2    H312085   3.012   0.776  13.006 -0.9087  0.7205  1.2148
  821MPD2     N12086   3.349   1.011  13.156 -0.6629 -0.5650 -0.0821
  821MPD2    H512087   3.305   1.091  13.112 -0.0130 -0.0210  0.2569
  821MPD2    N112088   3.312   0.536  13.251 -0.1932  0.0329 -0.3515
  821MPD2    H712089   3.402   0.553  13.294 -0.2190  0.8860 -0.6287
  822MPD2     C12090   3.521   0.959  15.852 -0.3900 -0.1103 -0.0379
  822MPD2    C112091   3.620   0.995  15.935  0.2593 -0.8847 -0.3817
  822MPD2    C212092   3.600   1.096  16.028  0.2569 -0.4429 -0.5176
  822MPD2    C312093   3.474   1.150  16.047  0.1932  0.1014  0.3890
  822MPD2    C412094   3.374   1.114  15.959  0.0017 -0.6205  0.2982
  822MPD2    C512095   3.403   1.030  15.861 -0.2967 -0.3331 -0.1807
  822MPD2     H12096   3.688   1.120  16.086  0.0602  1.5868 -1.0484
  822MPD2    H112097   3.277   1.161  15.952  0.4374  0.2579  0.1315
  822MPD2    H212098   3.540   0.893  15.768  0.7155  0.9383 -0.6154
  822MPD2    H312099   3.326   1.004  15.789  0.8911  1.7993 -2.2167
  822MPD2     N12100   3.454   1.241  16.154  0.7059 -0.0300  0.5450
  822MPD2    H512101   3.529   1.255  16.221  1.9253  1.6985 -1.2005
  822MPD2    N112102   3.736   0.918  15.959 -0.0729 -0.8646 -0.3104
  822MPD2    H712103   3.797   0.945  16.036  0.5497 -1.1715 -0.6955
  823MPD2     C12104   3.244   1.369  16.980  0.1424 -0.0294 -0.1175
  823MPD2    C112105   3.241   1.311  16.858 -1.3521 -0.2619  0.3253
  823MPD2    C212106   3.274   1.173  16.853 -0.6437  0.2939 -0.0035
  823MPD2    C312107   3.315   1.106  16.968 -0.1607 -0.7448  0.2523
  823MPD2    C412108   3.295   1.165  17.094 -0.3480 -0.3682 -0.1742
  823MPD2    C512109   3.270   1.299  17.097 -0.0012  0.2670  0.0846
  823MPD2     H12110   3.272   1.114  16.762 -2.6884 -0.1551  0.3380
  823MPD2    H112111   3.306   1.111  17.187 -0.1087  2.2633  1.3504
  823MPD2    H212112   3.210   1.471  16.993 -0.5423 -0.4826  1.7222
  823MPD2    H312113   3.246   1.344  17.193  1.9746 -1.4812  1.4273
  823MPD2     N12114   3.367   0.981  16.963 -0.0712  0.3595  0.8970
  823MPD2    H512115   3.387   0.939  17.053  0.0674  1.2485  1.2848
  823MPD2    N112116   3.214   1.393  16.747 -0.0172 -0.0854 -0.4465
  823MPD2    H712117   3.194   1.491  16.764 -0.9159 -0.2777 -0.4027
  824MPD2     C12118   4.087   0.109  15.944 -0.8079  0.6484  0.4328
  824MPD2    C112119   4.177   0.218  15.962 -0.3344 -0.2370 -0.0197
  824MPD2    C212120   4.312   0.192  15.968 -0.4348 -0.3389  0.1403
  824MPD2    C312121   4.365   0.068  15.946 -0.3730 -0.0815 -0.5796
  824MPD2    C412122   4.271   4.688  15.922 -0.2712 -0.6100  0.0750
  824MPD2    C512123   4.133   4.716  15.920 -0.3265  0.5153 -0.0525
  824MPD2     H12124   4.375   0.279  15.981  1.0025 -1.4253  0.5775
  824MPD2    H112125   4.295   4.587  15.892 -0.3717  0.4759 -3.6538
  824MPD2    H212126   3.980   0.123  15.935 -1.0932 -0.7586  1.7089
  824MPD2    H312127   4.058   4.640  15.900  0.1022  0.7399 -2.5277
  824MPD2     N12128   4.499   0.049  15.898  0.1293 -0.2284  0.0381
  824MPD2    H512129   4.563   0.127  15.888  1.2380 -1.2130 -0.5354
  824MPD2    N112130   4.144   0.355  15.971  0.5641 -0.1080  0.5417
  824MPD2    H712131   4.210   0.422  16.007 -0.2580  1.1098 -0.1854
  825MPD2     C12132   0.221   0.371  15.259  0.1426 -0.8154 -0.2584
  825MPD2    C112133   0.132   0.350  15.368 -0.4553 -0.0524  0.2716
  825MPD2    C212134   0.086   0.463  15.433  0.2603 -0.2075  0.5727
  825MPD2    C312135   0.117   0.596  15.384  0.5139  0.6846 -0.0151
  825MPD2    C412136   0.203   0.610  15.272  0.4061  0.0351 -0.7723
  825MPD2    C512137   0.266   0.497  15.222 -0.1557  0.3462  0.0131
  825MPD2     H12138   0.007   0.455  15.506  0.1948  0.6340  0.5871
  825MPD2    H112139   0.242   0.705  15.238 -0.9026  0.5263 -0.9300
  825MPD2    H212140   0.255   0.281  15.211  0.3586 -0.7552 -0.2229
  825MPD2    H312141   0.332   0.511  15.137  1.0873  2.0997  1.2600
  825MPD2     N12142   0.051   0.709  15.432  0.1246 -0.1195  0.3489
  825MPD2    H512143   0.048   0.790  15.371  0.9222  1.5393  2.5042
  825MPD2    N112144   0.088   0.221  15.406  0.7221 -0.3214  0.6628
  825MPD2    H712145   0.134   0.139  15.367  2.6270  1.6126 -1.1123
  826MPD2     C12146   4.412   4.434  13.582  0.2739  0.7857 -0.6589
  826MPD2    C112147   4.324   4.453  13.478 -0.0540  0.6920 -1.1638
  826MPD2    C212148   4.231   4.555  13.485 -0.1407  0.5430 -0.4515
  826MPD2    C312149   4.232   4.640  13.596 -0.0425  0.0503 -0.2355
  826MPD2    C412150   4.329   4.628  13.697  0.1510 -0.1437  0.5253
  826MPD2    C512151   4.414   4.522  13.686 -0.2633 -0.4657  0.4394
  826MPD2     H12152   4.148   4.558  13.416  2.0189  1.7936 -3.0199
  826MPD2    H112153   4.346   4.699  13.778 -0.8634  1.8154 -0.9762
  826MPD2    H212154   4.486   4.356  13.569  1.5435  1.8399  0.1707
  826MPD2    H312155   4.489   4.504  13.762 -0.8407  2.4754  1.7068
  826MPD2     N12156   4.146   0.025  13.613  0.2991 -0.1190 -0.8145
  826MPD2    H512157   4.158   0.091  13.690 -1.1354 -0.1444 -0.5797
  826MPD2    N112158   4.342   4.372  13.372 -0.5121  0.5021 -0.2400
  826MPD2    H712159   4.412   4.299  13.377  0.4343  1.6514  3.1133
  827MPD2     C12160   0.170   0.890  10.005 -0.3239  0.2675 -0.0620
  827MPD2    C112161   0.228   0.771   9.988 -0.0627 -0.3543  0.0355
  827MPD2    C212162   0.186   0.687   9.892  0.1227  0.0272  0.3525
  827MPD2    C312163   0.094   0.722   9.800 -0.3545 -0.3281 -0.5185
  827MPD2    C412164   0.029   0.836   9.820  0.4212 -0.6212  0.7047
  827MPD2    C512165   0.066   0.920   9.923  0.2468  0.9205  0.9804
  827MPD2     H12166   0.241   0.594   9.884 -1.3870 -0.9140  0.8565
  827MPD2    H112167   4.676   0.868   9.752 -1.9789 -2.7109  2.4210
  827MPD2    H212168   0.209   0.955  10.083  1.9188 -2.1496  0.8232
  827MPD2    H312169   0.029   1.022   9.920  1.5460  1.3645  0.1950
  827MPD2     N12170   0.059   0.638   9.688 -0.2276 -0.1829 -0.0331
  827MPD2    H512171   0.086   0.540   9.693 -0.0659 -0.0042  2.5736
  827MPD2    N112172   0.342   0.747  10.076 -0.2893 -0.0945 -0.2225
  827MPD2    H712173   0.359   0.825  10.139  1.2455  2.0068 -3.2174
  828MPD2     C12174   3.470   0.924  12.848 -0.5250 -0.0975 -0.8864
  828MPD2    C112175   3.494   0.954  12.716  0.0003  0.3617  0.1721
  828MPD2    C212176   3.614   0.918  12.663  0.5608  0.0476  0.3291
  828MPD2    C312177   3.705   0.836  12.725 -0.8107 -0.1895  0.2681
  828MPD2    C412178   3.680   0.804  12.858 -0.6910 -0.1429  0.5100
  828MPD2    C512179   3.562   0.842  12.913 -0.5900 -0.2404  0.0143
  828MPD2     H12180   3.632   0.958  12.564 -0.6985  0.3398  0.2185
  828MPD2    H112181   3.751   0.749  12.920 -0.2603  3.4041  3.1614
  828MPD2    H212182   3.394   0.966  12.912  0.0190  2.1237 -1.6709
  828MPD2    H312183   3.529   0.818  13.014  1.0238  0.2243  0.6540
  828MPD2     N12184   3.831   0.789  12.671  0.0931 -1.0764 -0.4195
  828MPD2    H512185   3.899   0.753  12.736 -1.0677  2.4140  2.7104
  828MPD2    N112186   3.414   1.044  12.641  0.0128  0.2552 -0.0668
  828MPD2    H712187   3.458   1.082  12.558 -0.5473 -0.7075 -0.8021
  829MPD2     C12188   3.572   1.316  11.872  0.6050 -0.8960  0.2593
  829MPD2    C112189   3.438   1.345  11.867 -0.0937 -0.5401 -0.0164
  829MPD2    C212190   3.360   1.325  11.973 -0.6039 -0.3957 -0.0221
  829MPD2    C312191   3.420   1.259  12.083  0.8825 -0.4907 -0.2300
  829MPD2    C412192   3.551   1.218  12.084  0.0893  0.6326 -0.6226
  829MPD2    C512193   3.630   1.248  11.978  0.3597  0.2105  0.6862
  829MPD2     H12194   3.253   1.343  11.975 -0.0890  2.8278 -1.7466
  829MPD2    H112195   3.585   1.166  12.173 -0.8825 -1.0202 -1.2154
  829MPD2    H212196   3.629   1.346  11.785 -1.3878 -0.0797 -0.7633
  829MPD2    H312197   3.736   1.224  11.986  0.4028 -0.2446 -1.2018
  829MPD2     N12198   3.353   1.230  12.207 -0.1328 -0.2459 -0.6614
  829MPD2    H512199   3.406   1.181  12.279 -1.6737 -0.4008  0.3523
  829MPD2    N112200   3.387   1.398  11.745 -0.0397 -0.8340 -0.7353
  829MPD2    H712201   3.459   1.417  11.676 -0.5816  2.4913 -0.3660
  830MPD2     C12202   3.760   3.824  15.976 -0.4569 -0.3566 -0.1707
  830MPD2    C112203   3.684   3.905  15.896 -0.0325  0.4425 -0.3586
  830MPD2    C212204   3.746   3.985  15.802  0.2131  0.1789  0.0054
  830MPD2    C312205   3.879   3.969  15.773  0.8427  0.6059 -0.3445
  830MPD2    C412206   3.952   3.876  15.846  0.0619 -0.2796  0.2259
  830MPD2    C512207   3.892   3.806  15.948 -0.7727 -0.1575 -0.2229
  830MPD2     H12208   3.704   4.068  15.747 -1.0469 -0.2104  0.3782
  830MPD2    H112209   4.057   3.856  15.830 -0.5185 -2.3862 -0.9881
  830MPD2    H212210   3.719   3.770  16.060  0.9666 -0.2553  0.5949
  830MPD2    H312211   3.954   3.754  16.020 -1.3649 -1.5150 -0.7101
  830MPD2     N12212   3.937   4.041  15.664  0.1029 -0.0887 -0.0047
  830MPD2    H512213   3.870   4.104  15.619 -0.8473 -1.9015 -1.1377
  830MPD2    N112214   3.548   3.929  15.923 -0.0516  0.4016  0.3345
  830MPD2    H712215   3.514   3.903  16.015  0.5827 -1.8942 -0.0638
  831MPD2     C12216   3.766   1.320  16.492 -0.3737 -0.3969 -0.7830
  831MPD2    C112217   3.793   1.230  16.392  0.1096 -0.1048  0.3345
  831MPD2    C212218   3.701   1.124  16.384  0.3094 -0.1705  0.7585
  831MPD2    C312219   3.582   1.133  16.456 -0.3319  0.1936 -0.0371
  831MPD2    C412220   3.553   1.230  16.544 -0.3236  0.4329  0.1982
  831MPD2    C512221   3.648   1.323  16.563  0.5095  0.2469 -0.5158
  831MPD2     H12222   3.726   1.035  16.327 -1.3171 -0.6689  0.8058
  831MPD2    H112223   3.452   1.243  16.580 -1.3621 -0.1544 -2.5072
  831MPD2    H212224   3.845   1.390  16.517  0.4673 -0.1912 -4.0168
  831MPD2    H312225   3.636   1.398  16.641  0.0478 -0.1730 -0.1793
  831MPD2     N12226   3.477   1.034  16.439 -0.2350  0.3969 -0.1710
  831MPD2    H512227   3.407   1.041  16.512 -0.3833 -1.5163 -0.1340
  831MPD2    N112228   3.899   1.250  16.295  0.3170  0.0396  0.4781
  831MPD2    H712229   3.938   1.344  16.303  0.1804  0.0828  0.6422
  832MPD2     C12230   2.355   2.407  17.371  0.1298 -0.3036  0.1223
  832MPD2    C112231   2.301   2.524  17.325 -0.0199 -0.0670  0.4494
  832MPD2    C212232   2.180   2.515  17.252  1.3467 -0.1285  0.1151
  832MPD2    C312233   2.105   2.404  17.239 -0.8337  0.6647  0.3214
  832MPD2    C412234   2.151   2.293  17.309 -0.0097  0.3022 -1.1218
  832MPD2    C512235   2.276   2.296  17.362 -0.1362  0.5135  0.3387
  832MPD2     H12236   2.156   2.603  17.194 -1.3181 -1.7016 -1.1479
  832MPD2    H112237   2.095   2.200  17.304 -0.6812  0.5994  1.1031
  832MPD2    H212238   2.453   2.398  17.417  0.0943 -0.1476  0.2284
  832MPD2    H312239   2.321   2.202  17.392  0.1777  0.6341  0.2382
  832MPD2     N12240   1.990   2.389  17.163  0.2153  0.1182 -0.0295
  832MPD2    H512241   1.935   2.304  17.169 -1.0579  1.0698  1.6853
  832MPD2    N112242   2.371   2.643  17.346  0.5514 -0.1373 -0.1752
  832MPD2    H712243   2.468   2.627  17.372 -0.0490 -1.0400  1.5335
  833MPD2     C12244   4.146   3.405  12.860 -0.0548  0.1719 -0.0814
  833MPD2    C112245   4.207   3.516  12.810 -0.4583  0.6671 -0.7214
  833MPD2    C212246   4.334   3.499  12.753  0.6023 -0.2529  0.0171
  833MPD2    C312247   4.392   3.374  12.753 -0.0531  0.0827  0.0768
  833MPD2    C412248   4.328   3.265  12.809  0.5352  0.3403  0.1418
  833MPD2    C512249   4.204   3.284  12.857  0.0816 -0.2658  0.3711
  833MPD2     H12250   4.374   3.578  12.691  1.4226  0.0063  0.8775
  833MPD2    H112251   4.376   3.169  12.820 -2.2540 -1.1058 -0.4738
  833MPD2    H212252   4.041   3.408  12.890 -0.3151  3.5030 -1.3293
  833MPD2    H312253   4.150   3.205  12.908 -0.2936 -0.6665 -0.6546
  833MPD2     N12254   4.521   3.348  12.697 -0.0079 -0.0779 -0.1947
  833MPD2    H512255   4.546   3.250  12.700 -2.8882 -0.7839  1.5977
  833MPD2    N112256   4.134   3.632  12.781 -0.1918 -0.4548  0.7812
  833MPD2    H712257   4.036   3.620  12.759 -0.3570  1.0937  0.7010
  834MPD2     C12258   0.112   2.830  11.913  0.5569 -0.0769 -0.6481
  834MPD2    C112259   0.048   2.943  11.864 -0.3661 -0.5251  0.1710
  834MPD2    C212260   0.009   3.044  11.945 -0.4324 -0.0815  0.1481
  834MPD2    C312261   0.034   3.035  12.076 -0.4784 -0.6732  0.1640
  834MPD2    C412262   0.102   2.926  12.127  0.3864  0.2892 -0.4155
  834MPD2    C512263   0.145   2.826  12.045 -0.2798 -0.2195  0.3138
  834MPD2     H12264   4.688   3.132  11.902  2.7043  1.1269 -0.7508
  834MPD2    H112265   0.127   2.926  12.233  1.8955  1.3046 -0.7682
  834MPD2    H212266   0.145   2.753  11.844  1.5136 -0.2877  0.0475
  834MPD2    H312267   0.193   2.737  12.085 -0.4692 -0.8645 -0.8695
  834MPD2     N12268   4.706   3.140  12.155  0.5898 -0.7638 -0.0851
  834MPD2    H512269   4.656   3.212  12.104  0.1633 -0.8177  0.2542
  834MPD2    N112270   0.001   2.936  11.725  0.3040 -0.5684 -0.5053
  834MPD2    H712271   0.027   2.850  11.678 -0.0738 -1.0799  0.2288
  835MPD2     C12272   0.430   0.920  11.771 -0.1075  0.0058 -0.2374
  835MPD2    C112273   0.305   0.935  11.711 -0.1788 -0.1232 -0.0966
  835MPD2    C212274   0.204   1.011  11.772 -0.2965  0.6150 -0.0974
  835MPD2    C312275   0.232   1.077  11.889 -0.7241  0.3896  0.1789
  835MPD2    C412276   0.353   1.053  11.950  0.1333 -0.3460  0.0323
  835MPD2    C512277   0.452   0.987  11.888 -0.2874  0.1736  0.1462
  835MPD2     H12278   0.107   1.023  11.727 -0.5345  2.7916  1.0172
  835MPD2    H112279   0.379   1.085  12.050  0.6964 -2.9109  0.6989
  835MPD2    H212280   0.512   0.864  11.728  0.0805 -0.6386  0.9827
  835MPD2    H312281   0.540   0.971  11.948 -1.4802  1.9335  2.3871
  835MPD2     N12282   0.140   1.161  11.954  0.4390 -0.1437 -0.0171
  835MPD2    H512283   0.168   1.186  12.048 -0.8475 -1.4321  0.7128
  835MPD2    N112284   0.265   0.869  11.588  0.6747 -0.4394  0.0509
  835MPD2    H712285   0.171   0.902  11.566  0.4538  1.6935  4.0321
  836MPD2     C12286   4.191   1.480  11.690  0.0768 -0.3830 -0.7990
  836MPD2    C112287   4.190   1.472  11.823  0.3338  0.6975  0.7655
  836MPD2    C212288   4.078   1.512  11.887 -0.7882 -0.0657  0.1826
  836MPD2    C312289   3.961   1.551  11.823 -0.9904 -0.3514 -0.2897
  836MPD2    C412290   3.965   1.563  11.691 -0.9598 -0.7580  1.2323
  836MPD2    C512291   4.077   1.531  11.624  0.3507  0.3076  0.6139
  836MPD2     H12292   4.086   1.538  11.992  2.1532  1.3581 -0.3995
  836MPD2    H112293   3.880   1.608  11.641 -2.3406 -1.2392  3.1375
  836MPD2    H212294   4.269   1.441  11.626  1.1851  1.1067 -0.3469
  836MPD2    H312295   4.079   1.531  11.515 -2.5669 -1.1849  0.5465
  836MPD2     N12296   3.840   1.586  11.893  1.1317 -1.0175  0.2166
  836MPD2    H512297   3.764   1.623  11.836  0.9375 -2.0117 -0.1756
  836MPD2    N112298   4.308   1.437  11.892 -0.2413  0.2061  0.0565
  836MPD2    H712299   4.381   1.401  11.831  1.1957  1.2719  1.1538
  837MPD2     C12300   2.276   1.137  10.361  0.0977  0.2824  0.3772
  837MPD2    C112301   2.282   1.140  10.223 -0.2630  0.3231 -0.9013
  837MPD2    C212302   2.361   1.237  10.163  0.4672 -0.2050 -0.5112
  837MPD2    C312303   2.443   1.311  10.242  0.4302 -0.6707 -0.9198
  837MPD2    C412304   2.448   1.295  10.379  0.4464  0.1402 -0.2385
  837MPD2    C512305   2.366   1.206  10.438  0.0307  0.2734  0.8594
  837MPD2     H12306   2.362   1.256  10.056  0.8949 -0.0813 -0.4832
  837MPD2    H112307   2.509   1.355  10.447  0.1867 -0.7380  0.7705
  837MPD2    H212308   2.200   1.078  10.409  1.2364  0.1533  2.0237
  837MPD2    H312309   2.377   1.200  10.545 -1.7138  0.0967  1.0254
  837MPD2     N12310   2.489   1.429  10.180  0.3962  0.0645 -0.0538
  837MPD2    H512311   2.468   1.438  10.081  0.5512 -0.8943 -0.1688
  837MPD2    N112312   2.207   1.057  10.136  0.3312 -0.6284  0.0211
  837MPD2    H712313   2.235   1.060  10.038 -1.1900 -1.4021 -0.4357
  838MPD2     C12314   0.570   3.616  11.805  0.0023  0.1304 -0.0116
  838MPD2    C112315   0.644   3.577  11.916  0.1108 -0.3722 -0.5452
  838MPD2    C212316   0.631   3.455  11.976 -1.0280 -0.2528  0.6791
  838MPD2    C312317   0.524   3.375  11.938  0.0794 -0.2687  0.0715
  838MPD2    C412318   0.450   3.404  11.828 -0.1566  0.1438 -0.8920
  838MPD2    C512319   0.472   3.525  11.763 -0.3381 -0.4143  0.5917
  838MPD2     H12320   0.684   3.436  12.069 -1.4041 -2.8999  0.3619
  838MPD2    H112321   0.369   3.347  11.784 -1.6130 -0.0956  2.1495
  838MPD2    H212322   0.577   3.712  11.755  2.9962 -0.3126 -0.3951
  838MPD2    H312323   0.425   3.544  11.667  0.9818  1.6019  0.3354
  838MPD2     N12324   0.498   3.269  12.020 -0.3395 -0.0563  0.4489
  838MPD2    H512325   0.541   3.267  12.113  0.9552  1.3908 -0.1297
  838MPD2    N112326   0.747   3.653  11.968 -0.7322 -0.2972 -0.3622
  838MPD2    H712327   0.807   3.617  12.041 -0.5612  0.7135  0.0026
  839MPD2     C12328   0.843   3.112  12.221 -0.3610 -0.3651  0.4043
  839MPD2    C112329   0.842   3.146  12.081 -0.3120  0.0863 -0.8557
  839MPD2    C212330   0.913   3.257  12.040 -0.8107 -0.2397  0.6335
  839MPD2    C312331   0.991   3.326  12.128  0.3812 -0.2287  0.2912
  839MPD2    C412332   0.998   3.290  12.263 -0.1396 -0.1577 -0.0855
  839MPD2    C512333   0.926   3.189  12.308 -0.2065  0.2823  0.0967
  839MPD2     H12334   0.908   3.288  11.936  1.9221 -0.2723  0.4934
  839MPD2    H112335   1.066   3.340  12.331 -0.4356  0.1337 -0.0029
  839MPD2    H212336   0.781   3.039  12.270 -1.1339  1.4183  2.0434
  839MPD2    H312337   0.930   3.166  12.414 -1.1596 -1.1486 -0.1746
  839MPD2     N12338   1.062   3.447  12.093  0.7898  0.5038  0.4463
  839MPD2    H512339   1.127   3.491  12.157 -0.9446  1.2731  1.6904
  839MPD2    N112340   0.769   3.075  11.985 -0.2628 -0.0670 -0.0378
  839MPD2    H712341   0.779   3.108  11.890  1.0986 -0.4714 -0.0375
  840MPD2     C12342   0.733   1.182  10.094  0.5465 -0.1321  0.2659
  840MPD2    C112343   0.808   1.087  10.166 -0.5258  0.4399  1.1477
  840MPD2    C212344   0.921   1.132  10.230  0.2083  0.5023  0.2238
  840MPD2    C312345   0.968   1.263  10.233  0.4532 -0.4509 -0.5722
  840MPD2    C412346   0.890   1.353  10.167  0.0390  0.6421  0.4219
  840MPD2    C512347   0.774   1.313  10.101 -0.8367  0.1152 -0.2250
  840MPD2     H12348   0.965   1.054  10.290  1.0118 -0.6132 -1.8284
  840MPD2    H112349   0.908   1.460  10.169  2.3930  0.2803 -1.0304
  840MPD2    H212350   0.639   1.143  10.054 -1.3168  3.7171  0.9067
  840MPD2    H312351   0.717   1.394  10.055  2.5621  1.8973 -1.3091
  840MPD2     N12352   1.076   1.310  10.315 -0.5689  0.1515  0.8568
  840MPD2    H512353   1.097   1.409  10.317 -1.3069  0.3448 -1.0240
  840MPD2    N112354   0.746   0.959  10.180 -0.0770 -0.3676 -0.1278
  840MPD2    H712355   0.671   0.939  10.115 -0.3445  1.7418 -0.4992
  841MPD2     C12356   0.118   1.137  15.220 -0.2071 -0.7132  0.0122
  841MPD2    C112357   0.152   1.085  15.091 -0.5106 -0.5158 -0.3753
  841MPD2    C212358   0.232   1.163  15.009 -0.4343 -0.6462  0.1224
  841MPD2    C312359   0.275   1.286  15.048  0.0379 -0.2334  0.6522
  841MPD2    C412360   0.232   1.346  15.164 -0.1237  0.3510  1.0532
  841MPD2    C512361   0.149   1.273  15.245 -0.0064 -0.6539  0.2100
  841MPD2     H12362   0.263   1.107  14.922 -0.2098 -1.4697  0.7296
  841MPD2    H112363   0.261   1.447  15.191  0.7268  0.7320 -1.3593
  841MPD2    H212364   0.064   1.078  15.293 -0.2707 -0.5133  0.1272
  841MPD2    H312365   0.119   1.324  15.335 -1.7941 -0.5611 -0.4418
  841MPD2     N12366   0.379   1.340  14.967 -0.3909 -0.5437  0.3002
  841MPD2    H512367   0.405   1.285  14.886  1.4516  0.2594  0.3553
  841MPD2    N112368   0.108   0.965  15.034 -0.2247 -0.1569 -0.4850
  841MPD2    H712369   0.148   0.949  14.943 -1.3193 -0.0709 -0.9847
  842MPD2     C12370   1.602   2.915  16.819 -0.6577  0.1597  0.2920
  842MPD2    C112371   1.534   2.796  16.824  0.6449 -0.3349  0.2014
  842MPD2    C212372   1.543   2.717  16.939 -0.2232  0.3635 -0.0604
  842MPD2    C312373   1.618   2.763  17.039 -0.0467  0.7177 -0.4449
  842MPD2    C412374   1.683   2.888  17.030  0.3773 -0.2120 -0.1084
  842MPD2    C512375   1.678   2.965  16.921 -0.1075 -0.3592  0.7142
  842MPD2     H12376   1.490   2.622  16.946 -0.2054  0.2943 -0.8777
  842MPD2    H112377   1.720   2.930  17.123  0.8118  2.3406 -1.4334
  842MPD2    H212378   1.593   2.979  16.732  2.9591 -0.4565 -0.5139
  842MPD2    H312379   1.713   3.067  16.918  3.8530 -1.7115  0.1143
  842MPD2     N12380   1.620   2.709  17.166 -0.1620  0.6455 -0.2921
  842MPD2    H512381   1.706   2.724  17.218  0.2335  1.8324 -1.2952
  842MPD2    N112382   1.462   2.769  16.708 -0.4207 -0.4795  0.3803
  842MPD2    H712383   1.463   2.835  16.631 -0.3181 -0.1375  0.6793
  843MPD2     C12384   3.568   3.150  17.506  0.0472 -0.3025  0.1909
  843MPD2    C112385   3.560   3.125  17.646  1.1588 -0.7783  0.2439
  843MPD2    C212386   3.639   3.199   0.032  0.1559  0.5097  0.1223
  843MPD2    C312387   3.733   3.292  17.679  0.1560  0.2367 -0.3161
  843MPD2    C412388   3.736   3.319  17.546  0.5465 -0.4619 -0.2529
  843MPD2    C512389   3.644   3.252  17.464 -0.9439 -0.0934  0.3894
  843MPD2     H12390   3.641   3.174   0.137 -0.0636  2.0473  0.4951
  843MPD2    H112391   3.804   3.397  17.512 -1.7425  0.0738 -3.5684
  843MPD2    H212392   3.505   3.095  17.437 -0.7430  1.1514 -0.2698
  843MPD2    H312393   3.637   3.276  17.359  0.9324 -1.8552 -0.1398
  843MPD2     N12394   3.825   3.374   0.063 -0.7041  0.2163  0.4800
  843MPD2    H512395   3.857   3.457   0.015 -0.0243 -1.1475 -1.4077
  843MPD2    N112396   3.469   3.028  17.686  0.3282 -0.1142 -0.5842
  843MPD2    H712397   3.423   2.983  17.607 -0.5194 -1.2508  0.5616
  844MPD2     C12398   1.648   1.967  16.570 -0.0156 -0.5593  0.0830
  844MPD2    C112399   1.725   1.873  16.636  0.9592  0.1533  0.6304
  844MPD2    C212400   1.820   1.923  16.726  0.6659  0.3753  0.1750
  844MPD2    C312401   1.847   2.060  16.743  0.0188  0.5422  0.7123
  844MPD2    C412402   1.767   2.144  16.672  0.4232  0.1834  0.0183
  844MPD2    C512403   1.661   2.100  16.594  0.1379 -0.3735 -0.2821
  844MPD2     H12404   1.889   1.850  16.766 -1.4520  0.0636  3.2088
  844MPD2    H112405   1.789   2.250  16.679 -1.3660  0.5619 -0.0631
  844MPD2    H212406   1.575   1.934  16.496  0.5093 -1.5518  0.0092
  844MPD2    H312407   1.611   2.180  16.539  1.5755  1.9876  1.8537
  844MPD2     N12408   1.963   2.095  16.824 -0.0309  0.5200 -0.0726
  844MPD2    H512409   2.000   2.023  16.885  1.3130  1.0168 -0.2849
  844MPD2    N112410   1.743   1.747  16.600  0.1198 -0.2718 -0.4088
  844MPD2    H712411   1.801   1.694  16.665 -1.5844 -1.3981  0.2054
  845MPD2     C12412   2.456   3.008  16.951 -0.2588 -0.5230 -0.2679
  845MPD2    C112413   2.321   2.972  16.977 -0.4917 -0.3353  0.1602
  845MPD2    C212414   2.284   2.841  16.973  0.6791  0.2808 -0.5746
  845MPD2    C312415   2.376   2.740  16.946  0.3946  0.3483 -0.8973
  845MPD2    C412416   2.512   2.778  16.930  0.5198  0.7140  0.1384
  845MPD2    C512417   2.547   2.907  16.927  0.5006  0.5361 -0.6750
  845MPD2     H12418   2.186   2.800  16.994  0.3297  1.5319  0.2814
  845MPD2    H112419   2.589   2.705  16.907  0.8939  1.1252  0.0862
  845MPD2    H212420   2.494   3.109  16.956  0.3146 -0.7002 -1.0719
  845MPD2    H312421   2.652   2.926  16.911  1.0792 -2.1398  0.0344
  845MPD2     N12422   2.326   2.607  16.957  0.4494  0.3637  0.0153
  845MPD2    H512423   2.226   2.595  16.942  0.3703  0.6520  0.3198
  845MPD2    N112424   2.228   3.073  17.008  0.6682  0.3150  0.3037
  845MPD2    H712425   2.250   3.171  16.995 -1.1831  0.9968  2.3177
  846MPD2     C12426   3.390   2.957  13.507 -0.2047  0.3634 -0.3904
  846MPD2    C112427   3.347   3.082  13.538  0.5150  0.6813  0.6755
  846MPD2    C212428   3.348   3.131  13.670  0.8865 -0.0649  0.4959
  846MPD2    C312429   3.392   3.054  13.770  0.6215 -0.2022  0.2381
  846MPD2    C412430   3.435   2.928  13.732 -0.4559  0.1144  0.0136
  846MPD2    C512431   3.450   2.885  13.607  0.3021  0.5177  0.0073
  846MPD2     H12432   3.311   3.231  13.686  2.0277  0.1727  1.6413
  846MPD2    H112433   3.469   2.861  13.810 -2.1280 -0.2805  0.4051
  846MPD2    H212434   3.398   2.923  13.405 -1.4129 -3.7761  0.9124
  846MPD2    H312435   3.489   2.789  13.574 -0.5545 -0.0997  0.8077
  846MPD2     N12436   3.363   3.099  13.903 -0.2007 -0.0223 -1.3139
  846MPD2    H512437   3.315   3.187  13.915 -0.2101 -0.2007 -0.0523
  846MPD2    N112438   3.301   3.179  13.448  0.2056 -0.0506  0.2127
  846MPD2    H712439   3.305   3.274  13.483 -1.3194 -0.3401  1.1601
  847MPD2     C12440   3.807   3.736  14.382  0.2509 -0.6879  0.2559
  847MPD2    C112441   3.895   3.820  14.454  0.4598  0.4561 -0.4014
  847MPD2    C212442   3.940   3.777  14.578 -0.3292 -0.3088 -0.0014
  847MPD2    C312443   3.890   3.666  14.637  0.2882 -0.2675 -0.1468
  847MPD2    C412444   3.810   3.581  14.565 -0.4372  0.5346  0.2580
  847MPD2    C512445   3.769   3.613  14.438 -1.0207 -0.8166 -1.0309
  847MPD2     H12446   4.017   3.829  14.634 -0.4019  1.1039 -1.2304
  847MPD2    H112447   3.764   3.499  14.620 -1.4494  0.7080 -0.3194
  847MPD2    H212448   3.764   3.755  14.285 -0.1967  0.2771  0.6473
  847MPD2    H312449   3.703   3.541  14.390 -1.9734 -0.5865 -0.0769
  847MPD2     N12450   3.945   3.647  14.764 -0.2083 -0.7770 -0.3526
  847MPD2    H512451   4.006   3.715  14.808 -1.6423  1.3289 -1.6522
  847MPD2    N112452   3.948   3.941  14.402  0.1009  0.4075  0.5082
  847MPD2    H712453   4.026   3.980  14.454  2.0216 -1.4695 -0.9721
  848MPD2     C12454   1.578   2.466  16.413 -0.1217 -0.5476 -0.1769
  848MPD2    C112455   1.668   2.541  16.489  0.0091  0.6944 -0.7635
  848MPD2    C212456   1.759   2.625  16.422 -0.0628  0.3039 -0.7592
  848MPD2    C312457   1.742   2.649  16.281 -0.1643 -0.8276  0.3524
  848MPD2    C412458   1.639   2.588  16.221 -0.4824 -0.7541 -0.0360
  848MPD2    C512459   1.560   2.493  16.281  0.1016  0.0506  0.0714
  848MPD2     H12460   1.823   2.683  16.487  1.7839 -2.2419 -0.3371
  848MPD2    H112461   1.621   2.608  16.116  2.5123  2.0023 -0.0295
  848MPD2    H212462   1.509   2.392  16.450  0.6416 -3.4439 -4.5607
  848MPD2    H312463   1.475   2.446  16.232  1.9841 -0.9454 -2.2078
  848MPD2     N12464   1.815   2.742  16.206 -0.4221 -0.2493 -0.8213
  848MPD2    H512465   1.790   2.765  16.110  0.1175 -1.9162 -1.3621
  848MPD2    N112466   1.692   2.530  16.630 -0.2501  0.0411  0.9401
  848MPD2    H712467   1.760   2.589  16.676  0.8022 -1.0334  0.7710
  849MPD2     C12468   1.165   2.051  13.931 -0.0347  0.0689 -0.1241
  849MPD2    C112469   1.241   1.949  13.985  0.1212  0.3248  1.1542
  849MPD2    C212470   1.183   1.866  14.079  0.6339  0.0540  0.2436
  849MPD2    C312471   1.056   1.879  14.123  0.2726  0.0294 -0.6490
  849MPD2    C412472   0.978   1.983  14.079  0.2327  0.3326 -0.2484
  849MPD2    C512473   1.037   2.072  13.982 -0.0992  0.0657  0.5469
  849MPD2     H12474   1.251   1.791  14.116 -1.0625 -1.1831  0.8463
  849MPD2    H112475   0.871   1.995  14.090  0.3561  0.8496  0.3789
  849MPD2    H212476   1.196   2.115  13.849 -0.6866 -0.8548 -1.0918
  849MPD2    H312477   0.971   2.138  13.927 -0.3869  0.3634  1.2524
  849MPD2     N12478   1.021   1.785  14.216 -0.2097  0.5795  0.1086
  849MPD2    H512479   1.093   1.718  14.240  1.1614  2.1377  0.3841
  849MPD2    N112480   1.375   1.922  13.952 -0.3592  0.1990 -0.3081
  849MPD2    H712481   1.425   1.845  13.996  1.3124  0.7329 -1.2644
  850MPD2     C12482   3.840   0.169  14.712 -0.5193  0.2437  0.4966
  850MPD2    C112483   3.788   0.252  14.802  0.0467  0.0045  0.4709
  850MPD2    C212484   3.882   0.327  14.876 -0.0411 -0.1717 -0.0288
  850MPD2    C312485   4.021   0.321  14.849  0.6231  0.0264 -0.1812
  850MPD2    C412486   4.070   0.228  14.761 -0.0888 -0.4836  0.1160
  850MPD2    C512487   3.977   0.149  14.693  0.4337 -0.5498 -0.6487
  850MPD2     H12488   3.857   0.398  14.954 -1.3208  0.3812 -0.9451
  850MPD2    H112489   4.173   0.235  14.728  0.0022  3.1746  1.1343
  850MPD2    H212490   3.769   0.113  14.652 -0.8719  0.2054  0.9507
  850MPD2    H312491   4.014   0.088  14.611 -1.0067 -2.3434  0.0291
  850MPD2     N12492   4.126   0.389  14.911  0.1488  0.5473  0.4632
  850MPD2    H512493   4.217   0.372  14.869  0.8635  2.0054  1.4522
  850MPD2    N112494   3.647   0.236  14.819 -0.6226 -0.0332 -0.3765
  850MPD2    H712495   3.607   0.187  14.740  0.6858 -2.1742  0.2942
  851MPD2     C12496   4.144   0.263  15.528  0.3458  0.0960 -0.3161
  851MPD2    C112497   4.041   0.191  15.468 -0.3516 -0.1017  0.2287
  851MPD2    C212498   4.040   0.054  15.469 -0.0771 -0.5536  0.2034
  851MPD2    C312499   4.147   4.710  15.523 -0.0183  0.7034 -0.3464
  851MPD2    C412500   4.246   0.056  15.583 -0.1570 -0.1852 -0.1797
  851MPD2    C512501   4.246   0.193  15.591 -0.5058 -0.3561  0.3797
  851MPD2     H12502   3.950   0.003  15.435 -0.4663 -0.2968  0.8478
  851MPD2    H112503   4.338   0.009  15.617 -0.2200 -1.0019 -1.1401
  851MPD2    H212504   4.153   0.369  15.509  0.3120  0.0442 -0.6273
  851MPD2    H312505   4.322   0.253  15.640  0.7962  0.4500 -2.6023
  851MPD2     N12506   4.148   4.571  15.507 -0.6992  0.3199 -0.4851
  851MPD2    H512507   4.067   4.526  15.467 -0.1802 -0.4589 -0.6722
  851MPD2    N112508   3.940   0.257  15.393  0.2160 -0.8262 -0.0985
  851MPD2    H712509   3.939   0.358  15.402 -0.6896 -0.4138 -4.8599
  852MPD2     C12510   0.137   1.723   9.170 -0.2550 -0.0671  0.6414
  852MPD2    C112511   0.031   1.811   9.187  0.1987 -0.3842 -0.5252
  852MPD2    C212512   0.051   1.941   9.235 -0.1621 -0.2922  0.7329
  852MPD2    C312513   0.178   1.986   9.264  0.0679  0.3209 -0.4908
  852MPD2    C412514   0.285   1.902   9.230  0.0178 -0.2291 -0.0685
  852MPD2    C512515   0.263   1.769   9.197  0.4994 -0.0379 -0.4411
  852MPD2     H12516   4.694   2.011   9.249  0.4868  1.2046 -2.8955
  852MPD2    H112517   0.387   1.931   9.250 -0.8318  1.8877  1.2394
  852MPD2    H212518   0.118   1.620   9.140 -0.3698  0.0336  0.3647
  852MPD2    H312519   0.346   1.699   9.190  1.1147  0.5460  0.9103
  852MPD2     N12520   0.189   2.120   9.307 -0.3889  0.4284 -0.6756
  852MPD2    H512521   0.104   2.175   9.310  0.1172  1.0670  1.8944
  852MPD2    N112522   4.622   1.773   9.160  0.3973 -0.3922  0.4494
  852MPD2    H712523   4.548   1.830   9.199  0.1308  0.2641 -1.0196
  853MPD2     C12524   1.169   2.457  12.461  0.2266 -0.1074  0.4791
  853MPD2    C112525   1.042   2.393  12.454 -0.2843  0.0736  0.0495
  853MPD2    C212526   0.994   2.349  12.334  0.2426 -0.5558  0.4953
  853MPD2    C312527   1.076   2.361  12.221  0.6727 -0.2599 -0.9300
  853MPD2    C412528   1.203   2.417  12.231  0.4828 -0.3475  0.1860
  853MPD2    C512529   1.250   2.465  12.349  0.3811 -0.0191  0.3870
  853MPD2     H12530   0.907   2.284  12.336 -2.0902  2.5331 -1.0373
  853MPD2    H112531   1.269   2.428  12.147 -2.0681 -1.0930 -1.9220
  853MPD2    H212532   1.211   2.482  12.557 -2.9154 -1.1155  2.0935
  853MPD2    H312533   1.352   2.502  12.356  0.7495 -1.0028  0.1562
  853MPD2     N12534   1.019   2.326  12.099 -0.0988 -0.4421 -0.6101
  853MPD2    H512535   0.923   2.296  12.094 -0.6472  0.7795  2.4866
  853MPD2    N112536   0.964   2.378  12.572  0.4528 -0.2594 -0.0104
  853MPD2    H712537   1.003   2.423  12.655  0.1038  0.8886 -0.4748
  854MPD2     C12538   2.840   2.974  13.082  0.1160  0.3835 -0.0263
  854MPD2    C112539   2.723   2.900  13.083 -0.1120 -0.0760  0.4238
  854MPD2    C212540   2.720   2.771  13.139 -0.1067  0.7778 -0.0285
  854MPD2    C312541   2.832   2.724  13.206 -0.0212  0.0443  0.3482
  854MPD2    C412542   2.949   2.792  13.209  0.0482  0.1931  0.2115
  854MPD2    C512543   2.948   2.917  13.147 -0.5149 -0.2634  0.0292
  854MPD2     H12544   2.631   2.711  13.155  0.5515  0.4711  2.5451
  854MPD2    H112545   3.036   2.762  13.267 -0.4336  1.4210  1.5636
  854MPD2    H212546   2.844   3.075  13.042 -0.5726  0.4106 -0.0324
  854MPD2    H312547   3.035   2.981  13.153 -1.3465  0.8695 -0.0438
  854MPD2     N12548   2.810   2.598  13.265  0.4553  0.4405  0.7835
  854MPD2    H512549   2.722   2.551  13.249  0.4599  0.2996  1.1758
  854MPD2    N112550   2.608   2.964  13.022  0.6390  0.1540 -0.2893
  854MPD2    H712551   2.624   3.061  12.996 -3.1883  0.3493 -1.8902
  855MPD2     C12552   2.195   2.027  13.193  1.3876 -0.4917  0.3409
  855MPD2    C112553   2.227   2.007  13.327  0.2031 -0.7454 -0.1262
  855MPD2    C212554   2.320   2.083  13.395 -0.0838 -0.3105  0.2207
  855MPD2    C312555   2.391   2.177  13.324  0.2711  0.4865 -0.3831
  855MPD2    C412556   2.364   2.197  13.192 -0.0741 -0.2403  0.0329
  855MPD2    C512557   2.266   2.132  13.129  0.5407 -0.5176 -0.3281
  855MPD2     H12558   2.340   2.055  13.498 -0.5768  0.5344  0.5529
  855MPD2    H112559   2.424   2.272  13.142 -1.5994  0.7987 -0.2129
  855MPD2    H212560   2.123   1.974  13.133 -0.1016 -0.8309  2.4468
  855MPD2    H312561   2.257   2.149  13.023 -0.1770  0.5559 -0.0968
  855MPD2     N12562   2.491   2.258  13.379  0.4283 -0.0784  0.0552
  855MPD2    H512563   2.531   2.328  13.317  0.9956 -1.2229 -0.8589
  855MPD2    N112564   2.141   1.925  13.412  0.0579 -0.0322 -0.2743
  855MPD2    H712565   2.163   1.923  13.511  2.7663 -0.2973 -0.8739
  856MPD2     C12566   4.502   3.151  13.599 -0.0309  0.5188 -0.2784
  856MPD2    C112567   4.534   3.243  13.698  0.5675  0.0814  0.6333
  856MPD2    C212568   4.429   3.327  13.735  0.5848 -0.0994 -0.4091
  856MPD2    C312569   4.306   3.320  13.681 -0.0546  1.0110  0.9067
  856MPD2    C412570   4.287   3.245  13.574  0.8170  0.1067 -0.2733
  856MPD2    C512571   4.384   3.160  13.530  0.4865 -0.9552  0.0569
  856MPD2     H12572   4.454   3.407  13.804 -1.8332 -2.6988  3.4293
  856MPD2    H112573   4.198   3.243  13.513  0.9281 -1.2919 -0.3830
  856MPD2    H212574   4.575   3.086  13.553  0.7150  0.8782  0.3908
  856MPD2    H312575   4.371   3.096  13.444 -0.5848 -0.0439 -0.4565
  856MPD2     N12576   4.205   3.416  13.724 -0.4721  0.1515  0.8137
  856MPD2    H512577   4.151   3.453  13.647 -0.8933 -1.8599  0.1291
  856MPD2    N112578   4.659   3.258  13.756  0.1382 -0.5067  0.3452
  856MPD2    H712579   4.670   3.330  13.827 -0.2513 -1.9337  1.8526
  857MPD2     C12580   1.352   0.715  13.188 -0.0387 -0.3888 -0.4776
  857MPD2    C112581   1.470   0.656  13.138  0.2971  1.0371  0.1451
  857MPD2    C212582   1.562   0.736  13.070  0.0864  0.7219  0.4662
  857MPD2    C312583   1.542   0.869  13.052 -0.5479 -0.0130  0.2660
  857MPD2    C412584   1.431   0.933  13.101 -0.8686 -0.3145 -0.3897
  857MPD2    C512585   1.339   0.857  13.171 -0.2111  0.6911  0.0429
  857MPD2     H12586   1.648   0.681  13.035  0.2494  0.2626  1.6014
  857MPD2    H112587   1.423   1.040  13.094 -0.7039 -0.1961  1.2001
  857MPD2    H212588   1.271   0.655  13.227  2.9103 -1.7170  3.6386
  857MPD2    H312589   1.242   0.902  13.187 -0.6135 -0.2953  0.3761
  857MPD2     N12590   1.647   0.942  12.988  0.2476  0.4416  0.0905
  857MPD2    H512591   1.725   0.891  12.948  1.9837  3.6553 -0.6385
  857MPD2    N112592   1.479   0.513  13.151 -0.2332 -0.6595  0.8889
  857MPD2    H712593   1.398   0.459  13.180 -0.8248 -0.6279 -0.6682
  858MPD2     C12594   2.007   4.474  16.780  0.3201  0.3386 -0.0082
  858MPD2    C112595   2.137   4.505  16.751  0.1267  0.1259 -0.5642
  858MPD2    C212596   2.209   4.590  16.837 -0.2352 -0.6877 -1.0135
  858MPD2    C312597   2.154   4.649  16.947  0.9667  0.0639  0.0142
  858MPD2    C412598   2.020   4.629  16.965 -0.9364 -0.3212 -0.9968
  858MPD2    C512599   1.950   4.543  16.887  0.5302 -0.2619 -0.1301
  858MPD2     H12600   2.314   4.606  16.814 -0.2812 -0.5897 -1.1484
  858MPD2    H112601   1.964   4.682  17.040 -0.0822  0.3812 -0.8588
  858MPD2    H212602   1.937   4.415  16.721  0.9734  0.8004 -1.2460
  858MPD2    H312603   1.845   4.524  16.908  0.3394  0.9149 -0.0178
  858MPD2     N12604   2.225   0.002  17.046  1.2279  0.0134 -0.6030
  858MPD2    H512605   2.172   0.048  17.119  0.8190 -0.5339 -0.5630
  858MPD2    N112606   2.189   4.448  16.632  0.4444 -0.0417 -0.1182
  858MPD2    H712607   2.129   4.385  16.580  0.7298  0.1417 -0.6707
  859MPD2     C12608   0.723   1.804  15.291 -0.2617  0.0163  0.5681
  859MPD2    C112609   0.840   1.858  15.343  0.4738  0.1288 -0.2232
  859MPD2    C212610   0.953   1.786  15.361  0.4855 -0.3370  0.1752
  859MPD2    C312611   0.953   1.654  15.316  0.0772 -0.1181 -0.4895
  859MPD2    C412612   0.836   1.604  15.263 -0.6080  0.7552 -0.2754
  859MPD2    C512613   0.722   1.674  15.257 -0.0571  0.1966 -0.1042
  859MPD2     H12614   1.047   1.821  15.403  0.2977  0.0775  0.2505
  859MPD2    H112615   0.839   1.505  15.218  0.6249  0.3116  0.8055
  859MPD2    H212616   0.635   1.864  15.269 -0.0824 -0.0185 -0.2274
  859MPD2    H312617   0.630   1.630  15.220 -1.4338  2.0361  1.1252
  859MPD2     N12618   1.065   1.567  15.315 -0.4878  0.3823  0.6176
  859MPD2    H512619   1.042   1.471  15.289 -0.0826  0.4476  0.0369
  859MPD2    N112620   0.832   1.998  15.374 -0.6741 -0.3634 -0.7880
  859MPD2    H712621   0.747   2.050  15.356 -2.1274 -2.0550  1.1519
  860MPD2     C12622   3.152   1.731  11.928 -0.0550 -0.0002  0.3002
  860MPD2    C112623   3.104   1.860  11.951 -0.8178  0.0750  0.3615
  860MPD2    C212624   3.033   1.881  12.068  0.4133  0.2380 -0.9667
  860MPD2    C312625   2.999   1.778  12.161 -0.3241 -0.1627  0.1238
  860MPD2    C412626   3.044   1.645  12.131  0.1024 -0.7878 -1.0839
  860MPD2    C512627   3.125   1.628  12.020  0.0662 -0.1526  0.4051
  860MPD2     H12628   3.001   1.980  12.096  2.5706  0.4500  0.7579
  860MPD2    H112629   3.024   1.558  12.192 -2.2027  1.0586  0.7978
  860MPD2    H212630   3.214   1.715  11.840 -0.5630 -0.2655 -0.0085
  860MPD2    H312631   3.147   1.525  11.992  0.9552  0.2329 -0.3342
  860MPD2     N12632   2.940   1.811  12.290  0.4250 -0.2403 -0.3472
  860MPD2    H512633   2.930   1.911  12.302  1.2550 -0.1617 -0.3478
  860MPD2    N112634   3.132   1.971  11.867  0.2281 -0.0656 -0.1115
  860MPD2    H712635   3.137   2.066  11.903 -0.7623 -0.7677  1.8719
  861MPD2     C12636   2.302   4.699  10.961 -0.1292 -0.3671  1.1324
  861MPD2    C112637   2.244   0.095  11.004  0.1031  0.7419  0.5438
  861MPD2    C212638   2.150   0.152  10.916  0.1719 -0.0152 -0.0714
  861MPD2    C312639   2.104   0.081  10.806  0.0748  0.0032 -0.3614
  861MPD2    C412640   2.152   4.679  10.777  0.3197  0.3508  0.3970
  861MPD2    C512641   2.258   4.631  10.853 -0.1826  0.0134  0.6698
  861MPD2     H12642   2.110   0.250  10.942 -1.8106 -0.1902 -2.4200
  861MPD2    H112643   2.118   4.610  10.702  2.4667  2.1165 -2.1891
  861MPD2    H212644   2.393   4.661  11.007  0.7022 -0.4389 -0.5612
  861MPD2    H312645   2.294   4.533  10.823 -0.5223  0.5345 -1.4253
  861MPD2     N12646   2.004   0.126  10.723  0.1800  0.0190 -0.0557
  861MPD2    H512647   1.960   0.063  10.657  2.5672 -1.3738 -0.3167
  861MPD2    N112648   2.308   0.163  11.109 -0.5093 -0.2067 -0.5535
  861MPD2    H712649   2.300   0.264  11.109 -1.3091 -0.2672  0.3164
  862MPD2     C12650   1.695   0.061  10.046  0.1496 -0.1529 -0.0742
  862MPD2    C112651   1.727   0.015  10.172 -0.0993 -0.0584  0.6092
  862MPD2    C212652   1.733   4.603  10.197 -0.2868 -0.0695 -0.8146
  862MPD2    C312653   1.712   4.516  10.086 -0.6280  0.3249 -0.5558
  862MPD2    C412654   1.689   4.565   9.962  0.8429 -0.2276 -0.2936
  862MPD2    C512655   1.687   4.700   9.942 -0.2655  0.0520 -0.1005
  862MPD2     H12656   1.749   4.581  10.302  2.3344 -0.8097 -1.3701
  862MPD2    H112657   1.657   4.491   9.889  1.0434 -1.1019  0.5017
  862MPD2    H212658   1.698   0.163  10.012 -0.7988  0.4505  1.6754
  862MPD2    H312659   1.665   0.018   9.845  1.6171  0.4505 -0.3467
  862MPD2     N12660   1.708   4.374  10.091  0.5933  0.1866  0.0403
  862MPD2    H512661   1.730   4.323  10.006 -0.4468  0.5098 -0.4281
  862MPD2    N112662   1.741   0.111  10.281  0.7140  0.0986  0.5019
  862MPD2    H712663   1.770   0.077  10.372  1.4059 -2.1258 -0.5705
  863MPD2     C12664   0.817   3.378  16.565  0.8873  0.1418 -0.4402
  863MPD2    C112665   0.829   3.507  16.610  0.2093  0.1460 -0.1497
  863MPD2    C212666   0.866   3.534  16.739  0.0236  0.1602 -0.0499
  863MPD2    C312667   0.911   3.426  16.818 -0.1916  0.2911 -0.1875
  863MPD2    C412668   0.908   3.298  16.764  0.0596 -0.1284 -0.5689
  863MPD2    C512669   0.852   3.274  16.643 -0.0186 -0.4814  0.0692
  863MPD2     H12670   0.873   3.638  16.768  2.8988  0.2568 -1.0352
  863MPD2    H112671   0.944   3.210  16.817 -2.1364 -0.1466  0.8309
  863MPD2    H212672   0.770   3.355  16.470  1.1186 -0.5213 -0.3939
  863MPD2    H312673   0.849   3.178  16.593  1.2038 -1.7537  2.4302
  863MPD2     N12674   0.950   3.435  16.955  0.8185  0.5821 -0.8567
  863MPD2    H512675   0.984   3.353  17.003 -0.0524  1.4892  1.3201
  863MPD2    N112676   0.790   3.609  16.523 -0.8574  0.7131 -0.3879
  863MPD2    H712677   0.815   3.591  16.426  0.5623  2.4976 -0.3597
  864MPD2     C12678   1.247   0.599  17.220 -0.1382  0.4043  0.0495
  864MPD2    C112679   1.312   0.498  17.159  0.7613 -0.1151 -0.3941
  864MPD2    C212680   1.412   0.528  17.070  0.5766 -0.5647 -0.4283
  864MPD2    C312681   1.450   0.655  17.037 -0.4459 -0.2518 -0.1994
  864MPD2    C412682   1.384   0.754  17.110  0.4846  0.1977  0.2356
  864MPD2    C512683   1.284   0.728  17.195  0.3099  0.6109 -0.9876
  864MPD2     H12684   1.448   0.442  17.014  2.7913 -0.3148  0.6100
  864MPD2    H112685   1.401   0.858  17.084  0.1272  0.6288  1.7209
  864MPD2    H212686   1.165   0.582  17.289  0.0999  0.9160  0.4630
  864MPD2    H312687   1.231   0.806  17.250  0.5631  0.5272 -0.6234
  864MPD2     N12688   1.539   0.691  16.934 -0.1095 -0.1802 -0.1823
  864MPD2    H512689   1.553   0.787  16.903  1.3040  0.4590  2.3682
  864MPD2    N112690   1.254   0.369  17.182 -0.4981  0.5270 -0.0124
  864MPD2    H712691   1.181   0.363  17.253 -0.2502  0.3204  0.2201
  865MPD2     C12692   1.356   0.571  15.988  0.2169 -0.5894  0.5120
  865MPD2    C112693   1.373   0.495  16.104  0.4396  0.0060  0.9161
  865MPD2    C212694   1.415   0.562  16.225 -0.8881 -0.1463  0.3394
  865MPD2    C312695   1.428   0.697  16.231  0.0264 -0.7445 -0.1863
  865MPD2    C412696   1.414   0.773  16.113  0.1641  0.3039  0.3808
  865MPD2    C512697   1.380   0.706  15.992 -0.1640 -0.3662 -0.1167
  865MPD2     H12698   1.407   0.501  16.314  1.6875 -1.7032 -0.4790
  865MPD2    H112699   1.448   0.875  16.097  0.0434  0.4694  1.1988
  865MPD2    H212700   1.338   0.522  15.893  1.8623 -1.0162  0.4314
  865MPD2    H312701   1.374   0.775  15.909  1.9331  1.1648  1.0051
  865MPD2     N12702   1.487   0.758  16.343 -0.2636 -0.5646  0.0498
  865MPD2    H512703   1.530   0.849  16.328  1.7240 -1.4610  0.2572
  865MPD2    N112704   1.340   0.353  16.093 -0.1955  0.0281 -0.4107
  865MPD2    H712705   1.298   0.327  16.004 -1.8305  0.5911  0.1925
  866MPD2     C12706   2.792   0.650  10.979  0.3136 -0.0636 -0.0280
  866MPD2    C112707   2.729   0.533  11.027 -0.2992 -0.1651  0.3217
  866MPD2    C212708   2.590   0.526  11.005  0.2736  0.2620 -0.0006
  866MPD2    C312709   2.527   0.623  10.930 -0.1751 -0.5474  0.8685
  866MPD2    C412710   2.591   0.731  10.883 -0.0058  0.6610  0.0868
  866MPD2    C512711   2.725   0.745  10.911  0.3070 -0.0504  0.0820
  866MPD2     H12712   2.534   0.452  11.062  0.5264  0.3955  0.4232
  866MPD2    H112713   2.538   0.809  10.829 -1.6951 -0.2367  0.4675
  866MPD2    H212714   2.895   0.675  10.999  0.1752  1.1724 -0.8730
  866MPD2    H312715   2.764   0.843  10.886 -1.4019  0.2986 -1.2553
  866MPD2     N12716   2.387   0.629  10.926 -0.3234  0.7022 -0.2286
  866MPD2    H512717   2.362   0.714  10.876 -1.8536  0.3846 -0.0047
  866MPD2    N112718   2.802   0.439  11.102  0.1616 -0.2991  0.0121
  866MPD2    H712719   2.895   0.464  11.135 -0.1896  0.5763  0.3331
  867MPD2     C12720   4.425   0.200  16.326 -0.2569  0.1029  0.2206
  867MPD2    C112721   4.427   0.140  16.446 -0.5786  0.8020  0.1938
  867MPD2    C212722   4.390   0.213  16.560  0.4208 -0.3362 -0.6663
  867MPD2    C312723   4.359   0.344  16.549  0.1787  0.0920 -0.7828
  867MPD2    C412724   4.368   0.407  16.428 -0.3035  0.8177  0.1799
  867MPD2    C512725   4.400   0.338  16.316  0.8578  0.6967 -0.0448
  867MPD2     H12726   4.379   0.171  16.659 -0.3935 -0.7388 -0.9287
  867MPD2    H112727   4.353   0.514  16.416 -2.7646  0.7829  2.8718
  867MPD2    H212728   4.445   0.137  16.240  1.1416  3.4741 -1.9217
  867MPD2    H312729   4.411   0.378  16.216  1.2509 -0.7736 -0.5816
  867MPD2     N12730   4.317   0.425  16.660  0.0672 -0.0483  0.2744
  867MPD2    H512731   4.309   0.524  16.640 -1.1666 -0.0365  0.7980
  867MPD2    N112732   4.487   0.016  16.443  0.2338  0.6410  0.0225
  867MPD2    H712733   4.505   4.696  16.354 -0.7802 -0.8560  0.5740
  868MPD2     C12734   1.529   4.319  13.493 -0.5462  1.0009  0.2303
  868MPD2    C112735   1.491   4.206  13.428  0.0468  0.3541  0.3677
  868MPD2    C212736   1.354   4.190  13.419  0.8565  0.9139  0.0741
  868MPD2    C312737   1.263   4.277  13.469 -0.1760  0.2920  0.4864
  868MPD2    C412738   1.312   4.389  13.532 -0.5710  0.0090 -0.6425
  868MPD2    C512739   1.441   4.403  13.545 -0.0178  0.2328  0.6665
  868MPD2     H12740   1.313   4.105  13.366  2.9229  1.4132 -2.3353
  868MPD2    H112741   1.242   4.465  13.564 -0.5417  0.6567 -2.1350
  868MPD2    H212742   1.634   4.344  13.485 -0.3431  0.2199  0.3669
  868MPD2    H312743   1.475   4.500  13.582  0.3092  1.3524 -2.5472
  868MPD2     N12744   1.128   4.261  13.431  0.0461 -0.2197  0.1029
  868MPD2    H512745   1.104   4.168  13.399 -0.0650 -0.3102  0.4508
  868MPD2    N112746   1.593   4.126  13.369 -0.2241 -0.3392 -0.2735
  868MPD2    H712747   1.686   4.159  13.391 -0.4778  0.2855 -0.1465
  869MPD2     C12748   2.868   1.942   1.474  0.0814 -0.1811  0.0755
  869MPD2    C112749   2.919   2.051   1.539  0.2210 -0.7853  0.0084
  869MPD2    C212750   2.933   2.178   1.483 -0.1217  0.5017 -0.5669
  869MPD2    C312751   2.891   2.198   1.356 -0.7315 -0.1338 -0.2343
  869MPD2    C412752   2.836   2.091   1.290  1.0123 -0.1514 -0.7375
  869MPD2    C512753   2.821   1.971   1.349 -0.0769 -0.0354 -0.3005
  869MPD2     H12754   2.974   2.258   1.544  0.2957  0.3150 -0.6020
  869MPD2    H112755   2.801   2.095   1.187 -0.4327  1.1708 -0.1776
  869MPD2    H212756   2.863   1.841   1.513 -2.7295 -0.6261 -1.4773
  869MPD2    H312757   2.798   1.884   1.287 -1.4219  2.1380 -2.8559
  869MPD2     N12758   2.913   2.309   1.278  0.8661 -0.0538 -0.1724
  869MPD2    H512759   2.907   2.303   1.176 -0.8757 -2.2044  0.0470
  869MPD2    N112760   2.945   2.027   1.676  0.0873  0.4118  0.2827
  869MPD2    H712761   2.920   1.938   1.718 -0.6675 -1.2723 -3.7781
  870MPD2     C12762   2.332   1.175   1.909  0.3086 -0.2281  0.2112
  870MPD2    C112763   2.353   1.047   1.851  0.7295 -0.4294  0.0243
  870MPD2    C212764   2.264   1.014   1.752 -0.2972  0.8730 -0.5525
  870MPD2    C312765   2.154   1.099   1.716  0.3727  0.1814  0.4403
  870MPD2    C412766   2.135   1.212   1.792 -0.7792 -0.3017 -0.2212
  870MPD2    C512767   2.217   1.244   1.899  0.6816 -0.3258 -0.5922
  870MPD2     H12768   2.295   0.927   1.695 -0.7995  2.0159 -2.5691
  870MPD2    H112769   2.051   1.281   1.785  1.9262  3.0309  0.2559
  870MPD2    H212770   2.403   1.202   1.986 -0.9670 -3.6204  2.5531
  870MPD2    H312771   2.193   1.324   1.969 -2.0613 -3.1919  1.7635
  870MPD2     N12772   2.100   1.084   1.589 -0.5316 -0.4374  0.2810
  870MPD2    H512773   2.124   0.995   1.546 -2.1747  0.0226 -1.5884
  870MPD2    N112774   2.475   0.982   1.854 -0.5366  0.0344  0.3187
  870MPD2    H712775   2.482   0.886   1.820 -0.8467  0.8424 -2.0562
  871MPD2     C12776   3.614   0.543  16.358 -0.1688 -0.5736  0.0408
  871MPD2    C112777   3.606   0.464  16.469  0.0463  0.1661 -0.4202
  871MPD2    C212778   3.636   0.330  16.453 -0.7537 -0.1778  0.7340
  871MPD2    C312779   3.663   0.276  16.330  0.6885 -0.0967  0.1875
  871MPD2    C412780   3.674   0.360  16.222 -0.5565 -0.2106  0.5142
  871MPD2    C512781   3.643   0.492  16.238 -0.0093 -0.3332 -0.2152
  871MPD2     H12782   3.632   0.262  16.537  0.4625 -0.5105  0.5151
  871MPD2    H112783   3.708   0.325  16.125 -0.1030 -3.0847  1.7007
  871MPD2    H212784   3.600   0.650  16.371 -2.8870 -0.7351 -1.6829
  871MPD2    H312785   3.669   0.562  16.159 -1.4672  1.5748  0.9815
  871MPD2     N12786   3.682   0.135  16.326 -0.0761 -0.0896 -0.3360
  871MPD2    H512787   3.652   0.086  16.409 -0.7518 -0.7275 -0.9577
  871MPD2    N112788   3.583   0.531  16.595  0.0150 -0.4573  0.2310
  871MPD2    H712789   3.584   0.633  16.589  1.1204 -0.3647  1.8268
  872MPD2     C12790   4.010   2.905  13.728 -0.2591 -0.1525  0.3670
  872MPD2    C112791   4.021   2.770  13.758  0.0198 -0.8926  0.0420
  872MPD2    C212792   3.923   2.714  13.842  0.0627 -0.4873 -0.1501
  872MPD2    C312793   3.815   2.790  13.886  0.4515  0.6611 -0.2274
  872MPD2    C412794   3.798   2.915  13.836  1.0377 -0.0692  0.5259
  872MPD2    C512795   3.901   2.976  13.762 -0.3750 -0.0191  0.0311
  872MPD2     H12796   3.941   2.610  13.866 -0.3985 -0.3047  1.0029
  872MPD2    H112797   3.714   2.976  13.866  0.1207  0.3523 -2.8681
  872MPD2    H212798   4.094   2.960  13.686 -1.1818 -0.9005 -2.4061
  872MPD2    H312799   3.899   3.084  13.753 -0.1936  0.1456  2.0297
  872MPD2     N12800   3.711   2.742  13.972 -0.1552  1.1364 -0.4216
  872MPD2    H512801   3.639   2.811  13.988  1.7498  3.2819 -1.1759
  872MPD2    N112802   4.141   2.698  13.719  0.4870 -0.3045 -0.5134
  872MPD2    H712803   4.159   2.610  13.767  0.2424 -0.4485 -0.6853
  873MPD2     C12804   2.549   2.859   1.248 -0.2710  0.1764  0.0913
  873MPD2    C112805   2.448   2.892   1.163  0.0641 -0.1080  0.1043
  873MPD2    C212806   2.456   2.848   1.030  0.4163 -0.1023  0.2974
  873MPD2    C312807   2.567   2.777   0.982  0.1068  0.4766  0.3476
  873MPD2    C412808   2.673   2.752   1.065 -0.7717 -0.0510  0.1763
  873MPD2    C512809   2.659   2.787   1.199  0.1871 -0.1935 -0.2793
  873MPD2     H12810   2.378   2.870   0.958  1.4200  0.4902 -0.6104
  873MPD2    H112811   2.765   2.700   1.040 -0.3749  0.9276 -0.4084
  873MPD2    H212812   2.548   2.875   1.355  0.7937  0.8197  0.0105
  873MPD2    H312813   2.742   2.758   1.262  2.1908  1.9641 -1.9004
  873MPD2     N12814   2.563   2.723   0.848 -0.1609 -0.1949 -0.1605
  873MPD2    H512815   2.487   2.753   0.786 -0.1081  0.7408  0.2249
  873MPD2    N112816   2.340   2.967   1.224  0.3356 -0.3985  0.2516
  873MPD2    H712817   2.350   3.003   1.319  1.1296  0.5404 -0.1842
  874MPD2     C12818   1.224   2.993  15.926  0.3247  0.5316  0.8981
  874MPD2    C112819   1.320   2.936  16.009  0.3909 -0.5994  0.2139
  874MPD2    C212820   1.456   2.919  15.971 -0.1294  0.3266  0.0949
  874MPD2    C312821   1.508   2.982  15.860  0.2869 -0.4129 -0.2116
  874MPD2    C412822   1.422   3.056  15.781 -1.0487  0.4343  0.2887
  874MPD2    C512823   1.284   3.053  15.818 -0.1523  0.7521  0.2616
  874MPD2     H12824   1.515   2.854  16.034  1.9909  0.2720 -1.9762
  874MPD2    H112825   1.449   3.127  15.704 -0.9212 -0.2329 -0.2870
  874MPD2    H212826   1.118   3.003  15.947 -0.4343 -0.1527 -2.6600
  874MPD2    H312827   1.225   3.101  15.740 -0.1964  0.0198 -0.1568
  874MPD2     N12828   1.647   2.976  15.835  0.5303 -0.5623 -0.1935
  874MPD2    H512829   1.686   3.041  15.768 -2.5800  0.6645 -0.8031
  874MPD2    N112830   1.277   2.886  16.132 -0.2042 -0.5152 -0.0484
  874MPD2    H712831   1.177   2.874  16.141 -0.2503  0.4928  0.7376
  875MPD2     C12832   2.343   0.802  14.414 -0.1443  0.1734  0.9620
  875MPD2    C112833   2.244   0.812  14.512  1.0849 -0.2473  0.8794
  875MPD2    C212834   2.266   0.890  14.623 -0.2558 -0.4084  0.2544
  875MPD2    C312835   2.394   0.936  14.645  0.1140 -0.0706  0.4954
  875MPD2    C412836   2.491   0.925  14.547 -0.2361 -1.0980  0.0435
  875MPD2    C512837   2.455   0.873  14.425 -0.3765 -0.3242  0.6308
  875MPD2     H12838   2.188   0.895  14.698  2.2048  0.0962  2.8062
  875MPD2    H112839   2.583   0.981  14.562  0.5117 -2.1579 -0.5804
  875MPD2    H212840   2.328   0.748  14.321  2.3665 -0.3348  0.8448
  875MPD2    H312841   2.533   0.874  14.351 -1.1033 -2.1434 -0.1651
  875MPD2     N12842   2.433   0.999  14.764 -0.1223  0.6294 -0.0130
  875MPD2    H512843   2.527   1.037  14.768 -0.2302  1.2653 -3.8162
  875MPD2    N112844   2.111   0.760  14.485  0.5914 -0.3267  0.1515
  875MPD2    H712845   2.045   0.772  14.561  1.0956 -1.9099  0.8234
  876MPD2     C12846   1.117   2.512  16.020 -0.3148 -0.1958  0.0281
  876MPD2    C112847   1.240   2.477  15.977  0.4130 -0.2942  0.1269
  876MPD2    C212848   1.303   2.380  16.047 -0.2505  0.3706 -0.8828
  876MPD2    C312849   1.241   2.300  16.134  0.3803 -0.4057 -0.7269
  876MPD2    C412850   1.108   2.326  16.157 -0.2442 -0.2552  0.6693
  876MPD2    C512851   1.044   2.429  16.100  0.7315 -0.5671  0.3597
  876MPD2     H12852   1.407   2.356  16.029 -0.7695 -2.6109 -0.0003
  876MPD2    H112853   1.046   2.248  16.199  0.7924 -1.3121  0.2463
  876MPD2    H212854   1.069   2.595  15.970 -1.3270  0.3156  1.8561
  876MPD2    H312855   0.936   2.428  16.107  0.7319 -0.0458  0.4509
  876MPD2     N12856   1.303   2.169  16.164  0.1572 -0.0880 -0.2482
  876MPD2    H512857   1.396   2.146  16.132  1.2694  1.4364  1.8939
  876MPD2    N112858   1.298   2.554  15.868  0.2747 -0.7756  0.3872
  876MPD2    H712859   1.237   2.631  15.844  0.9258 -0.1397  0.7805
  877MPD2     C12860   1.054   2.813  15.227  0.3421 -0.1637 -0.1801
  877MPD2    C112861   1.185   2.812  15.202 -0.2421  0.2659  0.4417
  877MPD2    C212862   1.229   2.806  15.073 -0.2061  0.1999 -0.7249
  877MPD2    C312863   1.147   2.821  14.967 -0.2030 -0.4165 -0.4417
  877MPD2    C412864   1.010   2.822  14.994 -0.1932  0.5383  0.0774
  877MPD2    C512865   0.969   2.819  15.124 -0.0012 -0.2822  0.3630
  877MPD2     H12866   1.333   2.778  15.065 -0.6847 -1.8158  0.0876
  877MPD2    H112867   0.941   2.847  14.914  0.6959  2.9900  0.0756
  877MPD2    H212868   1.017   2.817  15.329 -0.9558  1.6431 -0.7376
  877MPD2    H312869   0.864   2.829  15.147 -0.2613 -0.1279 -0.9021
  877MPD2     N12870   1.185   2.818  14.832  0.0823  0.0163 -0.1352
  877MPD2    H512871   1.118   2.803  14.758  0.6610 -1.3608 -0.3777
  877MPD2    N112872   1.281   2.806  15.300 -0.1564 -0.1133  0.0897
  877MPD2    H712873   1.376   2.799  15.265  0.2871  1.3020  1.0109
  878MPD2     C12874   1.633   1.654  13.059  0.3433 -0.0063 -0.0507
  878MPD2    C112875   1.605   1.785  13.098 -0.4816 -0.8315 -0.3777
  878MPD2    C212876   1.628   1.825  13.229  0.6358 -0.4474 -0.2723
  878MPD2    C312877   1.674   1.731  13.323  0.0458  0.1575  0.8984
  878MPD2    C412878   1.701   1.602  13.280  0.0190 -0.3272 -0.5599
  878MPD2    C512879   1.670   1.563  13.153  0.0471 -0.4750 -0.3395
  878MPD2     H12880   1.612   1.928  13.261  0.8038  0.2700 -2.5423
  878MPD2    H112881   1.701   1.519  13.349  1.9403 -1.0148 -1.4004
  878MPD2    H212882   1.606   1.607  12.966  0.5916  2.3459 -1.3054
  878MPD2    H312883   1.682   1.459  13.124  1.1194 -0.9948  1.9686
  878MPD2     N12884   1.680   1.772  13.460 -0.4300 -0.7702  0.1797
  878MPD2    H512885   1.629   1.855  13.485  2.0959  0.9043 -0.2198
  878MPD2    N112886   1.570   1.870  12.996 -0.2613  0.3987 -0.5356
  878MPD2    H712887   1.555   1.830  12.904  0.8367 -2.6442  0.6189
  879MPD2     C12888   1.330   3.902  16.967 -0.5735  0.2267  0.5250
  879MPD2    C112889   1.416   3.801  16.921  0.7104  0.2433 -0.0554
  879MPD2    C212890   1.376   3.733  16.806 -0.7341 -0.2274 -0.2836
  879MPD2    C312891   1.254   3.756  16.749 -0.3077 -0.2770 -0.2149
  879MPD2    C412892   1.168   3.847  16.795  0.2860  0.8872  0.3388
  879MPD2    C512893   1.207   3.921  16.910  0.4579 -0.7566  0.6215
  879MPD2     H12894   1.443   3.659  16.764 -0.4804 -0.2164  0.0967
  879MPD2    H112895   1.067   3.860  16.759  0.9689 -1.5370 -2.4560
  879MPD2    H212896   1.355   3.960  17.055  2.7550 -1.8048  0.9363
  879MPD2    H312897   1.141   3.994  16.954  2.0363  0.7182  0.5443
  879MPD2     N12898   1.196   3.675  16.652 -0.0817 -0.3357  0.4221
  879MPD2    H512899   1.106   3.700  16.612  0.3774  1.8689  0.8100
  879MPD2    N112900   1.533   3.767  16.998  1.0240 -0.0947  0.9034
  879MPD2    H712901   1.549   3.823  17.081  1.8351  0.9589  0.0313
  880MPD2     C12902   2.943   0.024   0.805  0.4991  0.7261 -0.1519
  880MPD2    C112903   2.993   0.139   0.761 -0.6024  0.0397 -0.2951
  880MPD2    C212904   3.127   0.148   0.746  0.5221 -0.9565 -0.4139
  880MPD2    C312905   3.211   0.042   0.782 -0.4182  0.2109  0.1791
  880MPD2    C412906   3.157   4.660   0.833  0.0140  0.0314 -0.6727
  880MPD2    C512907   3.018   4.645   0.842 -0.0026  0.4030 -0.2543
  880MPD2     H12908   3.169   0.239   0.705  0.9532 -0.5672  0.9090
  880MPD2    H112909   3.214   4.575   0.870  1.3237  0.5791 -1.4305
  880MPD2    H212910   2.838   0.005   0.825  0.6344 -1.4307 -1.4855
  880MPD2    H312911   2.972   4.554   0.879  0.0159  0.4353 -0.1531
  880MPD2     N12912   3.350   0.063   0.765  0.5719  0.2359  0.2125
  880MPD2    H512913   3.372   0.161   0.753  0.5574 -0.2474 -3.6993
  880MPD2    N112914   2.908   0.249   0.742 -0.5490  0.5766 -0.3514
  880MPD2    H712915   2.812   0.233   0.772 -0.2973 -1.1238 -0.4354
  881MPD2     C12916   2.928   1.235   0.244 -0.1922 -0.2892 -0.6851
  881MPD2    C112917   2.934   1.116   0.176 -0.8174 -0.6383  0.2679
  881MPD2    C212918   2.908   1.002   0.253 -0.5601  0.8816  0.5886
  881MPD2    C312919   2.898   1.015   0.388  0.5287 -0.2034 -0.6660
  881MPD2    C412920   2.904   1.144   0.452 -0.3266  0.6697 -0.4317
  881MPD2    C512921   2.915   1.256   0.378 -0.1368 -0.4099 -0.3532
  881MPD2     H12922   2.897   0.903   0.211 -1.6439  0.7211  1.2508
  881MPD2    H112923   2.887   1.147   0.559  0.4495  3.0908 -0.3761
  881MPD2    H212924   2.918   1.328   0.188 -0.2310 -0.8256 -1.5731
  881MPD2    H312925   2.916   1.354   0.425 -1.4748 -0.3199 -0.5208
  881MPD2     N12926   2.880   0.907   0.475 -0.1420 -0.1397 -0.3345
  881MPD2    H512927   2.884   0.921   0.576 -1.4240 -1.9546 -0.0359
  881MPD2    N112928   2.924   1.109   0.032  0.8700 -0.5222 -0.2175
  881MPD2    H712929   2.935   1.200  17.689  0.2550 -1.2237 -1.8086
  882MPD2     C12930   0.898   3.108  14.405 -0.2444 -0.6116  0.2645
  882MPD2    C112931   0.916   2.968  14.392 -0.1039  0.1074 -0.3508
  882MPD2    C212932   0.808   2.891  14.419  0.4741 -0.3769 -0.1644
  882MPD2    C312933   0.682   2.940  14.442 -0.2223 -0.1080  0.9918
  882MPD2    C412934   0.666   3.075  14.451 -0.5995 -0.1854 -0.2313
  882MPD2    C512935   0.767   3.157  14.438  0.6692  0.1059 -0.6003
  882MPD2     H12936   0.827   2.784  14.426 -0.3954 -0.4589  1.0465
  882MPD2    H112937   0.567   3.119  14.454 -0.0530  0.9636  0.9997
  882MPD2    H212938   0.986   3.171  14.396  0.0392 -1.2884 -1.6003
  882MPD2    H312939   0.746   3.262  14.429  1.6828  0.3411 -0.2429
  882MPD2     N12940   0.571   2.857  14.468 -0.0214 -0.3148  0.2797
  882MPD2    H512941   0.482   2.901  14.489  1.3083  1.3167  2.4631
  882MPD2    N112942   1.048   2.919  14.383  0.2105  0.2813 -0.4604
  882MPD2    H712943   1.118   2.990  14.402  1.2414 -0.9579  0.4372
  883MPD2     C12944   3.481   2.789  16.586  0.5794 -0.0434 -0.4434
  883MPD2    C112945   3.529   2.827  16.466  0.4340  0.7928  0.0817
  883MPD2    C212946   3.626   2.921  16.453  1.0428  0.0733  0.1669
  883MPD2    C312947   3.686   2.976  16.564  0.2755 -0.0751 -0.6021
  883MPD2    C412948   3.639   2.935  16.692  0.0379 -0.0595 -0.2407
  883MPD2    C512949   3.536   2.847  16.702  0.3555  0.0970  0.5994
  883MPD2     H12950   3.661   2.959  16.357 -0.8217  1.0945 -0.1152
  883MPD2    H112951   3.690   2.975  16.779  0.0572  0.3893 -0.4545
  883MPD2    H212952   3.399   2.719  16.598 -0.4567  1.4098  0.7323
  883MPD2    H312953   3.494   2.811  16.795 -1.8180  0.5921 -0.1828
  883MPD2     N12954   3.789   3.074  16.553 -0.2723 -0.4274  0.3830
  883MPD2    H512955   3.812   3.085  16.455 -0.5395 -0.1002  0.3596
  883MPD2    N112956   3.482   2.769  16.343 -0.2801  0.0325 -0.1910
  883MPD2    H712957   3.511   2.802  16.252 -2.7767  3.3771  0.2012
  884MPD2     C12958   0.250   3.300  15.397  0.6619 -0.2670 -0.1153
  884MPD2    C112959   0.189   3.346  15.285  0.8102  1.1196  0.3487
  884MPD2    C212960   0.056   3.388  15.300 -0.4063  0.5580  0.2611
  884MPD2    C312961   4.724   3.398  15.425 -0.0320  0.6265 -0.0578
  884MPD2    C412962   0.069   3.358  15.538 -0.1025 -0.5558 -0.0512
  884MPD2    C512963   0.197   3.321  15.522 -0.3883 -0.1874 -0.1437
  884MPD2     H12964   4.724   3.423  15.215  2.1577  1.7552 -0.9537
  884MPD2    H112965   0.033   3.372  15.639  0.4364 -0.3785  0.1186
  884MPD2    H212966   0.356   3.276  15.406  1.0141  1.9199  1.9248
  884MPD2    H312967   0.258   3.296  15.608  0.4730  0.2829 -0.6067
  884MPD2     N12968   4.595   3.450  15.433  0.3315 -0.4685 -0.4600
  884MPD2    H512969   4.544   3.478  15.350  1.0012  0.9925 -0.3756
  884MPD2    N112970   0.259   3.377  15.164  0.1461  0.5155  0.3699
  884MPD2    H712971   0.205   3.429  15.097 -1.1196  1.2525  1.9777
  885MPD2     C12972   3.709   4.370   0.219 -0.0799 -0.0673  0.4125
  885MPD2    C112973   3.677   4.238   0.225 -0.5657  0.4482  0.2638
  885MPD2    C212974   3.610   4.180   0.123 -0.1344  0.2602 -0.3288
  885MPD2    C312975   3.561   4.258   0.011 -1.0207 -0.3503  0.1249
  885MPD2    C412976   3.580   4.394   0.010 -0.3077  0.4343  0.7179
  885MPD2    C512977   3.658   4.445   0.118  0.3306  0.0610 -0.3184
  885MPD2     H12978   3.587   4.074   0.124  1.5575 -0.0701  2.5412
  885MPD2    H112979   3.539   4.456  17.633 -3.7276  1.9074  3.6362
  885MPD2    H212980   3.768   4.415   0.299  2.8117  0.8624 -2.2389
  885MPD2    H312981   3.686   4.549   0.117  0.6089 -0.0033  2.4374
  885MPD2     N12982   3.507   4.192  17.599 -0.3099  0.5635  0.1041
  885MPD2    H512983   3.524   4.093  17.591 -0.1867  0.7660 -2.2638
  885MPD2    N112984   3.713   4.161   0.342 -0.3172 -0.4566 -0.0228
  885MPD2    H712985   3.678   4.066   0.338  1.6886 -1.2986  2.8499
  886MPD2     C12986   0.016   2.307  16.008  0.0669 -0.5583  0.2207
  886MPD2    C112987   0.094   2.280  15.896  0.1700 -0.2275  0.3067
  886MPD2    C212988   0.072   2.348  15.779 -0.0927  0.0740 -0.2864
  886MPD2    C312989   4.697   2.441  15.771  0.7548  0.4159  0.3207
  886MPD2    C412990   4.631   2.472  15.887 -0.2472 -0.1510 -0.5717
  886MPD2    C512991   4.644   2.395  16.001 -0.4917 -0.0579  0.0424
  886MPD2     H12992   0.141   2.330  15.697 -0.1244 -0.8487 -0.1100
  886MPD2    H112993   4.566   2.559  15.885 -1.6704 -1.1767  0.4350
  886MPD2    H212994   0.017   2.254  16.103  4.8243 -0.0280  0.4913
  886MPD2    H312995   4.580   2.415  16.086  2.2765 -0.7959  2.2896
  886MPD2     N12996   4.689   2.521  15.649  0.1446  0.1859 -0.1260
  886MPD2    H512997   0.017   2.495  15.567  1.6712  0.3881  0.7894
  886MPD2    N112998   0.199   2.179  15.891  0.6071  0.7856  0.2977
  886MPD2    H712999   0.243   2.166  15.801 -0.3226  0.8987 -0.1795
  887MPD2     C13000   0.906   2.206  15.756  0.5375 -0.6107  0.0353
  887MPD2    C113001   0.781   2.251  15.786 -0.2619 -0.0445  0.4861
  887MPD2    C213002   0.753   2.384  15.780 -0.1464  0.3099 -0.1790
  887MPD2    C313003   0.853   2.473  15.749  0.2307 -0.4167  0.4231
  887MPD2    C413004   0.977   2.426  15.719 -0.0336 -0.0028  0.2252
  887MPD2    C513005   1.002   2.297  15.715  0.3554  0.7077 -0.3399
  887MPD2     H13006   0.658   2.422  15.815  1.0644  2.0439  1.2307
  887MPD2    H113007   1.054   2.498  15.695 -1.3457  1.1070 -0.6065
  887MPD2    H213008   0.935   2.102  15.748 -3.9270 -1.9431  1.0603
  887MPD2    H313009   1.105   2.267  15.701  0.1983 -0.2032  0.4054
  887MPD2     N13010   0.823   2.612  15.751 -0.3237 -0.0921  0.1931
  887MPD2    H513011   0.727   2.645  15.757 -0.1021  0.3685  1.2605
  887MPD2    N113012   0.671   2.164  15.809 -0.2574  0.1014  0.3716
  887MPD2    H713013   0.585   2.218  15.817 -1.2887 -1.6823  1.2321
  888MPD2     C13014   2.194   2.274  14.702  0.8756  0.1365  0.1022
  888MPD2    C113015   2.193   2.270  14.842  0.6247  0.3260 -0.0809
  888MPD2    C213016   2.263   2.360  14.913  0.4659  0.3028  0.1345
  888MPD2    C313017   2.332   2.464  14.850 -0.3693  0.5125  0.5920
  888MPD2    C413018   2.328   2.473  14.711  0.2563 -0.4468  0.3153
  888MPD2    C513019   2.266   2.375  14.638 -0.5154 -0.0477 -0.0469
  888MPD2     H13020   2.252   2.355  15.021 -0.1258 -0.3899  0.0431
  888MPD2    H113021   2.375   2.552  14.653 -1.8521  0.7577  0.2423
  888MPD2    H213022   2.143   2.199  14.643 -0.5723  4.0819 -3.7036
  888MPD2    H313023   2.263   2.376  14.530  0.0120  1.8930 -0.0523
  888MPD2     N13024   2.400   2.554  14.928  0.3905 -0.4446 -0.0020
  888MPD2    H513025   2.403   2.534  15.028 -0.4683 -0.5515 -0.0002
  888MPD2    N113026   2.126   2.171  14.918 -0.0575 -0.2759  0.1888
  888MPD2    H713027   2.141   2.162  15.018 -0.0715  1.2467  0.3361
  889MPD2     C13028   1.878   1.683  12.711 -0.2223 -0.2393  0.0622
  889MPD2    C113029   1.917   1.650  12.835  0.4573 -0.8288  0.8991
  889MPD2    C213030   1.907   1.751  12.931  0.1186 -0.0907 -0.2949
  889MPD2    C313031   1.888   1.882  12.894  0.3555  0.0673 -0.3268
  889MPD2    C413032   1.859   1.921  12.764  0.4555 -0.1463  0.5243
  889MPD2    C513033   1.860   1.817  12.676  0.0782 -1.0054 -0.2401
  889MPD2     H13034   1.924   1.725  13.035  1.6552 -1.7449 -0.9689
  889MPD2    H113035   1.853   2.020  12.722 -1.2550 -0.5783 -0.2571
  889MPD2    H213036   1.878   1.610  12.631  0.2904 -0.0161 -0.1392
  889MPD2    H313037   1.840   1.840  12.572  0.3107 -0.4313 -0.1596
  889MPD2     N13038   1.886   1.990  12.990 -0.6361 -0.3153 -0.3055
  889MPD2    H513039   1.878   1.962  13.087 -2.0740  0.6356 -0.1543
  889MPD2    N113040   1.914   1.516  12.863 -0.1890 -0.0548  0.2629
  889MPD2    H713041   1.895   1.450  12.788  0.2162 -0.8941  0.9067
  890MPD2     C13042   0.974   3.618  14.436  0.6199 -0.3572 -0.0022
  890MPD2    C113043   1.110   3.627  14.433 -0.3876 -0.1390 -0.8204
  890MPD2    C213044   1.184   3.530  14.499  0.4513 -0.6686 -0.3391
  890MPD2    C313045   1.131   3.417  14.565  0.0591  0.4502 -0.0927
  890MPD2    C413046   0.996   3.410  14.567  0.4893  0.0624  0.3923
  890MPD2    C513047   0.919   3.512  14.500  0.4734 -0.8777 -0.4803
  890MPD2     H13048   1.291   3.527  14.516  0.0534  0.0534  2.2622
  890MPD2    H113049   0.933   3.340  14.622 -0.0005 -0.1237 -0.4092
  890MPD2    H213050   0.908   3.687  14.384  2.3051  0.5965 -0.8899
  890MPD2    H313051   0.811   3.504  14.502  0.3305  1.1125  0.0112
  890MPD2     N13052   1.215   3.332  14.635 -0.3079  0.0131  0.1225
  890MPD2    H513053   1.308   3.369  14.648 -1.1686  1.6874  1.5053
  890MPD2    N113054   1.153   3.744  14.373  0.4037 -0.2898  0.1975
  890MPD2    H713055   1.086   3.817  14.356  0.2693 -0.8224 -1.4887
  891MPD2     C13056   4.129   2.179  16.559 -0.2439 -0.0568  0.0402
  891MPD2    C113057   4.039   2.198  16.661 -0.2873  1.0653 -0.5188
  891MPD2    C213058   4.082   2.180  16.795  0.1741  0.0970  0.3848
  891MPD2    C313059   4.214   2.136  16.818 -0.1151  0.0239  0.6781
  891MPD2    C413060   4.301   2.119  16.715  0.1660  0.9773 -0.8687
  891MPD2    C513061   4.261   2.137  16.585  0.6635  0.2093 -0.7922
  891MPD2     H13062   4.013   2.194  16.877 -0.0389 -0.9331  0.3815
  891MPD2    H113063   4.405   2.091  16.728 -0.8381 -2.7524 -0.9165
  891MPD2    H213064   4.092   2.197  16.458 -2.0838 -2.8342  0.2009
  891MPD2    H313065   4.326   2.108  16.504  2.6379 -1.6183  1.4515
  891MPD2     N13066   4.251   2.122  16.955 -0.3897 -0.2528 -0.3081
  891MPD2    H513067   4.170   2.130  17.016  0.8708 -2.7076  1.6734
  891MPD2    N113068   3.912   2.239  16.621  0.1068 -0.6054  0.2314
  891MPD2    H713069   3.895   2.266  16.525  2.5404 -0.4749 -0.1581
  892MPD2     C13070   0.175   2.979  15.187  0.3116  0.6229 -0.3203
  892MPD2    C113071   0.075   2.929  15.112 -0.3396 -0.4210  0.4532
  892MPD2    C213072   0.109   2.869  14.987  0.0094  0.1401  0.1978
  892MPD2    C313073   0.241   2.846  14.954  0.0960  0.2632 -0.0246
  892MPD2    C413074   0.337   2.911  15.025  0.5361 -0.3735 -0.1301
  892MPD2    C513075   0.309   2.981  15.139 -0.0338  0.4040 -0.7801
  892MPD2     H13076   0.031   2.832  14.921  0.3310 -1.3712  0.6625
  892MPD2    H113077   0.438   2.927  14.989 -0.2665 -1.2346 -2.7081
  892MPD2    H213078   0.161   3.036  15.278  0.1775  0.8854 -0.5079
  892MPD2    H313079   0.383   3.050  15.178  0.6969 -0.8923  0.1142
  892MPD2     N13080   0.281   2.780  14.838 -0.3319 -0.5025 -0.8368
  892MPD2    H513081   0.379   2.764  14.816  0.7833  0.3481  3.4923
  892MPD2    N113082   4.663   2.954  15.127  0.3944  0.0036 -0.0218
  892MPD2    H713083   4.589   2.929  15.063  0.6078 -0.0883 -0.2352
  893MPD2     C13084   1.944   1.632   1.310 -0.1843 -0.4903  0.2036
  893MPD2    C113085   2.067   1.589   1.276  0.6372  0.4100 -0.2008
  893MPD2    C213086   2.127   1.632   1.155  0.8686 -0.3504 -0.1469
  893MPD2    C313087   2.046   1.709   1.063  0.2901  0.4338 -0.2835
  893MPD2    C413088   1.925   1.748   1.106  0.1431  0.7731  0.1382
  893MPD2    C513089   1.870   1.712   1.230 -0.0173  0.3757  0.5287
  893MPD2     H13090   2.227   1.601   1.130  1.7527  1.1083  1.6318
  893MPD2    H113091   1.866   1.821   1.051  0.8454  0.9866 -0.3334
  893MPD2    H213092   1.901   1.603   1.405  0.9697  3.1628  1.8481
  893MPD2    H313093   1.778   1.749   1.274 -0.4413  1.9227 -1.6593
  893MPD2     N13094   2.104   1.765   0.947 -0.4341  0.3242  0.6505
  893MPD2    H513095   2.063   1.850   0.910  1.9226  0.6374 -1.2452
  893MPD2    N113096   2.135   1.511   1.368  0.2343 -0.1963  0.1457
  893MPD2    H713097   2.093   1.499   1.459 -1.0240  2.7769 -0.0184
  894MPD2     C13098   0.372   3.406   0.870  0.3922 -0.0390  0.7500
  894MPD2    C113099   0.342   3.516   0.943  0.4706  1.2333  0.2139
  894MPD2    C213100   0.379   3.638   0.893 -0.4735  0.0767 -0.3118
  894MPD2    C313101   0.437   3.659   0.771  0.2928 -0.4055 -0.0543
  894MPD2    C413102   0.461   3.548   0.685 -0.3475  0.3589  0.0211
  894MPD2    C513103   0.430   3.426   0.738  0.5754 -0.0848  0.7129
  894MPD2     H13104   0.361   3.731   0.946 -2.6550 -0.4642 -0.1282
  894MPD2    H113105   0.515   3.557   0.592 -3.7712  0.0439 -1.9985
  894MPD2    H213106   0.339   3.306   0.898 -0.6185  0.4578  1.3531
  894MPD2    H313107   0.449   3.348   0.665 -0.7007  0.4249 -0.1588
  894MPD2     N13108   0.469   3.794   0.737  0.3073 -0.1829  0.2998
  894MPD2    H513109   0.478   3.857   0.816  1.8695  2.9257 -2.3669
  894MPD2    N113110   0.282   3.508   1.067 -0.0287  1.0308 -0.6491
  894MPD2    H713111   0.253   3.593   1.114 -1.6584 -1.3370  2.6364
  895MPD2     C13112   3.999   2.434  13.425  0.4039 -0.7019  0.2504
  895MPD2    C113113   3.922   2.416  13.315 -0.8331  0.4647  0.5476
  895MPD2    C213114   3.951   2.301  13.230  0.0142  0.6991  0.3477
  895MPD2    C313115   4.036   2.200  13.281  0.1281  0.3078  0.1537
  895MPD2    C413116   4.107   2.220  13.400 -0.1145 -0.5423  0.4352
  895MPD2    C513117   4.094   2.338  13.464  0.4762 -0.1777 -0.0343
  895MPD2     H13118   3.904   2.290  13.133 -0.0412 -1.1720  0.5848
  895MPD2    H113119   4.169   2.147  13.452  0.1386 -1.8066 -1.6669
  895MPD2    H213120   3.970   2.507  13.499 -0.0782  0.2563 -0.8742
  895MPD2    H313121   4.127   2.341  13.567 -0.1317  0.0997  0.1516
  895MPD2     N13122   4.039   2.075  13.208  0.1637 -0.6124 -0.1689
  895MPD2    H513123   3.965   2.075  13.139  1.6699 -0.4471 -1.7807
  895MPD2    N113124   3.819   2.502  13.286  0.0022 -0.1829 -1.0095
  895MPD2    H713125   3.822   2.590  13.338  1.4482 -1.2597  0.7079
  896MPD2     C13126   1.552   0.404   1.805 -0.6816 -0.3816  0.5570
  896MPD2    C113127   1.564   0.331   1.690  0.3415  0.5927 -0.3753
  896MPD2    C213128   1.462   0.249   1.649 -0.7174 -0.8119  0.6372
  896MPD2    C313129   1.346   0.231   1.726  0.1746  0.0877 -0.1712
  896MPD2    C413130   1.338   0.297   1.848 -0.1348  0.0733 -0.2596
  896MPD2    C513131   1.438   0.388   1.876 -0.1886  0.1706  0.9204
  896MPD2     H13132   1.467   0.203   1.551 -0.0005  0.3096  0.1535
  896MPD2    H113133   1.259   0.283   1.920 -1.2059 -1.8117 -1.8095
  896MPD2    H213134   1.617   0.480   1.845 -0.5397 -0.0359 -0.3272
  896MPD2    H313135   1.430   0.442   1.969  0.0685  1.3990  0.2376
  896MPD2     N13136   1.256   0.137   1.682  0.1336  0.1218 -0.1746
  896MPD2    H513137   1.277   0.088   1.596 -0.6663 -1.0950  0.3159
  896MPD2    N113138   1.691   0.349   1.620  0.1693 -0.3065  0.5959
  896MPD2    H713139   1.760   0.412   1.661  0.2930 -0.0659  0.0102
  897MPD2     C13140   2.895   1.078  10.491  0.5667 -0.8555 -0.6965
  897MPD2    C113141   2.933   1.186  10.560 -0.1247 -0.4156  0.3307
  897MPD2    C213142   2.849   1.239  10.653  0.2623 -0.2387 -0.0884
  897MPD2    C313143   2.732   1.169  10.682 -0.1516 -0.1102 -0.0667
  897MPD2    C413144   2.701   1.048  10.615 -0.6706  0.1816  0.3457
  897MPD2    C513145   2.789   1.008  10.518 -0.0183  0.0633  0.1115
  897MPD2     H13146   2.862   1.343  10.683  1.1153  0.3239 -2.4360
  897MPD2    H113147   2.631   0.969  10.639  0.1211 -0.3024  1.0455
  897MPD2    H213148   2.956   1.039  10.410  1.8148 -0.1682 -0.0684
  897MPD2    H313149   2.778   0.905  10.483 -3.1662  0.6063 -0.4884
  897MPD2     N13150   2.639   1.231  10.771  0.6837  0.3496  0.4795
  897MPD2    H513151   2.656   1.328  10.797  1.0493  0.6949 -1.0416
  897MPD2    N113152   3.058   1.250  10.521 -0.0097  0.2643 -0.7269
  897MPD2    H713153   3.115   1.218  10.444 -1.1469 -0.4569 -1.2707
  898MPD2     C13154   0.373   2.322   0.101  0.5528 -0.0739 -0.3822
  898MPD2    C113155   0.409   2.458   0.077  0.5426 -0.1363  0.1326
  898MPD2    C213156   0.326   2.538   0.007 -0.6914  0.2481 -0.1729
  898MPD2    C313157   0.213   2.480  17.653 -0.0221  0.6644 -0.1616
  898MPD2    C413158   0.185   2.350  17.666 -0.4761  0.0901 -0.4350
  898MPD2    C513159   0.261   2.276   0.043 -0.0667  0.1509 -0.9239
  898MPD2     H13160   0.339   2.644  17.691  0.2649  0.3232  0.9929
  898MPD2    H113161   0.099   2.300  17.624  0.5666 -3.0471  1.1157
  898MPD2    H213162   0.428   2.247   0.157  0.7429  0.6774  0.4265
  898MPD2    H313163   0.224   2.177   0.069  2.1211 -0.9290 -1.8642
  898MPD2     N13164   0.129   2.564  17.582  0.3950  0.1245 -0.2139
  898MPD2    H513165   0.173   2.651  17.554 -0.7425  0.3319 -1.3282
  898MPD2    N113166   0.530   2.507   0.121  0.1867  0.4064 -0.3578
  898MPD2    H713167   0.553   2.603   0.100  1.0535  0.3628  0.4114
  899MPD2     C13168   0.992   2.993  17.381  0.5794  0.3871  0.0968
  899MPD2    C113169   1.038   3.102  17.448 -0.2099 -0.1999  0.1378
  899MPD2    C213170   1.062   3.091  17.588  0.3425 -0.5933 -0.6666
  899MPD2    C313171   1.038   2.967  17.646  0.1044  0.2786 -0.3380
  899MPD2    C413172   0.998   2.857  17.573  0.2463 -0.1112 -0.2110
  899MPD2    C513173   0.983   2.868  17.436  0.0602  0.9793  0.4243
  899MPD2     H13174   1.091   3.184  17.634  2.1948 -0.7597 -1.5075
  899MPD2    H113175   0.971   2.762  17.618  0.3275  0.0633  0.2098
  899MPD2    H213176   0.966   2.998  17.276  2.2673  0.3077 -0.3348
  899MPD2    H313177   0.930   2.791  17.381 -1.4039  0.5517  2.4274
  899MPD2     N13178   1.070   2.945   0.085  0.7431  0.6542  0.1437
  899MPD2    H513179   1.078   2.847   0.112  1.8625  0.7384  0.1282
  899MPD2    N113180   1.067   3.207  17.368  0.4957  0.4344 -0.0887
  899MPD2    H713181   1.044   3.199  17.269 -2.7181  0.7765  0.6221
  900MPD2     C13182   0.657   4.471  12.509  0.2446 -0.7268  0.1306
  900MPD2    C113183   0.564   4.370  12.500  0.8356 -0.0343 -0.1969
  900MPD2    C213184   0.446   4.402  12.432 -0.4997 -1.1219  0.8046
  900MPD2    C313185   0.419   4.531  12.376  0.2191 -0.4703 -0.3794
  900MPD2    C413186   0.516   4.627  12.389 -1.1100  0.1974  0.6030
  900MPD2    C513187   0.635   4.596  12.449 -0.1413  0.1461 -0.8419
  900MPD2     H13188   0.370   4.327  12.412 -2.1777  1.4914 -2.6696
  900MPD2    H113189   0.512   4.724  12.341 -1.9401 -0.7107 -1.1386
  900MPD2    H213190   0.758   4.466  12.549 -1.0546 -1.3819  3.2742
  900MPD2    H313191   0.708   4.675  12.460 -1.4658  1.0078  1.6695
  900MPD2     N13192   0.300   4.561  12.314 -0.2245  0.5533  0.1683
  900MPD2    H513193   0.232   4.486  12.304  1.1574 -0.9221  1.9354
  900MPD2    N113194   0.587   4.251  12.565  0.1667  0.6420 -0.2871
  900MPD2    H713195   0.679   4.249  12.608  0.6280  1.4778 -1.2050
  901MPD2     C13196   0.290   3.208  12.815 -0.7938 -0.4539 -0.3430
  901MPD2    C113197   0.426   3.220  12.843  0.5123 -0.4002  0.1137
  901MPD2    C213198   0.479   3.348  12.821 -0.0560  0.9464 -0.4959
  901MPD2    C313199   0.404   3.454  12.763  0.0703  0.4422 -0.6056
  901MPD2    C413200   0.270   3.433  12.735  0.2240 -0.0753  0.0889
  901MPD2    C513201   0.215   3.316  12.771  0.7723  0.4788 -0.2514
  901MPD2     H13202   0.579   3.365  12.860 -0.8813  2.6325  0.9051
  901MPD2    H113203   0.205   3.506  12.689  1.4147  1.0981  0.2550
  901MPD2    H213204   0.246   3.109  12.811 -2.3728  0.2871 -1.0899
  901MPD2    H313205   0.107   3.309  12.758  0.6346  0.6754  0.8251
  901MPD2     N13206   0.473   3.577  12.741  0.3778  0.3356  0.5187
  901MPD2    H513207   0.571   3.570  12.765  0.0861  0.4605  1.7580
  901MPD2    N113208   0.503   3.107  12.892 -0.0623 -0.3108  0.0480
  901MPD2    H713209   0.450   3.030  12.932  0.3079 -1.7981 -2.3048
  902MPD2     C13210   4.314   2.058  12.951 -0.0784  0.3829  0.3329
  902MPD2    C113211   4.218   2.110  12.862  0.2748  1.1129  0.0457
  902MPD2    C213212   4.185   2.044  12.748  0.5381  0.8429 -0.9083
  902MPD2    C313213   4.246   1.923  12.721  0.6207  0.0862  1.0464
  902MPD2    C413214   4.339   1.873  12.809  0.5852  0.6559 -0.0279
  902MPD2    C513215   4.372   1.936  12.926 -0.3034  0.0509 -0.6338
  902MPD2     H13216   4.114   2.092  12.683  0.6389  0.8399 -1.0199
  902MPD2    H113217   4.386   1.777  12.788  0.7405  1.2026 -2.2173
  902MPD2    H213218   4.347   2.087  13.050 -1.3520  1.1909  0.5223
  902MPD2    H313219   4.432   1.890  13.004 -0.3373  2.2858  0.7111
  902MPD2     N13220   4.228   1.854  12.601  0.2403 -0.7006 -0.0861
  902MPD2    H513221   4.282   1.768  12.590  1.8258 -0.0984  3.2126
  902MPD2    N113222   4.154   2.236  12.901 -0.2534 -0.2541  0.1995
  902MPD2    H713223   4.197   2.291  12.974 -1.1253 -1.6670  1.7784
  903MPD2     C13224   4.057   1.888  11.688  0.8143 -0.1740 -0.0549
  903MPD2    C113225   3.980   1.904  11.802  0.5753  0.4066  0.3041
  903MPD2    C213226   3.845   1.944  11.797  0.4600 -0.6571  0.5353
  903MPD2    C313227   3.785   1.971  11.680 -0.2572 -0.0567  0.2822
  903MPD2    C413228   3.853   1.945  11.563  0.0416 -0.1002  0.2853
  903MPD2    C513229   3.988   1.912  11.569 -0.0410  0.3776  0.2290
  903MPD2     H13230   3.779   1.953  11.882  0.1757  0.1914  0.2303
  903MPD2    H113231   3.811   1.960  11.464  0.6881 -3.1285 -0.4391
  903MPD2    H213232   4.157   1.849  11.676  0.5130 -1.4638  1.5505
  903MPD2    H313233   4.051   1.901  11.482 -0.3624 -0.3961  0.0884
  903MPD2     N13234   3.645   2.013  11.673 -0.8478  0.7739  0.6213
  903MPD2    H513235   3.583   1.993  11.752 -1.0262  1.2996  0.6112
  903MPD2    N113236   4.041   1.874  11.926  0.6570  0.1428 -0.1875
  903MPD2    H713237   4.138   1.847  11.912  0.9269  0.9068  0.1746
  904MPD2     C13238   4.082   1.697  13.630  0.7798 -0.2631 -0.0930
  904MPD2    C113239   4.051   1.702  13.762 -1.1128  0.3847  0.2541
  904MPD2    C213240   4.156   1.713  13.861  0.3621  0.4803 -0.9131
  904MPD2    C313241   4.280   1.750  13.818 -0.1260 -0.6426 -0.4374
  904MPD2    C413242   4.310   1.746  13.682 -0.4873 -0.1514 -0.1897
  904MPD2    C513243   4.213   1.719  13.591  0.1214 -0.1921  0.6075
  904MPD2     H13244   4.127   1.700  13.965  0.8578 -0.7470 -0.9276
  904MPD2    H113245   4.411   1.757  13.643 -0.4231  0.3921  0.1425
  904MPD2    H213246   4.006   1.682  13.555  0.0644  0.3674  0.5031
  904MPD2    H313247   4.248   1.704  13.489 -2.5581  1.2807 -0.5298
  904MPD2     N13248   4.373   1.788  13.918  0.5637 -0.1452 -0.5116
  904MPD2    H513249   4.343   1.781  14.015  1.3576 -0.8955 -0.3207
  904MPD2    N113250   3.925   1.660  13.809  0.3838  0.6817  0.6059
  904MPD2    H713251   3.916   1.639  13.908 -0.5634 -0.9643  0.1644
  905MPD2     C13252   3.349   1.603  13.329 -0.6656 -0.3259 -0.5331
  905MPD2    C113253   3.477   1.595  13.387 -0.3181 -0.1670  0.2304
  905MPD2    C213254   3.593   1.598  13.315 -0.2736 -0.5780  0.1545
  905MPD2    C313255   3.595   1.613  13.176 -0.1981  0.3922 -0.3463
  905MPD2    C413256   3.469   1.614  13.114 -0.6589 -0.2580 -0.4094
  905MPD2    C513257   3.349   1.596  13.194 -0.4148 -0.6712 -0.2650
  905MPD2     H13258   3.681   1.603  13.379  0.0906  1.9811 -0.5327
  905MPD2    H113259   3.455   1.638  13.009 -0.5794 -1.5656 -0.7156
  905MPD2    H213260   3.254   1.596  13.382 -0.2451  1.4915  0.4724
  905MPD2    H313261   3.254   1.586  13.142 -1.3178  0.4412  1.1849
  905MPD2     N13262   3.725   1.644  13.114 -0.5859  0.1460 -0.1374
  905MPD2    H513263   3.723   1.670  13.016  1.7020 -1.0052 -0.4861
  905MPD2    N113264   3.494   1.587  13.528  0.4264  0.5392 -0.4077
  905MPD2    H713265   3.590   1.576  13.560  0.5369  1.4398 -0.4050
  906MPD2     C13266   1.517   1.276  11.140 -0.1970 -0.1971  0.1277
  906MPD2    C113267   1.434   1.207  11.052  0.0905  0.1327  0.5010
  906MPD2    C213268   1.379   1.090  11.104  0.0625  0.4398 -0.0696
  906MPD2    C313269   1.406   1.043  11.234  0.0983 -0.6189 -0.2851
  906MPD2    C413270   1.483   1.123  11.318  0.5340  0.9558 -0.2417
  906MPD2    C513271   1.542   1.236  11.269 -0.2502  0.5766  0.8312
  906MPD2     H13272   1.307   1.034  11.046  0.6155  1.3727 -1.6520
  906MPD2    H113273   1.494   1.101  11.424  0.9446 -0.3332 -0.5455
  906MPD2    H213274   1.569   1.361  11.097 -0.7677  0.0716 -0.0337
  906MPD2    H313275   1.608   1.291  11.335  2.0485 -3.1969  1.6794
  906MPD2     N13276   1.347   0.922  11.278  0.3417 -0.3411 -0.1997
  906MPD2    H513277   1.349   0.899  11.377  1.3046  1.0921  0.1043
  906MPD2    N113278   1.418   1.257  10.919  0.3465  0.1694  1.0615
  906MPD2    H713279   1.480   1.331  10.887  1.4834 -0.6765  1.2834
  907MPD2     C13280   0.088   1.130  16.154 -0.7461 -0.2704  0.0051
  907MPD2    C113281   0.098   1.003  16.088  0.2796 -0.0899 -0.0236
  907MPD2    C213282   0.161   0.900  16.152 -0.6601  0.1179  0.3981
  907MPD2    C313283   0.217   0.917  16.278 -0.0514 -0.3912  0.1934
  907MPD2    C413284   0.201   1.039  16.333 -0.0971 -1.0346  0.0230
  907MPD2    C513285   0.141   1.144  16.278 -0.1793 -0.5380 -0.0584
  907MPD2     H13286   0.155   0.800  16.111  3.1189  0.6175 -1.3176
  907MPD2    H113287   0.258   1.057  16.424 -0.5182  0.1303  0.0567
  907MPD2    H213288   0.029   1.215  16.123  2.7321  1.6213 -1.4770
  907MPD2    H313289   0.132   1.240  16.326 -1.5344 -0.4606 -0.4528
  907MPD2     N13290   0.284   0.813  16.341 -0.6099  0.8335 -0.1126
  907MPD2    H513291   0.311   0.730  16.289 -1.9123  0.3022  0.0412
  907MPD2    N113292   0.037   0.984  15.963  0.0903  0.3396  0.1412
  907MPD2    H713293   0.068   0.898  15.919  2.6177  0.5545  1.4740
  908MPD2     C13294   3.423   1.299   9.752 -0.4205 -0.0494  0.0628
  908MPD2    C113295   3.300   1.264   9.816  0.1127  0.1684 -0.1726
  908MPD2    C213296   3.290   1.265   9.952 -0.1632  0.2455 -0.7898
  908MPD2    C313297   3.401   1.298  10.032  0.1136 -1.1576  0.3093
  908MPD2    C413298   3.517   1.318   9.966  0.2090  0.7216  0.5298
  908MPD2    C513299   3.534   1.318   9.830  0.1166 -0.3308  0.5206
  908MPD2     H13300   3.192   1.246   9.995  0.5101  0.4526  0.8239
  908MPD2    H113301   3.613   1.315  10.017  1.2044 -3.2400 -1.5203
  908MPD2    H213302   3.435   1.292   9.645 -3.3067 -0.7784 -0.2206
  908MPD2    H313303   3.627   1.300   9.778 -0.4374  3.1145 -1.6426
  908MPD2     N13304   3.386   1.318  10.175 -0.5167 -0.8211  0.3608
  908MPD2    H513305   3.293   1.310  10.215 -0.2572  2.3695  1.5640
  908MPD2    N113306   3.192   1.226   9.734 -0.3228 -0.0090 -0.3014
  908MPD2    H713307   3.108   1.204   9.786 -0.2190 -1.5304 -0.7928
  909MPD2     C13308   3.138   3.898  11.850  0.4595  0.6733  0.1511
  909MPD2    C113309   3.179   4.027  11.822  0.1466 -0.7636  0.5789
  909MPD2    C213310   3.125   4.132  11.901 -0.0981  1.2381 -0.3579
  909MPD2    C313311   3.033   4.110  11.998 -0.5173 -0.1234  0.2395
  909MPD2    C413312   2.985   3.978  12.008  0.1955 -0.1619  0.3737
  909MPD2    C513313   3.047   3.876  11.945  0.0582 -0.5967  0.5906
  909MPD2     H13314   3.160   4.233  11.885 -0.0742  1.1463 -0.8890
  909MPD2    H113315   2.910   3.943  12.078  0.7411  1.2482  1.6444
  909MPD2    H213316   3.183   3.810  11.804 -2.1224 -1.0404  0.9355
  909MPD2    H313317   3.002   3.779  11.964  0.4497 -0.9590 -0.3673
  909MPD2     N13318   2.989   4.219  12.080 -0.2407  0.2057 -0.2712
  909MPD2    H513319   3.025   4.308  12.047  0.5700 -0.5690 -1.4741
  909MPD2    N113320   3.274   4.050  11.723  0.6409  0.1695  0.3348
  909MPD2    H713321   3.283   4.149  11.703 -0.2442  0.3714  0.9156
  910MPD2     C13322   4.406   1.386  16.337 -0.1627  0.5048  0.2342
  910MPD2    C113323   4.424   1.293  16.237  0.0251  0.1226 -0.4145
  910MPD2    C213324   4.398   1.335  16.107 -0.7106 -0.8173  0.4597
  910MPD2    C313325   4.346   1.458  16.075  0.2058  0.1447  0.0917
  910MPD2    C413326   4.334   1.552  16.172 -0.4181  0.1040 -0.3774
  910MPD2    C513327   4.356   1.508  16.305 -0.1560  0.2491  0.1463
  910MPD2     H13328   4.425   1.267  16.027  1.4770  1.6146 -0.8562
  910MPD2    H113329   4.302   1.655  16.162  0.6275  0.6634  1.9342
  910MPD2    H213330   4.421   1.355  16.440 -0.9985 -1.4699 -0.2261
  910MPD2    H313331   4.342   1.578  16.386 -1.1042 -0.6643  0.7727
  910MPD2     N13332   4.304   1.501  15.944 -0.4719 -0.4664  0.2929
  910MPD2    H513333   4.249   1.586  15.937  1.3714  0.6144 -1.1515
  910MPD2    N113334   4.485   1.167  16.260  0.1237  0.6057 -0.1284
  910MPD2    H713335   4.482   1.101  16.182  0.7907  2.1744 -1.4732
  911MPD2     C13336   2.211   1.833  16.601 -0.0799  0.2802  1.0363
  911MPD2    C113337   2.263   1.958  16.617 -0.3150  0.7205 -0.1196
  911MPD2    C213338   2.199   2.063  16.556  0.2526  0.1984 -0.0761
  911MPD2    C313339   2.084   2.042  16.486  0.2826 -0.0240 -0.5475
  911MPD2    C413340   2.037   1.916  16.468 -0.5779  0.5639 -0.4072
  911MPD2    C513341   2.099   1.815  16.536  0.2359 -0.3493 -0.8797
  911MPD2     H13342   2.244   2.162  16.555 -0.3535  0.4820  0.4333
  911MPD2    H113343   1.937   1.895  16.434 -0.3738  1.4371 -1.5556
  911MPD2    H213344   2.260   1.740  16.625 -3.5256 -1.5847  0.8914
  911MPD2    H313345   2.054   1.716  16.540  1.4986 -0.9710 -2.0583
  911MPD2     N13346   2.013   2.144  16.413  0.1219 -1.1869 -0.0357
  911MPD2    H513347   1.931   2.113  16.362  0.7307 -2.2829 -0.3318
  911MPD2    N113348   2.385   1.959  16.686  0.4003  0.7380  0.5855
  911MPD2    H713349   2.417   1.878  16.738 -0.6488 -0.8441 -1.2358
  912MPD2     C13350   1.958   1.950  15.914 -0.8630 -0.4764  0.9323
  912MPD2    C113351   1.854   1.975  16.007  0.4714 -0.6030  0.0335
  912MPD2    C213352   1.801   1.868  16.084 -0.2185 -0.4937  0.3554
  912MPD2    C313353   1.840   1.738  16.057  0.3791 -0.0943 -0.6978
  912MPD2    C413354   1.946   1.721  15.977  0.3142 -0.2122 -0.1256
  912MPD2    C513355   2.002   1.824  15.904  0.4951 -0.2091 -0.2386
  912MPD2     H13356   1.729   1.882  16.164 -0.6546 -1.8903  0.2006
  912MPD2    H113357   1.990   1.623  15.961 -1.5017 -1.0134 -0.2172
  912MPD2    H213358   1.997   2.034  15.857 -0.0888 -2.0137 -0.7623
  912MPD2    H313359   2.072   1.807  15.823  1.1156  0.0756  0.2420
  912MPD2     N13360   1.780   1.636  16.138  0.7220  0.3127 -0.2749
  912MPD2    H513361   1.719   1.667  16.213  2.7334  0.8104  1.1653
  912MPD2    N113362   1.818   2.113  16.025  0.1258 -0.7030 -0.2487
  912MPD2    H713363   1.863   2.183  15.967 -1.0998 -0.4891 -0.9611
  913MPD2     C13364   1.667   3.326   9.950 -1.1459 -0.0196  0.4176
  913MPD2    C113365   1.798   3.355   9.990 -0.6477  0.4466  0.2653
  913MPD2    C213366   1.851   3.482   9.951 -0.3180 -0.3231 -0.0302
  913MPD2    C313367   1.771   3.571   9.873  0.0963  0.4348 -0.8726
  913MPD2    C413368   1.643   3.538   9.855  0.0591  0.0997 -0.0270
  913MPD2    C513369   1.592   3.411   9.875 -0.1463  0.5563 -0.1941
  913MPD2     H13370   1.947   3.516   9.986 -0.2382 -0.3825 -0.1901
  913MPD2    H113371   1.581   3.600   9.792 -0.7795 -1.1125 -0.4070
  913MPD2    H213372   1.620   3.236   9.987  2.9756 -1.0800  3.0042
  913MPD2    H313373   1.490   3.385   9.848  0.1473  1.9416 -2.6789
  913MPD2     N13374   1.822   3.690   9.817  0.0241 -0.0316 -0.3165
  913MPD2    H513375   1.755   3.754   9.776 -0.4059 -0.4744 -0.3014
  913MPD2    N113376   1.864   3.261  10.073  0.1829 -0.0029 -0.1813
  913MPD2    H713377   1.812   3.176  10.091  1.2782 -0.5848  0.2397
  914MPD2     C13378   0.737   2.763  12.414  0.4638 -0.3896  0.3914
  914MPD2    C113379   0.614   2.811  12.462  0.5911  0.3320 -0.1284
  914MPD2    C213380   0.582   2.779  12.594 -0.0732  0.1430 -0.6078
  914MPD2    C313381   0.664   2.696  12.665 -0.4190  0.7836  0.8302
  914MPD2    C413382   0.789   2.653  12.622  0.7962  0.2863 -0.4894
  914MPD2    C513383   0.822   2.681  12.493 -0.5803  0.0730 -0.1997
  914MPD2     H13384   0.491   2.805  12.648 -1.7408 -3.0508 -1.8462
  914MPD2    H113385   0.861   2.598  12.681  0.3737  1.3797  1.0454
  914MPD2    H213386   0.759   2.786  12.311 -0.4837 -1.2670 -0.0083
  914MPD2    H313387   0.910   2.645  12.441  0.6828 -0.0541  2.0309
  914MPD2     N13388   0.616   2.672  12.792  0.2537 -0.0953  0.6678
  914MPD2    H513389   0.524   2.711  12.813 -0.4105 -1.1850 -0.2153
  914MPD2    N113390   0.538   2.898  12.384  0.3728 -0.4857 -0.4688
  914MPD2    H713391   0.570   2.913  12.289 -0.6007  0.1908 -0.6975
  915MPD2     C13392   3.397   3.210  15.521 -0.5784 -0.0293 -0.1468
  915MPD2    C113393   3.262   3.200  15.557 -0.7795 -0.4602  0.1847
  915MPD2    C213394   3.217   3.251  15.680  0.4997  0.4246  0.5270
  915MPD2    C313395   3.316   3.309  15.762  0.3213 -0.4188 -0.8128
  915MPD2    C413396   3.454   3.311  15.732 -0.0328  0.4281  0.7071
  915MPD2    C513397   3.491   3.268  15.606 -0.8880  0.3195 -0.1792
  915MPD2     H13398   3.115   3.249  15.716  0.8607 -1.5147  1.4694
  915MPD2    H113399   3.525   3.348  15.805  1.5298 -1.7175  0.2857
  915MPD2    H213400   3.437   3.179  15.426 -0.3118  1.3858 -0.4922
  915MPD2    H313401   3.595   3.260  15.578 -0.2181 -1.3551  2.7538
  915MPD2     N13402   3.264   3.371  15.881 -0.3219 -0.2332  0.1537
  915MPD2    H513403   3.168   3.350  15.905 -0.2775 -0.2073  0.3596
  915MPD2    N113404   3.167   3.155  15.458  0.1702 -1.0558 -0.2466
  915MPD2    H713405   3.209   3.138  15.368 -0.5705  0.6563 -0.9219
  916MPD2     C13406   1.635   1.926  15.685  0.0375 -0.3111  0.3257
  916MPD2    C113407   1.581   1.816  15.744  0.9424  0.7057  0.5492
  916MPD2    C213408   1.596   1.688  15.685 -0.3451 -0.5354  0.8218
  916MPD2    C313409   1.660   1.674  15.563  0.2635  0.0493  0.0406
  916MPD2    C413410   1.719   1.784  15.504  0.5629  0.3489 -0.0634
  916MPD2    C513411   1.699   1.909  15.566  0.5537 -0.4581  0.1606
  916MPD2     H13412   1.569   1.595  15.732 -1.4289 -0.8338 -0.3921
  916MPD2    H113413   1.783   1.774  15.417  0.1410  0.3807 -0.3755
  916MPD2    H213414   1.628   2.027  15.725 -1.6756  0.5073 -2.0708
  916MPD2    H313415   1.742   1.999  15.523  0.4096 -0.2220  0.5090
  916MPD2     N13416   1.677   1.540  15.512 -0.4898  0.2683 -0.4577
  916MPD2    H513417   1.636   1.466  15.568 -0.7015  1.0248  0.3812
  916MPD2    N113418   1.507   1.840  15.867 -0.6023 -0.2102  0.0686
  916MPD2    H713419   1.504   1.932  15.911 -0.3293 -0.2645  0.1997
  917MPD2     C13420   2.054   3.738  11.682  0.7058  0.4228  0.3883
  917MPD2    C113421   1.973   3.847  11.692  0.3697 -0.1029  0.2115
  917MPD2    C213422   2.008   3.966  11.629  0.3184  0.6552  0.0469
  917MPD2    C313423   2.123   3.966  11.552  0.4631  0.0823 -0.2574
  917MPD2    C413424   2.196   3.850  11.544  0.0522  0.6427 -0.0030
  917MPD2    C513425   2.161   3.734  11.600  0.2670 -0.1945  0.1499
  917MPD2     H13426   1.956   4.060  11.647  1.0382  0.7313  1.7027
  917MPD2    H113427   2.290   3.852  11.491 -0.1961  0.4195 -0.4489
  917MPD2    H213428   2.030   3.652  11.743 -0.9082  1.4586  1.2034
  917MPD2    H313429   2.225   3.646  11.597  0.5876  0.0840 -0.9168
  917MPD2     N13430   2.172   4.077  11.483  0.2112 -0.3605  0.2349
  917MPD2    H513431   2.263   4.074  11.438  1.4423  0.9921  2.6093
  917MPD2    N113432   1.858   3.847  11.775 -0.3234  0.9698 -0.1482
  917MPD2    H713433   1.837   3.757  11.819 -1.1159  1.1864 -0.0805
  918MPD2     C13434   1.691   4.216  12.625  0.7963 -0.8153 -0.0670
  918MPD2    C113435   1.779   4.211  12.522 -1.2447  0.5349  0.5256
  918MPD2    C213436   1.755   4.148  12.403 -0.0925 -1.1060  0.0280
  918MPD2    C313437   1.631   4.100  12.381  0.6029  0.6087 -0.4554
  918MPD2    C413438   1.538   4.098  12.492  1.1549 -0.1836 -0.0278
  918MPD2    C513439   1.573   4.144  12.618 -0.3710  0.3758 -0.4442
  918MPD2     H13440   1.833   4.134  12.329  2.1350 -2.0650  2.5431
  918MPD2    H113441   1.437   4.062  12.476  0.7748 -0.0135  2.0158
  918MPD2    H213442   1.709   4.273  12.716  0.8603  0.6912 -1.0275
  918MPD2    H313443   1.491   4.144  12.688 -0.9386  0.5841 -1.1002
  918MPD2     N13444   1.606   4.067  12.243 -0.3044 -0.1608 -0.1338
  918MPD2    H513445   1.689   4.065  12.184  1.5029 -1.1547  2.4144
  918MPD2    N113446   1.900   4.287  12.537 -0.1470 -0.0386  0.8410
  918MPD2    H713447   1.908   4.349  12.618 -0.1416 -0.8873  1.4924
  919MPD2     C13448   2.691   3.068  11.645 -0.6885 -0.0449  0.3388
  919MPD2    C113449   2.647   2.943  11.594 -0.0253 -0.2050 -0.7342
  919MPD2    C213450   2.650   2.916  11.456 -0.2379 -0.6809  0.1566
  919MPD2    C313451   2.683   3.014  11.362 -0.6348 -0.6403  0.7368
  919MPD2    C413452   2.713   3.138  11.420 -0.9113 -0.8486  0.3842
  919MPD2    C513453   2.715   3.166  11.553  0.1847 -0.1474  0.3715
  919MPD2     H13454   2.612   2.819  11.425  0.7476 -1.0752  0.1953
  919MPD2    H113455   2.737   3.223  11.357  1.0531 -0.0859  2.1289
  919MPD2    H213456   2.697   3.085  11.752  0.7952 -1.6817  0.4916
  919MPD2    H313457   2.739   3.267  11.584  0.1570 -0.4422  1.3771
  919MPD2     N13458   2.679   2.998  11.221  0.2298  0.4337  0.4539
  919MPD2    H513459   2.703   3.083  11.171 -0.7741  0.1331 -0.5360
  919MPD2    N113460   2.620   2.830  11.677 -0.7774  0.1801  0.0799
  919MPD2    H713461   2.610   2.742  11.627 -0.4547 -1.2248  2.4696
  920MPD2     C13462   2.142   3.499  10.583 -0.0997  0.6755 -0.2338
  920MPD2    C113463   2.092   3.373  10.569  0.5158 -1.2761 -0.4337
  920MPD2    C213464   2.177   3.270  10.607 -0.1884 -0.0881 -0.4727
  920MPD2    C313465   2.303   3.286  10.665 -0.1315 -0.1725 -0.2233
  920MPD2    C413466   2.355   3.416  10.669  0.8763 -0.4190  0.2285
  920MPD2    C513467   2.268   3.515  10.622 -0.9846 -0.4871 -0.4390
  920MPD2     H13468   2.132   3.171  10.606  1.7861 -0.9790 -2.1485
  920MPD2    H113469   2.451   3.457  10.698  1.4237 -2.3182  1.1319
  920MPD2    H213470   2.088   3.590  10.557 -0.2170  0.4449 -0.8196
  920MPD2    H313471   2.309   3.615  10.630 -0.4314 -0.9287  2.5999
  920MPD2     N13472   2.372   3.172  10.715  0.0042 -0.4545 -0.2731
  920MPD2    H513473   2.319   3.086  10.721 -1.1657  0.3064  0.1481
  920MPD2    N113474   1.956   3.335  10.543  0.2914  0.0953  0.1993
  920MPD2    H713475   1.942   3.235  10.540 -0.7195  0.2223  0.8475
  921MPD2     C13476   3.071   2.604  16.672  0.1902  0.2038  0.6874
  921MPD2    C113477   3.129   2.480  16.697  0.1987  0.1581  0.2720
  921MPD2    C213478   3.051   2.388  16.768  0.3152 -0.0359 -0.1094
  921MPD2    C313479   2.925   2.417  16.819 -0.3321 -0.1140  0.6648
  921MPD2    C413480   2.877   2.549  16.803 -0.1129 -0.0053  0.4148
  921MPD2    C513481   2.950   2.632  16.723 -0.7738  0.0453 -0.3685
  921MPD2     H13482   3.098   2.293  16.790  1.5001  0.1664 -1.6823
  921MPD2    H113483   2.781   2.584  16.839  1.1770  0.2161  3.6171
  921MPD2    H213484   3.109   2.669  16.595  0.0609  0.8643  1.1837
  921MPD2    H313485   2.910   2.730  16.699  1.4298  1.0971  0.2580
  921MPD2     N13486   2.845   2.326  16.892 -0.2003 -0.0376 -0.2443
  921MPD2    H513487   2.761   2.364  16.936 -0.5386  0.2604 -1.1450
  921MPD2    N113488   3.264   2.458  16.655  0.3648 -0.2274  0.1472
  921MPD2    H713489   3.292   2.519  16.578 -1.1509 -1.8360 -1.6883
  922MPD2     C13490   3.754   0.479  17.359 -0.0881  0.3175  0.0592
  922MPD2    C113491   3.698   0.415  17.478 -0.3586  0.0656  0.5992
  922MPD2    C213492   3.689   0.275  17.471  0.0223  0.4739 -0.3429
  922MPD2    C313493   3.716   0.200  17.366 -0.2546  0.0341  0.1859
  922MPD2    C413494   3.767   0.264  17.253  0.0333  0.1381  0.3960
  922MPD2    C513495   3.791   0.400  17.252  0.4955 -0.2114  1.3896
  922MPD2     H13496   3.637   0.225  17.552 -2.4967  0.7586 -1.7810
  922MPD2    H113497   3.795   0.214  17.160  2.9530  3.0373 -0.2860
  922MPD2    H213498   3.773   0.584  17.375 -1.5805  0.3917  1.3534
  922MPD2    H313499   3.832   0.446  17.163  0.1348  0.8538  1.7777
  922MPD2     N13500   3.689   0.061  17.375 -0.3134 -0.4230 -0.1510
  922MPD2    H513501   3.666   0.030  17.470 -1.2246  2.8586  0.6823
  922MPD2    N113502   3.662   0.474  17.599  0.7440 -0.5821 -0.2873
  922MPD2    H713503   3.628   0.415  17.674 -0.7128 -0.2613 -0.6993
  923MPD2     C13504   0.497   1.218   9.383  0.4897 -0.1824  0.0730
  923MPD2    C113505   0.510   1.313   9.492  0.9237  0.1014 -0.1546
  923MPD2    C213506   0.614   1.297   9.582 -0.3854 -0.1970 -0.2743
  923MPD2    C313507   0.709   1.196   9.573 -0.3598 -0.4366 -0.2819
  923MPD2    C413508   0.694   1.111   9.470  0.3946 -0.1656 -0.7297
  923MPD2    C513509   0.595   1.125   9.369 -0.8560  1.1067  0.1375
  923MPD2     H13510   0.632   1.369   9.661 -2.3439  0.1929 -0.1788
  923MPD2    H113511   0.766   1.031   9.455  1.0009  0.0633  0.9179
  923MPD2    H213512   0.416   1.231   9.311  1.2193 -2.3309 -1.1203
  923MPD2    H313513   0.601   1.053   9.288 -2.2061  2.1308 -0.8751
  923MPD2     N13514   0.820   1.184   9.655  0.0540  0.0961 -0.2698
  923MPD2    H513515   0.873   1.098   9.640  0.2330  0.1366  0.1208
  923MPD2    N113516   0.424   1.423   9.493  0.1757 -0.5046  0.0199
  923MPD2    H713517   0.351   1.420   9.422  0.4635 -4.5134 -0.1327
  924MPD2     C13518   0.636   0.277  15.950 -0.3098 -0.3529  0.0491
  924MPD2    C113519   0.615   0.210  16.070  0.0562 -0.6680  0.4359
  924MPD2    C213520   0.632   0.273  16.189 -0.0956  0.2481 -0.1862
  924MPD2    C313521   0.649   0.403  16.198  0.3812 -0.7793  0.1907
  924MPD2    C413522   0.674   0.474  16.077 -0.3415 -0.1620  0.1282
  924MPD2    C513523   0.670   0.411  15.956  0.3003 -0.2924  1.0816
  924MPD2     H13524   0.619   0.224  16.285  1.5262 -0.4828 -0.3537
  924MPD2    H113525   0.696   0.580  16.080  0.6765 -0.3617 -0.2528
  924MPD2    H213526   0.627   0.235  15.851  2.0318  1.0115 -0.7558
  924MPD2    H313527   0.685   0.474  15.869 -1.9634  0.5737  1.3280
  924MPD2     N13528   0.649   0.489  16.314 -0.5911 -0.4332 -0.3979
  924MPD2    H513529   0.663   0.588  16.300  1.6602 -0.5584  0.8214
  924MPD2    N113530   0.567   0.077  16.061  0.1553 -0.3036 -0.1077
  924MPD2    H713531   0.549   0.043  15.967 -0.1510  1.2361 -0.6050
  925MPD2     C13532   3.711   2.318  14.655 -0.0306  0.2949  0.6630
  925MPD2    C113533   3.758   2.450  14.651  0.0118  0.9410 -0.9628
  925MPD2    C213534   3.840   2.499  14.754 -0.1989  0.2286  0.1310
  925MPD2    C313535   3.878   2.412  14.856 -0.9321  0.0753  0.6181
  925MPD2    C413536   3.842   2.280  14.852 -0.0962 -0.3276  0.1191
  925MPD2    C513537   3.763   2.234  14.749 -0.4443 -0.4503 -0.4934
  925MPD2     H13538   3.884   2.598  14.747  1.0300 -0.3171 -0.0207
  925MPD2    H113539   3.896   2.218  14.923  0.8303  1.4243  0.9561
  925MPD2    H213540   3.648   2.271  14.580 -0.2982  2.5542 -0.5249
  925MPD2    H313541   3.755   2.126  14.745  1.7222 -0.7234  2.4620
  925MPD2     N13542   3.952   2.458  14.966 -0.7811 -0.5485  0.1082
  925MPD2    H513543   3.990   2.389  15.030  2.5058 -0.4097 -1.7352
  925MPD2    N113544   3.709   2.533  14.551 -0.6589 -0.3760 -0.3656
  925MPD2    H713545   3.759   2.616  14.521  1.5243 -1.6297 -0.2602
  926MPD2     C13546   2.618   0.558  13.810  0.3021  0.2357 -0.3175
  926MPD2    C113547   2.545   0.581  13.690 -0.0228 -0.3854 -0.7960
  926MPD2    C213548   2.613   0.616  13.574  0.3664 -0.2027  0.7111
  926MPD2    C313549   2.750   0.643  13.581  0.0433  1.1928  0.4338
  926MPD2    C413550   2.820   0.629  13.703 -0.5095  0.1535 -0.7980
  926MPD2    C513551   2.751   0.574  13.806 -0.2792 -0.1748 -1.4587
  926MPD2     H13552   2.567   0.629  13.476 -0.4523  0.1723  1.1450
  926MPD2    H113553   2.924   0.660  13.711 -1.9727  4.0517  3.1320
  926MPD2    H213554   2.566   0.521  13.897  2.1235 -1.8974 -0.1529
  926MPD2    H313555   2.810   0.551  13.894 -3.0020 -1.2279  0.0897
  926MPD2     N13556   2.823   0.700  13.479 -0.1369 -0.1720 -0.3386
  926MPD2    H513557   2.908   0.751  13.502  0.2983 -0.1324 -2.0212
  926MPD2    N113558   2.402   0.575  13.684 -0.1181  0.0038  0.8541
  926MPD2    H713559   2.366   0.596  13.592  1.9138 -3.1094 -0.6438
  927MPD2     C13560   3.057   4.154   0.228 -0.1610 -0.5224  0.7382
  927MPD2    C113561   2.999   4.051   0.297  0.0361  0.5334  0.0452
  927MPD2    C213562   3.057   3.925   0.286  0.0124 -0.3985  0.1698
  927MPD2    C313563   3.164   3.901   0.198  0.0626 -0.2839  0.0372
  927MPD2    C413564   3.224   4.005   0.132  0.0279  0.0528  0.4931
  927MPD2    C513565   3.168   4.130   0.149 -0.1718 -0.0310 -0.1822
  927MPD2     H13566   3.023   3.828   0.322  0.9735  0.3305  3.0788
  927MPD2    H113567   3.315   4.001   0.073 -0.4470  0.0990 -0.2526
  927MPD2    H213568   3.016   4.254   0.227  0.8200 -0.1419 -0.7481
  927MPD2    H313569   3.226   4.209   0.101  0.2058 -0.4304 -0.3816
  927MPD2     N13570   3.216   3.771   0.198  0.5420 -0.0139 -0.3118
  927MPD2    H513571   3.164   3.715   0.264 -0.7239  1.9233  0.3262
  927MPD2    N113572   2.880   4.065   0.377 -0.4118 -0.1556 -0.7731
  927MPD2    H713573   2.841   4.158   0.394 -0.1123 -0.1229 -0.2601
  928MPD2     C13574   1.218   1.833   1.110  0.1053 -0.0209 -0.1747
  928MPD2    C113575   1.320   1.926   1.096 -0.1521 -0.3778 -0.2890
  928MPD2    C213576   1.332   2.008   0.979  0.0310 -0.2064  0.3017
  928MPD2    C313577   1.257   1.985   0.868 -0.5519 -0.2166 -0.2853
  928MPD2    C413578   1.163   1.875   0.879  0.0684 -0.0634  1.1388
  928MPD2    C513579   1.146   1.797   0.998 -0.0300  0.4823 -0.2039
  928MPD2     H13580   1.392   2.098   0.981 -2.9434  1.8027  0.1750
  928MPD2    H113581   1.095   1.847   0.800  0.8956 -2.0128  1.1131
  928MPD2    H213582   1.199   1.788   1.207 -1.1446 -0.8670 -0.8126
  928MPD2    H313583   1.076   1.714   1.001 -1.5712  1.7715 -0.4710
  928MPD2     N13584   1.268   2.065   0.750 -0.2576  0.1939  0.1270
  928MPD2    H513585   1.193   2.048   0.683 -0.7214  2.1020  0.1518
  928MPD2    N113586   1.399   1.952   1.209  0.2506  0.2424 -0.2156
  928MPD2    H713587   1.389   1.884   1.282 -0.9059 -0.7068 -1.2613
  929MPD2     C13588   0.819   1.117  10.657  0.1100  0.3372 -0.3449
  929MPD2    C113589   0.718   1.037  10.612 -0.2900  0.2689 -1.0379
  929MPD2    C213590   0.637   1.078  10.514  0.4187 -0.0157 -0.4579
  929MPD2    C313591   0.642   1.204  10.456  0.0609 -0.9234  0.5286
  929MPD2    C413592   0.749   1.281  10.497  0.2426  0.1341 -0.3638
  929MPD2    C513593   0.838   1.228  10.585 -0.3838 -0.4148 -0.4866
  929MPD2     H13594   0.554   1.016  10.481 -1.4231  2.2851 -0.1352
  929MPD2    H113595   0.764   1.380  10.456 -0.8391  0.5649  0.2937
  929MPD2    H213596   0.893   1.087  10.729  3.5561 -0.0610 -4.0374
  929MPD2    H313597   0.930   1.281  10.601 -1.8829  2.0675 -0.1836
  929MPD2     N13598   0.548   1.252  10.356  0.2559 -0.1618 -0.2631
  929MPD2    H513599   0.562   1.348  10.324  0.1647  0.5023  1.7024
  929MPD2    N113600   0.711   0.907  10.686  0.4524 -0.1650 -0.3221
  929MPD2    H713601   0.784   0.891  10.755 -1.8237 -1.0148  1.8585
  930MPD2     C13602   1.655   3.873  14.111  0.7125  0.2299 -0.0780
  930MPD2    C113603   1.783   3.840  14.086 -0.4971  0.2818  0.0461
  930MPD2    C213604   1.811   3.713  14.038 -0.6278 -0.0648 -0.1559
  930MPD2    C313605   1.712   3.618  14.031 -0.3846 -0.2417 -0.2112
  930MPD2    C413606   1.588   3.647  14.068 -0.7583  0.4727  0.5676
  930MPD2    C513607   1.555   3.779  14.098 -0.3203 -0.9554 -0.0962
  930MPD2     H13608   1.905   3.686  13.993 -0.7469 -1.0566  0.2005
  930MPD2    H113609   1.509   3.573  14.076 -0.9018  0.4210 -1.5354
  930MPD2    H213610   1.628   3.977  14.121 -1.2852 -0.3507  0.5098
  930MPD2    H313611   1.453   3.813  14.113  0.2397  1.0234 -0.8815
  930MPD2     N13612   1.738   3.488  13.990  0.0498  0.1827  0.2967
  930MPD2    H513613   1.670   3.416  14.012  0.1855  0.6111  2.1589
  930MPD2    N113614   1.884   3.934  14.087  0.4375 -0.5378 -0.1208
  930MPD2    H713615   1.845   4.025  14.108 -0.7140 -0.6600 -1.7578
  931MPD2     C13616   2.584   4.217   1.168 -0.5264 -0.1025 -0.4369
  931MPD2    C113617   2.631   4.105   1.103  0.6233 -0.6666 -0.1158
  931MPD2    C213618   2.712   4.016   1.170 -0.0503 -0.2382  0.3748
  931MPD2    C313619   2.739   4.042   1.305  0.1897  0.1130  0.1666
  931MPD2    C413620   2.692   4.156   1.371  0.0336  0.6224 -0.6198
  931MPD2    C513621   2.617   4.242   1.301  0.3916 -0.6646 -0.5755
  931MPD2     H13622   2.743   3.926   1.118 -0.0598 -0.5350  0.8718
  931MPD2    H113623   2.711   4.169   1.477 -2.8418  2.3891 -0.3285
  931MPD2    H213624   2.531   4.296   1.116 -0.8722  0.7708  1.2764
  931MPD2    H313625   2.600   4.337   1.350  0.5475 -1.0047  0.1425
  931MPD2     N13626   2.813   3.951   1.390  0.3764  0.4158 -0.4702
  931MPD2    H513627   2.813   3.970   1.489  2.2308 -0.6070 -0.2654
  931MPD2    N113628   2.592   4.090   0.963 -0.0487  0.0919 -0.8126
  931MPD2    H713629   2.531   4.165   0.933  1.4268  1.9707  0.7894
  932MPD2     C13630   4.219   2.615  11.361 -0.5582 -0.5892  0.3043
  932MPD2    C113631   4.355   2.627  11.338  0.3019 -0.3271  0.2159
  932MPD2    C213632   4.429   2.515  11.325 -0.3408  0.7167  0.1871
  932MPD2    C313633   4.377   2.388  11.351 -0.2224 -0.2392 -0.3567
  932MPD2    C413634   4.240   2.381  11.373  0.5160 -0.3536 -0.9731
  932MPD2    C513635   4.163   2.490  11.382 -0.2756  0.2708 -0.7285
  932MPD2     H13636   4.537   2.523  11.314 -0.0445 -1.7166  1.4958
  932MPD2    H113637   4.195   2.286  11.400 -0.1419  0.4025  0.6107
  932MPD2    H213638   4.152   2.700  11.364  0.1499 -0.1230  2.6611
  932MPD2    H313639   4.056   2.477  11.397  0.2906 -3.3057  0.1010
  932MPD2     N13640   4.456   2.271  11.343 -0.1591 -0.1002  0.0457
  932MPD2    H513641   4.411   2.186  11.377 -0.1773  0.2652  0.9183
  932MPD2    N113642   4.420   2.751  11.331 -0.2108 -0.2673 -0.6703
  932MPD2    H713643   4.520   2.747  11.316 -0.0552 -1.1668  0.6023
  933MPD2     C13644   1.583   1.902   2.035 -1.1889 -0.7295 -1.0077
  933MPD2    C113645   1.535   1.984   1.935  0.1613 -0.2502 -0.1182
  933MPD2    C213646   1.451   2.090   1.964 -0.6061 -0.4356 -0.2392
  933MPD2    C313647   1.416   2.124   2.089 -0.5029  0.0375 -0.1875
  933MPD2    C413648   1.468   2.049   2.198  0.1406  0.5346 -0.6915
  933MPD2    C513649   1.550   1.938   2.166 -0.5977 -0.1116 -0.2692
  933MPD2     H13650   1.410   2.154   1.887 -0.1577  2.4290  1.8781
  933MPD2    H113651   1.456   2.072   2.303  2.4947  3.0568 -0.9821
  933MPD2    H213652   1.641   1.814   2.009 -0.4644 -1.1162  1.9643
  933MPD2    H313653   1.594   1.888   2.251 -0.8989  0.4625  0.2196
  933MPD2     N13654   1.333   2.236   2.104 -0.7239 -0.2037 -0.2694
  933MPD2    H513655   1.298   2.279   2.020 -0.0848 -1.7878 -1.3443
  933MPD2    N113656   1.572   1.955   1.806  0.5142  0.0185  0.2299
  933MPD2    H713657   1.648   1.891   1.786 -0.7490 -1.5592  0.5202
  934MPD2     C13658   0.961   4.580   1.985  0.6709  0.4126 -0.4403
  934MPD2    C113659   1.091   4.528   1.968 -0.5631 -0.4789  0.0825
  934MPD2    C213660   1.108   4.406   1.893 -0.2213  0.0082 -0.9060
  934MPD2    C313661   0.996   4.350   1.828 -0.0257 -0.6101  0.2532
  934MPD2    C413662   0.872   4.406   1.852  0.1325  0.3955 -0.4348
  934MPD2    C513663   0.852   4.519   1.926 -0.0663 -0.2556  0.0759
  934MPD2     H13664   1.208   4.363   1.886 -0.2027 -0.3489  1.4665
  934MPD2    H113665   0.785   4.350   1.818 -0.2993 -0.3865  1.9525
  934MPD2    H213666   0.947   4.674   2.037 -1.3240 -0.9188  1.4776
  934MPD2    H313667   0.753   4.555   1.950 -0.0680 -0.4580  0.3778
  934MPD2     N13668   0.998   4.238   1.744 -0.0617  0.4621  0.4040
  934MPD2    H513669   0.914   4.207   1.697 -1.0551  1.7732  1.3424
  934MPD2    N113670   1.209   4.594   2.021  0.2238 -1.1402 -0.1858
  934MPD2    H713671   1.300   4.565   1.985  1.3686  0.0476  1.7572
  935MPD2     C13672   1.682   3.574   1.443  0.5108  0.0674  0.3208
  935MPD2    C113673   1.604   3.600   1.337 -0.2873 -0.0727 -0.6797
  935MPD2    C213674   1.479   3.657   1.353 -0.0182  0.0130 -0.3203
  935MPD2    C313675   1.437   3.682   1.484  0.0310 -0.1410  0.3311
  935MPD2    C413676   1.522   3.653   1.592 -0.0519 -0.5102 -0.2030
  935MPD2    C513677   1.639   3.599   1.567  0.3584  1.0156  0.1231
  935MPD2     H13678   1.413   3.674   1.269  2.1564  0.6714 -1.9144
  935MPD2    H113679   1.486   3.679   1.692  0.5556 -1.1220  0.1702
  935MPD2    H213680   1.779   3.528   1.433 -0.6665 -2.1934 -0.8146
  935MPD2    H313681   1.707   3.562   1.644 -1.9927 -1.0644  1.1894
  935MPD2     N13682   1.315   3.756   1.511 -0.0973  0.2207 -0.2577
  935MPD2    H513683   1.311   3.806   1.600 -3.2207 -1.5869  0.6104
  935MPD2    N113684   1.647   3.587   1.197  0.0023  0.2962  0.1221
  935MPD2    H713685   1.572   3.607   1.132  0.0478  1.3455  0.3981
  936MPD2     C13686   0.008   1.439  12.479  0.0607 -0.5244 -0.3202
  936MPD2    C113687   0.068   1.364  12.574  0.3051 -0.6647 -0.1464
  936MPD2    C213688   0.194   1.315  12.555 -0.2688 -0.0451 -0.9612
  936MPD2    C313689   0.261   1.340  12.432 -0.4144 -0.3895  0.7500
  936MPD2    C413690   0.198   1.415  12.341 -0.2079 -0.3040 -0.8689
  936MPD2    C513691   0.075   1.469  12.365  0.7298 -0.7775 -0.5695
  936MPD2     H13692   0.226   1.234  12.619 -0.2917 -0.2922 -1.2586
  936MPD2    H113693   0.257   1.442  12.254 -1.2892  0.9985 -1.1871
  936MPD2    H213694   4.636   1.483  12.501 -0.1919 -0.4362 -1.6316
  936MPD2    H313695   0.028   1.538  12.295  0.2042  1.0726  1.6101
  936MPD2     N13696   0.385   1.281  12.409  0.3983 -0.2851  1.2042
  936MPD2    H513697   0.412   1.280  12.311  1.3334 -1.7355  1.4846
  936MPD2    N113698   0.018   1.317  12.698  1.0333 -0.2976  0.1385
  936MPD2    H713699   0.081   1.262  12.756  1.3305  1.0392  1.0811
  937MPD2     C13700   2.797   2.136  11.716 -0.1882  0.0294  0.2357
  937MPD2    C113701   2.823   2.266  11.687 -0.4232  0.5058  0.9881
  937MPD2    C213702   2.891   2.297  11.575  0.8897  0.0891  0.4887
  937MPD2    C313703   2.954   2.197  11.496 -0.0330  0.6417  0.2223
  937MPD2    C413704   2.943   2.067  11.543 -0.3078 -0.5646  0.4412
  937MPD2    C513705   2.857   2.041  11.647 -0.4679 -0.5708  0.4147
  937MPD2     H13706   2.903   2.399  11.540  1.5555 -0.5330 -1.0745
  937MPD2    H113707   3.002   1.985  11.504 -1.3802 -1.3352  0.4205
  937MPD2    H213708   2.726   2.100  11.789 -0.0659 -0.3270  0.1799
  937MPD2    H313709   2.844   1.935  11.670 -1.0116 -0.7900 -0.9105
  937MPD2     N13710   3.034   2.230  11.394 -0.4797  0.2741  0.2470
  937MPD2    H513711   3.033   2.330  11.375 -1.7486  0.3181  0.5259
  937MPD2    N113712   2.747   2.373  11.740  0.0242 -0.2626  0.4419
  937MPD2    H713713   2.749   2.458  11.685  2.2810 -0.7839 -0.2801
  938MPD2     C13714   0.703   3.435   1.002 -0.3373  0.3009  0.8690
  938MPD2    C113715   0.747   3.553   1.063 -0.1369 -0.3875 -0.6908
  938MPD2    C213716   0.735   3.557   1.202  0.5527 -0.1422  0.0697
  938MPD2    C313717   0.673   3.463   1.280 -0.5562  0.0420 -0.0063
  938MPD2    C413718   0.628   3.356   1.215 -0.2097  0.5475  0.6817
  938MPD2    C513719   0.645   3.338   1.078 -0.0209 -0.6826 -0.2406
  938MPD2     H13720   0.765   3.650   1.250 -0.1548  0.2534 -0.2621
  938MPD2    H113721   0.589   3.271   1.270 -1.2740  0.6977  0.1785
  938MPD2    H213722   0.707   3.426   0.894 -0.9106 -0.9308  0.9476
  938MPD2    H313723   0.600   3.257   1.023 -0.8577 -1.5485  1.7087
  938MPD2     N13724   0.643   3.481   1.419  0.1458  0.3811 -0.3491
  938MPD2    H513725   0.626   3.395   1.470  0.8629 -0.4851 -1.5449
  938MPD2    N113726   0.781   3.671   0.981 -0.4842 -0.1263  0.1276
  938MPD2    H713727   0.802   3.759   1.026  0.7998 -0.9114  1.0588
  939MPD2     C13728   2.002   0.539   1.091  0.2914  0.1268  0.0409
  939MPD2    C113729   1.961   0.574   0.962  0.6139 -0.0638  0.2442
  939MPD2    C213730   2.057   0.563   0.866 -0.2352 -0.6075 -0.0656
  939MPD2    C313731   2.186   0.512   0.893 -0.7516  0.3718 -0.1631
  939MPD2    C413732   2.224   0.485   1.017 -0.9830 -0.1703  0.3973
  939MPD2    C513733   2.129   0.498   1.117 -0.0784  0.0598  0.6409
  939MPD2     H13734   2.037   0.592   0.763  1.7710 -0.3330 -0.3694
  939MPD2    H113735   2.330   0.471   1.029 -0.9926 -1.0409 -0.5278
  939MPD2    H213736   1.930   0.560   1.169  1.0177 -1.7655  1.2143
  939MPD2    H313737   2.161   0.489   1.220  1.3791  0.7602  0.2553
  939MPD2     N13738   2.270   0.499   0.776  0.1880 -0.0029  0.3370
  939MPD2    H513739   2.234   0.526   0.685  1.3845  2.0162  0.4759
  939MPD2    N113740   1.827   0.614   0.944  0.3552  0.5321  0.1740
  939MPD2    H713741   1.784   0.633   1.034 -0.3806  2.0315 -0.5060
  940MPD2     C13742   0.001   0.439  13.281 -0.3307 -0.3735  0.1180
  940MPD2    C113743   0.120   0.447  13.352 -0.9942 -0.4654  0.0869
  940MPD2    C213744   0.237   0.409  13.285  0.4720 -0.3075  0.3131
  940MPD2    C313745   0.226   0.357  13.155  0.7916 -0.8956 -0.1567
  940MPD2    C413746   0.104   0.351  13.092 -0.7462  0.1639  0.1606
  940MPD2    C513747   4.718   0.396  13.154 -0.1817 -0.0105 -0.2826
  940MPD2     H13748   0.325   0.417  13.347 -0.9756  1.3145  2.1545
  940MPD2    H113749   0.090   0.316  12.990 -0.0639 -1.3662  0.5926
  940MPD2    H213750   4.630   0.466  13.325  0.0777 -1.3005  1.5658
  940MPD2    H313751   4.620   0.386  13.110  0.6796  0.1770 -2.2339
  940MPD2     N13752   0.348   0.319  13.087  0.3283  0.0768 -0.2878
  940MPD2    H513753   0.354   0.303  12.987  1.6159 -0.3734 -0.1316
  940MPD2    N113754   0.140   0.505  13.481 -0.1901 -0.0584 -0.7245
  940MPD2    H713755   0.225   0.488  13.534  0.7226 -2.3970 -2.9910
  941MPD2     C13756   4.628   4.362   8.999 -0.2798  0.5766  0.2617
  941MPD2    C113757   4.694   4.323   9.119  0.4537 -0.0232 -0.6315
  941MPD2    C213758   4.708   4.187   9.138 -0.1769  0.4039  0.0958
  941MPD2    C313759   4.671   4.089   9.043  0.5201  0.4248 -0.0280
  941MPD2    C413760   4.602   4.128   8.934  0.8608  0.0504 -0.3623
  941MPD2    C513761   4.580   4.262   8.916 -0.6196 -0.2859 -0.7286
  941MPD2     H13762   0.015   4.159   9.238 -0.4558 -0.2974 -0.0144
  941MPD2    H113763   4.546   4.060   8.870  0.7213 -0.2192  0.0389
  941MPD2    H213764   4.612   4.466   8.974 -1.9106 -0.0537 -1.3322
  941MPD2    H313765   4.516   4.290   8.834 -1.3986  0.1808  0.0419
  941MPD2     N13766   4.683   3.953   9.067  0.2048  0.4424  0.5736
  941MPD2    H513767   4.645   3.890   8.997  2.2853  0.7678 -0.8308
  941MPD2    N113768   0.013   4.417   9.217 -0.0287 -0.1374  0.1177
  941MPD2    H713769   0.060   4.379   9.298  1.6247  0.7219 -0.4419
  942MPD2     C13770   3.522   1.737   9.424  0.2302 -0.1426 -0.4805
  942MPD2    C113771   3.477   1.605   9.447  0.3087  0.0752 -0.2486
  942MPD2    C213772   3.572   1.506   9.470  0.0293  0.1515 -0.0332
  942MPD2    C313773   3.698   1.537   9.479 -0.1991 -0.1855 -0.8259
  942MPD2    C413774   3.740   1.669   9.453  0.3851  0.0540  0.6165
  942MPD2    C513775   3.651   1.770   9.425 -0.1488  1.1930 -0.1439
  942MPD2     H13776   3.533   1.411   9.503 -1.1074  1.7354  3.1268
  942MPD2    H113777   3.843   1.702   9.464  0.2442  0.7229 -0.0521
  942MPD2    H213778   3.450   1.816   9.403  1.7988  1.1185 -1.1044
  942MPD2    H313779   3.692   1.870   9.416 -2.0518  1.9928  0.0186
  942MPD2     N13780   3.796   1.444   9.523 -0.6931  0.4578 -0.2251
  942MPD2    H513781   3.888   1.480   9.546 -1.4392  3.4315 -1.9003
  942MPD2    N113782   3.338   1.570   9.483  0.0271 -0.3710 -0.6345
  942MPD2    H713783   3.317   1.479   9.524  1.9099 -0.0748  0.9761
  943MPD2     C13784   3.062   0.373   9.589 -0.3733  0.5804  0.1068
  943MPD2    C113785   3.010   0.249   9.630 -0.0830  0.0460  0.0568
  943MPD2    C213786   3.085   0.166   9.709  0.6736  0.3087 -0.1118
  943MPD2    C313787   3.213   0.208   9.750 -0.5608  0.4157  0.3466
  943MPD2    C413788   3.260   0.334   9.715  0.1417  0.4187 -0.3088
  943MPD2    C513789   3.184   0.417   9.640 -0.6792  0.7379 -0.2456
  943MPD2     H13790   3.057   0.061   9.713 -1.3797  0.8597  0.2725
  943MPD2    H113791   3.353   0.369   9.757 -0.2321 -0.7098  1.4619
  943MPD2    H213792   3.003   0.442   9.530 -0.5807 -0.9289 -1.4686
  943MPD2    H313793   3.223   0.514   9.612  2.4652 -0.6817 -0.8091
  943MPD2     N13794   3.306   0.118   9.811  0.5620  0.3671  0.0967
  943MPD2    H513795   3.393   0.159   9.844 -0.1380  1.7055  0.2662
  943MPD2    N113796   2.881   0.216   9.589 -0.4655  0.0019 -0.1673
  943MPD2    H713797   2.829   0.269   9.519 -2.1087  1.1067  1.8911
  944MPD2     C13798   3.166   3.308  11.502 -0.9764  0.3625  0.2103
  944MPD2    C113799   3.243   3.423  11.494 -0.1589  0.2545  0.6916
  944MPD2    C213800   3.196   3.539  11.532  0.2129 -0.9761  0.0775
  944MPD2    C313801   3.065   3.552  11.584  1.1343  0.5483  0.1070
  944MPD2    C413802   2.990   3.437  11.585  0.6257  0.2175 -0.4482
  944MPD2    C513803   3.040   3.316  11.550 -0.4646  0.7825 -0.3319
  944MPD2     H13804   3.255   3.630  11.523 -2.1083  0.6571  1.3435
  944MPD2    H113805   2.884   3.438  11.608  0.5678  0.4616 -0.7252
  944MPD2    H213806   3.190   3.208  11.468 -1.5433  1.6249 -3.9333
  944MPD2    H313807   2.981   3.226  11.557 -0.4040  0.5800 -2.5951
  944MPD2     N13808   3.011   3.678  11.610  0.0763 -0.1859  0.2668
  944MPD2    H513809   3.081   3.751  11.614 -0.0240 -0.2029  2.2286
  944MPD2    N113810   3.369   3.411  11.426 -0.0131  0.6621 -0.0705
  944MPD2    H713811   3.388   3.319  11.386  2.7811 -0.0949  2.9496
    1TCq1    O113812   1.163   4.669  14.552  0.2354 -0.4926  0.3107
    1TCq1    C113813   1.231   4.555  14.539 -0.3147  0.1632  0.1275
    1TCq1    O213814   1.186   4.445  14.537  0.1269 -0.0449 -0.4690
    1TCq1    C213815   1.365   4.573  14.593 -1.1642  0.3751 -0.5500
    1TCq1    C313816   1.463   4.489  14.562 -0.0132  0.3359 -0.2936
    1TCq1    C413817   1.574   4.494  14.639  1.1964 -0.0876 -0.0874
    1TCq1    C513818   1.593   4.589  14.731 -0.5307 -0.5898  0.1051
    1TCq1    C613819   1.494   4.682  14.752 -0.2960  0.3593 -0.1233
    1TCq1    C713820   1.379   4.673  14.685 -0.1671 -0.0730  0.1526
    1TCq1    C813821   1.508   0.056  14.858 -0.5118 -0.0217  0.2766
    1TCq1    O413822   1.620   0.047  14.907 -0.4816 -0.7314 -0.5524
    1TCq1    C913823   1.670   4.386  14.629 -0.9037 -0.0333 -0.1236
    1TCq1    O513824   1.743   4.372  14.730  0.0374 -0.2397 -0.7126
    1TCq1    O613825   1.640   4.284  14.569  0.6602 -0.5629  0.2559
    1TCq1    H113826   1.216   0.026  14.558 -0.1540 -0.1196 -1.2132
    1TCq1    H213827   1.445   4.407  14.494  0.5640 -0.0211 -0.0215
    1TCq1    H313828   1.678   4.582  14.799 -0.2941  2.6411  0.1540
    1TCq1    H413829   1.297   4.719  14.739  0.6954  1.5394  0.0974
    2MPD2     C13830   1.395   0.506  15.075  0.5983  0.6007 -0.4399
    2MPD2    C113831   1.313   0.497  14.968 -0.8663  0.3790 -0.1295
    2MPD2    C213832   1.323   0.380  14.895 -0.0991 -0.1114  0.2323
    2MPD2    C313833   1.418   0.286  14.927  0.6648  0.1975  0.7922
    2MPD2    C413834   1.491   0.293  15.045 -0.1561  0.2098  0.2477
    2MPD2    C513835   1.481   0.408  15.122  0.0272  0.0594 -0.1719
    2MPD2     H13836   1.265   0.371  14.804 -0.3369  0.6035  0.3122
    2MPD2    H113837   1.568   0.218  15.059  0.7997  1.4883  1.9449
    2MPD2    H213838   1.380   0.597  15.132 -1.9457  0.5260 -0.9736
    2MPD2    H313839   1.547   0.431  15.205  0.1270 -2.3362  0.3984
    2MPD2     N13840   1.424   0.167  14.848  0.1996  0.0859 -0.2252
    2MPD2    H513841   1.346   0.157  14.784 -0.1966  2.4698 -0.1011
    2MPD2    N113842   1.220   0.599  14.934  0.2365 -0.1949 -0.0781
    2MPD2    H713843   1.226   0.683  14.991 -1.2752 -0.8708  1.0807
    3TMC2    C113844   1.047   0.720  14.827 -0.8915 -0.6808  0.4216
    3TMC2    C213845   0.996   0.765  14.943  0.5187 -0.5084  0.1654
    3TMC2    C313846   0.896   0.857  14.948 -0.1325  0.0570 -0.1361
    3TMC2    C413847   0.988   0.756  14.711  0.3044  0.1759 -0.0408
    3TMC2    C513848   0.872   0.832  14.716 -0.3516 -0.5985  0.1711
    3TMC2    C613849   0.827   0.887  14.832 -0.1739 -0.1348 -0.5511
    3TMC2     C13850   1.132   0.598  14.826 -0.0136  0.0252 -0.4632
    3TMC2     O13851   1.109   0.505  14.749 -0.3293 -0.1487 -0.0467
    3TMC2     H13852   1.048   0.731  15.033  0.2577 -0.2385  0.4158
    3TMC2    H113853   1.018   0.720  14.613 -1.1958 -0.4842 -0.2602
    3TMC2    H213854   0.742   0.953  14.844 -1.6983 -1.6161 -3.3635
    3TMC2    C713855   0.822   0.873  14.586  0.2991 -0.5427  0.4581
    3TMC2    C813856   0.817   0.891  15.065  0.1842 -0.0932 -0.5202
    3TMC2    O113857   0.903   0.852  14.491 -0.3937  0.0808 -0.3432
    3TMC2    O213858   0.703   0.935  15.074  0.1962 -0.2361 -0.1666
    3TMC2    O513859   0.912   0.882  15.163  0.1692  0.3154  0.1588
    3TMC2    H513860   1.005   0.871  15.133  0.6202  1.1641  1.2336
    4MPD2     C13861   4.463   1.447  13.801 -1.1543 -0.2564  0.1197
    4MPD2    C113862   4.597   1.475  13.827  0.0037 -0.1158 -0.0532
    4MPD2    C213863   4.641   1.487  13.957  0.2989 -0.1924  0.0841
    4MPD2    C313864   4.552   1.472  14.063 -1.0401 -0.4195  0.2995
    4MPD2    C413865   4.422   1.447  14.033  0.7439  0.0079  0.4471
    4MPD2    C513866   4.383   1.432  13.906 -0.0449  0.3133 -0.1142
    4MPD2     H13867   0.019   1.516  13.975  0.0469  1.0137 -0.3867
    4MPD2    H113868   4.353   1.450  14.116  2.2910 -0.2903  1.7483
    4MPD2    H213869   4.415   1.444  13.704  2.3679  0.9189 -1.6807
    4MPD2    H313870   4.280   1.412  13.877  0.1522  1.9927 -1.9380
    4MPD2     N13871   4.597   1.466  14.198  0.4952 -0.2365  0.5231
    4MPD2    H513872   4.522   1.442  14.261  2.2979  3.2525  3.9672
    4MPD2    N113873   4.687   1.489  13.714 -0.0155  0.0071 -0.0081
    4MPD2    H713874   4.641   1.460  13.629  0.0334  1.4313 -0.5319
    5TCq2    C113875   0.005   1.476  14.242 -0.0132 -0.5817 -0.0478
    5TCq2    O213876   0.105   1.496  14.174  0.3112  0.4259  0.3171
    5TCq2    C213877   0.019   1.440  14.381  0.2559 -0.0694 -0.7743
    5TCq2    C313878   4.691   1.523  14.476  0.0763 -0.6081  0.0479
    5TCq2    C413879   0.029   1.527  14.603 -0.0920 -0.0047 -0.1680
    5TCq2    C513880   0.147   1.457  14.626  0.2948  0.0704 -0.0432
    5TCq2    C613881   0.208   1.392  14.521 -0.1707  0.3929 -0.2297
    5TCq2    C713882   0.145   1.388  14.401  0.1413 -0.2013 -0.3483
    5TCq2    C813883   0.323   1.313  14.546 -0.4072  0.0073  0.1249
    5TCq2    O413884   0.335   1.269  14.663 -0.3012 -0.1546  0.1276
    5TCq2    C913885   4.700   1.594  14.717 -0.3239 -0.3721 -0.0790
    5TCq2    O513886   0.058   1.640  14.792  0.4371  1.1934 -0.0211
    5TCq2    O613887   4.578   1.604  14.728 -0.0821 -0.0549 -0.5136
    5TCq2    H213888   4.591   1.564  14.483  0.3842  0.3083 -0.7912
    5TCq2    H313889   0.199   1.458  14.721 -0.2071  0.2776  0.2323
    5TCq2    H413890   0.197   1.347  14.315  2.5762  0.3354  0.8697
    6MPD1     C13891   1.174   1.791  12.227  0.2419 -0.3392 -0.4322
    6MPD1    C113892   1.055   1.854  12.219  0.1243  1.5433  0.5361
    6MPD1    C213893   0.947   1.790  12.273  0.3539  0.7386  0.4340
    6MPD1    C313894   0.953   1.675  12.343 -0.3871  0.1247 -0.5512
    6MPD1    C413895   1.069   1.601  12.333  0.4279  0.0069 -0.7684
    6MPD1    C513896   1.174   1.662  12.272  0.0289  0.2713 -0.4295
    6MPD1     H13897   0.853   1.844  12.277  1.7772  3.2149  0.3999
    6MPD1    H113898   1.076   1.501  12.375 -1.5001  0.2165  0.0824
    6MPD1    H213899   1.261   1.834  12.179  0.7420  0.0999  0.8680
    6MPD1    H313900   1.268   1.608  12.268  0.3903  0.8808 -0.2132
    6MPD1     N13901   0.842   1.617  12.409 -0.6047 -0.6416  0.3952
    6MPD1    H513902   0.861   1.525  12.448  1.5157 -2.0046 -3.7440
    6MPD1    N113903   1.046   1.984  12.177 -0.0025 -0.4669 -0.1694
    6MPD1    H613904   0.954   2.006  12.140  0.3012  1.8765  0.4326
    6MPD1    H713905   1.107   2.005  12.098 -2.6361 -1.7346 -2.5487
    7MPD2     C13906   0.073   1.738  12.861 -0.4665 -0.3867 -0.7927
    7MPD2    C113907   0.147   1.624  12.880 -0.4275  0.6419  0.1890
    7MPD2    C213908   0.138   1.550  12.991 -0.0632 -0.1854 -0.0209
    7MPD2    C313909   0.049   1.582  13.087  0.0175 -0.1638 -0.3141
    7MPD2    C413910   4.681   1.678  13.056  0.2277  0.5643 -0.7102
    7MPD2    C513911   4.694   1.754  12.943 -0.7017 -0.4612 -0.0954
    7MPD2     H13912   0.201   1.462  12.987  2.5736  1.6143  2.2296
    7MPD2    H113913   4.599   1.704  13.122  2.3021  0.2761  1.9826
    7MPD2    H213914   0.091   1.808  12.781  0.9958 -1.0482 -1.0413
    7MPD2    H313915   4.634   1.843  12.928  1.3847  0.9971  0.1900
    7MPD2     N13916   0.042   1.515  13.216 -0.4207 -0.4678  0.3336
    7MPD2    H513917   4.687   1.540  13.273 -0.1964 -0.4200  0.6273
    7MPD2    N113918   0.256   1.589  12.793 -0.7064  0.2328  0.1025
    7MPD2    H713919   0.303   1.502  12.817  1.4525  1.5000  0.4474
    8TMC3    C113920   0.117   1.388  13.400 -0.2909  0.0079  0.5300
    8TMC3    C213921   0.086   1.490  13.483  0.2898  0.6098 -0.3160
    8TMC3    C313922   0.160   1.493  13.594 -0.3052 -0.7438 -0.0171
    8TMC3    C413923   0.217   1.298  13.422 -0.1662  0.8659 -0.5739
    8TMC3    C513924   0.288   1.316  13.535 -0.9332  0.0893  0.4475
    8TMC3    C613925   0.266   1.416  13.624 -0.6201 -0.4618 -0.1316
    8TMC3     C13926   0.130   1.425  13.261 -0.1807  1.0619  0.1119
    8TMC3     O13927   0.221   1.377  13.201  0.2192  0.6430  0.4196
    8TMC3     H13928   4.725   1.551  13.458  2.0161  2.7926 -0.9150
    8TMC3    H113929   0.229   1.211  13.359  1.0710  1.8489 -1.6943
    8TMC3    H213930   0.325   1.432  13.714  0.2933  1.0628 -1.0025
    8TMC3    C713931   0.429   1.308  13.516 -0.0555 -0.3092 -0.3173
    8TMC3    C813932   0.094   1.536  13.720 -0.2280 -0.1715 -0.2796
    8TMC3    O113933   0.513   1.300  13.606 -0.4832  0.2909  0.4799
    8TMC3    O213934   0.157   1.590  13.811 -0.1806 -0.2889 -0.1506
    9TMC3    C113935   0.657   1.604  12.544  0.3584  0.2369  0.8898
    9TMC3    C213936   0.722   1.546  12.649  0.2557 -0.1847  0.0373
    9TMC3    C313937   0.649   1.522  12.762 -0.2314 -0.9437  0.8467
    9TMC3    C413938   0.524   1.639  12.556 -0.5005 -0.1002 -0.5075
    9TMC3    C513939   0.456   1.611  12.672  0.1648  0.1347  0.0063
    9TMC3    C613940   0.518   1.555  12.776 -0.1788  0.3565  0.0286
    9TMC3     C13941   0.732   1.685  12.454 -0.1379 -0.2045  0.0641
    9TMC3     O13942   0.682   1.789  12.425  0.0065 -0.2877  0.0938
    9TMC3     H13943   0.826   1.518  12.642 -0.1893 -1.7294 -0.4372
    9TMC3    H113944   0.471   1.678  12.470 -1.2869 -0.1427 -0.0441
    9TMC3    H213945   0.473   1.565  12.874  1.0780  0.7707  0.5581
    9TMC3    C713946   0.318   1.656  12.690 -0.1260  0.2263 -0.0714
    9TMC3    C813947   0.721   1.463  12.873  0.2864 -0.3630  0.1280
    9TMC3    O113948   0.285   1.762  12.634  0.1129  0.1892  0.0186
    9TMC3    O213949   0.842   1.455  12.862  0.3598  0.1856 -0.3127
   10MPD2     C13950   0.687   1.308  13.370 -0.5822 -0.2903 -0.8893
   10MPD2    C113951   0.562   1.321  13.310  0.1685 -0.8881  0.7248
   10MPD2    C213952   0.546   1.346  13.176 -0.1163 -0.0226 -0.6849
   10MPD2    C313953   0.656   1.356  13.091 -0.6351 -0.3067 -0.3556
   10MPD2    C413954   0.783   1.339  13.148  1.1468 -0.1665  0.0400
   10MPD2    C513955   0.793   1.317  13.281 -0.1154  0.2860  0.1962
   10MPD2     H13956   0.447   1.367  13.137 -0.2475  0.4343 -0.1089
   10MPD2    H113957   0.870   1.358  13.086  1.3243  0.3154  0.4374
   10MPD2    H213958   0.700   1.288  13.476  3.6612  0.2401 -1.3129
   10MPD2    H313959   0.891   1.300  13.325 -0.2750  0.9407  0.8083
   10MPD2     N13960   0.628   1.406  12.963  0.4875  0.1292 -0.3877
   10MPD2    H513961   0.531   1.404  12.936  0.1752  3.0253  0.5428
   10MPD2    N113962   0.446   1.304  13.381 -0.1269  0.1853  0.0265
   10MPD2    H713963   0.361   1.306  13.326 -0.6607 -0.9049  0.8171
   11MPD2     C13964   0.734   1.050  14.374  0.0943  0.8390  0.2749
   11MPD2    C113965   0.659   1.028  14.493  0.0396  0.2991  0.8625
   11MPD2    C213966   0.540   1.101  14.511 -0.7874  0.2935 -0.2060
   11MPD2    C313967   0.502   1.201  14.420 -0.1801 -0.3553  0.1682
   11MPD2    C413968   0.573   1.211  14.294 -0.9463  0.1010  0.0164
   11MPD2    C513969   0.688   1.133  14.278  0.9296 -0.4505 -0.5052
   11MPD2     H13970   0.475   1.090  14.597  0.0752  0.9432  0.5357
   11MPD2    H113971   0.542   1.287  14.223 -2.7475 -0.2114  0.4722
   11MPD2    H213972   0.827   0.999  14.355  0.8241  2.3852 -0.3578
   11MPD2    H313973   0.744   1.142  14.185 -0.5451  2.0010 -1.1562
   11MPD2     N13974   0.396   1.287  14.433  0.2285  1.1015  0.1853
   11MPD2    H513975   0.387   1.355  14.358 -4.0812  0.5798  0.2071
   11MPD2    N113976   0.705   0.942  14.594  0.1231  0.0377  0.0918
   11MPD2    H713977   0.656   0.931  14.682  0.2061 -1.1975 -0.0185
    1MPD1     C13978   3.478   2.452  17.214 -0.2242  0.0525  0.0700
    1MPD1    C113979   3.464   2.487  17.075 -0.3298  0.1251 -0.0287
    1MPD1    C213980   3.559   2.567  17.019  0.5061  0.0359 -0.7500
    1MPD1    C313981   3.679   2.593  17.081  0.3646  0.1131 -0.2154
    1MPD1    C413982   3.697   2.552  17.214  0.3728  0.3740 -0.9277
    1MPD1    C513983   3.597   2.488  17.277  0.5185  0.0011 -0.5883
    1MPD1     H13984   3.553   2.585  16.913 -0.6544 -0.6741 -0.8166
    1MPD1    H113985   3.790   2.562  17.267 -1.4932 -0.3438  2.4836
    1MPD1    H213986   3.400   2.393  17.261  0.5248 -1.4829 -0.6088
    1MPD1    H313987   3.608   2.445  17.376 -1.9552  0.8635  0.0513
    1MPD1     N13988   3.787   2.658  17.020  0.6366  0.0896 -0.4459
    1MPD1    H513989   3.864   2.679  17.082 -2.4269 -0.7045  3.6408
    1MPD1    N113990   3.341   2.466  17.012  0.5431  0.2018 -0.0818
    1MPD1    H613991   3.347   2.451  16.911 -0.3338 -1.5327  0.1355
    1MPD1    H713992   3.306   2.384  17.061 -0.0244 -0.3661 -1.4457
    2MPD1     C13993   4.479   3.214  17.349 -0.1469 -0.4301 -0.3422
    2MPD1    C113994   4.494   3.264  17.222 -0.7624  0.0475 -0.6026
    2MPD1    C213995   4.415   3.198  17.127  0.3492 -0.1535 -0.0529
    2MPD1    C313996   4.348   3.085  17.154 -0.3437 -0.7497  0.4711
    2MPD1    C413997   4.336   3.036  17.284 -0.4585 -0.1089  0.1788
    2MPD1    C513998   4.399   3.105  17.379  0.4095 -0.4055  0.0400
    2MPD1     H13999   4.406   3.241  17.028 -0.5345  1.3497  0.6841
    2MPD1    H114000   4.289   2.943  17.312  0.9498 -1.3733 -1.6804
    2MPD1    H214001   4.529   3.271  17.427 -1.9906  1.4044 -0.5223
    2MPD1    H314002   4.417   3.059  17.475  2.8217  0.4641  0.0197
    2MPD1     N14003   4.285   3.022  17.042 -0.3534  0.1607  0.4596
    2MPD1    H514004   4.301   3.061  16.950  0.1148  0.8140  0.8220
    2MPD1    N114005   4.552   3.391  17.208 -0.1921  0.7480  1.3000
    2MPD1    H614006   4.589   3.405  17.114 -2.1446 -0.7154  0.3266
    2MPD1    H714007   4.636   3.402  17.265  0.1995  0.9375  0.6939
    3TMC3    C114008   4.118   2.877  16.941 -0.1710 -0.2377 -0.3931
    3TMC3    C214009   4.179   2.843  16.821  1.0545  0.0206  0.2151
    3TMC3    C314010   4.105   2.791  16.721  0.7542 -0.2007 -0.8573
    3TMC3    C414011   3.983   2.844  16.964  0.0050  0.2070  0.2636
    3TMC3    C514012   3.921   2.777  16.860  0.1070  0.0747 -0.0807
    3TMC3    C614013   3.975   2.760  16.737 -0.3584  0.2393  0.0660
    3TMC3     C14014   4.181   2.932  17.063 -0.0982 -0.2805  0.0592
    3TMC3     O14015   4.133   2.891  17.169  0.2350 -0.0621  0.2836
    3TMC3     H14016   4.287   2.848  16.821  1.1173 -1.2517  3.0395
    3TMC3    H114017   3.937   2.855  17.061  0.7592  0.3135  0.6069
    3TMC3    H214018   3.926   2.687  16.673 -0.1963  0.3056 -0.1305
    3TMC3    C714019   3.804   2.688  16.884  0.1577 -0.5287 -0.3661
    3TMC3    C814020   4.140   2.823  16.581 -0.0454 -0.1265  0.4192
    3TMC3    O114021   3.744   2.635  16.788  0.2884  0.5631 -0.0933
    3TMC3    O214022   4.061   2.776  16.498  0.5347 -0.0310 -0.0519
    4MPD1     C14023   4.429   2.994  16.198 -0.4609 -0.8850 -0.6154
    4MPD1    C114024   4.507   2.970  16.307  0.4923  0.1304  0.5340
    4MPD1    C214025   4.457   2.933  16.429  0.0839  0.2445  0.0991
    4MPD1    C314026   4.318   2.913  16.438 -0.8209 -0.0373  0.3288
    4MPD1    C414027   4.239   2.929  16.323  0.2744 -0.0683  0.4680
    4MPD1    C514028   4.297   2.966  16.205 -0.6244  0.1711  0.6008
    4MPD1     H14029   4.521   2.924  16.516 -0.8645 -0.3319  0.7333
    4MPD1    H114030   4.132   2.916  16.335 -0.2047  2.7771 -0.6821
    4MPD1    H214031   4.474   3.019  16.102  1.6810  0.5964  0.7702
    4MPD1    H314032   4.225   2.993  16.129 -1.2783  2.9939  2.2536
    4MPD1     N14033   4.261   2.883  16.564  0.2298 -0.5443 -0.4256
    4MPD1    H514034   4.330   2.886  16.638  1.1842 -1.6323 -1.2695
    4MPD1    N114035   4.636   3.033  16.306 -0.2226  0.2470 -0.0885
    4MPD1    H614036   4.693   2.975  16.367 -0.7606 -1.1533 -0.9276
    4MPD1    H714037   4.671   3.033  16.210  0.3606 -0.4822  0.1243
    1TCq1    O114038   1.079   1.651  11.774 -0.4337 -0.1877  0.2765
    1TCq1    C114039   1.119   1.657  11.905 -0.4392  0.5650 -0.3761
    1TCq1    O214040   1.236   1.638  11.938  0.0784 -0.5322  0.5127
    1TCq1    C214041   1.016   1.583  11.977  0.2210 -0.8442  0.6970
    1TCq1    C314042   0.888   1.635  11.974 -0.3143 -0.0456  0.0466
    1TCq1    C414043   0.790   1.557  12.024  0.6552  0.6203  0.3216
    1TCq1    C514044   0.826   1.443  12.091 -0.2140 -0.8634 -0.0082
    1TCq1    C614045   0.954   1.400  12.091  0.1176 -0.6188  0.2633
    1TCq1    C714046   1.058   1.470  12.039  0.3479  0.4098  0.1777
    1TCq1    C814047   0.982   1.270  12.155 -0.5402  0.0732 -0.3413
    1TCq1    O414048   1.101   1.247  12.158 -0.7534  0.1477 -0.4569
    1TCq1    C914049   0.652   1.601  12.035 -0.0213 -0.1673  0.0462
    1TCq1    O514050   0.622   1.716  11.974 -0.2903 -0.4312 -0.0429
    1TCq1    O614051   0.573   1.503  12.038  0.0765 -0.2162  0.4335
    1TCq1    H114052   0.984   1.670  11.758  0.4659  2.9892 -1.3620
    1TCq1    H214053   0.866   1.714  11.903 -0.1088 -0.6899 -0.7354
    1TCq1    H314054   0.749   1.389  12.145 -0.8946  0.2180  0.0918
    1TCq1    H414055   1.160   1.434  12.046  0.6210  0.7013 -2.4013
    2MPD1     C14056   0.870   0.789  12.296  0.4136 -0.5240  0.2512
    2MPD1    C114057   0.757   0.850  12.248  0.0815 -0.3150  0.7582
    2MPD1    C214058   0.765   0.981  12.204 -0.3989  0.5931 -0.3990
    2MPD1    C314059   0.879   1.059  12.220 -0.3824 -0.0475 -0.1210
    2MPD1    C414060   0.986   0.994  12.274 -0.5272  0.2630  0.1697
    2MPD1    C514061   0.983   0.864  12.313  0.4447  0.5976  0.0331
    2MPD1     H14062   0.682   1.024  12.150  0.3026  1.7716 -0.5307
    2MPD1    H114063   1.074   1.054  12.291 -0.9452  1.3597 -1.6826
    2MPD1    H214064   0.882   0.686  12.329 -1.5133 -0.8155  0.0532
    2MPD1    H314065   1.071   0.809  12.345  1.1982  2.4527  1.1178
    2MPD1     N14066   0.874   1.190  12.178  0.1434 -0.0029 -0.0613
    2MPD1    H514067   0.779   1.217  12.153 -1.0948  0.3148  4.9451
    2MPD1    N114068   0.648   0.773  12.215 -0.9052 -0.4130  0.5971
    2MPD1    H614069   0.558   0.820  12.210 -0.3282  0.8854  2.1564
    2MPD1    H714070   0.645   0.689  12.272  1.1776  0.6300  2.2947
    1TCq1    O114071   4.124   3.786   0.983 -0.6896  0.2291 -0.1481
    1TCq1    C114072   4.022   3.793   1.065 -0.0871  0.3911  0.6401
    1TCq1    O214073   3.904   3.780   1.035 -0.0716 -0.1544  0.5952
    1TCq1    C214074   4.054   3.863   1.187 -1.0466 -0.9239 -1.1541
    1TCq1    C314075   3.940   3.873   1.273  0.0887 -0.2854 -0.3301
    1TCq1    C414076   3.925   3.988   1.348 -0.2393 -0.2217  0.0448
    1TCq1    C514077   4.033   4.073   1.366 -0.5235 -0.5378 -0.1619
    1TCq1    C614078   4.143   4.065   1.282  0.1848 -0.8980 -0.2112
    1TCq1    C714079   4.149   3.966   1.187  0.1607 -0.4696 -1.2650
    1TCq1    C814080   4.267   4.118   1.333  0.6280  0.0076  0.2793
    1TCq1    O414081   4.369   4.077   1.278  0.3642 -0.4776 -0.3689
    1TCq1    C914082   3.820   3.991   1.448  0.5730 -0.2326 -0.8311
    1TCq1    O514083   3.717   3.922   1.419 -0.1172  0.0924  0.6351
    1TCq1    O614084   3.823   4.092   1.526 -0.2608 -0.0335 -0.5243
    1TCq1    H114085   4.208   3.799   1.032 -1.3343 -2.8184  1.7339
    1TCq1    H214086   3.855   3.806   1.263  1.3857 -1.5564 -3.0000
    1TCq1    H314087   4.034   4.132   1.456 -1.2569  0.6542 -0.9365
    1TCq1    H414088   4.217   3.981   1.104 -0.5342  1.9660 -1.3997
    2MPD1     C14089   4.525   4.503   1.543  0.9868 -0.9480  0.1132
    2MPD1    C114090   4.398   4.552   1.517 -0.3642  0.8004 -0.4436
    2MPD1    C214091   4.311   4.454   1.468  0.0722 -0.2760 -0.1327
    2MPD1    C314092   4.345   4.323   1.441  0.6935  0.3420  0.0303
    2MPD1    C414093   4.473   4.281   1.450 -0.1782  0.4203  0.9831
    2MPD1    C514094   4.556   4.374   1.508 -0.3522  0.1232 -0.0816
    2MPD1     H14095   4.205   4.478   1.468 -0.4393 -2.5880  2.0829
    2MPD1    H114096   4.509   4.182   1.424 -0.1137  0.0612  2.4451
    2MPD1    H214097   4.588   4.569   1.601 -1.1465  0.1713  1.1633
    2MPD1    H314098   4.654   4.339   1.538 -0.7232 -1.1227 -0.3456
    2MPD1     N14099   4.239   4.234   1.398  0.0328 -0.2544 -0.5894
    2MPD1    H514100   4.144   4.268   1.402 -0.1296 -0.7386 -0.3684
    2MPD1    N114101   4.354   4.674   1.575 -0.4365 -0.8783 -0.1737
    2MPD1    H614102   4.430   0.016   1.582 -0.6197 -0.5629 -1.1885
    2MPD1    H714103   4.275   4.709   1.522 -1.3718 -0.6124  1.4208
    1MPD1     C14104   1.411   1.820  12.454  0.8101 -0.9474 -0.8810
    1MPD1    C114105   1.496   1.713  12.424  0.8574 -0.0400  0.2148
    1MPD1    C214106   1.616   1.753  12.372 -0.6973 -0.7346 -0.0381
    1MPD1    C314107   1.641   1.883  12.330  0.4125 -0.5053  0.3009
    1MPD1    C414108   1.547   1.979  12.362  0.1819 -0.1983  0.4298
    1MPD1    C514109   1.432   1.942  12.411 -1.0302 -0.0413  0.2784
    1MPD1     H14110   1.700   1.686  12.361 -0.9930 -0.9440 -1.0342
    1MPD1    H114111   1.536   2.081  12.326 -0.7070  0.2083  1.8796
    1MPD1    H214112   1.317   1.799  12.504 -1.3362  2.3183 -3.5523
    1MPD1    H314113   1.356   2.019  12.411 -1.3363 -0.3400  0.3694
    1MPD1     N14114   1.761   1.909  12.282 -0.6126  0.4763  0.0861
    1MPD1    H514115   1.826   1.832  12.267  0.4579  1.6418 -1.2759
    1MPD1    N114116   1.472   1.584  12.476  0.1046  0.2036  0.6148
    1MPD1    H614117   1.518   1.506  12.429  0.6644  0.5320  0.6179
    1MPD1    H714118   1.372   1.570  12.469 -0.0325  1.1405  0.7497
    2MPD1     C14119   2.209   3.151  11.156 -0.5053  0.1676  0.1349
    2MPD1    C114120   2.161   3.163  11.025 -0.3758 -0.0319  0.7581
    2MPD1    C214121   2.175   3.057  10.934 -0.0786  0.9148  0.1267
    2MPD1    C314122   2.240   2.944  10.970 -0.5445 -0.3196  0.3855
    2MPD1    C414123   2.273   2.927  11.107  0.8714  0.3767 -0.4904
    2MPD1    C514124   2.263   3.035  11.195 -0.0439  0.1387  0.5879
    2MPD1     H14125   2.124   3.072  10.840 -3.1249 -0.2674  1.5783
    2MPD1    H114126   2.319   2.837  11.145  2.2620  1.2472 -0.1254
    2MPD1    H214127   2.179   3.220  11.234  1.0911  1.7276 -0.6202
    2MPD1    H314128   2.298   3.033  11.297 -2.4079 -0.9013  1.3877
    2MPD1     N14129   2.237   2.834  10.883 -0.0414  0.2540  0.3845
    2MPD1    H514130   2.278   2.746  10.912  1.4277  0.2127 -1.7995
    2MPD1    N114131   2.088   3.275  10.984 -0.0449 -0.6794 -0.0696
    2MPD1    H614132   2.109   3.294  10.886 -0.6347 -1.2370 -0.3055
    2MPD1    H714133   2.089   3.358  11.044 -2.1394 -0.6041 -0.1065
    3MPD1     C14134   2.616   2.653   9.950 -0.0189  0.1917  0.0301
    3MPD1    C114135   2.523   2.556   9.970 -0.7867  0.0284  0.6984
    3MPD1    C214136   2.455   2.554  10.094  0.1582  0.6548  0.2757
    3MPD1    C314137   2.473   2.657  10.191 -0.1439  0.0321  0.1113
    3MPD1    C414138   2.571   2.753  10.160 -0.0945  0.0167 -0.2421
    3MPD1    C514139   2.639   2.748  10.040 -0.2816  0.1406  0.2668
    3MPD1     H14140   2.389   2.468  10.106  1.2334  0.0838  2.0925
    3MPD1    H114141   2.595   2.835  10.226  1.0998 -0.0021 -0.6597
    3MPD1    H214142   2.686   2.647   9.867 -0.6461  0.1281 -0.4982
    3MPD1    H314143   2.720   2.814  10.011 -0.6223  0.4260 -0.0382
    3MPD1     N14144   2.402   2.658  10.308  0.5947 -0.2400  0.7107
    3MPD1    H514145   2.417   2.739  10.367  1.3698  0.5438 -0.5470
    3MPD1    N114146   2.487   2.470   9.858 -0.1285 -0.2255  0.1414
    3MPD1    H614147   2.439   2.382   9.874 -1.6806  0.7172  0.6954
    3MPD1    H714148   2.565   2.457   9.794  0.7355  1.6683  0.8106
    4MPD2     C14149   2.241   2.417  11.788  0.2287 -0.3517  0.0203
    4MPD2    C114150   2.270   2.285  11.824 -0.2265 -0.1410 -0.4484
    4MPD2    C214151   2.337   2.204  11.735 -0.4306 -0.2882  0.6725
    4MPD2    C314152   2.393   2.254  11.624 -0.1096 -0.0630 -0.2938
    4MPD2    C414153   2.380   2.386  11.589 -0.2637 -0.4573 -0.1719
    4MPD2    C514154   2.304   2.465  11.676  0.0193 -0.3971  0.4819
    4MPD2     H14155   2.342   2.101  11.768 -3.3456 -1.0436 -1.3153
    4MPD2    H114156   2.428   2.428  11.502  0.3601  0.4635  0.6215
    4MPD2    H214157   2.187   2.477  11.861 -2.2759 -0.5828 -1.6500
    4MPD2    H314158   2.296   2.572  11.667  0.5890 -0.3472  0.5992
    4MPD2     N14159   2.464   2.171  11.537 -0.3088  0.3113  0.4005
    4MPD2    H514160   2.508   2.213  11.456  0.4267 -0.7977  0.2141
    4MPD2    N114161   2.229   2.223  11.945 -0.2009  0.0769 -0.4500
    4MPD2    H714162   2.243   2.123  11.955  1.1976  0.3303  0.1460
    5TMC3    C114163   2.129   2.177  12.142 -0.4966  0.7453 -0.0843
    5TMC3    C214164   1.999   2.171  12.191  0.1690 -0.4050 -0.5267
    5TMC3    C314165   1.943   2.045  12.202  0.4533 -0.3308 -0.3392
    5TMC3    C414166   2.203   2.069  12.137 -0.6378 -0.8427 -0.4685
    5TMC3    C514167   2.147   1.943  12.144 -0.0876 -0.1334 -0.4718
    5TMC3    C614168   2.012   1.930  12.169 -0.1094 -0.5170  0.2235
    5TMC3     C14169   2.153   2.284  12.043  0.1456 -0.7469  0.2042
    5TMC3     O14170   2.086   2.391  12.046 -0.8595 -0.4543 -0.6395
    5TMC3     H14171   1.948   2.262  12.223 -1.2237 -0.6634 -2.0219
    5TMC3    H114172   2.311   2.083  12.136 -0.8395  0.6048 -1.6154
    5TMC3    H214173   1.975   1.834  12.201  0.8816 -0.7376  0.6933
    5TMC3    C714174   2.193   1.863  12.029 -0.4240 -0.2701  0.4030
    5TMC3    C814175   1.807   2.041  12.258  0.2903  0.4310  0.3671
    5TMC3    O114176   2.275   1.928  11.965  0.0863 -0.2957 -0.1479
    5TMC3    O214177   1.748   2.144  12.262  0.3400 -0.4226 -0.1696
    6TMC3    C114178   2.224   2.701  10.686 -0.1556  0.3056 -0.0795
    6TMC3    C214179   2.272   2.687  10.558  0.5748  0.2705 -0.4730
    6TMC3    C314180   2.279   2.568  10.495 -0.1580  0.4942 -0.4196
    6TMC3    C414181   2.176   2.592  10.746 -0.4410  0.1743 -0.0456
    6TMC3    C514182   2.166   2.471  10.684  0.7833  0.0967  0.4446
    6TMC3    C614183   2.223   2.460  10.556  0.0449 -0.4780  0.2553
    6TMC3     C14184   2.211   2.834  10.748 -0.3616  0.3433  0.2746
    6TMC3     O14185   2.211   2.935  10.678 -0.8518  0.2438 -0.4106
    6TMC3     H14186   2.319   2.776  10.516  3.7079 -1.7656 -1.3011
    6TMC3    H114187   2.119   2.602  10.838 -2.4683 -2.1766 -1.0629
    6TMC3    H214188   2.224   2.367  10.501 -1.8177  0.0729 -0.7329
    6TMC3    C714189   2.160   2.356  10.768 -0.9267 -0.1662 -0.3736
    6TMC3    C814190   2.341   2.546  10.365  0.0001 -0.0686 -0.0847
    6TMC3    O114191   2.196   2.372  10.884 -0.1011 -0.1256  0.2769
    6TMC3    O214192   2.322   2.432  10.322  0.5470  0.6919  0.5613
    7MPD2     C14193   2.172   1.532  11.647  0.0866 -0.2531  0.2246
    7MPD2    C114194   2.258   1.640  11.670  0.0660 -0.6871 -0.1727
    7MPD2    C214195   2.245   1.712  11.784  0.1141  0.5707  0.4824
    7MPD2    C314196   2.146   1.674  11.870 -1.3126  0.4044 -0.0057
    7MPD2    C414197   2.055   1.578  11.840 -0.4726 -0.0814  0.0787
    7MPD2    C514198   2.075   1.495  11.735  0.0786  0.7777 -0.1060
    7MPD2     H14199   2.319   1.789  11.799  1.7666 -0.4091 -2.5042
    7MPD2    H114200   1.977   1.559  11.914 -0.5726 -0.0435 -0.0177
    7MPD2    H214201   2.175   1.481  11.552  0.6024  0.3680 -0.0895
    7MPD2    H314202   2.007   1.417  11.705  1.9710 -0.9486  0.0839
    7MPD2     N14203   2.129   1.748  11.993  0.2112  0.1838 -0.2528
    7MPD2    H514204   2.047   1.724  12.047  0.5741 -0.9549 -0.2152
    7MPD2    N114205   2.353   1.691  11.584 -0.4937 -0.3802 -0.4389
    7MPD2    H714206   2.402   1.776  11.610  0.2382 -0.4458 -1.6018
    8TMC3    C114207   2.443   1.745  11.376  0.0538 -0.2940 -0.1884
    8TMC3    C214208   2.382   1.791  11.260  0.9735 -0.7401  0.1066
    8TMC3    C314209   2.381   1.919  11.237  0.2556  0.5099 -0.8681
    8TMC3    C414210   2.506   1.827  11.460  0.1856 -0.1676 -0.4679
    8TMC3    C514211   2.494   1.962  11.432 -0.1468  1.3102  0.2486
    8TMC3    C614212   2.428   2.013  11.324  0.2057 -0.3050  0.4166
    8TMC3     C14213   2.368   1.651  11.450 -1.0369 -0.0447  0.4242
    8TMC3     O14214   2.320   1.553  11.391 -0.2429  0.5127 -0.3696
    8TMC3     H14215   2.342   1.719  11.190 -0.3357 -0.0175  0.1135
    8TMC3    H114216   2.565   1.785  11.540  0.5791 -1.5984 -1.5047
    8TMC3    H214217   2.409   2.117  11.301  0.7580 -0.2984  0.0022
    8TMC3    C714218   2.478   2.034  11.555 -0.1112 -0.3664 -0.6819
    8TMC3    C814219   2.345   1.978  11.109  0.1516 -0.2585 -0.2128
    8TMC3    O114220   2.466   1.962  11.653  0.1349  0.8301 -0.5011
    8TMC3    O214221   2.394   2.085  11.076 -0.2413 -0.1316 -0.3315
    9MPD2     C14222   2.108   1.853  10.858 -0.1276 -0.0366 -0.4176
    9MPD2    C114223   2.192   1.943  10.917  0.1555 -0.5682 -0.3314
    9MPD2    C214224   2.201   2.072  10.869 -0.6814  0.1208  0.6102
    9MPD2    C314225   2.129   2.112  10.755 -0.9773 -0.6627  0.1689
    9MPD2    C414226   2.062   2.013  10.684 -0.0358  0.4439 -0.1893
    9MPD2    C514227   2.047   1.890  10.741  0.7139 -0.0954 -0.0667
    9MPD2     H14228   2.267   2.148  10.908 -0.8207  0.7419 -0.3702
    9MPD2    H114229   1.999   2.046  10.602 -2.4047 -1.1371  1.0143
    9MPD2    H214230   2.103   1.753  10.898 -0.4435  0.2984  0.3656
    9MPD2    H314231   1.964   1.829  10.708 -0.1146 -1.0928  3.8821
    9MPD2     N14232   2.120   2.241  10.702  0.6697  0.3225 -0.5052
    9MPD2    H514233   2.077   2.258  10.612  1.4554  1.0404 -0.7433
    9MPD2    N114234   2.249   1.904  11.041  0.1513 -0.2633 -1.0495
    9MPD2    H714235   2.199   1.825  11.080 -0.9441  1.0220  0.1455
    1MPD1     C14236   0.514   2.503  17.291 -0.4395 -0.2219  0.3996
    1MPD1    C114237   0.624   2.432  17.248  1.1131 -0.5137 -0.2113
    1MPD1    C214238   0.650   2.310  17.308  0.2453  0.2276 -0.5082
    1MPD1    C314239   0.562   2.257  17.400 -0.3928 -0.7724 -0.4765
    1MPD1    C414240   0.452   2.330  17.437 -0.0483 -0.2513  0.2614
    1MPD1    C514241   0.425   2.448  17.380 -0.0184 -0.0110  0.6327
    1MPD1     H14242   0.744   2.259  17.288  0.8244  0.5564  1.3857
    1MPD1    H114243   0.382   2.289  17.509 -1.0944  2.3549  0.7155
    1MPD1    H214244   0.489   2.603  17.257 -1.8385 -0.5357  0.5085
    1MPD1    H314245   0.338   2.506  17.408 -0.8386 -0.8364 -0.1902
    1MPD1     N14246   0.585   2.143  17.474  0.3353  0.0627 -0.3947
    1MPD1    H514247   0.524   2.129  17.554  0.9630  1.3258  0.3116
    1MPD1    N114248   0.694   2.481  17.140 -0.0368  0.0415 -1.0733
    1MPD1    H614249   0.688   2.582  17.130  0.1124 -0.0344 -1.9213
    1MPD1    H714250   0.795   2.463  17.142  0.6011  3.7637  0.5170
    2MPD1     C14251   1.056   1.166  17.685 -0.0438 -0.2628 -0.3926
    2MPD1    C114252   1.083   1.255   0.083  0.2064 -0.1583  0.6527
    2MPD1    C214253   1.047   1.386   0.061  0.6530 -0.6474 -0.4156
    2MPD1    C314254   0.974   1.422  17.648 -0.2931  0.2603  0.5404
    2MPD1    C414255   0.938   1.332  17.553 -0.1317  0.5734  0.0197
    2MPD1    C514256   0.983   1.199  17.574 -0.1625  0.0031  0.3646
    2MPD1     H14257   1.072   1.458   0.138 -0.4668  0.2065 -0.8430
    2MPD1    H114258   0.877   1.348  17.465 -0.2915  0.3932  0.0997
    2MPD1    H214259   1.087   1.062  17.690  1.4361  0.1040 -2.0442
    2MPD1    H314260   0.954   1.120  17.506  1.5411  0.1261 -0.5021
    2MPD1     N14261   0.925   1.555  17.647  0.5925  0.0039  0.0280
    2MPD1    H514262   0.947   1.609   0.029  1.7162  0.3531 -0.4952
    2MPD1    N114263   1.186   1.230   0.179  0.1541  0.1302 -0.1986
    2MPD1    H614264   1.183   1.140   0.225  2.2268  0.1492 -0.0134
    2MPD1    H714265   1.194   1.296   0.257 -0.9648 -0.2002  0.1869
    3TCq2    C114266   0.847   1.620  17.549 -0.4782  0.4923 -0.0226
    3TCq2    O214267   0.817   1.578  17.442  0.2079  0.2588 -0.2411
    3TCq2    C214268   0.805   1.751  17.594 -0.6335  0.2660  0.2067
    3TCq2    C314269   0.779   1.776   0.025  0.1094 -0.2417 -0.1178
    3TCq2    C414270   0.717   1.887   0.065 -0.0330 -0.0820  0.8003
    3TCq2    C514271   0.673   1.985  17.683 -0.6303 -0.5238  0.0840
    3TCq2    C614272   0.692   1.953  17.546  0.2286  0.1158 -1.0027
    3TCq2    C714273   0.759   1.840  17.502 -0.3724  0.2187  0.5291
    3TCq2    C814274   0.687   2.055  17.450 -0.1886 -0.1099  0.2214
    3TCq2    O414275   0.753   2.046  17.347  0.5354  0.1602  0.5467
    3TCq2    C914276   0.702   1.914   0.207  1.1236  0.0534  0.0235
    3TCq2    O514277   0.625   2.013   0.232  0.0066 -0.1617 -0.9216
    3TCq2    O614278   0.776   1.853   0.286 -0.7908 -0.5996 -0.3187
    3TCq2    H214279   0.791   1.698   0.099 -1.3105  1.5205  1.9579
    3TCq2    H314280   0.651   2.086   0.013 -0.0079  0.1625 -1.6769
    3TCq2    H414281   0.776   1.821  17.396 -0.8115 -1.8100  0.8223
    1TCq1    O114282   3.606   4.600  12.713  0.3645 -0.0911 -0.0229
    1TCq1    C114283   3.733   4.577  12.666 -0.0837 -0.0740 -0.3429
    1TCq1    O214284   3.767   4.622  12.553  0.1018  0.1428 -0.0140
    1TCq1    C214285   3.820   4.551  12.772  0.3818  0.5434 -0.5799
    1TCq1    C314286   3.779   4.464  12.867  0.1569  0.2270 -0.0641
    1TCq1    C414287   3.838   4.460  12.990  0.0834  0.4951 -0.0247
    1TCq1    C514288   3.943   4.540  13.019 -0.1437 -1.4042  0.1901
    1TCq1    C614289   3.988   4.627  12.916  0.6941 -1.0729 -0.6501
    1TCq1    C714290   3.937   4.630  12.785  0.5204  0.1056 -0.9718
    1TCq1    C814291   4.068   0.013  12.962 -0.5315  0.2470  0.0534
    1TCq1    O414292   4.065   0.119  12.900 -0.0118  0.0267 -0.6492
    1TCq1    C914293   3.773   4.382  13.095  0.0893  0.4855  0.8684
    1TCq1    O514294   3.673   4.311  13.064  0.6313  0.0258 -0.4481
    1TCq1    O614295   3.791   4.419  13.213 -0.0109  0.6308 -0.0674
    1TCq1    H114296   3.619   4.598  12.811 -0.0502 -2.0816 -0.0126
    1TCq1    H214297   3.712   4.381  12.847  1.0799 -0.0738 -1.9133
    1TCq1    H314298   3.967   4.554  13.124  1.2385  0.7726 -0.4238
    1TCq1    H414299   3.970   4.689  12.700 -0.0463  2.2338  0.3088
    2MPD2     C14300   4.228   0.207  13.120 -0.2273 -0.6176 -0.2554
    2MPD2    C114301   4.231   0.066  13.142 -0.3268 -0.0995 -0.7901
    2MPD2    C214302   4.320   0.022  13.241 -0.4605  0.6411 -0.0443
    2MPD2    C314303   4.404   0.103  13.312  0.6050  0.1207 -0.3063
    2MPD2    C414304   4.409   0.234  13.278  0.4540 -0.1333 -0.5252
    2MPD2    C514305   4.322   0.287  13.183 -0.6488 -0.1561 -0.6371
    2MPD2     H14306   4.326   4.640  13.258 -0.2725  0.9836  2.0184
    2MPD2    H114307   4.465   0.308  13.335  1.0309  0.0793 -1.3662
    2MPD2    H214308   4.155   0.258  13.059 -0.1752  0.7458  0.8386
    2MPD2    H314309   4.325   0.395  13.176 -1.9402 -0.0033  1.2168
    2MPD2     N14310   4.500   0.056  13.412 -0.2147  0.1804 -0.1462
    2MPD2    H514311   4.509   4.680  13.420 -2.2684 -0.0466 -0.7241
    2MPD2    N114312   4.145   4.704  13.076  0.5070  0.6630 -0.5208
    2MPD2    H714313   4.144   4.609  13.111  1.3072  0.1633 -1.8591
    3TCq1    O114314   4.721   4.399  13.647 -0.4201  0.0462 -0.1449
    3TCq1    C114315   0.094   4.466  13.577  0.6770 -0.0647 -0.3623
    3TCq1    O214316   0.119   4.457  13.458  0.2658  0.2750  0.0447
    3TCq1    C214317   0.062   4.593  13.632  0.5676  0.1118 -0.0371
    3TCq1    C314318   0.064   4.605  13.771  0.5096  0.2228  0.1310
    3TCq1    C414319   4.721   4.719  13.818 -0.7072 -1.0631 -0.4322
    3TCq1    C514320   4.655   0.079  13.730  0.2681 -0.1456 -0.6904
    3TCq1    C614321   4.646   0.053  13.597  0.0238 -0.2381  0.4119
    3TCq1    C714322   4.721   4.673  13.547  0.2504 -0.3642  0.6451
    3TCq1    C814323   4.563   0.136  13.509 -0.5656 -0.5657  0.2173
    3TCq1    O414324   4.553   0.252  13.542 -0.1504 -0.1103 -0.3826
    3TCq1    C914325   4.720   0.013  13.966  0.5862  0.0158 -0.4252
    3TCq1    O514326   0.051   4.644  14.033 -0.0904  0.2346 -0.3954
    3TCq1    O614327   4.658   0.108  14.016  0.1070 -0.4687 -0.5968
    3TCq1    H114328   4.724   4.427  13.741  1.6284  1.8715 -0.7261
    3TCq1    H214329   0.126   4.543  13.834 -2.9180 -3.0266  0.3401
    3TCq1    H314330   4.608   0.169  13.768  3.7049  1.6514 -0.7266
    3TCq1    H414331   4.718   4.637  13.445  0.3381  0.4575  0.3557
    1MPD2     C14332   3.535   1.457  15.243  0.3858  0.2083 -0.8865
    1MPD2    C114333   3.511   1.333  15.182 -0.3814 -0.3472  0.1627
    1MPD2    C214334   3.612   1.238  15.199  1.1687 -0.1612 -1.0448
    1MPD2    C314335   3.723   1.263  15.275  0.1384 -0.3170  0.3307
    1MPD2    C414336   3.744   1.388  15.336  0.0984  0.0967 -0.1209
    1MPD2    C514337   3.648   1.489  15.315  0.0015 -0.7354 -0.8774
    1MPD2     H14338   3.594   1.141  15.154  1.0001 -1.1892  1.2109
    1MPD2    H114339   3.830   1.417  15.395 -0.0469  1.1160 -0.4126
    1MPD2    H214340   3.466   1.540  15.243 -0.1717 -0.2469 -1.7876
    1MPD2    H314341   3.662   1.583  15.368 -0.1048 -1.3009  0.1714
    1MPD2     N14342   3.813   1.153  15.285  0.3276 -0.1313 -0.2185
    1MPD2    H514343   3.793   1.058  15.257 -0.3364 -0.3614  1.0321
    1MPD2    N114344   3.389   1.309  15.114  0.1523  0.4248 -0.5993
    1MPD2    H714345   3.309   1.371  15.119 -1.0623 -1.1153 -0.6615
    2TMC3    C114346   3.224   1.171  15.028 -0.5618  0.4607  0.4247
    2TMC3    C214347   3.207   1.034  15.039 -0.2551 -1.1648 -0.1220
    2TMC3    C314348   3.140   0.965  14.946 -0.3988  0.4078 -0.5789
    2TMC3    C414349   3.172   1.233  14.921  1.1818 -0.2412 -0.1168
    2TMC3    C514350   3.110   1.155  14.825 -0.3504  0.4207 -0.0430
    2TMC3    C614351   3.079   1.027  14.843 -0.0134 -0.2475  0.3189
    2TMC3     C14352   3.360   1.191  15.049  0.0908  0.3473  0.3266
    2TMC3     O14353   3.432   1.102  15.009 -0.3728 -0.1165  0.0395
    2TMC3     H14354   3.253   0.995  15.129 -0.6294  0.1805  0.6527
    2TMC3    H114355   3.177   1.342  14.921  1.4088 -0.2482 -1.3302
    2TMC3    H214356   3.020   0.961  14.780 -0.1123 -0.2808  0.4479
    2TMC3    C714357   3.032   1.210  14.719  0.4292  0.4888  0.5074
    2TMC3    C814358   3.206   0.845  14.903  0.6431 -0.0471  0.3455
    2TMC3    O114359   2.962   1.133  14.659  1.0027 -0.0263 -0.5351
    2TMC3    O214360   3.142   0.756  14.841 -0.2503 -0.2277 -0.3461
    3TCq1    O114361   3.274   2.357  14.267 -0.8577  0.6600 -0.4289
    3TCq1    C114362   3.270   2.244  14.201 -0.5649 -0.0840 -0.5705
    3TCq1    O214363   3.260   2.231  14.079  0.6373  0.3100  0.0935
    3TCq1    C214364   3.269   2.128  14.297  0.7543 -0.3971 -0.6808
    3TCq1    C314365   3.334   2.148  14.419 -0.4854 -0.1821  0.0613
    3TCq1    C414366   3.382   2.036  14.477  0.1394 -0.3040 -0.0984
    3TCq1    C514367   3.352   1.914  14.427 -0.0626  0.0560  0.0930
    3TCq1    C614368   3.267   1.893  14.315 -0.2009  0.3826  0.8457
    3TCq1    C714369   3.221   2.006  14.248 -0.6850  0.6563  0.1464
    3TCq1    C814370   3.180   1.777  14.290 -0.4818  0.1230  0.5070
    3TCq1    O414371   3.102   1.779  14.200 -0.0542 -0.4251 -0.6717
    3TCq1    C914372   3.448   2.041  14.602  0.4918  0.0409  0.7304
    3TCq1    O514373   3.463   1.928  14.660  0.2009  0.0541 -0.0517
    3TCq1    O614374   3.464   2.152  14.657  0.2604  0.1876 -0.7129
    3TCq1    H114375   3.256   2.340  14.362  3.5597 -0.7786  0.1217
    3TCq1    H214376   3.365   2.245  14.456 -1.0505  0.0329 -0.0282
    3TCq1    H314377   3.381   1.827  14.484 -0.6672 -0.7398 -0.8101
    3TCq1    H414378   3.169   2.004  14.153 -1.5825 -0.7997  0.6709
    4MPD2     C14379   2.991   1.560  14.346  0.0012 -0.1325  0.3304
    4MPD2    C114380   3.107   1.578  14.414 -0.3655  0.3959 -0.2826
    4MPD2    C214381   3.131   1.503  14.529 -0.2390  0.5977 -0.4889
    4MPD2    C314382   3.041   1.406  14.567 -0.4794 -0.1201 -0.0576
    4MPD2    C414383   2.929   1.383  14.491 -0.4205  0.2575  0.5130
    4MPD2    C514384   2.905   1.463  14.386 -0.0488 -1.1492 -0.2581
    4MPD2     H14385   3.222   1.516  14.586  0.3330 -1.6401 -0.8939
    4MPD2    H114386   2.858   1.304  14.515 -1.9781  1.2842 -0.6803
    4MPD2    H214387   2.966   1.629  14.266 -1.1830  0.1014  0.9160
    4MPD2    H314388   2.812   1.454  14.331  0.8271 -1.2190 -1.7280
    4MPD2     N14389   3.076   1.333  14.683  0.7732  0.5963  0.0247
    4MPD2    H514390   3.162   1.363  14.729 -0.0071  0.1030  1.7949
    4MPD2    N114391   3.200   1.679  14.381 -0.4644  0.6261  0.5940
    4MPD2    H714392   3.283   1.695  14.437 -0.3174 -0.3675  0.6439
    5TMC2    C114393   3.950   0.832  15.149 -0.7492  0.5265  0.1319
    5TMC2    C214394   3.941   0.752  15.254  0.5606 -0.1301  0.6110
    5TMC2    C314395   3.962   0.794  15.382  0.3852  0.5376 -0.4918
    5TMC2    C414396   3.968   0.961  15.184 -0.6196 -0.1315  0.3647
    5TMC2    C514397   3.990   1.012  15.310  0.6373 -0.0269  0.3984
    5TMC2    C614398   4.000   0.921  15.414  0.1401 -0.8471 -0.8054
    5TMC2     C14399   3.824   0.829  15.074 -0.3803  0.2529  0.6822
    5TMC2     O14400   3.752   0.927  15.101 -0.4545 -0.3109  0.3091
    5TMC2     H14401   3.905   0.651  15.237 -0.9353  1.3241 -4.9427
    5TMC2    H114402   3.960   1.033  15.103 -0.5615 -0.1346  0.3565
    5TMC2    H214403   4.027   0.954  15.514  1.0009  1.6312 -1.8533
    5TMC2    C714404   3.934   1.140  15.342  0.9094 -0.5505 -0.6516
    5TMC2    C814405   3.945   0.689  15.483  0.5421 -0.0502 -0.4861
    5TMC2    O114406   4.008   1.227  15.385  0.2568 -0.0236  0.0547
    5TMC2    O214407   3.969   0.568  15.476  0.1948  0.2934 -0.3346
    5TMC2    O514408   3.924   0.754  15.600  0.0069  0.3987 -0.0784
    5TMC2    H514409   3.887   0.841  15.571  0.8615 -0.2977 -3.2539
    6MPD2     C14410   3.418   0.652  14.819  0.5381 -0.1593  0.2030
    6MPD2    C114411   3.436   0.757  14.902 -0.1370 -0.0934 -0.1009
    6MPD2    C214412   3.556   0.778  14.964  0.2556  0.5090  0.3793
    6MPD2    C314413   3.669   0.704  14.929 -0.7231 -0.5384 -0.0306
    6MPD2    C414414   3.657   0.609  14.832  0.4177  0.1551 -0.1146
    6MPD2    C514415   3.532   0.581  14.783 -0.0539 -0.8245 -0.2512
    6MPD2     H14416   3.542   0.853  15.040  1.0639  3.3666 -2.3156
    6MPD2    H114417   3.744   0.556  14.796  1.2667  0.1791  1.9041
    6MPD2    H214418   3.323   0.621  14.776  0.2058 -0.3356  1.0801
    6MPD2    H314419   3.531   0.497  14.715  0.0536  0.5017 -1.8798
    6MPD2     N14420   3.793   0.722  14.997  0.5380  0.8088 -0.3012
    6MPD2    H514421   3.866   0.654  14.981 -0.2195  0.2309 -1.3105
    6MPD2    N114422   3.337   0.850  14.933 -0.4118  0.2793  0.4341
    6MPD2    H714423   3.367   0.927  14.992 -3.6126  0.9297  1.2083
  945NH3     N114424   1.073   1.601   0.712 -0.2060 -0.0039  0.4029
  945NH3     H214425   1.044   1.543   0.790 -5.0374  0.8332 -0.7246
  945NH3     H314426   1.053   1.556   0.623 -0.2250  2.4641 -0.8428
  945NH3     H414427   1.174   1.605   0.706 -0.2542 -0.3025 -0.6772
  946SOD     NA14428   3.597   4.303  13.279  0.0537 -0.0706  0.1012
  947SOD     NA14429   4.638   0.137  16.814  0.1655  0.4585 -0.0540
  948SOD     NA14430   0.520   2.626   3.258  0.2272 -0.7505  0.1889
  949SOD     NA14431   2.625   3.543   7.790  0.2640  0.1546 -0.0128
  950SOD     NA14432   0.802   4.112   0.219 -0.2201  0.2907 -0.0854
  951SOD     NA14433   4.616   4.269  12.034  0.2133 -0.3153 -0.2066
  952SOD     NA14434   0.994   3.225  11.290 -0.1131 -0.6876  0.5270
  953SOD     NA14435   4.545   0.301  11.495 -0.1231  0.2903 -0.1772
  954SOD     NA14436   3.598   0.637  11.175  0.0698  0.2720 -0.1246
  955SOD     NA14437   3.167   0.282  16.514  0.5425  0.2674 -0.0372
  956SOD     NA14438   0.970   3.126  13.486 -0.0204  0.2394 -0.1467
  957SOD     NA14439   2.203   3.264   0.624  0.3956  0.0514 -0.2219
  958SOD     NA14440   2.048   1.140  14.919 -0.0094  0.4408 -0.1182
  959SOD     NA14441   4.663   1.819  15.081  0.3554 -0.2045 -0.7190
  960SOD     NA14442   3.386   1.411   6.378 -0.0857 -0.2997  0.0593
  961SOD     NA14443   4.195   1.676   2.694  0.1481 -0.3236 -0.0474
  962SOD     NA14444   1.667   3.833   2.162 -0.0868 -0.1516 -0.0917
  963SOD     NA14445   3.050   0.054  10.523 -0.4302 -0.2916  0.2656
  964SOD     NA14446   3.894   0.048   9.944  0.0351 -0.5205  0.6055
  965SOD     NA14447   1.580   1.798   7.291  0.2892 -0.3722  0.0619
  966SOD     NA14448   1.890   1.300  15.881  0.2511  0.0310 -0.0310
  967SOD     NA14449   2.806   3.694  17.634 -0.1408  0.2744 -0.3678
  968SOD     NA14450   1.191   1.973   8.560 -0.0426 -0.3427  0.1117
  969SOD     NA14451   4.032   2.096  10.710 -0.1651  0.1819  0.6856
  970SOD     NA14452   3.793   0.122   9.654  0.2801  0.2273 -0.1858
  971SOD     NA14453   1.026   2.296  14.367  0.0216 -0.1164  0.3433
  972SOD     NA14454   3.806   0.263  10.733  0.2504  0.2257  0.1183
  973SOD     NA14455   4.409   2.808   0.681  0.1401 -0.0187 -0.3751
  974SOD     NA14456   3.471   4.250  13.002  0.5916  0.6568 -0.1196
  975SOD     NA14457   0.183   3.036  17.176  0.3550 -0.1721 -0.8102
  976SOD     NA14458   4.515   0.190  15.078  0.8766  0.7263 -0.5880
  977SOD     NA14459   3.185   3.382   3.167 -0.1180  0.4401 -0.1606
  978SOD     NA14460   2.889   4.485  11.100  0.3725  0.2552 -0.2732
  979SOD     NA14461   3.448   3.931  14.781 -0.0950  0.4236  0.0274
  980SOD     NA14462   0.110   0.163   2.859 -0.4707 -0.3215 -0.1595
  981SOD     NA14463   4.065   3.352  11.463  0.3976 -0.1636 -0.3919
  982SOD     NA14464   1.445   0.203   1.306  0.3166 -0.3665  0.3343
  983SOD     NA14465   0.848   1.480  15.817 -0.4611  0.3515  0.5581
  984SOD     NA14466   2.676   0.740   0.167  0.6268  0.6541 -0.4500
  985SOD     NA14467   4.332   4.600   1.801  0.2088 -0.1396 -0.2781
  986SOD     NA14468   4.062   2.655  15.922  0.8356 -0.1728  0.4530
  987SOD     NA14469   4.053   1.130  12.894 -0.1344  0.0089  0.2676
  988SOD     NA14470   4.206   3.376  11.164  0.2953  0.2355 -0.0414
  989SOD     NA14471   0.598   2.166   0.396  0.0370  0.5015  0.3940
  990SOD     NA14472   3.978   4.570   9.709 -0.7184 -0.5488 -0.2761
  991SOD     NA14473   4.672   0.172  14.218  0.2306 -0.2219  0.2325
  992SOD     NA14474   2.977   1.958  13.820  0.2559  0.0458  0.2136
  993SOD     NA14475   4.167   3.916  10.554  0.2259 -0.0118  0.3239
  994SOD     NA14476   1.642   2.835   1.801 -0.0162  0.0137 -0.3040
  995SOD     NA14477   0.043   0.224  14.507  0.2581  0.5034  0.1019
  996SOD     NA14478   0.535   0.315  11.577  0.4941 -0.1523  0.6160
  997SOD     NA14479   4.020   1.455  10.347  0.3226  0.2529  0.9657
  998SOD     NA14480   2.422   0.975   0.862  0.0608  0.6265 -0.2653
  999SOD     NA14481   4.133   2.418  10.812 -0.0423 -0.1291 -0.0700
 1000SOD     NA14482   4.137   3.538   9.840 -0.2536 -0.1489  0.1441
 1001SOD     NA14483   0.723   4.621  11.780  0.5425  0.1715  0.1835
 1002SOD     NA14484   4.186   3.626  11.330  0.1802  0.2566  0.2994
 1003SOD     NA14485   4.390   0.485  12.004  0.2840  0.0911 -0.1960
 1004SOD     NA14486   0.902   4.146  11.208 -0.1935 -0.0003  0.3029
 1005SOD     NA14487   1.700   4.105  14.689 -0.0571  0.0907 -0.0488
 1006SOD     NA14488   1.821   3.556  15.136 -0.0375  0.1688  0.2036
 1007SOD     NA14489   0.156   1.641  10.762  0.2751  0.1000  0.0914
 1008SOD     NA14490   0.477   3.418  16.967  0.3040 -0.0903 -0.4933
 1009SOD     NA14491   3.484   2.041  14.862  0.1875 -0.5092 -0.5071
 1010SOD     NA14492   1.500   0.468   9.505  0.5938  0.5667  0.3559
 1011SOD     NA14493   4.399   3.198   2.014  0.1687 -0.4833  0.2048
 1012SOL     OW14494   1.864   1.514   4.084  0.0616 -0.5353 -0.2131
 1012SOL    HW114495   1.778   1.548   4.061  0.0735  0.1050  0.7014
 1012SOL    HW214496   1.841   1.429   4.121  2.9823 -1.5326 -0.6942
 1013SOL     OW14497   3.018   0.772   3.672 -0.5275 -0.0687  0.7799
 1013SOL    HW114498   3.085   0.806   3.613 -0.2504 -0.5493  0.8115
 1013SOL    HW214499   3.072   0.734   3.741 -1.9280 -2.0134  0.7952
 1014SOL     OW14500   1.286   0.947   9.053 -0.0953  0.2316  0.5454
 1014SOL    HW114501   1.342   0.943   9.131 -0.4869 -1.4910  0.7335
 1014SOL    HW214502   1.215   0.894   9.088  0.9834 -1.2407  0.4859
 1015SOL     OW14503   2.557   2.563   2.193  0.5603  0.0679  0.3342
 1015SOL    HW114504   2.603   2.486   2.159 -0.1261  0.1899 -0.8425
 1015SOL    HW214505   2.565   2.615   2.114  0.8892  1.3105  1.1774
 1016SOL     OW14506   0.733   3.989   8.518 -0.0723  0.6973 -0.4757
 1016SOL    HW114507   0.826   3.997   8.499 -0.2742 -1.1153 -2.2477
 1016SOL    HW214508   0.724   3.952   8.606 -1.2450  1.0657 -0.4344
 1017SOL     OW14509   3.237   2.848   8.927 -0.6882  0.0156  0.6108
 1017SOL    HW114510   3.215   2.896   9.007 -0.8289  0.4855  0.2920
 1017SOL    HW214511   3.332   2.852   8.935 -0.5668 -2.6557  0.2274
 1018SOL     OW14512   3.437   0.453   4.525 -0.0268  0.6681 -0.0170
 1018SOL    HW114513   3.497   0.473   4.453 -0.0694  0.9791  0.0371
 1018SOL    HW214514   3.354   0.497   4.510 -0.1872 -0.2133 -1.7348
 1019SOL     OW14515   1.215   2.481   2.764  0.1562  0.4287  0.6229
 1019SOL    HW114516   1.271   2.459   2.689 -1.5191 -0.6996 -0.2892
 1019SOL    HW214517   1.265   2.560   2.784  1.2836 -0.8994  3.0535
 1020SOL     OW14518   0.765   1.101   2.308 -0.5664  0.3159 -0.2902
 1020SOL    HW114519   0.769   1.194   2.329 -1.8468  0.4845 -0.8086
 1020SOL    HW214520   0.817   1.068   2.382 -0.9548  1.3551  0.4318
 1021SOL     OW14521   3.556   2.543   5.622 -0.2244  0.4171  0.2991
 1021SOL    HW114522   3.582   2.504   5.539 -1.3601 -0.1684  0.2220
 1021SOL    HW214523   3.623   2.612   5.626  0.7187 -0.4974  0.2804
 1022SOL     OW14524   4.037   2.128   2.862  0.2112  0.1869 -0.2518
 1022SOL    HW114525   4.019   2.145   2.955 -0.1966 -0.6381 -0.1797
 1022SOL    HW214526   3.968   2.182   2.822 -0.9654 -0.2103  1.2445
 1023SOL     OW14527   1.813   2.265   5.151  0.5379 -0.3264  0.2422
 1023SOL    HW114528   1.868   2.252   5.228  0.8788  0.5111  0.1481
 1023SOL    HW214529   1.812   2.182   5.104  1.4067  0.5755 -1.3679
 1024SOL     OW14530   4.618   1.728   9.907  0.1404 -0.3584 -0.0759
 1024SOL    HW114531   4.634   1.701   9.997  0.3426 -0.4278 -0.1328
 1024SOL    HW214532   4.563   1.652   9.884 -2.7557  1.4242  0.9670
 1025SOL     OW14533   2.158   4.400   8.941  0.1762  0.1461 -0.8313
 1025SOL    HW114534   2.227   4.410   9.007 -0.8738  1.2030  0.1177
 1025SOL    HW214535   2.103   4.474   8.966 -0.7227 -0.1152 -2.0238
 1026SOL     OW14536   0.955   0.801   8.822  0.3955  0.1672 -0.2419
 1026SOL    HW114537   0.866   0.799   8.857  0.4707  1.1756 -0.0073
 1026SOL    HW214538   0.995   0.769   8.903 -0.3832 -1.8468 -0.6528
 1027SOL     OW14539   2.540   1.699   6.260  0.3322 -0.2307  0.4307
 1027SOL    HW114540   2.521   1.628   6.321  1.3272 -1.2263 -0.4090
 1027SOL    HW214541   2.635   1.706   6.266  0.3034  0.6636 -0.1152
 1028SOL     OW14542   1.968   4.156   5.388 -0.4494 -0.1561 -0.4027
 1028SOL    HW114543   1.884   4.134   5.346  0.3420 -4.8646  0.4766
 1028SOL    HW214544   1.964   4.086   5.452 -0.0266 -1.8294 -2.2053
 1029SOL     OW14545   2.764   4.336   6.796  0.3803  0.0024 -0.2470
 1029SOL    HW114546   2.763   4.377   6.710  1.0509  0.6612  0.0626
 1029SOL    HW214547   2.693   4.380   6.844  2.1334  1.5029  0.9918
 1030SOL     OW14548   3.742   4.079  10.391  0.2131 -0.1010 -0.0043
 1030SOL    HW114549   3.652   4.103  10.413 -0.2248 -0.3396 -1.5178
 1030SOL    HW214550   3.734   4.069  10.296  0.7866 -1.3754  0.0898
 1031SOL     OW14551   4.517   1.009   1.526  0.1282 -0.4781  0.0363
 1031SOL    HW114552   4.582   1.004   1.597  2.0095 -1.0151 -1.7360
 1031SOL    HW214553   4.564   0.988   1.446  2.6049 -1.0379  1.6172
 1032SOL     OW14554   3.816   0.534   5.879 -0.0458 -0.2911  0.1788
 1032SOL    HW114555   3.774   0.538   5.793  0.2294 -0.0646  0.0529
 1032SOL    HW214556   3.905   0.522   5.846 -0.7441 -1.2471 -1.3656
 1033SOL     OW14557   2.017   2.797   6.595 -0.4440  0.2061  0.1739
 1033SOL    HW114558   1.987   2.871   6.648  2.0256  1.3283  0.0022
 1033SOL    HW214559   1.951   2.734   6.625 -0.4189  0.7721  1.4179
 1034SOL     OW14560   3.378   0.361   4.192  0.1685 -0.2444  0.3983
 1034SOL    HW114561   3.426   0.424   4.245 -2.2509  0.7200  1.4277
 1034SOL    HW214562   3.301   0.350   4.247  0.6620 -0.0785  1.1199
 1035SOL     OW14563   2.415   4.322   8.019 -0.0083  0.2759 -0.2410
 1035SOL    HW114564   2.386   4.307   7.929 -2.2091  0.9114  0.3622
 1035SOL    HW214565   2.412   4.418   8.016 -0.9957  0.2781  1.0684
 1036SOL     OW14566   0.526   3.903  14.141 -0.0035  0.3471  0.2407
 1036SOL    HW114567   0.438   3.899  14.179 -0.4274 -2.7202 -1.0941
 1036SOL    HW214568   0.535   3.992  14.106 -1.8054 -0.9693 -3.4680
 1037SOL     OW14569   1.502   3.146   7.001  0.4175  1.0506  0.7618
 1037SOL    HW114570   1.450   3.067   6.988  1.9858 -0.0266  1.0135
 1037SOL    HW214571   1.570   3.099   7.049  0.3608 -0.8081 -0.9473
 1038SOL     OW14572   4.610   3.256   5.116 -0.7339  0.7453  0.4283
 1038SOL    HW114573   4.524   3.217   5.101  0.0902 -1.3172  1.1365
 1038SOL    HW214574   4.659   3.174   5.112  0.9204  1.6782  1.3071
 1039SOL     OW14575   0.787   2.685   7.170 -0.0485  0.2988 -0.5217
 1039SOL    HW114576   0.723   2.688   7.099 -1.0678 -0.0034  0.3967
 1039SOL    HW214577   0.828   2.599   7.159  0.1742  0.6692 -2.5588
 1040SOL     OW14578   0.865   3.782   2.138 -1.0027  0.6248 -0.3468
 1040SOL    HW114579   0.799   3.713   2.144  2.2172 -2.8539 -5.4082
 1040SOL    HW214580   0.824   3.846   2.080  0.3656  1.2604 -0.6136
 1041SOL     OW14581   2.613   3.929   4.445  0.4319 -0.3590  0.6657
 1041SOL    HW114582   2.695   3.934   4.397 -1.0077 -2.2348 -1.9953
 1041SOL    HW214583   2.646   3.913   4.534 -0.9533  0.0382  1.2451
 1042SOL     OW14584   2.673   3.000   6.134  0.4279 -0.0347  0.5520
 1042SOL    HW114585   2.720   3.012   6.051  1.0539  3.5812  1.4540
 1042SOL    HW214586   2.744   2.965   6.188  0.0847 -0.8447  0.4772
 1043SOL     OW14587   0.896   1.148  12.875 -0.4384  0.0076 -0.1268
 1043SOL    HW114588   0.957   1.140  12.948 -0.5644 -0.4095 -0.0694
 1043SOL    HW214589   0.834   1.211  12.913  2.2290  2.3011  0.3869
 1044SOL     OW14590   2.421   2.527   4.007 -0.1061 -0.0689  0.3279
 1044SOL    HW114591   2.504   2.563   4.039 -0.4485 -0.3833  1.5686
 1044SOL    HW214592   2.438   2.436   3.984 -0.6027 -0.2654  0.7653
 1045SOL     OW14593   2.200   2.901  12.520  0.1357  0.5926 -0.0660
 1045SOL    HW114594   2.139   2.847  12.470  0.0687  0.5068  0.1082
 1045SOL    HW214595   2.249   2.830  12.562  0.7682  0.1774 -1.5248
 1046SOL     OW14596   3.871   3.358  11.600  0.6862  0.4443 -0.7015
 1046SOL    HW114597   3.854   3.425  11.665  2.4700 -1.8208  2.0895
 1046SOL    HW214598   3.824   3.285  11.641  0.0268  1.2980  0.0408
 1047SOL     OW14599   0.678   1.451   3.565 -0.4950 -0.7156 -0.0357
 1047SOL    HW114600   0.740   1.497   3.622  1.2118 -1.5174 -1.2919
 1047SOL    HW214601   0.675   1.528   3.507 -3.4725  0.3623  1.5141
 1048SOL     OW14602   2.430   2.139   1.151 -0.3347 -0.0942 -0.0151
 1048SOL    HW114603   2.370   2.184   1.092 -0.4997 -0.9597 -0.5035
 1048SOL    HW214604   2.480   2.087   1.088 -0.4061  2.4760 -2.1917
 1049SOL     OW14605   2.785   2.127   4.506  0.5065  0.0739 -0.0181
 1049SOL    HW114606   2.732   2.100   4.432  1.8430 -0.3363 -0.8271
 1049SOL    HW214607   2.873   2.138   4.469  1.3629  0.5168  2.1533
 1050SOL     OW14608   2.969   1.121   4.174  0.6004 -0.4204  0.0945
 1050SOL    HW114609   2.881   1.118   4.136  1.1418 -1.7936 -1.0872
 1050SOL    HW214610   2.995   1.039   4.132 -0.4154 -0.8167  0.2471
 1051SOL     OW14611   1.995   0.025  12.744 -0.4265 -0.3332 -0.1438
 1051SOL    HW114612   2.037   0.055  12.824 -1.5861 -0.6408  0.5848
 1051SOL    HW214613   1.920   0.083  12.734 -2.6658 -2.9867  1.0742
 1052SOL     OW14614   0.096   2.250   6.032  0.1742 -0.1335 -0.1820
 1052SOL    HW114615   0.046   2.252   5.951  0.1253  2.7263 -0.0935
 1052SOL    HW214616   0.161   2.318   6.015  0.6113 -1.0565 -2.1805
 1053SOL     OW14617   2.271   1.421   5.117  0.1196  0.1674  0.0099
 1053SOL    HW114618   2.301   1.401   5.206 -1.1684 -1.0193  0.1927
 1053SOL    HW214619   2.338   1.479   5.083 -0.4449 -1.4069 -3.6966
 1054SOL     OW14620   0.680   2.924   6.353 -0.2058  0.7236 -0.2237
 1054SOL    HW114621   0.703   2.843   6.306  0.6971  0.6732  0.2970
 1054SOL    HW214622   0.669   2.990   6.285  1.2128 -1.1803 -2.2994
 1055SOL     OW14623   3.733   3.741   5.701  0.4204 -0.1095  0.1662
 1055SOL    HW114624   3.653   3.772   5.660 -1.2683 -2.0775  1.9894
 1055SOL    HW214625   3.704   3.668   5.755 -1.4031  1.9935  1.9933
 1056SOL     OW14626   1.899   4.440   9.236  0.1384 -0.3337  0.1946
 1056SOL    HW114627   1.831   4.409   9.295 -0.8211  2.0018  0.3315
 1056SOL    HW214628   1.979   4.453   9.286 -0.2673  1.3547  0.4233
 1057SOL     OW14629   1.960   2.134   4.807  0.0030 -0.7528  0.1014
 1057SOL    HW114630   1.871   2.139   4.771 -0.1128 -0.4284  0.4328
 1057SOL    HW214631   1.945   2.089   4.890  1.7266 -1.0764  0.2430
 1058SOL     OW14632   3.326   3.851   8.732  0.1915  0.0634 -0.2119
 1058SOL    HW114633   3.354   3.854   8.823  1.2142  1.8640 -0.5851
 1058SOL    HW214634   3.302   3.758   8.729 -2.8103  0.7793  1.5626
 1059SOL     OW14635   1.926   0.922  12.698  0.1524  0.6784  0.3365
 1059SOL    HW114636   1.848   0.970  12.670  0.2844  0.9993  0.5085
 1059SOL    HW214637   1.998   0.958  12.645 -2.0396  3.5240 -0.7233
 1060SOL     OW14638   2.614   3.037   4.695 -0.4659 -0.3715  0.5391
 1060SOL    HW114639   2.653   3.069   4.776 -0.0415 -1.0116  0.5799
 1060SOL    HW214640   2.534   3.088   4.681  0.4298 -0.1388 -3.6189
 1061SOL     OW14641   3.407   2.504   8.839  0.5153  0.5201  0.3704
 1061SOL    HW114642   3.323   2.540   8.869 -1.2651 -2.3125 -1.2708
 1061SOL    HW214643   3.389   2.456   8.758  2.8517 -1.3310  0.9319
 1062SOL     OW14644   2.188   2.366   7.813 -0.0073 -0.0368  0.2777
 1062SOL    HW114645   2.109   2.312   7.807  1.0069 -1.5193  0.2530
 1062SOL    HW214646   2.248   2.318   7.870 -0.9220 -1.8258 -0.2583
 1063SOL     OW14647   1.313   1.802   8.942 -0.1201 -0.2847  0.3862
 1063SOL    HW114648   1.365   1.866   8.990  0.3459 -1.0545  0.9076
 1063SOL    HW214649   1.250   1.788   9.013  0.6986  0.9116  1.3359
 1064SOL     OW14650   3.767   1.503   5.942 -0.1706 -0.5714 -0.0870
 1064SOL    HW114651   3.732   1.429   5.893 -0.9754 -0.5903  0.5298
 1064SOL    HW214652   3.771   1.565   5.869 -1.2034  0.3033  0.6016
 1065SOL     OW14653   1.348   2.094   2.549  0.1267  0.3916 -0.2759
 1065SOL    HW114654   1.310   2.158   2.489 -1.2361  0.8295  1.0570
 1065SOL    HW214655   1.312   2.128   2.630 -1.5728 -0.9585 -0.4540
 1066SOL     OW14656   2.645   4.714   3.564  0.1147  0.3743  0.5560
 1066SOL    HW114657   2.583   4.722   3.491  0.4211 -0.7789  0.1640
 1066SOL    HW214658   2.672   4.622   3.556 -1.2609  0.1495 -1.5713
 1067SOL     OW14659   2.100   1.077   5.613  0.2671  0.0632 -0.3931
 1067SOL    HW114660   2.083   0.983   5.605 -2.0564  0.3437  1.1065
 1067SOL    HW214661   2.156   1.104   5.540 -0.3634  1.3010 -0.4212
 1068SOL     OW14662   2.004   0.801   6.030 -0.3843 -0.5739  0.2936
 1068SOL    HW114663   2.084   0.816   5.979  0.5542 -1.5207  1.4677
 1068SOL    HW214664   2.043   0.739   6.091  0.6565  0.9496  1.1866
 1069SOL     OW14665   2.293   2.164   5.317  0.6477  0.1256  0.4050
 1069SOL    HW114666   2.354   2.236   5.300 -1.6984  1.6327 -1.7364
 1069SOL    HW214667   2.357   2.105   5.356  1.0490  1.4475  1.7084
 1070SOL     OW14668   3.661   1.743   0.185  0.1247  0.1070 -0.1839
 1070SOL    HW114669   3.638   1.833   0.161  3.0036  0.7944 -0.3813
 1070SOL    HW214670   3.673   1.755   0.279 -0.9240 -1.3092  0.1089
 1071SOL     OW14671   3.281   3.468   6.623  0.5756  0.2731  0.3334
 1071SOL    HW114672   3.348   3.483   6.690  0.4149  2.2298  0.0568
 1071SOL    HW214673   3.261   3.374   6.631  0.2940  0.1895 -1.2662
 1072SOL     OW14674   4.102   3.840   6.509 -0.0389  0.0210 -0.5253
 1072SOL    HW114675   4.087   3.869   6.599  0.6459 -0.9536 -0.0981
 1072SOL    HW214676   4.049   3.760   6.507 -0.1149  0.0001  2.1046
 1073SOL     OW14677   2.171   2.051   7.958 -0.0921 -0.4510 -0.5535
 1073SOL    HW114678   2.238   2.067   8.025 -0.4649  0.1419 -0.3142
 1073SOL    HW214679   2.216   1.979   7.915 -0.3905 -2.1658  1.9800
 1074SOL     OW14680   0.024   2.752   5.131 -0.4357  0.1433 -0.3343
 1074SOL    HW114681   0.068   2.734   5.214 -0.0586 -0.2696 -0.6164
 1074SOL    HW214682   4.711   2.666   5.115 -1.2783  0.3974  0.3435
 1075SOL     OW14683   3.586   2.202   7.785 -0.2632  0.0725 -0.0306
 1075SOL    HW114684   3.619   2.115   7.764  0.8920  0.8292 -1.3704
 1075SOL    HW214685   3.564   2.189   7.877 -1.5969  2.3297 -0.0373
 1076SOL     OW14686   3.943   1.064   4.650 -0.5894 -0.0966  0.1574
 1076SOL    HW114687   4.003   1.055   4.576 -0.7896 -0.5750  0.0531
 1076SOL    HW214688   3.948   0.980   4.695  1.0001  0.1543  0.4257
 1077SOL     OW14689   3.748   2.941   6.257 -0.3814  0.3120  0.6062
 1077SOL    HW114690   3.703   2.856   6.256  1.1791 -0.5104  0.5637
 1077SOL    HW214691   3.763   2.940   6.163  2.6081  0.5342  1.0887
 1078SOL     OW14692   3.546   4.401   2.400 -0.5810  0.0203  0.0864
 1078SOL    HW114693   3.640   4.400   2.381  0.0131 -0.6135  3.0905
 1078SOL    HW214694   3.546   4.395   2.495 -0.5620  1.0854  0.1593
 1079SOL     OW14695   0.493   4.481   7.984  0.2520  0.4036  0.6159
 1079SOL    HW114696   0.487   4.572   8.010  2.3197  0.9984 -0.9801
 1079SOL    HW214697   0.522   4.484   7.892 -2.8054 -1.0048 -0.4103
 1080SOL     OW14698   4.379   4.115  15.836  0.0367 -0.1187 -0.2169
 1080SOL    HW114699   4.311   4.087  15.775  0.1251 -0.3316 -0.2206
 1080SOL    HW214700   4.456   4.062  15.815 -0.0637  0.0219 -0.9278
 1081SOL     OW14701   0.496   2.060   7.153  0.7371  0.5424  0.4124
 1081SOL    HW114702   0.434   2.057   7.226  1.0424  1.4327  0.7059
 1081SOL    HW214703   0.582   2.047   7.192  0.8632  3.0435  0.9631
 1082SOL     OW14704   1.962   1.243   0.526 -0.0411  0.4425  0.0141
 1082SOL    HW114705   2.004   1.293   0.456  0.7272 -0.3684 -0.1035
 1082SOL    HW214706   1.877   1.225   0.485 -0.2794 -1.1389  1.1780
 1083SOL     OW14707   0.573   3.012   4.244  0.2534  0.0042 -0.0444
 1083SOL    HW114708   0.633   2.965   4.301  0.7207  1.1811  0.4239
 1083SOL    HW214709   0.580   2.958   4.165 -0.7263 -1.1655  0.6794
 1084SOL     OW14710   4.012   2.542   9.817  0.0701 -0.0183 -0.3572
 1084SOL    HW114711   4.041   2.466   9.867  2.0551  0.8052 -0.2615
 1084SOL    HW214712   3.924   2.549   9.855  1.5817 -0.2305  3.1225
 1085SOL     OW14713   3.543   4.506   8.576  0.1816 -0.5752  0.0899
 1085SOL    HW114714   3.638   4.502   8.580  0.2710 -1.4742 -3.3080
 1085SOL    HW214715   3.516   4.450   8.650  2.3423  0.0202  1.3267
 1086SOL     OW14716   3.010   1.004   3.358  0.4320 -0.1048  0.1514
 1086SOL    HW114717   3.074   1.020   3.428 -0.3279  1.5750  0.4848
 1086SOL    HW214718   3.066   1.014   3.281  0.2382  1.0799  0.1628
 1087SOL     OW14719   0.537   2.705  15.713 -0.3259 -0.2257  0.1548
 1087SOL    HW114720   0.502   2.741  15.631 -0.0422 -0.2059  0.0452
 1087SOL    HW214721   0.465   2.646  15.734  0.7879 -1.2378  1.1246
 1088SOL     OW14722   4.334   1.019  10.389 -0.2138  0.5225  0.5149
 1088SOL    HW114723   4.410   0.978  10.348  0.6903  2.2437  0.4897
 1088SOL    HW214724   4.358   1.000  10.480  0.0398  1.7362  0.6912
 1089SOL     OW14725   4.397   4.623   3.628 -0.4715 -0.3581 -0.3220
 1089SOL    HW114726   4.421   4.687   3.561 -1.1148  1.1681  0.9086
 1089SOL    HW214727   4.388   4.542   3.577  0.3897  0.3033 -1.5271
 1090SOL     OW14728   2.782   1.490   5.833  0.0406 -0.4276  0.2087
 1090SOL    HW114729   2.823   1.406   5.814 -0.0879 -0.6868  1.0863
 1090SOL    HW214730   2.861   1.543   5.836 -0.4527  0.3287  0.0002
 1091SOL     OW14731   3.115   0.411   6.684  0.1847  0.3242  0.2015
 1091SOL    HW114732   3.067   0.464   6.748  0.3954  0.0435  0.5829
 1091SOL    HW214733   3.035   0.391   6.634 -0.4018 -0.2681  1.3693
 1092SOL     OW14734   3.781   2.679   9.104  0.3200  0.5946 -0.4349
 1092SOL    HW114735   3.839   2.746   9.068 -1.4862  2.2771 -0.1749
 1092SOL    HW214736   3.846   2.632   9.155 -2.5036 -2.0319  0.7163
 1093SOL     OW14737   2.309   3.340   1.031  0.2684  0.0691  0.2562
 1093SOL    HW114738   2.226   3.324   0.986  0.3053  1.9707 -0.5105
 1093SOL    HW214739   2.311   3.435   1.017 -0.1976  0.3383  2.0103
 1094SOL     OW14740   3.410   2.383   6.592 -0.2450 -0.1836  0.5263
 1094SOL    HW114741   3.370   2.316   6.647 -0.7300 -0.4147 -0.1068
 1094SOL    HW214742   3.367   2.459   6.632 -1.0716 -1.0925  1.3532
 1095SOL     OW14743   1.550   4.412   0.404 -0.3774 -0.5908  0.0222
 1095SOL    HW114744   1.492   4.478   0.367  0.8888  0.1965 -0.5841
 1095SOL    HW214745   1.509   4.331   0.374 -1.6486  0.2102 -0.3732
 1096SOL     OW14746   1.668   1.528   5.078 -0.6583 -0.2372  0.2870
 1096SOL    HW114747   1.712   1.443   5.078 -1.7415 -0.7882  1.2155
 1096SOL    HW214748   1.590   1.505   5.028 -0.7687  1.3398 -0.2586
 1097SOL     OW14749   4.591   0.003   4.317 -0.1286  0.3231 -0.4313
 1097SOL    HW114750   4.611   4.669   4.244  0.3311  1.2018 -1.0220
 1097SOL    HW214751   4.496   0.006   4.315 -0.1473 -0.4714 -0.8298
 1098SOL     OW14752   0.786   3.200  10.531  0.1519 -0.1023  0.2133
 1098SOL    HW114753   0.721   3.131  10.541 -0.5171  0.3369 -1.1959
 1098SOL    HW214754   0.819   3.186  10.443  1.6948 -0.4543  0.8458
 1099SOL     OW14755   4.413   3.456   3.808 -0.1157 -0.1131 -0.3947
 1099SOL    HW114756   4.351   3.410   3.751 -0.6509  0.9609 -0.6802
 1099SOL    HW214757   4.487   3.396   3.804  1.6541  2.0586 -0.8579
 1100SOL     OW14758   1.876   0.697  12.219  0.2173 -0.0857  0.0611
 1100SOL    HW114759   1.944   0.630  12.227 -1.2835 -1.5803  0.3969
 1100SOL    HW214760   1.875   0.730  12.309 -3.1922 -1.2861  0.4792
 1101SOL     OW14761   4.341   0.102   2.976  0.3719 -0.0383  0.0069
 1101SOL    HW114762   4.253   0.136   2.961  0.6758  1.0609  0.7279
 1101SOL    HW214763   4.353   0.070   2.886  0.5901  2.1392 -0.7398
 1102SOL     OW14764   2.135   1.121   5.886 -0.0185  0.1963  0.3086
 1102SOL    HW114765   2.094   1.142   5.802 -2.8907 -1.7941  1.2208
 1102SOL    HW214766   2.142   1.026   5.883  2.3279  0.3136  1.6460
 1103SOL     OW14767   4.219   3.581   2.135 -0.0079 -0.3469 -0.0911
 1103SOL    HW114768   4.173   3.503   2.103 -1.5638  0.9980 -1.1296
 1103SOL    HW214769   4.150   3.647   2.131  1.3644  1.0054 -1.1333
 1104SOL     OW14770   1.549   4.324   8.420  0.2222 -0.0086  0.9041
 1104SOL    HW114771   1.479   4.313   8.484 -0.4490  0.3980  0.2421
 1104SOL    HW214772   1.620   4.304   8.481  1.4370  0.0414 -0.4743
 1105SOL     OW14773   0.401   2.947   5.028  0.0738 -0.6812 -0.5491
 1105SOL    HW114774   0.308   2.967   5.036  0.8560  2.0926  1.7317
 1105SOL    HW214775   0.401   2.888   4.953  0.5195 -0.0474 -1.0425
 1106SOL     OW14776   1.258   2.167   3.973 -0.5788 -0.6169 -0.3469
 1106SOL    HW114777   1.319   2.158   3.900 -0.5476  0.2898 -0.4211
 1106SOL    HW214778   1.283   2.256   3.996 -2.9324 -0.0535  0.0585
 1107SOL     OW14779   2.527   2.126   3.585 -0.0049 -0.3365  0.4684
 1107SOL    HW114780   2.552   2.214   3.559  2.2261 -1.7526 -2.1916
 1107SOL    HW214781   2.592   2.078   3.534  0.4763 -1.1133  1.7904
 1108SOL     OW14782   4.547   3.184   9.319  0.1799  0.2466  0.1406
 1108SOL    HW114783   4.494   3.258   9.289 -0.1347 -1.2865 -3.1184
 1108SOL    HW214784   4.582   3.223   9.399 -2.2795 -0.2470  1.4655
 1109SOL     OW14785   0.622   0.349   4.754  0.3722  0.1775  0.0476
 1109SOL    HW114786   0.531   0.343   4.784  1.2286  0.2419  2.7262
 1109SOL    HW214787   0.660   0.266   4.781 -0.7763 -0.4273 -0.1876
 1110SOL     OW14788   2.215   0.693   5.088  0.5479 -0.3743  0.0359
 1110SOL    HW114789   2.157   0.640   5.142 -0.1779 -0.4435 -0.8185
 1110SOL    HW214790   2.277   0.627   5.057  1.0588  0.6901 -1.2250
 1111SOL     OW14791   0.573   1.789  10.878 -0.3484 -0.5891  0.0840
 1111SOL    HW114792   0.555   1.744  10.960 -1.4427  0.1533  0.2563
 1111SOL    HW214793   0.521   1.870  10.884  0.9738  0.3430 -0.9525
 1112SOL     OW14794   1.093   2.370  13.610 -0.0606 -0.0026  0.0510
 1112SOL    HW114795   1.152   2.295  13.600 -0.9777 -0.3656 -2.6597
 1112SOL    HW214796   1.043   2.344  13.532 -0.6310  1.1514  0.0315
 1113SOL     OW14797   4.700   4.398   4.784 -0.7200  0.1518  0.1881
 1113SOL    HW114798   0.034   4.430   4.852  0.3374  0.3593 -0.8323
 1113SOL    HW214799   0.036   4.361   4.721 -0.7531  1.4972 -0.6286
 1114SOL     OW14800   2.616   1.009   2.920  0.0182 -0.4004  0.1024
 1114SOL    HW114801   2.617   1.075   2.989 -0.5837  0.2964 -0.5566
 1114SOL    HW214802   2.676   1.040   2.853 -0.7217  2.0069  0.5672
 1115SOL     OW14803   1.356   0.990   9.318  0.0347  0.1883 -0.2420
 1115SOL    HW114804   1.432   1.015   9.372  0.2551 -2.0861  0.5031
 1115SOL    HW214805   1.303   0.980   9.397 -2.4470 -1.3548 -2.1229
 1116SOL     OW14806   4.255   0.822   8.239  0.0892 -0.3925 -0.1266
 1116SOL    HW114807   4.247   0.751   8.302  0.3895 -0.1961  0.1358
 1116SOL    HW214808   4.200   0.892   8.273  1.0705  0.3309 -0.0116
 1117SOL     OW14809   4.586   4.095   4.642  0.7402 -0.4572  0.6410
 1117SOL    HW114810   4.617   4.023   4.587 -0.5256 -1.0746  0.7362
 1117SOL    HW214811   4.610   4.165   4.582  0.2802  1.3632  2.5866
 1118SOL     OW14812   2.298   3.333   9.433  0.1726 -0.2452  0.7421
 1118SOL    HW114813   2.274   3.403   9.494 -0.3688 -0.8965  1.2853
 1118SOL    HW214814   2.215   3.286   9.440  1.4411 -2.4541  0.9037
 1119SOL     OW14815   3.385   0.135  15.786  0.0725 -0.1792 -0.3199
 1119SOL    HW114816   3.364   0.178  15.869 -0.8271  0.9376 -1.1224
 1119SOL    HW214817   3.432   0.207  15.745  2.3721 -0.5693  1.6496
 1120SOL     OW14818   0.572   0.426   1.467  0.3022 -0.3448 -0.5467
 1120SOL    HW114819   0.640   0.408   1.401 -0.1795  0.5346 -1.2927
 1120SOL    HW214820   0.617   0.493   1.518 -0.2474  1.6450 -2.6816
 1121SOL     OW14821   3.819   0.225   6.737 -0.5067 -0.0828 -0.0030
 1121SOL    HW114822   3.822   0.266   6.650 -1.0887 -0.3303 -0.1449
 1121SOL    HW214823   3.896   0.169   6.726 -1.5769 -1.3556 -1.1088
 1122SOL     OW14824   4.174   3.013   3.827  0.2344  0.1996 -0.0523
 1122SOL    HW114825   4.183   2.918   3.824 -1.5528  0.0272 -0.0532
 1122SOL    HW214826   4.078   3.021   3.821  0.4314  2.4952 -0.2282
 1123SOL     OW14827   0.736   0.374   8.735 -0.2110 -0.3941 -0.7523
 1123SOL    HW114828   0.809   0.315   8.718 -0.3408 -1.0333  0.8721
 1123SOL    HW214829   0.751   0.406   8.824 -1.6456 -0.6674 -0.4096
 1124SOL     OW14830   3.283   4.435   6.812 -0.3087 -0.0737 -0.1683
 1124SOL    HW114831   3.289   4.529   6.793 -0.3237 -0.1331 -0.4693
 1124SOL    HW214832   3.288   4.453   6.906  0.6706 -2.3326  0.2093
 1125SOL     OW14833   3.726   1.556   6.213  0.2320 -0.2725 -0.2764
 1125SOL    HW114834   3.684   1.635   6.179  0.3664  0.9937  2.4358
 1125SOL    HW214835   3.716   1.504   6.133  0.8421  0.3179 -0.7360
 1126SOL     OW14836   3.528   1.879   1.339 -0.2125 -0.7025 -0.2223
 1126SOL    HW114837   3.563   1.941   1.275  0.7157 -3.1016 -2.0013
 1126SOL    HW214838   3.465   1.939   1.380  0.9718  0.0936  0.4331
 1127SOL     OW14839   0.128   2.093   5.638  0.8064  0.5701  0.1552
 1127SOL    HW114840   0.220   2.110   5.661  1.0337 -1.5657  0.8849
 1127SOL    HW214841   0.132   2.064   5.546 -1.5482 -2.0089  0.8604
 1128SOL     OW14842   2.659   3.457   1.120  0.0840  0.4656 -0.0876
 1128SOL    HW114843   2.688   3.456   1.029 -0.6376  0.3864 -0.3194
 1128SOL    HW214844   2.689   3.373   1.154  0.8296  1.3233  1.3410
 1129SOL     OW14845   4.713   4.162  10.055 -0.4294  0.1191 -0.3765
 1129SOL    HW114846   0.032   4.141   9.972 -0.8285 -2.6233  0.0968
 1129SOL    HW214847   0.061   4.187  10.112 -0.4995  0.6853 -0.5384
 1130SOL     OW14848   2.226   3.487   9.963  0.1370 -0.1588 -0.5194
 1130SOL    HW114849   2.181   3.558   9.917 -0.3388  0.0576  0.2789
 1130SOL    HW214850   2.163   3.444  10.021  0.9370 -1.3829 -0.5480
 1131SOL     OW14851   0.574   0.171   3.047 -0.3203  0.1650 -0.3034
 1131SOL    HW114852   0.649   0.183   2.988 -0.4768 -0.4887 -0.6340
 1131SOL    HW214853   0.585   0.233   3.119  0.3320 -0.6562  0.3076
 1132SOL     OW14854   4.004   4.582   2.437 -0.2702 -0.3599 -0.1194
 1132SOL    HW114855   4.086   4.540   2.467  0.4940  1.5169  0.4244
 1132SOL    HW214856   3.999   4.669   2.477 -1.0247  1.0602 -3.3768
 1133SOL     OW14857   4.599   4.479   2.118  0.4443  0.4187 -0.6033
 1133SOL    HW114858   4.681   4.524   2.094  1.4178 -1.5208 -0.9047
 1133SOL    HW214859   4.551   4.472   2.036  0.2731 -2.3162 -0.2555
 1134SOL     OW14860   4.173   3.714  11.943 -0.2042  0.3906  0.1529
 1134SOL    HW114861   4.232   3.639  11.931  0.4234  1.0536 -0.8688
 1134SOL    HW214862   4.115   3.677  12.010  0.1399  1.5402  1.0720
 1135SOL     OW14863   2.531   1.162   7.786 -0.2652 -0.7339 -0.0502
 1135SOL    HW114864   2.478   1.112   7.848 -0.8844  0.8116  0.6808
 1135SOL    HW214865   2.488   1.248   7.792  0.3398 -0.3591 -1.2138
 1136SOL     OW14866   1.921   0.769   4.491  0.7188  0.4395 -0.0733
 1136SOL    HW114867   1.916   0.860   4.521  0.5388 -0.2455  1.9243
 1136SOL    HW214868   1.835   0.748   4.453  1.6334  0.4634 -2.1655
 1137SOL     OW14869   3.896   1.636  10.294 -0.1675  0.0264 -0.1764
 1137SOL    HW114870   3.932   1.693  10.226  3.8825 -0.2960  1.6824
 1137SOL    HW214871   3.832   1.589  10.242 -2.0720  1.1537  1.1237
 1138SOL     OW14872   2.835   4.007   3.820 -0.1395 -0.4769  0.2223
 1138SOL    HW114873   2.780   3.937   3.857  1.8342 -1.8652  0.5013
 1138SOL    HW214874   2.833   3.988   3.727 -2.0045 -0.2962  0.2287
 1139SOL     OW14875   0.472   2.115  13.206 -1.0228  0.0173 -0.3220
 1139SOL    HW114876   0.449   2.097  13.297 -0.8403 -2.8345 -0.8508
 1139SOL    HW214877   0.547   2.057  13.196 -0.3060  0.4110  2.7406
 1140SOL     OW14878   2.139   3.804   2.027 -0.0552  0.0414  0.3925
 1140SOL    HW114879   2.119   3.715   1.999 -1.2009  0.3709  0.1580
 1140SOL    HW214880   2.063   3.819   2.084  0.0660  0.1118  0.5367
 1141SOL     OW14881   0.557   0.513   5.840  0.0783 -0.5932 -0.8346
 1141SOL    HW114882   0.480   0.461   5.863  0.1955 -1.0443 -1.4585
 1141SOL    HW214883   0.626   0.448   5.854  0.4244 -0.1098 -0.2615
 1142SOL     OW14884   0.200   4.108  11.103 -0.2299 -0.5833 -0.5703
 1142SOL    HW114885   0.107   4.098  11.084 -0.4077 -0.5846  0.3233
 1142SOL    HW214886   0.224   4.056  11.026  0.4238 -0.5488 -0.3908
 1143SOL     OW14887   2.517   1.459   2.706 -0.1397 -0.4659  0.3498
 1143SOL    HW114888   2.425   1.484   2.713  0.1679  0.8055 -0.2784
 1143SOL    HW214889   2.513   1.372   2.747 -0.2374  0.3784  2.1199
 1144SOL     OW14890   2.249   0.357   4.693  0.0479  0.0782  0.0085
 1144SOL    HW114891   2.299   0.431   4.727 -0.9052  1.9099 -2.5405
 1144SOL    HW214892   2.173   0.411   4.668 -0.4866 -0.0984  1.2820
 1145SOL     OW14893   0.221   1.846  10.810  0.4048  0.3133  0.2649
 1145SOL    HW114894   0.197   1.921  10.755  0.0242  1.0695  1.4807
 1145SOL    HW214895   0.153   1.849  10.877 -1.1822  0.0756 -1.3160
 1146SOL     OW14896   1.716   0.371  14.805  0.8105 -0.5704  0.2551
 1146SOL    HW114897   1.678   0.407  14.724 -1.8574 -0.5782  1.5191
 1146SOL    HW214898   1.645   0.331  14.855  0.0088 -0.1397 -0.5284
 1147SOL     OW14899   1.787   1.206   3.334  0.1163 -0.2961  0.5234
 1147SOL    HW114900   1.713   1.145   3.327  0.0569 -0.0357 -1.0123
 1147SOL    HW214901   1.768   1.274   3.269 -0.3935  0.8354  1.8433
 1148SOL     OW14902   3.652   0.448  13.113  0.4934  0.1568 -0.3670
 1148SOL    HW114903   3.734   0.449  13.064  0.4741 -1.4707 -0.4216
 1148SOL    HW214904   3.591   0.452  13.039 -0.8569 -2.4361  0.5927
 1149SOL     OW14905   1.317   3.134   8.578  0.2503  0.2794 -0.0263
 1149SOL    HW114906   1.382   3.071   8.547 -1.5357 -1.7344  0.4093
 1149SOL    HW214907   1.281   3.164   8.495 -0.5469 -2.0357 -0.4975
 1150SOL     OW14908   1.901   4.588   7.959 -0.4303  0.3630 -0.1446
 1150SOL    HW114909   1.851   4.522   8.008  2.9575 -0.5376  2.0819
 1150SOL    HW214910   1.958   4.630   8.023 -1.3264  1.7880 -0.2624
 1151SOL     OW14911   4.173   4.065   2.661 -0.2887 -0.2621  0.4874
 1151SOL    HW114912   4.254   4.093   2.703  0.7221 -1.7589 -0.4534
 1151SOL    HW214913   4.208   4.007   2.594  1.3817  0.7424  0.5114
 1152SOL     OW14914   2.585   0.826   8.031 -0.1880 -0.4904 -0.0445
 1152SOL    HW114915   2.554   0.900   7.979  3.9408  0.2070 -1.4852
 1152SOL    HW214916   2.503   0.776   8.033  0.4876 -1.6498 -1.0333
 1153SOL     OW14917   2.471   1.724   9.209  0.2796 -0.1431 -0.4474
 1153SOL    HW114918   2.465   1.710   9.303  2.3881 -2.3580 -0.6467
 1153SOL    HW214919   2.562   1.730   9.180  0.8874  0.9706  1.7295
 1154SOL     OW14920   0.941   1.968   5.232 -0.1699 -0.4539  0.2535
 1154SOL    HW114921   0.860   1.931   5.196  0.3196 -0.3644 -0.9387
 1154SOL    HW214922   1.016   1.919   5.197 -1.5242 -1.9215 -0.5907
 1155SOL     OW14923   0.961   0.903   2.391 -0.0442  0.2854  0.1931
 1155SOL    HW114924   0.904   0.837   2.351  0.3629  0.3704 -0.5086
 1155SOL    HW214925   0.945   0.886   2.484 -0.7172 -1.1946 -0.1874
 1156SOL     OW14926   0.937   0.748   3.062  0.4586  0.3891 -0.1083
 1156SOL    HW114927   0.887   0.751   3.144  1.8739 -2.7816  0.9124
 1156SOL    HW214928   0.904   0.672   3.014  0.3725  0.4868 -0.2026
 1157SOL     OW14929   4.378   3.962   2.482  0.0284  0.2232  0.1987
 1157SOL    HW114930   4.367   3.878   2.436  1.0828 -0.1750  0.6587
 1157SOL    HW214931   4.472   3.964   2.465  0.1180 -0.2969  0.6206
 1158SOL     OW14932   0.137   3.332   8.641 -0.0344  0.3151 -0.5462
 1158SOL    HW114933   0.052   3.337   8.598  0.6556  1.0757 -1.8211
 1158SOL    HW214934   0.193   3.364   8.570  2.3331 -1.5697  0.4565
 1159SOL     OW14935   1.772   3.986  14.484 -0.2167 -0.4428  0.6694
 1159SOL    HW114936   1.802   3.904  14.523  0.2649  0.2012  1.6441
 1159SOL    HW214937   1.771   3.955  14.394  2.1231  3.0780 -0.5713
 1160SOL     OW14938   2.317   1.083  11.529  0.2528  0.3128  0.0997
 1160SOL    HW114939   2.391   1.023  11.518 -1.3844 -1.0849 -3.0888
 1160SOL    HW214940   2.371   1.158  11.507  1.7989 -1.0136 -0.5615
 1161SOL     OW14941   0.778   3.828   8.760 -0.0980  0.4578  0.4866
 1161SOL    HW114942   0.871   3.838   8.742 -0.3320  0.8649 -0.5095
 1161SOL    HW214943   0.779   3.812   8.854  2.0561 -0.1437  0.3656
 1162SOL     OW14944   2.021   0.573   2.523  0.3234  0.1273 -0.9522
 1162SOL    HW114945   1.952   0.640   2.530 -0.6740 -0.8909 -0.9742
 1162SOL    HW214946   2.057   0.561   2.611  1.5460 -1.0135 -1.6143
 1163SOL     OW14947   2.982   2.862   4.718 -0.1272 -0.2751 -0.1395
 1163SOL    HW114948   2.979   2.864   4.622 -0.1975 -0.1202 -0.1337
 1163SOL    HW214949   3.057   2.803   4.727  0.0267  0.2955  2.1562
 1164SOL     OW14950   3.247   4.719   6.233  0.1189  0.2722  0.0447
 1164SOL    HW114951   3.253   4.680   6.321  0.5846 -1.8507 -0.9308
 1164SOL    HW214952   3.210   4.639   6.195 -0.1841  0.1709  0.5425
 1165SOL     OW14953   0.138   4.639  15.244 -0.6658  0.2533  0.1019
 1165SOL    HW114954   0.212   4.647  15.184 -1.1241  0.2152 -0.4671
 1165SOL    HW214955   0.164   4.560  15.291 -0.0608 -0.3737 -1.2719
 1166SOL     OW14956   4.077   3.592  14.275  0.4042 -0.0973 -0.2335
 1166SOL    HW114957   4.067   3.517  14.217 -1.5708 -0.4976  0.6175
 1166SOL    HW214958   3.990   3.602  14.313  0.5164 -0.4861  0.1318
 1167SOL     OW14959   2.102   0.525   5.583 -0.2075 -0.0221  0.0957
 1167SOL    HW114960   2.133   0.512   5.673  1.8202  1.0580 -0.4489
 1167SOL    HW214961   2.076   0.437   5.554 -1.7575  0.5289 -0.1877
 1168SOL     OW14962   3.112   2.275   7.752  0.5796 -0.3497  0.0684
 1168SOL    HW114963   3.175   2.345   7.766  1.7070 -0.8954 -2.1316
 1168SOL    HW214964   3.119   2.264   7.657 -1.2321 -0.4127 -0.0645
 1169SOL     OW14965   1.665   2.444   9.239 -0.0612  0.6465  0.3036
 1169SOL    HW114966   1.759   2.440   9.222 -0.0602  1.5324  0.0868
 1169SOL    HW214967   1.623   2.434   9.154  1.1127  3.3840 -0.6050
 1170SOL     OW14968   3.865   1.860  15.453 -1.1335 -0.1906  0.0596
 1170SOL    HW114969   3.888   1.913  15.529 -2.5604  1.1110 -0.4121
 1170SOL    HW214970   3.845   1.777  15.497 -0.2407 -0.0313  0.7536
 1171SOL     OW14971   3.670   0.414   2.690  0.4841 -0.3388  0.6393
 1171SOL    HW114972   3.655   0.439   2.599  1.3208 -0.8707  0.3617
 1171SOL    HW214973   3.642   0.322   2.693  2.4272 -0.9614 -0.1027
 1172SOL     OW14974   3.142   3.867   0.719 -0.0589 -0.1811  0.1758
 1172SOL    HW114975   3.048   3.882   0.721 -0.1095 -0.4505 -0.3022
 1172SOL    HW214976   3.168   3.927   0.789 -1.3460  0.2136  0.3078
 1173SOL     OW14977   0.009   1.584   7.482 -0.2854 -0.1284 -0.6461
 1173SOL    HW114978   0.094   1.623   7.503 -0.1854  0.3331 -1.9233
 1173SOL    HW214979   4.724   1.623   7.396  0.0624  1.1472 -0.1153
 1174SOL     OW14980   2.116   3.331   3.704 -0.3795 -0.3411  0.1477
 1174SOL    HW114981   2.154   3.417   3.721 -0.6070 -0.2102 -0.0186
 1174SOL    HW214982   2.102   3.297   3.792 -0.1941 -0.7272  0.0283
 1175SOL     OW14983   4.537   2.922   6.504 -0.0614 -0.2129 -0.2459
 1175SOL    HW114984   4.580   2.857   6.449 -0.8035 -0.4345 -0.5621
 1175SOL    HW214985   4.524   2.998   6.447 -2.7424 -2.1400 -2.1838
 1176SOL     OW14986   3.814   2.453  11.652 -0.0631 -0.3035 -0.2192
 1176SOL    HW114987   3.766   2.407  11.722 -2.3481 -0.6892 -2.0308
 1176SOL    HW214988   3.888   2.393  11.647 -1.5263 -2.0959 -0.6799
 1177SOL     OW14989   3.681   3.454   5.832 -0.7339 -0.0603  0.2945
 1177SOL    HW114990   3.615   3.415   5.775 -1.5502  0.7634  0.6615
 1177SOL    HW214991   3.710   3.393   5.899  2.7279  0.5190 -0.6725
 1178SOL     OW14992   2.016   2.381   6.305 -0.1102 -0.2507  0.3699
 1178SOL    HW114993   2.003   2.362   6.212  0.5579 -2.0220  0.6335
 1178SOL    HW214994   2.029   2.476   6.303  0.6244 -0.3655 -0.5410
 1179SOL     OW14995   4.261   0.104  11.088 -0.0943  0.2891 -0.3402
 1179SOL    HW114996   4.288   0.069  11.173 -1.9178 -0.1977  0.0400
 1179SOL    HW214997   4.191   0.160  11.122 -0.0639  1.5193 -2.2664
 1180SOL     OW14998   1.959   2.831  11.399  0.8545 -0.3650 -0.4351
 1180SOL    HW114999   1.877   2.793  11.367  0.6216  1.3703 -1.9313
 1180SOL    HW215000   1.952   2.914  11.351 -0.3631  1.1147  2.2859
 1181SOL     OW15001   2.565   1.905   3.840 -0.2452  0.1813 -0.3734
 1181SOL    HW115002   2.493   1.885   3.780 -0.9064  0.1555  0.4184
 1181SOL    HW215003   2.563   1.844   3.914 -1.9826  1.5595  0.7257
 1182SOL     OW15004   3.318   4.327   6.455 -0.6992  0.2203 -0.1200
 1182SOL    HW115005   3.333   4.281   6.538  0.2951  2.6072  1.0029
 1182SOL    HW215006   3.387   4.295   6.396  0.5033  3.5804 -0.5027
 1183SOL     OW15007   3.800   2.335  11.338  0.3239 -0.3168  0.2147
 1183SOL    HW115008   3.773   2.243  11.340  1.8929 -0.7813  0.0494
 1183SOL    HW215009   3.792   2.360  11.430  0.9723  2.0619 -0.3814
 1184SOL     OW15010   3.058   2.952   3.236  0.2624  0.1110 -0.2665
 1184SOL    HW115011   3.137   2.947   3.182 -0.0239  1.0638 -0.7840
 1184SOL    HW215012   2.996   2.972   3.166 -0.8587 -1.1077  0.3949
 1185SOL     OW15013   4.193   0.379  14.104 -0.0462 -0.5740  0.1572
 1185SOL    HW115014   4.140   0.379  14.024  1.6615  1.6266 -0.9523
 1185SOL    HW215015   4.269   0.427  14.072 -0.0520 -1.6983 -1.5462
 1186SOL     OW15016   0.961   0.057   8.827 -0.1778  0.6577  0.1455
 1186SOL    HW115017   0.893   0.068   8.761 -0.4416 -2.3073 -0.0692
 1186SOL    HW215018   0.912   0.050   8.908  0.2630  0.9209  0.4387
 1187SOL     OW15019   0.962   1.329   4.207  0.2417  0.0392 -0.0573
 1187SOL    HW115020   1.033   1.265   4.219  0.8493  0.8656  0.7919
 1187SOL    HW215021   0.930   1.300   4.122  1.5277 -0.9397 -0.2165
 1188SOL     OW15022   4.401   1.352   0.256  0.0590  0.3317  0.4564
 1188SOL    HW115023   4.410   1.424   0.318 -0.6372  0.4231  0.4540
 1188SOL    HW215024   4.314   1.343   0.218  0.2776 -0.5140  0.1477
 1189SOL     OW15025   2.598   0.865   5.466  0.5455  0.1142  0.9435
 1189SOL    HW115026   2.645   0.827   5.540  3.8498  3.2971  0.4406
 1189SOL    HW215027   2.516   0.816   5.469 -0.1201  1.0509 -1.8243
 1190SOL     OW15028   4.453   2.981   9.181 -0.1360 -0.3084  0.2420
 1190SOL    HW115029   4.491   3.062   9.216 -1.5291  0.5113 -0.1564
 1190SOL    HW215030   4.528   2.930   9.150  0.9184  1.4136 -0.0045
 1191SOL     OW15031   0.597   3.246   4.964 -0.1008  0.5420  0.2620
 1191SOL    HW115032   0.536   3.173   4.980  1.4277 -0.2829  2.3615
 1191SOL    HW215033   0.605   3.284   5.052  0.9443 -0.1602  0.4703
 1192SOL     OW15034   1.819   4.153   3.547 -0.1334  0.1201  0.0361
 1192SOL    HW115035   1.815   4.247   3.529  2.0934  0.1870 -0.1632
 1192SOL    HW215036   1.832   4.128   3.455  2.1898 -1.5587  0.8250
 1193SOL     OW15037   1.388   4.083  11.220  0.6318 -0.1293 -0.1641
 1193SOL    HW115038   1.452   4.035  11.273 -1.0879 -0.7048  1.3722
 1193SOL    HW215039   1.427   4.054  11.138  0.3668  2.5538 -1.2371
 1194SOL     OW15040   4.040   3.805   5.240  0.4003  0.0104 -0.4023
 1194SOL    HW115041   3.986   3.871   5.196 -1.6140 -0.6904  0.9921
 1194SOL    HW215042   4.073   3.856   5.314 -1.0512 -1.2610  1.1214
 1195SOL     OW15043   0.707   1.720   3.036  0.0504  0.7639 -0.2457
 1195SOL    HW115044   0.647   1.647   3.047  0.2588  0.5138 -0.7795
 1195SOL    HW215045   0.777   1.701   3.100 -1.2219 -0.6290  0.7268
 1196SOL     OW15046   4.192   1.525   3.153  0.2200  0.0514 -0.3559
 1196SOL    HW115047   4.247   1.533   3.075 -0.6640  3.6338 -0.6118
 1196SOL    HW215048   4.254   1.547   3.222  0.2977  0.7316 -0.6443
 1197SOL     OW15049   2.411   4.323   8.298 -0.1823  0.0488  0.4252
 1197SOL    HW115050   2.439   4.322   8.207 -1.7025  1.4949 -0.0586
 1197SOL    HW215051   2.399   4.229   8.309 -0.8711  0.3402  2.1956
 1198SOL     OW15052   4.048   2.578   7.688  0.1631  0.3230  0.5757
 1198SOL    HW115053   3.978   2.514   7.680  0.2264  0.2038  0.9776
 1198SOL    HW215054   4.126   2.535   7.654 -0.7386 -0.4285 -0.5595
 1199SOL     OW15055   3.025   0.427  10.690  0.0316 -0.3482 -0.1266
 1199SOL    HW115056   3.005   0.387  10.606  0.6054  2.2445 -1.4713
 1199SOL    HW215057   3.016   0.521  10.676 -2.8046 -0.5909 -0.0050
 1200SOL     OW15058   3.392   2.375  14.775 -0.0852  0.7920  0.5863
 1200SOL    HW115059   3.436   2.303  14.730 -0.4110  0.1338  1.3244
 1200SOL    HW215060   3.391   2.432  14.698 -0.8233  0.9803  0.7395
 1201SOL     OW15061   0.336   1.886   8.858  0.2332 -0.1590 -0.3154
 1201SOL    HW115062   0.299   1.925   8.778  1.2111  1.6437  0.1041
 1201SOL    HW215063   0.269   1.819   8.874  0.6755 -0.6994 -0.7187
 1202SOL     OW15064   4.585   3.897   1.325 -0.1445 -0.6001  0.3811
 1202SOL    HW115065   4.617   3.977   1.286  3.2268 -2.1275  0.0501
 1202SOL    HW215066   4.508   3.932   1.370 -0.0920  0.9487 -0.7679
 1203SOL     OW15067   0.222   1.150   2.656  0.2444  0.3797  0.4900
 1203SOL    HW115068   0.312   1.175   2.634  0.1738  0.5672  0.4087
 1203SOL    HW215069   0.171   1.208   2.599 -0.6918 -0.8676  0.0549
 1204SOL     OW15070   4.406   2.975  13.890  0.2463 -0.1475 -0.2438
 1204SOL    HW115071   4.449   2.991  13.974 -0.9562 -0.5109  0.4518
 1204SOL    HW215072   4.373   2.885  13.900  1.8876 -0.7759 -0.5003
 1205SOL     OW15073   3.959   4.230   3.922  0.0708  0.1357  0.5670
 1205SOL    HW115074   4.029   4.293   3.901  0.0442  0.0827  0.3141
 1205SOL    HW215075   3.880   4.283   3.919 -0.5200 -0.8051 -0.4294
 1206SOL     OW15076   1.647   3.475   3.675 -0.2298  0.3242 -0.3590
 1206SOL    HW115077   1.586   3.503   3.607 -0.3536 -0.5549 -0.6070
 1206SOL    HW215078   1.713   3.429   3.623 -0.2528 -0.4849  0.3232
 1207SOL     OW15079   1.679   0.536   2.245 -0.0895 -0.3673  0.4113
 1207SOL    HW115080   1.600   0.510   2.292 -0.1637 -0.2466  0.3508
 1207SOL    HW215081   1.756   0.505   2.292 -0.6154  1.0676  2.2406
 1208SOL     OW15082   0.737   0.818   9.181 -0.0047 -0.2541  0.3088
 1208SOL    HW115083   0.687   0.895   9.153 -0.1513 -0.3377  0.3419
 1208SOL    HW215084   0.757   0.780   9.096 -0.6279 -1.1960  0.5842
 1209SOL     OW15085   2.229   1.669   3.401  0.3614  0.1391 -0.2343
 1209SOL    HW115086   2.151   1.713   3.366 -0.6523 -1.0059  0.5818
 1209SOL    HW215087   2.294   1.736   3.381  0.9726  0.3985  2.6192
 1210SOL     OW15088   1.024   2.497   6.238  0.0855  0.0304  0.6671
 1210SOL    HW115089   1.015   2.581   6.191 -0.3015 -0.2395  0.2614
 1210SOL    HW215090   0.962   2.444   6.189  0.7848  1.3256 -1.6533
 1211SOL     OW15091   0.091   3.702   3.707  0.0129  0.2883  0.3346
 1211SOL    HW115092   0.123   3.792   3.706 -0.0241  0.2851 -1.3228
 1211SOL    HW215093   0.172   3.665   3.740  0.5400 -1.1241 -2.5402
 1212SOL     OW15094   2.152   1.977   2.718 -0.0452 -0.2513 -0.0574
 1212SOL    HW115095   2.188   2.009   2.636  0.3013 -0.5198 -0.0129
 1212SOL    HW215096   2.205   1.897   2.730  0.1882  0.0599  1.0127
 1213SOL     OW15097   3.338   2.162   6.711  0.5669 -0.4657  0.2726
 1213SOL    HW115098   3.277   2.106   6.760 -0.2921 -0.3308 -0.6380
 1213SOL    HW215099   3.409   2.160   6.775  0.3708  1.4147  0.5399
 1214SOL     OW15100   0.210   4.181  10.672  0.2000 -0.5562 -0.3249
 1214SOL    HW115101   0.130   4.200  10.623  1.1490  0.9111 -1.3137
 1214SOL    HW215102   0.263   4.165  10.594 -0.2616 -0.8062 -0.5838
 1215SOL     OW15103   1.817   3.670   6.989 -0.2262  0.5010  0.2628
 1215SOL    HW115104   1.768   3.621   7.056  1.4221 -1.2993  0.1340
 1215SOL    HW215105   1.784   3.759   7.003  1.1257  1.3531 -1.9225
 1216SOL     OW15106   3.648   1.652   9.051 -0.6305 -0.5814 -0.4035
 1216SOL    HW115107   3.598   1.584   9.005 -0.1657 -0.4683 -1.0718
 1216SOL    HW215108   3.705   1.612   9.116 -0.5196  0.3011  0.0374
 1217SOL     OW15109   3.074   2.083  12.409  0.2001  1.1739 -0.2575
 1217SOL    HW115110   3.130   2.149  12.369  0.2573  2.4291  1.8708
 1217SOL    HW215111   3.135   2.062  12.480 -0.7701 -2.6448 -0.5621
 1218SOL     OW15112   2.525   2.815   6.400 -0.2214  0.7353 -0.4006
 1218SOL    HW115113   2.447   2.827   6.455 -0.2217  1.5149 -0.5625
 1218SOL    HW215114   2.519   2.878   6.328  0.1061 -0.8922 -1.8575
 1219SOL     OW15115   4.069   1.074   5.537 -0.3219 -0.1153  0.3991
 1219SOL    HW115116   4.130   1.000   5.526  0.6490  0.4470  2.1241
 1219SOL    HW215117   4.005   1.039   5.599 -1.6208 -0.4561 -1.1195
 1220SOL     OW15118   2.563   2.975   3.103 -0.7137 -0.5727  0.0040
 1220SOL    HW115119   2.643   2.926   3.118 -0.2762 -0.0894 -0.7476
 1220SOL    HW215120   2.573   3.013   3.015  0.4212 -2.6986 -0.7668
 1221SOL     OW15121   2.929   2.884   0.634  0.0163  0.2715  0.2076
 1221SOL    HW115122   2.991   2.861   0.565 -2.1563 -1.7361 -1.0750
 1221SOL    HW215123   2.957   2.824   0.704 -4.4885 -4.1757 -1.7684
 1222SOL     OW15124   3.907   3.606  13.083 -0.3181  0.1287 -0.2294
 1222SOL    HW115125   3.897   3.525  13.133 -0.6195 -0.9350 -2.0011
 1222SOL    HW215126   3.973   3.650  13.136 -1.7763  1.8321  0.1580
 1223SOL     OW15127   3.283   2.360  15.058  0.8126  0.0550 -0.3775
 1223SOL    HW115128   3.210   2.315  15.017  0.0722 -1.2499  2.3787
 1223SOL    HW215129   3.330   2.381  14.977  2.2662 -0.8119  0.2427
 1224SOL     OW15130   4.337   2.435  11.927 -0.1039  0.0472 -0.2848
 1224SOL    HW115131   4.406   2.445  11.993  0.6955 -1.5280 -0.8566
 1224SOL    HW215132   4.270   2.497  11.956 -0.8776 -1.4324  1.1695
 1225SOL     OW15133   1.374   0.169   0.402 -0.0253 -0.1269 -0.2178
 1225SOL    HW115134   1.440   0.102   0.421  1.2453  1.4108  0.8211
 1225SOL    HW215135   1.317   0.117   0.346 -0.5902 -1.2959  1.4585
 1226SOL     OW15136   2.560   3.445   9.226 -0.4445 -0.0303  0.5338
 1226SOL    HW115137   2.654   3.435   9.242 -0.2777  0.5725 -0.0881
 1226SOL    HW215138   2.530   3.443   9.317  1.3850 -0.9213  1.1191
 1227SOL     OW15139   0.828   1.852  10.783  0.7910 -0.0866  0.4093
 1227SOL    HW115140   0.742   1.834  10.822  1.1542  0.1607  1.3251
 1227SOL    HW215141   0.839   1.942  10.813  1.2307  0.5546 -1.6640
 1228SOL     OW15142   2.947   1.458   3.564  0.0567 -0.1477  0.3952
 1228SOL    HW115143   2.894   1.471   3.486  1.1385  0.1481 -0.2912
 1228SOL    HW215144   2.892   1.396   3.613 -0.8704 -0.1700 -0.6792
 1229SOL     OW15145   2.984   0.736  11.902 -0.2763  0.2688  0.3530
 1229SOL    HW115146   2.929   0.764  11.974 -1.5007 -2.4518  0.4722
 1229SOL    HW215147   3.031   0.669  11.952  0.8318  1.2196  0.5964
 1230SOL     OW15148   3.604   3.665   1.904  0.2725 -0.2331  0.3478
 1230SOL    HW115149   3.635   3.583   1.866 -2.0399 -1.2144  0.6194
 1230SOL    HW215150   3.581   3.719   1.827  0.1294 -1.1980 -0.2868
 1231SOL     OW15151   1.655   0.394   6.627  0.1682 -0.3957 -0.0570
 1231SOL    HW115152   1.716   0.465   6.608  0.6068 -0.9350 -0.6405
 1231SOL    HW215153   1.617   0.418   6.712  1.5804  1.0954  0.1643
 1232SOL     OW15154   0.703   1.429  11.685 -0.3032  0.3414  0.0330
 1232SOL    HW115155   0.747   1.494  11.630  0.3581  0.1257  0.3116
 1232SOL    HW215156   0.777   1.383  11.725 -0.0287 -0.7540 -1.7010
 1233SOL     OW15157   1.449   3.716   9.073  0.0019 -0.1351  0.0325
 1233SOL    HW115158   1.479   3.806   9.061  0.4392 -0.0638  1.6841
 1233SOL    HW215159   1.529   3.667   9.054  0.0549  0.5652 -1.5364
 1234SOL     OW15160   0.164   4.012  12.112 -0.8748  0.4177 -0.3775
 1234SOL    HW115161   0.140   4.073  12.043  3.3884  2.4166 -0.1164
 1234SOL    HW215162   0.074   3.980  12.120 -0.0322 -1.5855  1.2177
 1235SOL     OW15163   2.988   2.919   6.045  0.2307 -0.0245 -0.0131
 1235SOL    HW115164   2.931   2.856   6.000  0.6218 -1.6878  1.8171
 1235SOL    HW215165   3.014   2.977   5.974 -0.8701  1.2041  0.5875
 1236SOL     OW15166   1.250   2.317   8.978 -0.1600 -0.1267 -0.3146
 1236SOL    HW115167   1.170   2.267   8.965  0.2209 -0.1684 -2.4669
 1236SOL    HW215168   1.223   2.337   9.068  0.0266  0.7238 -0.4430
 1237SOL     OW15169   1.119   4.278   6.581 -0.1420  0.2705  0.0776
 1237SOL    HW115170   1.035   4.287   6.628 -0.3972 -0.6628 -0.2065
 1237SOL    HW215171   1.141   4.185   6.578 -1.0786  0.0559 -0.1978
 1238SOL     OW15172   2.833   2.596   3.333  0.4590  0.0154 -0.9826
 1238SOL    HW115173   2.860   2.553   3.414 -0.8720  2.4099  0.7317
 1238SOL    HW215174   2.756   2.547   3.306  0.2782  0.2967 -0.9801
 1239SOL     OW15175   4.693   3.376   5.756  0.3281  0.3429  0.1990
 1239SOL    HW115176   0.052   3.422   5.766  1.6890 -2.1869  0.3389
 1239SOL    HW215177   4.707   3.350   5.665  1.1344  1.8228 -0.1065
 1240SOL     OW15178   1.210   1.698   5.349 -0.3407 -0.1767  0.2923
 1240SOL    HW115179   1.149   1.639   5.394 -0.6913 -1.8138 -2.3025
 1240SOL    HW215180   1.226   1.768   5.412 -1.9222 -1.2581  1.8967
 1241SOL     OW15181   0.755   2.715   1.984 -0.1205 -0.2300 -0.3706
 1241SOL    HW115182   0.776   2.796   1.937 -0.0698 -1.2140 -2.0358
 1241SOL    HW215183   0.678   2.692   1.933 -0.7621  0.8841  0.0884
 1242SOL     OW15184   0.671   2.712   6.908 -0.1983 -0.2153  0.2878
 1242SOL    HW115185   0.594   2.769   6.904 -0.8243 -1.1668 -1.6362
 1242SOL    HW215186   0.737   2.769   6.868 -0.5817  0.1048  0.1106
 1243SOL     OW15187   4.045   0.035   6.743  0.3681 -0.1039 -0.2606
 1243SOL    HW115188   4.049   4.673   6.781 -0.1338  1.5384  3.5504
 1243SOL    HW215189   4.056   0.016   6.650 -0.4496  0.2176 -0.4253
 1244SOL     OW15190   0.900   3.536  16.289 -0.1371  0.4411 -0.4843
 1244SOL    HW115191   0.944   3.608  16.243  0.7506  2.2105  3.0858
 1244SOL    HW215192   0.901   3.459  16.232  1.1526 -1.2653  1.8410
 1245SOL     OW15193   2.762   3.697  10.322  0.3946 -0.0436  0.2505
 1245SOL    HW115194   2.708   3.723  10.396 -0.5074 -0.6924 -0.1892
 1245SOL    HW215195   2.707   3.678  10.247  1.2945 -1.4340 -0.0589
 1246SOL     OW15196   3.587   0.172   5.950 -0.5023 -0.2463 -0.1814
 1246SOL    HW115197   3.652   0.117   5.907 -0.8862 -1.2434  0.5250
 1246SOL    HW215198   3.513   0.175   5.889  0.7157  0.4189 -1.6293
 1247SOL     OW15199   1.930   3.632   0.582 -0.3967 -0.7011  0.2962
 1247SOL    HW115200   1.886   3.698   0.637  0.5406 -0.2144  0.4617
 1247SOL    HW215201   1.996   3.600   0.644  0.3132 -0.3359 -0.2662
 1248SOL     OW15202   2.003   2.130   8.253 -0.7454 -0.0332 -0.2261
 1248SOL    HW115203   1.982   2.064   8.187  0.1670 -1.5732  1.0218
 1248SOL    HW215204   2.004   2.070   8.328  0.3277  0.5669  0.2492
 1249SOL     OW15205   1.608   0.838   8.174  0.5041 -0.0145 -0.4739
 1249SOL    HW115206   1.516   0.816   8.163  0.3771 -1.4601  3.8011
 1249SOL    HW215207   1.598   0.929   8.201 -1.7308 -0.4917  0.2772
 1250SOL     OW15208   4.331   3.631  12.248  0.2746  0.2444 -0.1718
 1250SOL    HW115209   4.415   3.619  12.203  1.0780  0.0445  1.3878
 1250SOL    HW215210   4.332   3.727  12.242 -2.2893  0.2031 -1.1529
 1251SOL     OW15211   3.154   2.234  16.423 -0.5496  0.0263  0.8840
 1251SOL    HW115212   3.115   2.172  16.485  0.4616 -0.0585  1.4280
 1251SOL    HW215213   3.078   2.247  16.365  1.4382  0.7493 -1.5785
 1252SOL     OW15214   3.286   0.616   1.651 -0.1143  0.2305  0.8006
 1252SOL    HW115215   3.222   0.665   1.600  0.3840  2.3757  2.2318
 1252SOL    HW215216   3.324   0.556   1.587  1.9799  1.3095  1.0402
 1253SOL     OW15217   3.308   4.706   6.719 -0.1063  0.0462  0.1206
 1253SOL    HW115218   3.263   0.034   6.785 -0.1815  2.1911 -1.6572
 1253SOL    HW215219   3.400   0.003   6.728  0.1704 -0.7161 -0.8977
 1254SOL     OW15220   4.696   3.512   4.134 -0.1786  0.2674  0.2907
 1254SOL    HW115221   0.027   3.435   4.143 -2.1154 -1.2555 -0.6226
 1254SOL    HW215222   4.617   3.495   4.184 -0.5602  1.8768  0.2493
 1255SOL     OW15223   1.536   2.648   2.491 -0.3716 -0.1681 -0.3743
 1255SOL    HW115224   1.592   2.583   2.448 -1.0903 -2.7270  2.5713
 1255SOL    HW215225   1.565   2.730   2.450 -0.2182  0.6205  1.2949
 1256SOL     OW15226   3.150   3.836   3.878  0.4204  0.2375  0.2660
 1256SOL    HW115227   3.245   3.825   3.876  0.3951  0.0665 -0.1630
 1256SOL    HW215228   3.135   3.780   3.802  0.4139 -1.2355  1.3636
 1257SOL     OW15229   0.573   3.403   4.400  0.1360  0.1505 -0.2395
 1257SOL    HW115230   0.559   3.497   4.391  0.0470 -0.0793 -2.7273
 1257SOL    HW215231   0.547   3.373   4.312 -1.8841 -0.3690  0.5371
 1258SOL     OW15232   0.298   0.114   8.308 -0.4370 -0.5280  0.1723
 1258SOL    HW115233   0.273   0.206   8.308  0.7924 -0.2019 -1.9509
 1258SOL    HW215234   0.371   0.109   8.369  0.3265  3.6437 -0.3772
 1259SOL     OW15235   3.466   4.108  16.739 -0.3078  0.3855  0.3614
 1259SOL    HW115236   3.520   4.081  16.664  0.1265 -0.9951  1.1684
 1259SOL    HW215237   3.525   4.101  16.814 -0.9290 -1.1309  0.7046
 1260SOL     OW15238   4.015   3.892   9.607  0.3296 -0.3905 -0.4758
 1260SOL    HW115239   4.059   3.896   9.522  0.9688 -1.8550 -0.2176
 1260SOL    HW215240   4.090   3.905   9.665  1.0096 -0.1635 -1.4126
 1261SOL     OW15241   1.360   0.116  11.913 -0.3173  0.0105 -0.4916
 1261SOL    HW115242   1.368   0.064  11.832  1.9658  0.1536 -0.3725
 1261SOL    HW215243   1.441   0.084  11.953 -2.1389 -0.9617  2.3734
 1262SOL     OW15244   3.841   2.415   8.299  0.3153 -0.1080  0.0478
 1262SOL    HW115245   3.811   2.489   8.246  0.2872  0.1651  0.4424
 1262SOL    HW215246   3.932   2.411   8.271  1.0331  1.0736  2.2542
 1263SOL     OW15247   3.087   2.081  15.500 -0.2832  0.9016 -0.1333
 1263SOL    HW115248   3.093   1.992  15.466  1.1090  1.5712 -1.6627
 1263SOL    HW215249   3.177   2.113  15.496 -0.9677  2.6604 -2.2130
 1264SOL     OW15250   4.020   4.387   4.547 -0.7437 -0.5479 -0.4637
 1264SOL    HW115251   4.110   4.374   4.517 -1.6216 -1.4145 -2.7275
 1264SOL    HW215252   3.970   4.349   4.475 -0.0574 -0.4339 -1.0072
 1265SOL     OW15253   0.434   2.136   6.011 -0.0119  0.6031 -0.0067
 1265SOL    HW115254   0.503   2.070   6.000  1.6204  1.9568  2.1800
 1265SOL    HW215255   0.383   2.126   5.930 -0.0791  1.7838 -0.1045
 1266SOL     OW15256   3.509   0.405   2.287  0.0352  0.1963 -0.3770
 1266SOL    HW115257   3.591   0.407   2.337  0.1375  0.2854 -0.5496
 1266SOL    HW215258   3.446   0.457   2.337 -1.5324 -1.5626 -0.5403
 1267SOL     OW15259   1.442   3.654   3.994  0.3430  0.4721 -0.8223
 1267SOL    HW115260   1.444   3.711   3.917 -0.0362 -2.2191 -2.8480
 1267SOL    HW215261   1.359   3.683   4.031  0.6850 -0.2666  0.5031
 1268SOL     OW15262   1.333   0.462   7.928  0.2375 -0.5476  0.0285
 1268SOL    HW115263   1.396   0.491   7.993 -0.9407  1.3636  0.3359
 1268SOL    HW215264   1.256   0.510   7.959  0.8330  2.2708 -2.7800
 1269SOL     OW15265   0.649   2.891  13.579  0.4036  0.0312 -0.5289
 1269SOL    HW115266   0.595   2.962  13.612 -1.4032 -0.7317 -1.8517
 1269SOL    HW215267   0.586   2.824  13.604 -0.3753  1.4516  1.2890
 1270SOL     OW15268   4.567   3.042  10.418 -0.2544 -0.5587  0.5064
 1270SOL    HW115269   4.562   2.948  10.439  4.0019 -0.7846  0.4470
 1270SOL    HW215270   4.584   3.072  10.508  0.8012  0.5241 -0.0570
 1271SOL     OW15271   1.890   3.018  13.330 -0.3561  0.7470 -0.3526
 1271SOL    HW115272   1.852   3.095  13.372  0.4422  2.3238 -2.5291
 1271SOL    HW215273   1.865   3.043  13.241 -0.4848 -2.0798 -1.1264
 1272SOL     OW15274   3.879   2.678   1.197 -0.5422 -0.1736 -0.2805
 1272SOL    HW115275   3.842   2.763   1.221  0.2556  0.1025 -0.0172
 1272SOL    HW215276   3.972   2.683   1.174 -0.5924 -0.9415 -0.6599
 1273SOL     OW15277   2.003   1.738   2.810  0.4415  0.3975  0.4506
 1273SOL    HW115278   2.048   1.677   2.869 -0.5382  0.8662  1.7000
 1273SOL    HW215279   1.917   1.697   2.808 -0.3431  2.0522  0.2544
 1274SOL     OW15280   2.615   1.744   7.252 -0.1999 -0.6750 -0.7486
 1274SOL    HW115281   2.584   1.784   7.333  1.8349  1.5233 -1.0620
 1274SOL    HW215282   2.678   1.677   7.281 -0.1748 -1.2348 -2.0630
 1275SOL     OW15283   0.441   2.788   1.568 -0.1230 -0.7377  0.4197
 1275SOL    HW115284   0.357   2.794   1.524  0.3285 -0.5025 -0.4095
 1275SOL    HW215285   0.503   2.816   1.500 -0.1074 -1.8683 -0.0224
 1276SOL     OW15286   0.686   2.136   1.895  0.4011 -1.0190 -0.1607
 1276SOL    HW115287   0.644   2.144   1.981  3.2399  0.6530  1.0636
 1276SOL    HW215288   0.616   2.111   1.834  0.5174 -1.2681 -0.1907
 1277SOL     OW15289   0.962   1.614  13.909 -0.2721 -0.1040 -0.1353
 1277SOL    HW115290   1.039   1.567  13.943 -1.0645 -1.0894  0.2814
 1277SOL    HW215291   0.909   1.604  13.988 -0.1872 -0.0967 -0.0774
 1278SOL     OW15292   1.144   1.310   6.551 -1.0644 -0.2563 -0.0560
 1278SOL    HW115293   1.121   1.400   6.531 -2.1577 -0.2932  1.0438
 1278SOL    HW215294   1.186   1.289   6.467  0.4266  2.2448  0.0648
 1279SOL     OW15295   1.589   3.158   6.617  0.3478 -0.3586  0.1481
 1279SOL    HW115296   1.558   3.126   6.533 -0.7729 -0.9368  0.7759
 1279SOL    HW215297   1.605   3.079   6.668 -1.5031  0.1547  1.5573
 1280SOL     OW15298   1.257   1.241   6.326 -0.0230  0.1161  0.1576
 1280SOL    HW115299   1.195   1.242   6.253  0.7601 -0.2275 -0.5073
 1280SOL    HW215300   1.325   1.188   6.286 -0.0052  0.4349 -0.2339
 1281SOL     OW15301   2.122   4.534   7.457  0.0775  0.1443 -0.1827
 1281SOL    HW115302   2.099   4.621   7.490  1.6058 -0.3166  2.1435
 1281SOL    HW215303   2.127   4.550   7.363  0.0030  0.6366 -0.0994
 1282SOL     OW15304   4.055   2.625   8.148  0.5402 -0.4418 -0.3626
 1282SOL    HW115305   4.025   2.667   8.067 -2.2056  1.4388  1.6174
 1282SOL    HW215306   4.073   2.687   8.219 -0.7049  2.8997 -2.9723
 1283SOL     OW15307   1.826   2.366   1.360 -0.1660  0.1138  0.0855
 1283SOL    HW115308   1.732   2.366   1.379  0.0458  2.6907  1.1204
 1283SOL    HW215309   1.864   2.431   1.419  0.8306 -0.2084 -0.2048
 1284SOL     OW15310   3.840   1.743   4.858 -0.2615  0.5247 -0.3366
 1284SOL    HW115311   3.757   1.718   4.817 -0.1078 -1.2850  0.4556
 1284SOL    HW215312   3.886   1.659   4.854 -0.9841  0.0042  2.1932
 1285SOL     OW15313   0.801   1.679   7.591 -0.1393  0.0392  0.0776
 1285SOL    HW115314   0.728   1.624   7.561 -0.6068  0.8539 -0.2811
 1285SOL    HW215315   0.748   1.749   7.627 -2.9905 -0.9275 -2.2087
 1286SOL     OW15316   3.777   4.692   9.475 -0.2581  0.5025 -0.1861
 1286SOL    HW115317   3.807   4.602   9.468 -1.0622  0.2867 -0.8790
 1286SOL    HW215318   3.747   4.688   9.384 -0.9373 -1.0652  0.1090
 1287SOL     OW15319   1.794   2.991  16.516  0.0558 -0.2460 -0.8869
 1287SOL    HW115320   1.702   3.014  16.530 -0.0909  0.0507 -2.2782
 1287SOL    HW215321   1.783   2.937  16.437 -1.6760  3.0708 -2.8970
 1288SOL     OW15322   2.415   3.088   9.378 -0.1036 -0.0621 -0.2949
 1288SOL    HW115323   2.365   3.046   9.448  1.4964 -0.5528  0.5355
 1288SOL    HW215324   2.401   3.183   9.385 -1.1816 -0.4292  2.3937
 1289SOL     OW15325   3.370   4.116   1.636  0.2093  0.4028 -0.5895
 1289SOL    HW115326   3.365   4.179   1.564  0.1409 -0.1335 -1.0504
 1289SOL    HW215327   3.464   4.098   1.642 -0.2759 -1.1717  2.5815
 1290SOL     OW15328   3.121   3.708   3.100  0.3059 -0.2207  0.0866
 1290SOL    HW115329   3.032   3.715   3.066  0.6210  0.6003 -0.5824
 1290SOL    HW215330   3.159   3.710   3.012 -2.0291 -1.7126 -0.9502
 1291SOL     OW15331   0.871   3.254   2.251 -0.0116 -0.1517  0.4186
 1291SOL    HW115332   0.950   3.307   2.249 -0.4170  0.5428  2.7092
 1291SOL    HW215333   0.825   3.288   2.174 -1.9344 -1.0442  1.1554
 1292SOL     OW15334   2.911   4.669   2.421  0.3697  0.5948  0.0186
 1292SOL    HW115335   2.946   4.677   2.332 -1.2474  0.4095 -0.6328
 1292SOL    HW215336   2.818   4.684   2.401  0.4690 -1.3512 -1.9849
 1293SOL     OW15337   3.709   0.544  15.646 -0.2889 -0.9766 -0.5895
 1293SOL    HW115338   3.713   0.624  15.698 -0.6883 -1.0251 -0.4860
 1293SOL    HW215339   3.689   0.582  15.560 -1.2089  1.0462  0.5184
 1294SOL     OW15340   1.769   3.096   8.886  0.4732  0.5107  0.7038
 1294SOL    HW115341   1.734   3.164   8.944  2.1035  1.2714  0.8212
 1294SOL    HW215342   1.738   3.022   8.939 -1.8338  1.6547  0.9336
 1295SOL     OW15343   4.138   4.712   6.135 -0.1863  0.1860 -0.5119
 1295SOL    HW115344   4.222   0.025   6.162 -0.7932 -0.1104  1.8554
 1295SOL    HW215345   4.150   4.675   6.048  0.7605 -0.0276 -0.2925
 1296SOL     OW15346   3.439   1.050   7.170  0.6435  0.2201  0.0658
 1296SOL    HW115347   3.527   1.039   7.207 -0.4274 -0.4119  2.4194
 1296SOL    HW215348   3.417   0.959   7.188 -0.9115  0.0752 -2.6986
 1297SOL     OW15349   1.006   4.549  10.451  0.0137  0.7529  0.0785
 1297SOL    HW115350   0.917   4.532  10.419 -0.3796  2.8512  0.0722
 1297SOL    HW215351   1.043   4.579  10.368  0.6085  1.0737  0.4599
 1298SOL     OW15352   3.830   3.465   4.324 -0.6219 -0.3394  0.4274
 1298SOL    HW115353   3.739   3.437   4.335 -1.2081  0.7224 -1.5486
 1298SOL    HW215354   3.825   3.555   4.358 -0.7518 -0.3244  0.3697
 1299SOL     OW15355   1.666   3.845   3.005 -0.3512  0.0848 -0.5962
 1299SOL    HW115356   1.577   3.876   3.021  0.1441  1.2969 -0.1223
 1299SOL    HW215357   1.703   3.907   2.941  3.9755 -2.1325 -0.2605
 1300SOL     OW15358   1.823   3.045   8.567 -0.0679 -0.5083  0.0818
 1300SOL    HW115359   1.856   3.037   8.478  1.5361 -0.3286  0.6621
 1300SOL    HW215360   1.891   3.099   8.607 -1.4978  1.6875 -0.4514
 1301SOL     OW15361   4.083   0.160   7.806  0.5145  0.1795 -0.0694
 1301SOL    HW115362   4.016   0.163   7.874 -0.8298 -2.0371 -1.2700
 1301SOL    HW215363   4.025   0.179   7.732  0.8173  1.5213  0.0554
 1302SOL     OW15364   2.144   1.550   9.152  0.0916  0.0080 -0.2388
 1302SOL    HW115365   2.081   1.507   9.210 -0.5971 -0.0164 -1.0060
 1302SOL    HW215366   2.175   1.483   9.090 -0.0001 -0.0844 -0.1849
 1303SOL     OW15367   2.043   2.703   4.456 -0.4640  0.4749 -0.5264
 1303SOL    HW115368   2.007   2.623   4.492 -0.3160  1.7047  2.3468
 1303SOL    HW215369   2.106   2.675   4.390  1.9759  0.9945  1.5775
 1304SOL     OW15370   1.870   3.397   2.220 -0.2323 -0.8279 -0.2520
 1304SOL    HW115371   1.960   3.390   2.187  0.5631  2.1093  1.3500
 1304SOL    HW215372   1.827   3.382   2.136 -1.4301 -1.6916  0.5271
 1305SOL     OW15373   1.270   2.166  13.554 -0.2771 -0.9086 -0.0813
 1305SOL    HW115374   1.339   2.181  13.488  1.2885 -3.1819  1.0673
 1305SOL    HW215375   1.296   2.084  13.596  0.4410 -0.8222 -0.3491
 1306SOL     OW15376   3.736   1.661   2.662 -0.4938 -0.1206 -0.0553
 1306SOL    HW115377   3.752   1.633   2.572  3.7720  1.3434  0.2401
 1306SOL    HW215378   3.690   1.745   2.651  2.4432  1.6299  1.0256
 1307SOL     OW15379   1.477   3.465   5.879  0.5304 -0.6153 -0.7942
 1307SOL    HW115380   1.561   3.459   5.925  0.0613  2.4602  0.4437
 1307SOL    HW215381   1.512   3.466   5.790 -1.4009  2.6696 -1.4879
 1308SOL     OW15382   4.403   0.958   4.519 -0.0966 -0.0510 -0.4588
 1308SOL    HW115383   4.436   1.039   4.479  1.4019 -0.2478  0.3598
 1308SOL    HW215384   4.310   0.967   4.501 -0.7528 -2.7962  1.7029
 1309SOL     OW15385   3.212   1.477   7.966 -0.4829 -0.1018  0.0031
 1309SOL    HW115386   3.286   1.417   7.980 -0.2172  0.3552  0.5882
 1309SOL    HW215387   3.154   1.417   7.920  0.1778 -0.6430 -0.1252
 1310SOL     OW15388   2.286   2.315   8.235  0.0373 -0.0154 -0.0774
 1310SOL    HW115389   2.214   2.253   8.245  0.4277 -0.3495  0.5990
 1310SOL    HW215390   2.352   2.277   8.292 -0.4803 -1.5589 -0.5116
 1311SOL     OW15391   3.552   4.343   5.311  0.3915  0.2096  0.0689
 1311SOL    HW115392   3.612   4.270   5.327  1.3405  1.1125  0.6191
 1311SOL    HW215393   3.498   4.319   5.235 -1.4833 -2.2829  2.1805
 1312SOL     OW15394   4.717   1.841   6.399 -0.4609 -0.0199  0.1454
 1312SOL    HW115395   4.634   1.886   6.388  0.1323  1.4126  1.5414
 1312SOL    HW215396   4.695   1.779   6.330  3.4939 -0.5003 -0.7090
 1313SOL     OW15397   2.917   4.203  10.854 -0.1725  0.1345  0.3319
 1313SOL    HW115398   3.007   4.236  10.847  0.1077 -1.0251 -1.5514
 1313SOL    HW215399   2.929   4.108  10.845 -1.0297  0.0809 -0.2233
 1314SOL     OW15400   0.511   0.279  17.209 -0.0432 -0.0254  0.1708
 1314SOL    HW115401   0.443   0.331  17.252  0.4467 -0.2033  1.1526
 1314SOL    HW215402   0.582   0.256  17.269 -0.3474  0.4652  0.7259
 1315SOL     OW15403   1.386   2.056   8.663 -0.3346  0.2281 -0.9581
 1315SOL    HW115404   1.454   2.110   8.623  0.2487  2.1494  2.6197
 1315SOL    HW215405   1.433   2.009   8.732 -0.9963 -0.7344 -1.1628
 1316SOL     OW15406   3.603   1.456   6.418  0.5891  0.3891  0.3090
 1316SOL    HW115407   3.661   1.493   6.351  2.7084 -2.1507  0.7584
 1316SOL    HW215408   3.655   1.389   6.462  0.8875  0.9342  0.7979
 1317SOL     OW15409   0.437   0.533   8.460  0.0767 -0.0597 -0.1658
 1317SOL    HW115410   0.489   0.585   8.399  1.6122  0.0538  1.2742
 1317SOL    HW215411   0.496   0.458   8.465  0.0822 -0.0130  0.4768
 1318SOL     OW15412   0.793   1.182  17.286 -0.3671 -0.4481 -1.0149
 1318SOL    HW115413   0.733   1.152  17.355 -1.9187 -0.7044 -2.4671
 1318SOL    HW215414   0.729   1.185  17.215 -1.3870  3.0096  0.0511
 1319SOL     OW15415   3.713   3.002   8.320  0.8963  0.1052 -0.0871
 1319SOL    HW115416   3.636   3.045   8.358  0.5705 -1.0830  0.6179
 1319SOL    HW215417   3.727   3.064   8.249  0.4530 -1.9663 -1.9843
 1320SOL     OW15418   4.422   3.071   9.611  0.5209 -0.0467 -0.3323
 1320SOL    HW115419   4.455   3.022   9.536 -3.1100 -1.0675 -1.2741
 1320SOL    HW215420   4.337   3.102   9.579  0.6082 -0.0157 -0.5369
 1321SOL     OW15421   0.547   3.372   2.582 -0.1917 -0.8431  0.0408
 1321SOL    HW115422   0.465   3.373   2.631 -0.9022  0.1964 -1.1626
 1321SOL    HW215423   0.530   3.312   2.509 -0.8314 -0.0504 -0.4622
 1322SOL     OW15424   1.016   1.823   3.586  0.1479 -0.0809 -0.5540
 1322SOL    HW115425   1.099   1.851   3.626 -0.9105  1.2254  0.7271
 1322SOL    HW215426   1.037   1.810   3.494  1.4095  0.7911 -0.3896
 1323SOL     OW15427   2.047   0.975  11.601 -0.5007  0.1938  0.3049
 1323SOL    HW115428   2.055   0.880  11.614 -1.7414  0.0467  0.0151
 1323SOL    HW215429   2.140   0.994  11.588 -1.0583  1.9861 -1.0789
 1324SOL     OW15430   0.095   3.255   5.979 -0.0168 -0.2962 -0.3708
 1324SOL    HW115431   0.074   3.163   5.990  0.5253 -0.2741  0.9212
 1324SOL    HW215432   0.034   3.294   5.917 -0.6748 -1.7981 -0.6407
 1325SOL     OW15433   3.422   1.786   0.625 -0.4521  0.3976 -0.3274
 1325SOL    HW115434   3.336   1.786   0.584 -1.0744 -0.5622  0.9656
 1325SOL    HW215435   3.401   1.818   0.713 -1.5272 -3.8372  0.9477
 1326SOL     OW15436   3.803   4.100  14.663 -0.2728  0.0738 -0.3247
 1326SOL    HW115437   3.777   4.040  14.733 -1.2545  0.9609  0.0797
 1326SOL    HW215438   3.724   4.154  14.667  1.2542  2.3666 -1.6547
 1327SOL     OW15439   2.543   4.583   6.110 -0.3649 -0.0526 -0.4549
 1327SOL    HW115440   2.463   4.532   6.123 -0.4228  0.2744  0.4484
 1327SOL    HW215441   2.591   4.583   6.192  0.4214 -0.3020 -0.9110
 1328SOL     OW15442   0.793   1.528  14.110  0.0563  0.0088  0.9128
 1328SOL    HW115443   0.775   1.434  14.099  0.4263 -0.0133  0.5172
 1328SOL    HW215444   0.728   1.543  14.178  0.3343  0.8259  0.9984
 1329SOL     OW15445   2.275   2.753   2.635  0.9429  0.1510  0.5064
 1329SOL    HW115446   2.263   2.739   2.729 -0.2447  1.8539  0.5934
 1329SOL    HW215447   2.306   2.666   2.608  0.1810  0.2522 -0.6678
 1330SOL     OW15448   1.337   0.773   2.647 -0.2827  0.1229 -0.0663
 1330SOL    HW115449   1.285   0.710   2.597 -1.5927  0.4676  0.8689
 1330SOL    HW215450   1.301   0.857   2.620 -1.2007 -0.2861 -0.1354
 1331SOL     OW15451   2.201   2.375   6.676 -0.1199 -0.4380 -0.0573
 1331SOL    HW115452   2.266   2.308   6.659 -1.3230 -2.0631  1.7492
 1331SOL    HW215453   2.126   2.316   6.684 -0.3279 -0.1631  0.0163
 1332SOL     OW15454   3.238   2.653   6.043  0.1710 -0.2850  0.2084
 1332SOL    HW115455   3.277   2.682   5.960  0.0010 -0.9616 -0.1124
 1332SOL    HW215456   3.190   2.578   6.007  0.3026 -0.6958  0.9036
 1333SOL     OW15457   2.080   1.240  11.920 -0.3878  0.2925 -0.2281
 1333SOL    HW115458   2.146   1.281  11.865  1.5731 -1.3529  0.8814
 1333SOL    HW215459   2.121   1.203  11.998 -0.4216 -2.1131 -1.3515
 1334SOL     OW15460   2.179   2.263   1.679  0.2163  0.0209 -0.3104
 1334SOL    HW115461   2.263   2.303   1.657  1.4767 -2.7160 -0.5898
 1334SOL    HW215462   2.138   2.260   1.593 -0.9716  1.5090  0.2180
 1335SOL     OW15463   0.823   2.059   7.526  0.3087 -0.4415  0.7541
 1335SOL    HW115464   0.826   2.039   7.619 -0.5115  0.9708  1.0844
 1335SOL    HW215465   0.731   2.039   7.505 -0.5018  2.9236  1.0258
 1336SOL     OW15466   1.197   0.472  12.830  0.2965 -0.0511  0.0388
 1336SOL    HW115467   1.141   0.490  12.905 -0.6868 -1.6805 -0.3036
 1336SOL    HW215468   1.257   0.546  12.838 -0.2303  0.3131  0.5650
 1337SOL     OW15469   0.322   1.335   7.601 -0.1752 -0.0883  0.1614
 1337SOL    HW115470   0.275   1.315   7.520  0.3485 -2.1911  0.3827
 1337SOL    HW215471   0.307   1.247   7.634  2.2845 -0.1584  1.1074
 1338SOL     OW15472   1.199   0.136   5.012 -0.0816 -0.1817 -0.3905
 1338SOL    HW115473   1.273   0.080   4.988  0.4260 -0.0109  0.7744
 1338SOL    HW215474   1.209   0.131   5.108 -1.7713  1.5423 -0.1258
 1339SOL     OW15475   3.755   0.354   4.845 -0.0246 -0.1216  0.3333
 1339SOL    HW115476   3.804   0.288   4.894 -0.8865 -1.1457 -0.1779
 1339SOL    HW215477   3.728   0.308   4.765  4.3907  0.8786 -1.7431
 1340SOL     OW15478   3.882   2.724  16.304 -0.2674 -0.0558 -0.1342
 1340SOL    HW115479   3.943   2.744  16.375  0.1871 -2.6919  0.2510
 1340SOL    HW215480   3.835   2.654  16.351  0.4168 -0.3284  0.1386
 1341SOL     OW15481   0.439   0.805   4.000  0.1208  0.6701 -0.4294
 1341SOL    HW115482   0.529   0.837   3.993  0.0303  0.9195 -0.4709
 1341SOL    HW215483   0.452   0.730   4.057  1.1775 -0.8770 -2.6887
 1342SOL     OW15484   1.454   0.712   1.329 -0.7518  0.1817 -0.3847
 1342SOL    HW115485   1.437   0.779   1.262 -2.7835  0.6451  0.5894
 1342SOL    HW215486   1.425   0.752   1.411  1.2488 -1.6602  1.2301
 1343SOL     OW15487   2.217   2.485   9.586 -0.0654  0.0252  0.3374
 1343SOL    HW115488   2.240   2.507   9.496  2.0754 -1.7108  0.4793
 1343SOL    HW215489   2.280   2.533   9.640 -0.5001  3.3298 -2.0438
 1344SOL     OW15490   1.939   3.717   8.474  0.0629  0.4220  0.0236
 1344SOL    HW115491   1.886   3.641   8.451  0.1781  0.2551  0.3132
 1344SOL    HW215492   1.982   3.682   8.552 -0.0315  1.4439  0.5411
 1345SOL     OW15493   3.277   2.970   7.907 -0.4239  0.3994 -0.1057
 1345SOL    HW115494   3.321   2.974   7.993 -0.9168  1.0872  0.1162
 1345SOL    HW215495   3.192   2.936   7.934 -0.3274  0.5763  0.4372
 1346SOL     OW15496   1.727   1.731   2.659  0.0131 -0.2516 -0.2952
 1346SOL    HW115497   1.653   1.781   2.694  0.6692  0.4730  0.0522
 1346SOL    HW215498   1.786   1.802   2.636 -1.8425  0.5378 -2.6171
 1347SOL     OW15499   1.030   4.452   8.216  0.0112 -0.0942  0.1557
 1347SOL    HW115500   0.954   4.403   8.186 -0.3854  1.3815 -1.2408
 1347SOL    HW215501   0.997   4.485   8.299 -2.9721  1.8575 -1.8234
 1348SOL     OW15502   2.072   2.522   3.011  0.0504 -0.4204 -0.4226
 1348SOL    HW115503   2.024   2.449   2.973 -2.1823  1.0327 -0.3363
 1348SOL    HW215504   2.120   2.560   2.937  1.1601  1.4577  1.2444
 1349SOL     OW15505   1.941   1.103  16.072 -0.1317  0.5371  0.5609
 1349SOL    HW115506   1.853   1.106  16.109 -0.1605 -0.5795  0.5591
 1349SOL    HW215507   1.970   1.030  16.126  1.3825 -1.1462 -2.5388
 1350SOL     OW15508   2.141   1.571   4.148  0.4751  0.3485  0.4192
 1350SOL    HW115509   2.074   1.504   4.131  0.0080  1.0153 -0.3947
 1350SOL    HW215510   2.104   1.651   4.110  2.7368  1.1345 -0.1417
 1351SOL     OW15511   0.772   0.261   1.874 -0.0480 -0.1296 -0.0879
 1351SOL    HW115512   0.801   0.298   1.790 -0.8461 -0.3451 -0.4657
 1351SOL    HW215513   0.859   0.232   1.901 -0.5772 -1.2811  0.3797
 1352SOL     OW15514   0.089   3.769   5.966 -0.0181  0.3021 -0.3739
 1352SOL    HW115515   0.041   3.698   6.008 -2.3388  2.6118  0.9039
 1352SOL    HW215516   0.021   3.836   5.981  0.7010  0.0764  3.7451
 1353SOL     OW15517   2.592   1.441  12.845  0.3308  0.1975  0.1935
 1353SOL    HW115518   2.598   1.380  12.771  0.9027 -1.3029  1.4621
 1353SOL    HW215519   2.677   1.430  12.889 -0.4753 -0.0027  1.7163
 1354SOL     OW15520   0.018   1.684   5.079 -0.2087  0.3080 -0.1131
 1354SOL    HW115521   4.652   1.666   5.055 -0.8664 -0.0490  2.6079
 1354SOL    HW215522   0.044   1.755   5.020 -1.2187 -0.7109 -1.7860
 1355SOL     OW15523   1.877   3.756   1.743 -0.5765 -0.1383  0.0659
 1355SOL    HW115524   1.941   3.815   1.704 -0.0971 -0.8128 -0.1731
 1355SOL    HW215525   1.942   3.693   1.775 -2.2957 -1.9605  0.0075
 1356SOL     OW15526   0.811   3.248   5.908 -0.4629 -0.8948 -0.8146
 1356SOL    HW115527   0.761   3.329   5.923 -0.5085 -0.9537 -0.6517
 1356SOL    HW215528   0.760   3.172   5.935 -0.9709 -0.6751 -1.1373
 1357SOL     OW15529   4.355   2.864   8.064 -0.2933  0.5610  0.2352
 1357SOL    HW115530   4.292   2.925   8.027 -0.8802  0.9740  1.9208
 1357SOL    HW215531   4.368   2.910   8.147 -2.1415  0.2082  0.7142
 1358SOL     OW15532   1.821   2.514   4.757 -0.1971 -0.3444  0.3029
 1358SOL    HW115533   1.742   2.477   4.719  0.0729 -1.3121  0.6885
 1358SOL    HW215534   1.792   2.492   4.845 -1.1518 -0.2527  0.0054
 1359SOL     OW15535   1.824   4.386   8.926  0.0845 -0.2907  0.1788
 1359SOL    HW115536   1.792   4.476   8.932 -3.8294 -1.7080  0.5750
 1359SOL    HW215537   1.863   4.368   9.012  0.9007 -0.1060 -0.1607
 1360SOL     OW15538   3.061   2.681   5.491 -0.2749  0.0696 -0.4270
 1360SOL    HW115539   3.124   2.609   5.497 -0.6216 -0.1442  0.6302
 1360SOL    HW215540   3.030   2.663   5.402  1.0793  1.5513 -1.2049
 1361SOL     OW15541   3.664   4.032  15.126  0.0665 -0.1207  0.1049
 1361SOL    HW115542   3.650   4.051  15.218  2.0187  0.2742  0.3150
 1361SOL    HW215543   3.742   4.088  15.119 -0.6714  1.1002  1.8238
 1362SOL     OW15544   0.784   2.587  17.513  0.1781  0.8057 -0.0242
 1362SOL    HW115545   0.852   2.540  17.561 -0.0339  1.5119  0.9627
 1362SOL    HW215546   0.804   2.573  17.420  0.4822  0.4214  0.0955
 1363SOL     OW15547   1.429   1.789   6.826 -0.2011 -0.4858 -0.3617
 1363SOL    HW115548   1.376   1.866   6.846 -1.2041 -0.4398 -3.1880
 1363SOL    HW215549   1.510   1.827   6.792  0.3459 -2.9399 -1.8406
 1364SOL     OW15550   1.663   3.368   2.015 -0.8112  0.0727  0.0784
 1364SOL    HW115551   1.590   3.393   2.072 -0.6176 -0.5016  0.5829
 1364SOL    HW215552   1.628   3.381   1.927 -0.7881  0.4368  0.1244
 1365SOL     OW15553   2.857   0.231   5.012  0.1747  0.3192 -1.0109
 1365SOL    HW115554   2.799   0.279   4.954 -0.8525  0.2377 -0.0511
 1365SOL    HW215555   2.805   0.156   5.041  2.2314  0.1806  2.3576
 1366SOL     OW15556   0.863   1.341   8.625  0.3285 -0.1885 -0.3068
 1366SOL    HW115557   0.936   1.306   8.576  0.8829  0.9758 -0.3053
 1366SOL    HW215558   0.835   1.421   8.582  2.8496  0.9521  0.1789
 1367SOL     OW15559   3.256   1.950  13.506 -0.2356 -0.0670  0.3010
 1367SOL    HW115560   3.277   1.877  13.564  0.2883 -0.3953 -0.2980
 1367SOL    HW215561   3.172   1.987  13.532  0.6755  2.0336  0.3283
 1368SOL     OW15562   2.678   2.013   7.084  0.3047 -0.0175 -0.2841
 1368SOL    HW115563   2.745   2.078   7.105 -0.7668  0.9448  0.1695
 1368SOL    HW215564   2.658   1.961   7.162  1.7609  0.8248  0.6499
 1369SOL     OW15565   3.319   3.662   4.293 -0.2420 -0.5614  0.6224
 1369SOL    HW115566   3.239   3.611   4.279  0.7897 -2.1026  0.4779
 1369SOL    HW215567   3.276   3.748   4.286  0.1594 -0.3330  0.9705
 1370SOL     OW15568   4.419   1.838   3.289 -0.3816 -0.0015  0.1692
 1370SOL    HW115569   4.388   1.925   3.316  0.9522 -0.4104  3.1255
 1370SOL    HW215570   4.501   1.833   3.339 -0.0676  0.5939 -0.2889
 1371SOL     OW15571   4.136   2.747   2.619  0.5916  0.1643  0.6312
 1371SOL    HW115572   4.192   2.825   2.625 -0.3089  1.0681 -2.6743
 1371SOL    HW215573   4.175   2.696   2.548 -0.4216  0.4838 -0.1577
 1372SOL     OW15574   0.834   1.068   4.447 -0.0834 -0.1246 -0.0240
 1372SOL    HW115575   0.884   1.042   4.525 -0.7720  0.4125  0.6004
 1372SOL    HW215576   0.798   0.982   4.429  0.2223 -0.3456  0.3919
 1373SOL     OW15577   2.770   2.385   2.956  0.0483  0.3017  0.0596
 1373SOL    HW115578   2.755   2.342   2.871  1.0668  0.5088 -0.2297
 1373SOL    HW215579   2.836   2.324   2.988 -0.4959 -0.3141  0.0020
 1374SOL     OW15580   2.971   2.399  12.073  0.0499 -0.5778 -0.0980
 1374SOL    HW115581   2.925   2.360  12.147  0.1195 -0.5557 -0.0427
 1374SOL    HW215582   2.908   2.376  12.004 -0.2259  0.9019 -0.3358
 1375SOL     OW15583   2.652   3.198  14.109 -0.3228  0.0580 -0.1291
 1375SOL    HW115584   2.576   3.257  14.111  1.9884  3.0138 -0.6520
 1375SOL    HW215585   2.636   3.155  14.193  1.9211  1.0610  0.8018
 1376SOL     OW15586   3.537   4.207   4.437 -0.3038 -0.7140 -0.1551
 1376SOL    HW115587   3.465   4.247   4.388 -0.2431  1.0330  1.1708
 1376SOL    HW215588   3.583   4.169   4.362  1.9131 -1.0079  1.3369
 1377SOL     OW15589   4.065   1.134   3.719 -0.3460 -0.0196  0.5734
 1377SOL    HW115590   3.993   1.102   3.665  1.5260 -0.4246 -1.6970
 1377SOL    HW215591   4.090   1.213   3.671  1.0586 -1.2865 -0.8208
 1378SOL     OW15592   1.817   2.182   3.172 -0.0440 -0.1376  0.2195
 1378SOL    HW115593   1.848   2.262   3.129  1.7727 -1.2327 -0.5180
 1378SOL    HW215594   1.724   2.191   3.152  0.7827 -1.5066 -4.1362
 1379SOL     OW15595   2.988   2.323   5.619 -0.1427  0.1588  0.0107
 1379SOL    HW115596   3.060   2.346   5.560  0.5522 -1.8602  0.0571
 1379SOL    HW215597   3.025   2.360   5.699 -0.5781 -2.3051  1.3604
 1380SOL     OW15598   3.124   3.284  17.085  0.2912 -0.2238 -0.1330
 1380SOL    HW115599   3.184   3.311  17.155 -1.3812 -0.4993  1.4126
 1380SOL    HW215600   3.097   3.197  17.115 -1.7701  1.3181  2.4780
 1381SOL     OW15601   0.122   1.072   4.646  0.0290  0.1331  0.0210
 1381SOL    HW115602   0.211   1.080   4.682  0.9713 -3.4088 -1.4674
 1381SOL    HW215603   0.088   0.995   4.691  0.5126  0.3135  0.6872
 1382SOL     OW15604   1.365   1.007   7.214 -0.0021 -0.1932  0.2875
 1382SOL    HW115605   1.302   1.063   7.167 -0.0994 -1.0179 -0.5494
 1382SOL    HW215606   1.306   0.948   7.261  2.7927 -0.5730  3.2686
 1383SOL     OW15607   1.626   4.637   3.795 -0.0003 -0.2467  0.1250
 1383SOL    HW115608   1.719   4.614   3.797  0.3223  1.1670  1.1065
 1383SOL    HW215609   1.616   4.615   3.702  1.6274 -0.8536  0.0927
 1384SOL     OW15610   3.344   1.071   8.871 -0.0494  0.2225  0.5866
 1384SOL    HW115611   3.362   1.165   8.868  1.9349 -0.2296 -2.0734
 1384SOL    HW215612   3.270   1.072   8.810  0.9250  0.6603 -0.5986
 1385SOL     OW15613   1.412   1.908   7.207 -0.4339  0.1647 -0.5896
 1385SOL    HW115614   1.367   1.985   7.242 -0.8221  0.4821 -1.7794
 1385SOL    HW215615   1.355   1.895   7.131 -1.2033 -1.0072  0.1785
 1386SOL     OW15616   3.047   2.242  14.987 -0.0833  0.1808  0.1939
 1386SOL    HW115617   2.979   2.304  14.958 -1.6802 -0.3540  2.7908
 1386SOL    HW215618   2.999   2.217  15.066 -2.2888 -0.6531 -1.3980
 1387SOL     OW15619   1.031   1.264   8.438  0.5247  0.2684 -0.0360
 1387SOL    HW115620   1.083   1.184   8.451  1.5847  1.1483  1.1110
 1387SOL    HW215621   1.026   1.262   8.343 -0.1493 -0.2258  0.0032
 1388SOL     OW15622   2.207   3.649   2.331  0.0713  0.2717 -0.1217
 1388SOL    HW115623   2.199   3.580   2.265 -1.4187  0.5099 -0.1894
 1388SOL    HW215624   2.270   3.707   2.287 -0.1416 -0.0974 -0.9219
 1389SOL     OW15625   2.334   4.543   2.402 -0.5474 -0.2141  0.5155
 1389SOL    HW115626   2.336   4.450   2.379 -2.0323 -0.0302 -0.3837
 1389SOL    HW215627   2.293   4.561   2.317 -0.2466  1.7764  0.7967
 1390SOL     OW15628   1.128   1.986  15.165  0.3896  0.2515  0.2465
 1390SOL    HW115629   1.042   1.977  15.125 -0.2089  1.1506  1.3315
 1390SOL    HW215630   1.102   1.988  15.257 -0.8034 -1.4478 -0.0511
 1391SOL     OW15631   1.744   4.540   4.928  0.2362  0.4268  0.1267
 1391SOL    HW115632   1.755   4.635   4.927  1.1717  0.3234  0.9753
 1391SOL    HW215633   1.792   4.514   4.850 -0.1397 -0.0986  0.0650
 1392SOL     OW15634   2.940   2.134   3.319 -0.3241  0.0414 -0.1421
 1392SOL    HW115635   2.982   2.090   3.393 -1.6206 -1.5005 -0.3395
 1392SOL    HW215636   2.851   2.134   3.354 -0.6501  0.0863 -0.9820
 1393SOL     OW15637   0.797   4.537  10.270 -0.1351 -0.4543 -0.1568
 1393SOL    HW115638   0.712   4.493  10.269 -0.7379  0.6787  0.2250
 1393SOL    HW215639   0.752   4.620  10.250  0.6942  0.2916  1.1267
 1394SOL     OW15640   4.573   2.386   4.187  0.1552  0.4972  0.7923
 1394SOL    HW115641   4.656   2.368   4.143  0.2311 -1.9982  1.9639
 1394SOL    HW215642   4.534   2.458   4.137  0.4018 -0.9605 -1.4941
 1395SOL     OW15643   4.588   1.387   0.976 -0.0095  0.1579 -0.6416
 1395SOL    HW115644   4.647   1.453   0.940 -0.2854  0.5516 -0.3699
 1395SOL    HW215645   4.610   1.390   1.070  2.1871  1.2393 -1.1864
 1396SOL     OW15646   3.390   3.717   3.817 -0.2254  0.3572 -0.4816
 1396SOL    HW115647   3.362   3.678   3.734  1.7115 -1.4656 -0.2745
 1396SOL    HW215648   3.444   3.650   3.859  1.4057  2.5973  1.0686
 1397SOL     OW15649   0.848   0.218   7.988 -0.1215 -0.0124 -0.3161
 1397SOL    HW115650   0.927   0.183   7.949  0.2747 -0.5427  0.9629
 1397SOL    HW215651   0.795   0.138   7.987 -1.7458  0.9893  3.0940
 1398SOL     OW15652   3.905   1.394   2.568  0.5172  0.7358  0.2697
 1398SOL    HW115653   3.852   1.439   2.502  0.1227 -0.3007 -0.1278
 1398SOL    HW215654   3.912   1.308   2.528  1.6954  1.2914 -0.6969
 1399SOL     OW15655   2.711   2.617   1.536  0.2368  0.0390  0.2135
 1399SOL    HW115656   2.667   2.555   1.479  2.4675  0.0020 -1.4387
 1399SOL    HW215657   2.795   2.596   1.496 -0.6084  0.2749 -1.6622
 1400SOL     OW15658   2.065   2.762   1.936  0.8811 -0.5115  0.5363
 1400SOL    HW115659   2.096   2.689   1.883 -0.4309 -0.7203  0.0441
 1400SOL    HW215660   2.140   2.804   1.976  0.3595  1.2143 -0.3153
 1401SOL     OW15661   4.363   0.236   2.574  0.2741 -0.6798  0.0205
 1401SOL    HW115662   4.326   0.281   2.650  0.0709 -0.6472 -0.1001
 1401SOL    HW215663   4.287   0.202   2.527 -1.2812  0.9783  1.3696
 1402SOL     OW15664   0.666   0.727  13.481  0.5196  0.2608  0.4680
 1402SOL    HW115665   0.572   0.740  13.467  0.3110 -2.2479 -0.4064
 1402SOL    HW215666   0.679   0.670  13.557  2.9665  1.9888  1.3589
 1403SOL     OW15667   4.624   0.003  15.120  0.1057  0.4310 -0.5252
 1403SOL    HW115668   4.694   4.685  15.170  1.2103  0.1995 -2.2763
 1403SOL    HW215669   4.605   4.664  15.052  4.1748  0.7196 -1.9755
 1404SOL     OW15670   0.115   1.957   6.011  0.5037 -0.3795  0.6482
 1404SOL    HW115671   0.184   1.919   5.956 -0.1601 -0.1953 -0.2998
 1404SOL    HW215672   0.155   2.044   6.024  0.5533  0.0782 -2.5262
 1405SOL     OW15673   0.779   2.060   3.009  0.0571  0.0998  0.1210
 1405SOL    HW115674   0.843   2.122   2.975  0.6825  0.1272  1.3140
 1405SOL    HW215675   0.777   1.993   2.941  1.0613  0.4304 -0.2454
 1406SOL     OW15676   1.136   0.475   2.943 -0.0389 -0.2702  0.2655
 1406SOL    HW115677   1.197   0.425   2.890  1.3455  1.8076 -0.0721
 1406SOL    HW215678   1.146   0.447   3.034  0.1798 -0.8338  0.0666
 1407SOL     OW15679   3.847   2.113   3.353  0.0424  0.0185 -1.0752
 1407SOL    HW115680   3.912   2.067   3.406 -0.9063 -0.5976 -0.4382
 1407SOL    HW215681   3.790   2.150   3.420  1.7382  1.7030 -0.5690
 1408SOL     OW15682   2.177   0.902   7.372 -0.0706  0.1005  0.1404
 1408SOL    HW115683   2.093   0.864   7.394  0.2236  0.2990  1.5802
 1408SOL    HW215684   2.239   0.829   7.373 -0.5300 -0.2816  0.2169
 1409SOL     OW15685   2.800   4.343   0.301 -0.2908  0.2916 -0.2067
 1409SOL    HW115686   2.867   4.411   0.298 -0.2821  0.3018  0.3097
 1409SOL    HW215687   2.727   4.403   0.286  0.6590  1.1156 -1.5557
 1410SOL     OW15688   4.385   3.767   2.278 -0.5505 -0.0202  0.5231
 1410SOL    HW115689   4.469   3.789   2.236 -1.7345 -0.0727 -1.8822
 1410SOL    HW215690   4.345   3.692   2.233 -1.4358 -0.0472  1.3664
 1411SOL     OW15691   4.635   3.920   2.150  0.1173  0.1514  0.2162
 1411SOL    HW115692   4.630   4.009   2.183  0.8400 -0.4175  1.8390
 1411SOL    HW215693   4.552   3.927   2.102 -0.3296 -2.6724  0.5552
 1412SOL     OW15694   1.069   0.402  15.425 -0.1522 -0.0958 -0.0690
 1412SOL    HW115695   1.149   0.452  15.442 -0.2889  0.8042 -2.1236
 1412SOL    HW215696   1.066   0.414  15.330  0.0154  0.4223 -0.0091
 1413SOL     OW15697   4.635   0.476   1.917  0.1090  0.2137  0.1167
 1413SOL    HW115698   4.697   0.539   1.954  0.8963  0.4022 -1.5120
 1413SOL    HW215699   4.600   0.533   1.849  1.3671  0.0695 -0.6486
 1414SOL     OW15700   3.954   2.867   9.011 -0.0395 -0.1158 -0.0338
 1414SOL    HW115701   3.967   2.838   8.921  0.3621  3.8058 -1.2049
 1414SOL    HW215702   4.042   2.888   9.041 -0.3531 -2.5714  2.6490
 1415SOL     OW15703   4.706   2.135  16.337  0.0789  0.3127  0.0431
 1415SOL    HW115704   0.060   2.092  16.306 -0.5665  0.0730 -1.2676
 1415SOL    HW215705   4.653   2.064  16.300 -0.6972 -0.2062  2.1215
 1416SOL     OW15706   2.182   0.094   4.529  0.1000  0.1052  0.1438
 1416SOL    HW115707   2.248   0.055   4.471 -0.7501  0.6146 -1.1814
 1416SOL    HW215708   2.213   0.184   4.523  0.4465 -0.1753 -2.3511
 1417SOL     OW15709   0.740   0.186   6.234 -0.0867 -0.0779  0.1781
 1417SOL    HW115710   0.732   0.141   6.150  0.0630  2.3893 -1.1375
 1417SOL    HW215711   0.829   0.221   6.230 -1.0094  2.3127  0.7166
 1418SOL     OW15712   3.470   2.818   4.753 -0.2094 -0.1636  0.5098
 1418SOL    HW115713   3.440   2.908   4.766  0.9546  0.0998  1.2797
 1418SOL    HW215714   3.503   2.797   4.840 -1.4064 -0.1815  0.9635
 1419SOL     OW15715   3.453   2.233  12.064 -0.0791  0.4189  0.6334
 1419SOL    HW115716   3.453   2.139  12.078  0.3106  0.3611  0.2439
 1419SOL    HW215717   3.546   2.243  12.045  0.6185 -2.7386  2.4391
 1420SOL     OW15718   4.533   1.172   2.040 -0.0897  0.0436  0.3680
 1420SOL    HW115719   4.464   1.109   2.021  0.2091 -0.8020  2.0466
 1420SOL    HW215720   4.499   1.220   2.116  2.3572 -1.0597  2.1685
 1421SOL     OW15721   4.416   2.545  16.309  0.6886 -1.2162  0.0265
 1421SOL    HW115722   4.322   2.528  16.317  0.3522  1.2539  1.2726
 1421SOL    HW215723   4.439   2.454  16.290  0.6884 -0.4476 -3.5788
 1422SOL     OW15724   2.928   0.553   2.073  0.9734 -0.4207 -0.1590
 1422SOL    HW115725   2.869   0.606   2.127  1.9955  1.9337 -1.3173
 1422SOL    HW215726   2.887   0.567   1.988  1.0533  0.4211 -0.0594
 1423SOL     OW15727   3.042   4.276   8.844  0.4059 -0.0775  0.3313
 1423SOL    HW115728   2.968   4.230   8.883 -1.4795  2.1950 -0.5563
 1423SOL    HW215729   3.018   4.363   8.878  0.6525 -0.2945  1.0680
 1424SOL     OW15730   4.005   3.167   1.816 -0.1071  0.3837 -0.6647
 1424SOL    HW115731   3.963   3.126   1.740  1.6046  0.0819 -1.4415
 1424SOL    HW215732   4.093   3.131   1.811 -0.6874 -1.0089 -1.1121
 1425SOL     OW15733   3.779   3.263   7.892  0.5272 -0.3242  0.8773
 1425SOL    HW115734   3.709   3.237   7.952 -0.6194  1.4990  0.3323
 1425SOL    HW215735   3.738   3.327   7.834  2.1699 -0.7976 -0.7889
 1426SOL     OW15736   2.374   3.170   2.601 -0.1970 -0.4741  0.2520
 1426SOL    HW115737   2.440   3.116   2.558 -0.3704 -0.7551  0.3360
 1426SOL    HW215738   2.376   3.251   2.549  0.5568 -0.8478 -0.2868
 1427SOL     OW15739   4.394   3.159   5.464 -0.1069 -0.3868  0.8609
 1427SOL    HW115740   4.413   3.069   5.436  1.8153  0.8715 -1.8972
 1427SOL    HW215741   4.483   3.194   5.469 -0.9106  1.7059  0.3960
 1428SOL     OW15742   0.064   2.314   4.974  0.1672  0.3723  0.1914
 1428SOL    HW115743   0.111   2.233   4.956  0.1138  0.2176  0.7385
 1428SOL    HW215744   0.121   2.387   4.951  1.7510 -1.6236 -2.1808
 1429SOL     OW15745   1.393   0.807   1.737 -0.0445  0.1385 -0.1092
 1429SOL    HW115746   1.328   0.876   1.749 -2.2784 -2.3592  2.0239
 1429SOL    HW215747   1.336   0.742   1.697  1.7125 -0.0465 -2.3277
 1430SOL     OW15748   4.185   0.792  14.556  0.2037 -0.3096 -0.1889
 1430SOL    HW115749   4.254   0.751  14.607  0.9909  0.8984 -0.2925
 1430SOL    HW215750   4.102   0.769  14.597  0.4057 -1.3007 -0.3227
 1431SOL     OW15751   2.644   2.932   2.229 -0.2421 -0.1418  0.3125
 1431SOL    HW115752   2.661   3.008   2.285 -2.3896  0.2773  0.4292
 1431SOL    HW215753   2.548   2.938   2.224 -0.2942 -1.0308  0.2171
 1432SOL     OW15754   3.209   0.545  10.841  0.1830  0.3203 -0.3768
 1432SOL    HW115755   3.271   0.475  10.818 -0.0494  0.2977 -0.9465
 1432SOL    HW215756   3.135   0.511  10.791  0.5109 -1.0804  0.0974
 1433SOL     OW15757   0.420   2.715   4.244  0.3654  0.3371 -0.2900
 1433SOL    HW115758   0.363   2.754   4.178  1.9316  1.8475 -0.7548
 1433SOL    HW215759   0.488   2.674   4.191  0.7681  0.6675 -0.0248
 1434SOL     OW15760   3.017   4.441   6.063  0.7819  0.6202 -0.4512
 1434SOL    HW115761   3.019   4.356   6.020  0.7716  0.2431  0.3028
 1434SOL    HW215762   3.085   4.414   6.124 -0.1240 -0.6508 -0.0208
 1435SOL     OW15763   2.538   1.210   0.545 -0.1384 -0.2305 -0.0977
 1435SOL    HW115764   2.524   1.292   0.497  2.8344  2.1122  3.0017
 1435SOL    HW215765   2.476   1.156   0.497 -0.4929 -1.1706  1.4058
 1436SOL     OW15766   2.351   1.262   8.817 -0.0666  1.0739  0.1371
 1436SOL    HW115767   2.442   1.233   8.814 -0.5180 -0.4062  0.9783
 1436SOL    HW215768   2.335   1.243   8.909  0.3396  0.2130  0.0315
 1437SOL     OW15769   0.853   2.332   6.139  0.6939 -0.0926  0.0400
 1437SOL    HW115770   0.825   2.276   6.212  0.8734  0.8399  0.8151
 1437SOL    HW215771   0.882   2.268   6.074 -2.0179  1.7094 -2.9129
 1438SOL     OW15772   3.247   3.970   6.652 -0.5651  0.2983 -0.5880
 1438SOL    HW115773   3.289   4.055   6.638  1.5226 -0.8934 -1.6366
 1438SOL    HW215774   3.237   3.964   6.747  1.1700  0.1882 -0.4144
 1439SOL     OW15775   0.635   0.172   5.449  0.3149 -0.3749 -0.3293
 1439SOL    HW115776   0.629   0.104   5.382 -1.0627  0.0165 -0.6021
 1439SOL    HW215777   0.547   0.207   5.437  0.8388  1.6460  1.6657
 1440SOL     OW15778   1.929   2.388   8.317 -0.6158  0.3873 -0.2538
 1440SOL    HW115779   1.893   2.430   8.240  0.4360  0.6191 -0.6201
 1440SOL    HW215780   1.944   2.298   8.287  0.7375  1.2790 -2.2529
 1441SOL     OW15781   4.076   0.167   9.363 -0.4576 -0.0684  0.6085
 1441SOL    HW115782   4.041   0.183   9.450 -1.2909 -0.0726  0.2746
 1441SOL    HW215783   4.057   0.075   9.343 -1.5178  0.1263  0.7257
 1442SOL     OW15784   4.037   0.215   1.844 -0.0831 -0.1044  0.0399
 1442SOL    HW115785   3.946   0.187   1.857 -1.2146  2.1630 -2.7222
 1442SOL    HW215786   4.044   0.260   1.928  0.3009 -0.1390  0.0237
 1443SOL     OW15787   2.394   0.513  15.625  0.0871 -0.0539 -0.1263
 1443SOL    HW115788   2.454   0.581  15.593 -2.5448  3.5635  2.5516
 1443SOL    HW215789   2.400   0.539  15.717  2.0651  1.7379 -0.7745
 1444SOL     OW15790   3.321   4.553   4.515  0.2055  0.0205  0.0100
 1444SOL    HW115791   3.304   4.474   4.567  3.2082 -1.1109 -0.6850
 1444SOL    HW215792   3.252   4.547   4.449  1.4714  1.7235 -1.4911
 1445SOL     OW15793   2.585   3.290   5.529  0.0490  0.0272 -0.1110
 1445SOL    HW115794   2.492   3.276   5.514  0.1447  2.6222 -3.2836
 1445SOL    HW215795   2.632   3.244   5.460 -1.0358 -1.0168 -0.1349
 1446SOL     OW15796   1.924   0.852   7.434  0.3697  0.4137 -0.3678
 1446SOL    HW115797   1.958   0.787   7.495 -3.3076 -1.9729 -0.8607
 1446SOL    HW215798   1.850   0.888   7.483  0.1958  1.6503 -1.5217
 1447SOL     OW15799   1.946   1.215  17.478  0.2054 -0.1311 -0.0655
 1447SOL    HW115800   1.974   1.134  17.521  1.4622  0.5390  0.3919
 1447SOL    HW215801   1.857   1.223  17.510  0.4791 -0.3440  0.7415
 1448SOL     OW15802   0.280   0.105  17.180  0.1309  0.1823 -0.1018
 1448SOL    HW115803   0.325   0.189  17.189  3.3305 -1.3054 -2.4699
 1448SOL    HW215804   0.318   0.054  17.251  0.0614 -0.0161 -0.2064
 1449SOL     OW15805   0.196   0.941   6.866  0.2537  0.9195 -0.2046
 1449SOL    HW115806   0.136   0.990   6.810 -1.2647 -0.7165 -0.0066
 1449SOL    HW215807   0.277   0.930   6.816 -0.9589  0.6421 -2.1037
 1450SOL     OW15808   4.191   2.938   5.232  0.3956  0.0347  0.5895
 1450SOL    HW115809   4.247   2.861   5.223  0.4927  0.2351 -0.5112
 1450SOL    HW215810   4.207   2.947   5.326 -0.4853  1.5590  0.5907
 1451SOL     OW15811   0.623   0.954  11.516  0.3307  0.0112  0.0751
 1451SOL    HW115812   0.569   1.032  11.524  0.0733  0.0460 -1.8287
 1451SOL    HW215813   0.572   0.879  11.545  1.5925 -1.1539 -0.7011
 1452SOL     OW15814   4.251   0.584   3.183 -0.2875 -0.6082 -0.0617
 1452SOL    HW115815   4.328   0.568   3.129 -2.4567 -2.6557 -2.5033
 1452SOL    HW215816   4.290   0.584   3.271  1.7091 -1.9103 -0.9689
 1453SOL     OW15817   0.081   0.063   3.088 -0.0760 -0.0555  0.1478
 1453SOL    HW115818   0.018   0.032   3.153  0.5178 -4.6065 -1.5148
 1453SOL    HW215819   0.165   0.031   3.121 -0.4275  0.9678  2.1186
 1454SOL     OW15820   0.448   2.715   6.342 -0.3489 -0.2681  0.1593
 1454SOL    HW115821   0.431   2.749   6.254  0.6314 -1.2976 -0.4268
 1454SOL    HW215822   0.451   2.795   6.394 -2.3442 -1.0152  1.4525
 1455SOL     OW15823   3.042   0.284   7.333  0.7289 -0.2799 -0.2220
 1455SOL    HW115824   3.006   0.246   7.413  0.7410 -0.1183 -0.1406
 1455SOL    HW215825   3.018   0.376   7.344  0.3235 -0.3777 -0.2955
 1456SOL     OW15826   4.476   1.969   9.847  0.2903 -0.4364  0.3334
 1456SOL    HW115827   4.492   1.875   9.850  2.4401 -0.0150  3.2126
 1456SOL    HW215828   4.554   2.004   9.891  1.2645  1.5548 -3.0169
 1457SOL     OW15829   3.440   2.218   2.017  0.3064  0.0111  0.0352
 1457SOL    HW115830   3.361   2.219   2.071  0.5364  0.9379  0.3455
 1457SOL    HW215831   3.432   2.294   1.959  1.9334 -1.1498 -1.7090
 1458SOL     OW15832   0.998   2.928  16.169  0.3165  0.2086 -0.3923
 1458SOL    HW115833   0.908   2.927  16.201  0.5703 -2.0313  0.2129
 1458SOL    HW215834   1.030   3.005  16.217 -1.2724  0.8754 -0.4063
 1459SOL     OW15835   3.961   1.149   2.481 -0.1866 -0.0020  0.2984
 1459SOL    HW115836   3.947   1.158   2.387 -1.2741 -0.3666  0.4145
 1459SOL    HW215837   4.007   1.066   2.497 -0.8426 -0.6582 -1.2466
 1460SOL     OW15838   3.334   0.545   0.737  0.3185  0.0116  0.0517
 1460SOL    HW115839   3.401   0.588   0.683  0.0870 -1.1611 -1.1863
 1460SOL    HW215840   3.318   0.464   0.689  0.5512  0.1707 -0.2972
 1461SOL     OW15841   3.788   2.603   8.661  0.8011 -0.1055  0.0767
 1461SOL    HW115842   3.725   2.663   8.621  0.4232 -0.5067  0.0776
 1461SOL    HW215843   3.752   2.517   8.640  1.0421  0.3602 -2.2905
 1462SOL     OW15844   3.584   1.803   2.055  0.0721 -0.4024  0.7695
 1462SOL    HW115845   3.609   1.893   2.073 -2.9003  0.4067  0.7982
 1462SOL    HW215846   3.610   1.760   2.136 -0.9499  0.2579  1.4478
 1463SOL     OW15847   3.565   2.246   3.770 -0.5103  0.2933  0.1848
 1463SOL    HW115848   3.499   2.257   3.702 -0.6850 -0.7506  0.1774
 1463SOL    HW215849   3.615   2.179   3.723 -0.8259  0.0270  0.2240
 1464SOL     OW15850   2.189   4.677  12.551 -0.0359  0.5495 -0.0633
 1464SOL    HW115851   2.148   4.685  12.638  0.2697 -0.0677  0.1409
 1464SOL    HW215852   2.117   4.704  12.494 -1.2472 -2.1873  0.1614
 1465SOL     OW15853   2.793   1.547   1.571 -0.0287 -0.1095 -0.1488
 1465SOL    HW115854   2.716   1.597   1.544  1.5843  2.0088 -0.8426
 1465SOL    HW215855   2.766   1.459   1.544  1.7734 -0.5841 -0.4452
 1466SOL     OW15856   3.921   1.404   2.057 -0.1012 -0.4001  0.0141
 1466SOL    HW115857   3.869   1.459   1.998 -0.2867 -2.8859 -2.1660
 1466SOL    HW215858   4.001   1.449   2.032 -1.2103  1.7615  0.3752
 1467SOL     OW15859   2.932   3.771  13.567  0.1885  0.1200  0.1048
 1467SOL    HW115860   2.980   3.689  13.568  0.7645  0.4843  1.8734
 1467SOL    HW215861   2.926   3.786  13.472 -1.3844  1.7162  0.4496
 1468SOL     OW15862   0.887   3.338  15.285  0.3256  0.0110 -0.2476
 1468SOL    HW115863   0.948   3.292  15.342 -1.1308 -0.3908  0.9740
 1468SOL    HW215864   0.920   3.319  15.197 -1.3645  2.4175 -1.4225
 1469SOL     OW15865   3.103   4.182   4.395 -0.3538 -0.1665  0.2373
 1469SOL    HW115866   3.095   4.193   4.490  1.3068  3.8283 -0.0493
 1469SOL    HW215867   3.020   4.140   4.375 -0.8361  0.6804  0.4680
 1470SOL     OW15868   0.334   2.724  12.853  0.1221  0.6379 -0.1322
 1470SOL    HW115869   0.280   2.791  12.894  1.2227  1.5109 -0.1058
 1470SOL    HW215870   0.273   2.674  12.799 -0.3113  1.3137 -0.2742
 1471SOL     OW15871   2.612   3.975   2.112 -0.0034  0.7478 -0.1187
 1471SOL    HW115872   2.657   4.002   2.032  3.1190 -3.3727  0.2624
 1471SOL    HW215873   2.677   3.914   2.146 -0.0893  0.5610 -0.2850
 1472SOL     OW15874   0.162   2.106  12.831 -0.4508 -0.1399 -0.1515
 1472SOL    HW115875   0.164   2.196  12.863  1.9762 -0.4973  0.7556
 1472SOL    HW215876   0.104   2.112  12.756  0.9075  3.3769 -0.9012
 1473SOL     OW15877   4.696   1.085   1.181 -0.5341 -0.1939  0.0533
 1473SOL    HW115878   4.641   1.042   1.115 -0.4394  0.7970 -0.6694
 1473SOL    HW215879   4.696   1.012   1.242  1.2373  2.1034  2.8012
 1474SOL     OW15880   2.477   0.157   6.740 -0.0965  0.3630 -0.3610
 1474SOL    HW115881   2.560   0.113   6.723 -0.5476 -0.9377  0.8522
 1474SOL    HW215882   2.417   0.097   6.784 -0.8267  0.2164 -1.5503
 1475SOL     OW15883   1.442   2.791   8.649 -0.6560  0.2772  0.2216
 1475SOL    HW115884   1.482   2.868   8.609 -0.9503  0.7591  0.8641
 1475SOL    HW215885   1.402   2.816   8.732  0.0092 -0.8139  0.8704
 1476SOL     OW15886   2.718   0.825  12.841 -0.3758 -0.0780 -0.0236
 1476SOL    HW115887   2.641   0.865  12.801  0.1747 -0.6378 -1.6378
 1476SOL    HW215888   2.769   0.902  12.866 -3.1538  2.8374 -3.2888
 1477SOL     OW15889   2.639   3.647   0.813  0.3497 -0.8525 -0.1360
 1477SOL    HW115890   2.731   3.642   0.787  0.3076 -1.9592 -0.0520
 1477SOL    HW215891   2.633   3.728   0.864  2.2573  0.6594 -2.3461
 1478SOL     OW15892   3.654   2.684   2.459 -0.5435  0.1520 -0.1597
 1478SOL    HW115893   3.656   2.687   2.363  2.8951 -1.1561 -0.1353
 1478SOL    HW215894   3.716   2.757   2.465  0.4820 -0.5882 -1.5812
 1479SOL     OW15895   0.195   2.883   8.120  0.2495 -0.2167 -0.3871
 1479SOL    HW115896   0.107   2.919   8.107  0.6709  0.3932 -1.5447
 1479SOL    HW215897   0.169   2.791   8.114 -0.8283  0.1712 -1.8006
 1480SOL     OW15898   3.911   0.204   7.565 -0.5408 -0.1951 -0.1583
 1480SOL    HW115899   3.830   0.240   7.529 -0.9498  0.9320  1.9017
 1480SOL    HW215900   3.946   0.184   7.478 -1.3035 -2.2517  0.0018
 1481SOL     OW15901   2.672   0.194   0.875 -0.7515 -0.1041  0.1253
 1481SOL    HW115902   2.678   0.151   0.960 -1.9155 -0.4901  0.0187
 1481SOL    HW215903   2.583   0.228   0.886 -1.3668 -1.2343 -1.4296
 1482SOL     OW15904   1.922   3.921  15.780  0.0213 -0.3854  0.0785
 1482SOL    HW115905   1.855   3.978  15.818  3.2903  3.6464 -0.2499
 1482SOL    HW215906   2.001   3.972  15.762 -1.1299  1.0734 -0.8776
 1483SOL     OW15907   3.949   1.937   1.170 -0.4301 -0.1387  0.2295
 1483SOL    HW115908   3.932   1.846   1.145 -1.2409  0.6366 -2.0270
 1483SOL    HW215909   3.894   1.986   1.108  0.7042 -1.7278 -2.0206
 1484SOL     OW15910   4.132   3.714   8.504 -0.1507  0.5479 -0.5243
 1484SOL    HW115911   4.111   3.806   8.489 -1.2456  0.5141  0.8487
 1484SOL    HW215912   4.054   3.679   8.460  0.0249 -0.9962  0.3612
 1485SOL     OW15913   4.328   3.643   3.268  0.6160  0.1775  0.1822
 1485SOL    HW115914   4.407   3.641   3.213  0.4585  0.5075 -0.0590
 1485SOL    HW215915   4.358   3.585   3.337 -1.0260 -1.4910 -0.5160
 1486SOL     OW15916   1.825   2.016   6.311 -0.0190  0.1042  0.1758
 1486SOL    HW115917   1.917   1.996   6.323  0.5589  2.5636 -0.0889
 1486SOL    HW215918   1.808   1.953   6.242 -0.1266 -0.4717  0.7216
 1487SOL     OW15919   2.235   1.363   6.900  0.2678 -0.1022  0.0480
 1487SOL    HW115920   2.253   1.346   6.992 -2.6867  2.9742  1.2124
 1487SOL    HW215921   2.222   1.458   6.901  1.6306  0.0900 -0.1639
 1488SOL     OW15922   0.557   0.744   2.612  0.5118  0.7732  0.0650
 1488SOL    HW115923   0.473   0.763   2.654 -0.5379 -1.9374 -0.8239
 1488SOL    HW215924   0.584   0.831   2.582 -1.7949  0.5736 -2.5543
 1489SOL     OW15925   1.494   2.171  15.883  0.3550  0.0430 -0.1106
 1489SOL    HW115926   1.500   2.265  15.866 -0.3303  0.2260  0.6579
 1489SOL    HW215927   1.446   2.147  15.804 -0.2337 -1.1053  0.6028
 1490SOL     OW15928   0.533   1.991   2.461  0.5410 -0.5223 -0.3469
 1490SOL    HW115929   0.438   2.005   2.463  0.4143 -1.3297 -1.0370
 1490SOL    HW215930   0.542   1.999   2.556 -1.1400  0.3473 -0.2685
 1491SOL     OW15931   0.954   0.568   6.869  0.0325 -0.6761 -0.3022
 1491SOL    HW115932   0.871   0.521   6.872 -0.0771 -0.4771 -0.2496
 1491SOL    HW215933   0.935   0.638   6.931 -1.1772  0.9617 -2.5578
 1492SOL     OW15934   2.562   4.643  15.840 -0.7530  0.7080  0.2499
 1492SOL    HW115935   2.528   4.554  15.848  0.0455  0.2159 -1.7517
 1492SOL    HW215936   2.612   4.654  15.921 -2.5760  1.9702  1.1948
 1493SOL     OW15937   4.227   3.157  13.974  0.2779 -0.0208 -0.1895
 1493SOL    HW115938   4.287   3.101  13.925  0.1151 -0.3215 -0.0450
 1493SOL    HW215939   4.274   3.239  13.958 -1.0778  0.2986 -2.5007
 1494SOL     OW15940   1.680   4.577   7.786 -0.2626 -0.1192  0.2521
 1494SOL    HW115941   1.764   4.590   7.830 -1.4452  0.0247  2.4304
 1494SOL    HW215942   1.646   4.665   7.767 -0.3829 -0.3941 -0.7964
 1495SOL     OW15943   3.215   2.557  10.602 -0.5836  0.0496  0.3708
 1495SOL    HW115944   3.149   2.556  10.672  0.9755 -3.1717  1.8220
 1495SOL    HW215945   3.217   2.472  10.559  0.3675  1.0044 -1.4642
 1496SOL     OW15946   1.166   3.653   5.432 -0.0504 -0.4222  0.0025
 1496SOL    HW115947   1.151   3.558   5.428 -1.7798 -0.0318 -2.7361
 1496SOL    HW215948   1.255   3.650   5.397  0.2725  1.8065  0.6686
 1497SOL     OW15949   1.068   0.675   3.523  0.6752  0.0897 -0.3327
 1497SOL    HW115950   1.030   0.587   3.533 -0.4262  0.3686 -2.0864
 1497SOL    HW215951   1.101   0.679   3.613 -0.3772  0.1518  0.0444
 1498SOL     OW15952   0.220   4.315  10.937  0.2861 -0.8231 -0.3437
 1498SOL    HW115953   0.280   4.270  10.877  2.4616 -0.2094  1.3510
 1498SOL    HW215954   0.214   4.251  11.008  2.9267  0.9395  1.4772
 1499SOL     OW15955   1.182   3.773   1.026 -0.7324 -0.4892 -0.2356
 1499SOL    HW115956   1.149   3.793   1.114 -1.0540 -1.4744 -0.1229
 1499SOL    HW215957   1.145   3.684   1.023 -0.9831 -0.3673 -0.7710
 1500SOL     OW15958   2.537   1.080   8.629  0.1094 -0.3504  0.3600
 1500SOL    HW115959   2.621   1.042   8.653 -0.0396  0.3401  1.9686
 1500SOL    HW215960   2.479   1.005   8.641  1.2903 -0.9185  2.3818
 1501SOL     OW15961   2.748   1.795   4.842 -0.6908  0.1908 -0.4704
 1501SOL    HW115962   2.661   1.804   4.804  0.0172 -0.1832 -2.1584
 1501SOL    HW215963   2.747   1.870   4.901  0.2344 -0.8193  0.8315
 1502SOL     OW15964   1.510   2.284   2.883 -0.7953 -0.2884 -0.1647
 1502SOL    HW115965   1.542   2.262   2.796 -1.2578 -1.9967  0.0866
 1502SOL    HW215966   1.503   2.201   2.931  1.0062 -0.1964  0.2786
 1503SOL     OW15967   4.049   1.198   5.992  0.0009  1.0571 -0.1238
 1503SOL    HW115968   4.105   1.240   6.058 -0.1324  1.0176  0.0145
 1503SOL    HW215969   4.046   1.112   6.034 -2.6678  1.6475  0.8467
 1504SOL     OW15970   2.918   2.177  13.850 -0.6693 -0.1742 -0.6546
 1504SOL    HW115971   2.944   2.268  13.842 -2.4425  0.4406  0.3658
 1504SOL    HW215972   2.825   2.183  13.875 -0.3979 -1.6250  0.7510
 1505SOL     OW15973   1.372   1.624   7.041  0.8816  0.1915  0.2691
 1505SOL    HW115974   1.391   1.691   6.975 -1.3292 -0.9781 -1.5455
 1505SOL    HW215975   1.411   1.551   6.995 -0.8363 -1.1347  0.8893
 1506SOL     OW15976   2.756   0.962   7.718  0.1607  0.7162  0.0563
 1506SOL    HW115977   2.743   0.915   7.635  0.8935 -0.9443  0.8888
 1506SOL    HW215978   2.678   1.017   7.711 -0.7900 -0.4329  1.7053
 1507SOL     OW15979   1.136   0.395   6.768  0.2640 -0.4246 -0.3713
 1507SOL    HW115980   1.125   0.382   6.674 -0.8984  5.2369 -1.0584
 1507SOL    HW215981   1.058   0.446   6.788  1.0187  0.6094 -0.0235
 1508SOL     OW15982   0.641   1.300   6.445  0.5022  0.2444  0.1648
 1508SOL    HW115983   0.595   1.220   6.471 -0.5895  1.2185  1.2566
 1508SOL    HW215984   0.623   1.298   6.351  2.5832 -1.7768 -0.1848
 1509SOL     OW15985   0.536   2.888   8.116 -0.4936  0.6266  0.1882
 1509SOL    HW115986   0.451   2.931   8.116  0.0901  1.7795 -0.0443
 1509SOL    HW215987   0.508   2.800   8.091 -0.5625 -0.3324  3.6703
 1510SOL     OW15988   3.011   0.174  16.631  0.5412 -0.1936 -0.1797
 1510SOL    HW115989   2.945   0.125  16.582 -1.2663  0.5707  1.5242
 1510SOL    HW215990   2.970   0.167  16.717  2.3375  1.9358  0.8450
 1511SOL     OW15991   1.832   2.948   1.880 -0.6602 -0.1331  0.1093
 1511SOL    HW115992   1.906   2.892   1.901  1.0347  2.0237 -0.0720
 1511SOL    HW215993   1.864   3.031   1.844  3.8021 -1.1039  1.8481
 1512SOL     OW15994   2.707   3.604  11.089 -0.5563 -0.0290 -0.5017
 1512SOL    HW115995   2.786   3.658  11.094 -1.4876  1.3168 -0.4108
 1512SOL    HW215996   2.715   3.565  11.002 -0.2949 -0.5780 -0.2293
 1513SOL     OW15997   3.567   1.315   7.762 -0.0069  0.4074 -0.7709
 1513SOL    HW115998   3.509   1.315   7.838  2.6675 -0.5963  1.2668
 1513SOL    HW215999   3.615   1.232   7.765  0.1357  0.4176 -2.8168
 1514SOL     OW16000   0.988   4.066  14.687 -0.0408 -0.5845 -0.7020
 1514SOL    HW116001   0.958   3.984  14.725 -1.3517  0.1718 -0.0988
 1514SOL    HW216002   0.902   4.106  14.676 -1.6265 -3.4873  1.0052
 1515SOL     OW16003   0.826   4.311   8.638  0.2057 -0.1330  0.2962
 1515SOL    HW116004   0.869   4.255   8.573 -0.4712  0.2836 -0.5060
 1515SOL    HW216005   0.855   4.295   8.728  1.3369  1.7443  0.2577
 1516SOL     OW16006   0.863   1.637   7.306  0.4104 -0.0035 -0.3085
 1516SOL    HW116007   0.792   1.695   7.277 -0.9501  0.4436  3.9240
 1516SOL    HW216008   0.863   1.647   7.401  0.4584  1.3901 -0.4474
 1517SOL     OW16009   0.109   3.249  17.148  0.4462  0.3277  0.6093
 1517SOL    HW116010   0.048   3.309  17.104  1.7753  0.5698 -0.9512
 1517SOL    HW216011   0.114   3.293  17.232 -2.0104  3.3067 -0.8049
 1518SOL     OW16012   2.918   4.267   3.599 -0.1783 -0.1000  0.9085
 1518SOL    HW116013   2.986   4.275   3.532  0.1799  1.3204  1.4514
 1518SOL    HW216014   2.961   4.209   3.661  2.0483  0.6176  0.0084
 1519SOL     OW16015   1.853   2.796   7.102 -0.3531 -0.1804 -0.4978
 1519SOL    HW116016   1.947   2.809   7.088 -0.0838 -2.0307 -0.3476
 1519SOL    HW216017   1.839   2.712   7.060 -1.1688 -0.4225  0.2587
 1520SOL     OW16018   0.513   3.693  15.305  0.4237  0.6511 -0.2488
 1520SOL    HW116019   0.561   3.760  15.257  1.6312 -0.6687 -0.8610
 1520SOL    HW216020   0.581   3.644  15.352  0.1592  0.2883 -0.2389
 1521SOL     OW16021   1.954   1.092   6.107  0.4326  0.3765 -0.4084
 1521SOL    HW116022   2.018   1.123   6.043  0.0960  0.7331 -0.5663
 1521SOL    HW216023   1.976   0.998   6.107  3.2433  1.0151  0.8585
 1522SOL     OW16024   1.964   2.657   7.893  0.6486 -0.6110 -0.0207
 1522SOL    HW116025   1.977   2.569   7.856 -1.2323 -0.8088 -0.1926
 1522SOL    HW216026   1.918   2.700   7.821  0.9468 -1.0756 -0.4870
 1523SOL     OW16027   3.190   2.295  10.420  0.2354  0.0591  0.3565
 1523SOL    HW116028   3.134   2.218  10.415 -0.3894  0.6127 -1.1891
 1523SOL    HW216029   3.120   2.361  10.426  0.5622  0.6771 -2.2933
 1524SOL     OW16030   2.267   3.278  14.951  0.6657 -0.2888 -0.4361
 1524SOL    HW116031   2.258   3.205  14.889 -0.9978 -1.5303  1.2649
 1524SOL    HW216032   2.254   3.232  15.034  1.5605  0.3380  0.0511
 1525SOL     OW16033   2.716   4.465   3.553 -0.2150 -0.4483 -0.2458
 1525SOL    HW116034   2.801   4.434   3.585 -0.6303 -1.9794 -0.6123
 1525SOL    HW216035   2.653   4.404   3.592 -0.4099  0.1559  0.3851
 1526SOL     OW16036   4.096   2.370   3.605 -0.3566 -0.5959  0.5156
 1526SOL    HW116037   4.054   2.298   3.652  0.0066 -1.0891  0.0859
 1526SOL    HW216038   4.021   2.409   3.560 -0.6929 -1.2052  0.5478
 1527SOL     OW16039   3.306   0.125   3.605 -0.4490  0.3848 -0.3119
 1527SOL    HW116040   3.285   0.060   3.537  0.4938 -0.7492  0.4799
 1527SOL    HW216041   3.374   0.174   3.559  0.6251 -0.2109  0.6333
 1528SOL     OW16042   1.032   1.052   2.911  0.3540 -0.0164  0.0069
 1528SOL    HW116043   0.948   1.071   2.870  1.8508  3.4412 -1.4338
 1528SOL    HW216044   1.021   0.964   2.948 -0.9112 -1.1181 -2.9260
 1529SOL     OW16045   2.430   2.408   7.493  0.2758 -0.1196  0.3055
 1529SOL    HW116046   2.497   2.392   7.427  0.6660  0.9453  0.4526
 1529SOL    HW216047   2.486   2.427   7.568 -1.1206 -2.2846  1.9315
 1530SOL     OW16048   4.258   0.133   0.224  0.1017 -0.5681  0.1771
 1530SOL    HW116049   4.213   0.095   0.300 -0.1346  0.4934  0.5543
 1530SOL    HW216050   4.277   0.048   0.184 -0.1898  0.0116 -1.1655
 1531SOL     OW16051   3.926   3.336  13.257 -0.1149  0.4715  0.5724
 1531SOL    HW116052   3.918   3.259  13.201 -1.0027 -0.1685  1.5543
 1531SOL    HW216053   3.854   3.307  13.314 -0.1314 -1.6131 -0.5214
 1532SOL     OW16054   4.382   1.593  12.609  0.5092  0.0486  0.9922
 1532SOL    HW116055   4.317   1.524  12.592 -0.3160  0.5837  2.0400
 1532SOL    HW216056   4.446   1.537  12.652 -1.1270 -2.1625  0.5875
 1533SOL     OW16057   0.527   1.219   7.001 -0.1450  0.2067  0.3499
 1533SOL    HW116058   0.532   1.298   6.948 -1.2500 -0.7612 -1.2132
 1533SOL    HW216059   0.434   1.212   7.025  0.6505 -2.1639  2.7821
 1534SOL     OW16060   4.707   0.683  11.855  0.3354  0.0099  0.2173
 1534SOL    HW116061   4.651   0.616  11.894  2.6528 -1.9297  0.2363
 1534SOL    HW216062   4.648   0.758  11.852 -1.3776 -1.3951 -0.7602
 1535SOL     OW16063   2.851   4.491   3.051  0.4330  0.4293  0.3417
 1535SOL    HW116064   2.871   4.437   2.974 -1.3643  1.5333 -0.9068
 1535SOL    HW216065   2.818   4.566   3.002 -1.0411  0.8890  2.0669
 1536SOL     OW16066   4.133   2.409  15.703 -0.2983  0.0888  0.1079
 1536SOL    HW116067   4.087   2.430  15.785  0.6856 -2.1534  1.2217
 1536SOL    HW216068   4.063   2.354  15.668 -1.8197  0.3449  2.6959
 1537SOL     OW16069   1.222   2.729   7.252  0.1596 -0.3428  0.2278
 1537SOL    HW116070   1.218   2.658   7.188  1.4892  0.3509 -0.6114
 1537SOL    HW216071   1.316   2.724   7.268  0.1153 -1.5535  0.0607
 1538SOL     OW16072   0.793   4.024  16.581  0.1329  0.2841 -0.6830
 1538SOL    HW116073   0.866   4.044  16.523  1.4837  1.7328  1.5212
 1538SOL    HW216074   0.816   4.052  16.670 -1.5015  0.6741 -0.3654
 1539SOL     OW16075   3.948   1.276   6.808 -0.2797 -0.4893 -0.3397
 1539SOL    HW116076   3.876   1.259   6.868 -0.1581  0.2353  0.0079
 1539SOL    HW216077   3.966   1.188   6.772  1.6160  0.3367 -1.4418
 1540SOL     OW16078   2.220   0.332   2.143  0.1022  0.1403 -0.3059
 1540SOL    HW116079   2.219   0.414   2.093 -0.0885 -0.2491 -0.9333
 1540SOL    HW216080   2.241   0.263   2.080 -1.8319 -1.1751  0.5090
 1541SOL     OW16081   3.359   3.754   5.957 -0.0780 -0.4468 -0.0044
 1541SOL    HW116082   3.294   3.820   5.929  1.8218  2.1516  1.7626
 1541SOL    HW216083   3.298   3.705   6.013 -1.5222  2.1937  0.7577
 1542SOL     OW16084   0.287   2.344   8.612 -0.0326  0.6693  0.1253
 1542SOL    HW116085   0.370   2.391   8.605 -0.3283  1.1003 -0.4635
 1542SOL    HW216086   0.233   2.406   8.563 -0.9677 -0.1331  0.1652
 1543SOL     OW16087   1.309   3.441   7.120 -0.1502  0.0135  0.2930
 1543SOL    HW116088   1.320   3.447   7.026 -0.2578 -0.9407  0.2222
 1543SOL    HW216089   1.337   3.350   7.132 -1.6601 -0.5907 -0.7806
 1544SOL     OW16090   3.857   1.736   2.199 -0.7017  0.4597 -0.3100
 1544SOL    HW116091   3.866   1.774   2.112  0.0350 -2.0488 -1.3117
 1544SOL    HW216092   3.926   1.783   2.246 -0.9102 -0.3127  0.7581
 1545SOL     OW16093   3.257   4.102   0.859 -0.0795  0.0208 -0.0696
 1545SOL    HW116094   3.349   4.098   0.832  0.0208 -1.3497  0.4676
 1545SOL    HW216095   3.261   4.080   0.952 -0.9640 -0.5694 -0.1683
 1546SOL     OW16096   4.519   0.516   3.660 -0.1535  0.1426  0.5976
 1546SOL    HW116097   4.532   0.535   3.753  0.9007  0.2034  0.4416
 1546SOL    HW216098   4.494   0.424   3.659  0.9677 -0.1579  0.5958
 1547SOL     OW16099   0.213   2.062  14.955  0.1417  0.0803  1.1692
 1547SOL    HW116100   0.277   2.000  14.919 -0.2570  1.2572 -1.5820
 1547SOL    HW216101   0.136   2.010  14.934  0.0759 -0.2330  2.1744
 1548SOL     OW16102   3.613   0.851   0.558  0.1052 -0.0761 -0.2250
 1548SOL    HW116103   3.537   0.865   0.614 -1.1256 -1.6587 -1.4755
 1548SOL    HW216104   3.599   0.758   0.539  2.5177 -0.3066 -0.8622
 1549SOL     OW16105   1.424   1.439   9.367 -0.0194 -0.2749 -0.4511
 1549SOL    HW116106   1.386   1.412   9.451 -1.4484  1.4172 -0.5537
 1549SOL    HW216107   1.381   1.386   9.299 -0.8798 -1.5370  1.0663
 1550SOL     OW16108   1.260   0.311   9.034 -0.9862 -0.0016  0.1418
 1550SOL    HW116109   1.220   0.375   8.974  1.7329 -0.2221 -1.9179
 1550SOL    HW216110   1.182   0.258   9.051 -0.7106 -0.0542  1.1755
 1551SOL     OW16111   1.905   0.512   4.984  0.2023  0.6637 -0.5938
 1551SOL    HW116112   1.826   0.546   5.025  1.1300 -0.4448  2.1471
 1551SOL    HW216113   1.912   0.558   4.901 -1.3291  2.3339  0.2077
 1552SOL     OW16114   3.065   2.749   6.249 -0.6353 -0.3669  0.2707
 1552SOL    HW116115   3.150   2.728   6.211 -0.2291 -0.4884  1.2710
 1552SOL    HW216116   3.043   2.819   6.187  0.9111  0.5329  0.7507
 1553SOL     OW16117   2.687   4.068   2.970  0.4183 -0.0376 -0.0829
 1553SOL    HW116118   2.709   4.145   2.916 -2.2925  0.6539 -0.1963
 1553SOL    HW216119   2.648   4.016   2.900  2.3983 -0.8029 -0.6096
 1554SOL     OW16120   0.397   3.036   1.333  0.0284  0.1106 -0.1201
 1554SOL    HW116121   0.331   2.973   1.361  0.7892  0.1386  1.7487
 1554SOL    HW216122   0.405   3.018   1.239  2.0618  2.7402 -0.4511
 1555SOL     OW16123   0.195   0.031  14.221 -0.1425  0.1471 -1.0016
 1555SOL    HW116124   0.257   4.684  14.236  0.7077  1.1036  0.0777
 1555SOL    HW216125   0.160   0.001  14.137  3.2486 -0.9335 -2.0465
 1556SOL     OW16126   1.540   3.809   6.073 -0.1880  0.0925 -0.2323
 1556SOL    HW116127   1.579   3.890   6.104 -3.1931  1.6626 -0.6332
 1556SOL    HW216128   1.603   3.795   6.001  0.2067  0.3176  0.0718
 1557SOL     OW16129   0.906   0.863  17.256  0.1259 -0.3833  0.5787
 1557SOL    HW116130   0.960   0.894  17.328 -0.3351  1.8231 -0.0223
 1557SOL    HW216131   0.936   0.934  17.198  0.0538 -0.7078  0.1427
 1558SOL     OW16132   4.424   1.102   0.703  0.2196  0.2070  0.3521
 1558SOL    HW116133   4.360   1.172   0.720 -1.5644 -0.9381 -1.7121
 1558SOL    HW216134   4.373   1.042   0.649  0.5098 -0.1068  0.4348
 1559SOL     OW16135   0.789   1.413  15.610 -0.0210  0.1987 -0.3834
 1559SOL    HW116136   0.838   1.394  15.531  1.8953 -0.4178  0.9561
 1559SOL    HW216137   0.702   1.388  15.580 -0.4974 -0.8265  1.8560
 1560SOL     OW16138   0.450   3.300   5.807 -0.2876  0.1184  0.2222
 1560SOL    HW116139   0.401   3.307   5.888 -1.0603 -0.7877 -0.1771
 1560SOL    HW216140   0.499   3.224   5.838  0.1114  0.4401  0.3862
 1561SOL     OW16141   3.515   3.046   6.023 -0.5184 -0.1672  0.2171
 1561SOL    HW116142   3.511   2.951   6.031  0.1410 -0.1704  0.4886
 1561SOL    HW216143   3.451   3.084   6.084  0.1592  1.5851 -0.1491
 1562SOL     OW16144   3.028   0.830   5.495 -0.5884 -0.4900  0.3175
 1562SOL    HW116145   3.026   0.909   5.442  0.7043 -0.4854  0.2737
 1562SOL    HW216146   2.948   0.840   5.547 -0.8730  0.0757 -0.2350
 1563SOL     OW16147   3.104   3.764   7.322  0.6849  0.2958 -0.0667
 1563SOL    HW116148   3.186   3.717   7.331  1.3211  1.1010 -1.5829
 1563SOL    HW216149   3.100   3.769   7.226  2.6059  3.6442  0.0280
 1564SOL     OW16150   0.994   1.296  15.805  0.2725  0.3006 -0.5589
 1564SOL    HW116151   1.062   1.253  15.857  0.2517 -1.4811 -1.9935
 1564SOL    HW216152   0.945   1.221  15.772 -0.4345 -0.2898  1.8445
 1565SOL     OW16153   1.970   3.218   7.558  0.0633  0.4925  0.0052
 1565SOL    HW116154   1.909   3.211   7.632 -0.3661  0.1272 -0.3825
 1565SOL    HW216155   2.050   3.251   7.597  2.0446 -3.9041 -0.3020
 1566SOL     OW16156   3.445   3.356  10.322  0.1216 -0.1273  0.5971
 1566SOL    HW116157   3.511   3.322  10.383  0.3373  0.7984  0.8753
 1566SOL    HW216158   3.447   3.293  10.249  2.5083 -0.0747  0.6188
 1567SOL     OW16159   4.107   0.553   7.237 -0.1339 -0.6769 -0.1903
 1567SOL    HW116160   4.092   0.563   7.331 -0.7422 -1.6903 -0.1832
 1567SOL    HW216161   4.203   0.555   7.239 -0.0719 -1.5988 -2.6072
 1568SOL     OW16162   3.140   4.145   7.751 -0.1834 -0.0972  0.2369
 1568SOL    HW116163   3.067   4.161   7.690 -0.1556  2.2948  0.8173
 1568SOL    HW216164   3.177   4.233   7.752  0.0444 -0.1892 -0.0046
 1569SOL     OW16165   4.340   1.938  11.846 -0.2357 -0.0341  0.2364
 1569SOL    HW116166   4.310   2.027  11.827 -0.4395 -0.2881 -0.6223
 1569SOL    HW216167   4.404   1.914  11.779 -0.8737  1.5105 -0.9002
 1570SOL     OW16168   4.419   0.126  17.238 -0.1460  0.2200  0.5288
 1570SOL    HW116169   4.327   0.132  17.211 -0.6967 -0.7392  2.1725
 1570SOL    HW216170   4.425   0.130  17.333  0.1851 -2.0044  0.6050
 1571SOL     OW16171   3.158   2.491   6.885  0.6559  0.5682  0.4179
 1571SOL    HW116172   3.135   2.408   6.926  0.4466  0.8143  0.8008
 1571SOL    HW216173   3.158   2.559   6.953 -1.9916  0.7487  0.2199
 1572SOL     OW16174   1.607   0.883  15.129 -0.1838  0.0004  0.0139
 1572SOL    HW116175   1.538   0.950  15.128  0.8375  1.0656  0.4013
 1572SOL    HW216176   1.605   0.852  15.039  3.0264  1.7207 -0.6594
 1573SOL     OW16177   0.731   3.935   2.395 -0.1135  0.2989  0.3752
 1573SOL    HW116178   0.777   3.935   2.479 -1.7273  1.5627  1.2584
 1573SOL    HW216179   0.766   3.856   2.354  2.0053  1.3107  0.2188
 1574SOL     OW16180   1.024   0.515  12.465  0.5055 -0.5590  0.1542
 1574SOL    HW116181   1.051   0.490  12.377  1.3102  2.8202 -0.5897
 1574SOL    HW216182   1.051   0.436  12.510  0.9661 -0.4864  0.0015
 1575SOL     OW16183   3.502   2.137   6.384  0.1472  0.5827  0.2622
 1575SOL    HW116184   3.453   2.207   6.342 -0.4003 -0.8278 -1.4723
 1575SOL    HW216185   3.578   2.186   6.416 -0.0535  0.8722  0.2954
 1576SOL     OW16186   1.245   1.326   9.526 -0.8271 -0.3633 -0.0285
 1576SOL    HW116187   1.163   1.289   9.494 -1.0137  1.0999 -1.2503
 1576SOL    HW216188   1.208   1.403   9.570 -0.4803 -0.7347  0.9202
 1577SOL     OW16189   2.114   1.681   6.120  0.3073  0.0181  0.2748
 1577SOL    HW116190   2.055   1.627   6.069  2.3460 -1.1395 -0.8580
 1577SOL    HW216191   2.099   1.760   6.068 -0.2127  0.0514  0.4731
 1578SOL     OW16192   2.379   0.657  16.570  0.6816  0.0426 -0.1971
 1578SOL    HW116193   2.378   0.580  16.627  2.4198  0.3693  0.2774
 1578SOL    HW216194   2.403   0.612  16.489 -1.8090 -2.1757  0.2884
 1579SOL     OW16195   2.712   1.896   2.603  0.3329 -0.1580 -0.1661
 1579SOL    HW116196   2.667   1.873   2.684  0.9782 -1.5323 -0.2008
 1579SOL    HW216197   2.694   1.819   2.549 -0.9302 -0.4725  0.6975
 1580SOL     OW16198   1.424   1.296   3.384 -0.3351 -0.4641 -0.4531
 1580SOL    HW116199   1.334   1.289   3.350 -0.9220  0.9402  0.7961
 1580SOL    HW216200   1.469   1.278   3.302  0.6489 -2.5504  0.5464
 1581SOL     OW16201   1.319   2.276   1.555  0.2420  0.0837  0.1052
 1581SOL    HW116202   1.224   2.278   1.546  0.3167  1.0351 -0.4235
 1581SOL    HW216203   1.335   2.196   1.606 -4.5646 -0.2403  1.0239
 1582SOL     OW16204   2.137   2.244   8.503  0.0371  0.5245  1.2323
 1582SOL    HW116205   2.153   2.160   8.548 -0.6889  1.3305  2.9971
 1582SOL    HW216206   2.087   2.212   8.428  0.8666 -0.3743  1.0543
 1583SOL     OW16207   3.114   1.781   3.341  0.5679 -0.4105 -0.4181
 1583SOL    HW116208   3.177   1.771   3.269  1.6159  2.1011  0.1292
 1583SOL    HW216209   3.125   1.696   3.385  0.1452  0.5879  1.6341
 1584SOL     OW16210   2.627   4.471  17.111  0.2580  0.1554  0.2037
 1584SOL    HW116211   2.699   4.532  17.095 -0.6302  1.4906  1.3231
 1584SOL    HW216212   2.605   4.452  17.019 -0.3826  2.8156 -0.2012
 1585SOL     OW16213   1.469   4.111  10.951 -0.1137 -0.1243  0.0807
 1585SOL    HW116214   1.513   4.118  10.867 -1.5279 -1.2135 -0.7371
 1585SOL    HW216215   1.409   4.041  10.928 -1.2542 -0.1982  3.1894
 1586SOL     OW16216   2.190   3.749   8.828 -0.0530 -0.1748  0.8911
 1586SOL    HW116217   2.223   3.780   8.744  1.3451 -0.4921  1.3136
 1586SOL    HW216218   2.116   3.808   8.843 -2.2900 -1.8390 -3.5393
 1587SOL     OW16219   3.502   3.354   2.084 -0.3442 -0.3634 -0.7623
 1587SOL    HW116220   3.444   3.283   2.113 -2.9450  1.9841 -0.3112
 1587SOL    HW216221   3.444   3.428   2.097 -0.6541 -0.9415  1.2198
 1588SOL     OW16222   0.462   3.744   2.926  0.7132  0.8845  0.0887
 1588SOL    HW116223   0.512   3.816   2.888  1.7915 -1.3780 -2.7574
 1588SOL    HW216224   0.528   3.675   2.932  0.0323  0.0642 -1.7672
 1589SOL     OW16225   0.608   1.835   4.570 -0.2670 -0.5866 -0.2567
 1589SOL    HW116226   0.521   1.856   4.606 -0.0248 -0.8702  0.4939
 1589SOL    HW216227   0.636   1.921   4.538 -3.6489  0.3685 -0.6734
 1590SOL     OW16228   3.844   2.050   5.365  0.4564  0.3637  0.0386
 1590SOL    HW116229   3.929   2.090   5.388  0.8670  0.6375 -1.9598
 1590SOL    HW216230   3.859   2.008   5.281  2.3072  0.5020  0.2977
 1591SOL     OW16231   2.109   4.613   7.784  0.2376  0.3526  0.2830
 1591SOL    HW116232   2.117   4.528   7.742  1.0885 -0.2205  1.6039
 1591SOL    HW216233   2.016   4.607   7.806  0.4775 -1.3499  0.8148
 1592SOL     OW16234   1.171   1.110  15.689 -0.5145 -0.4453 -0.2354
 1592SOL    HW116235   1.181   1.126  15.783  0.9207  1.6948 -0.7600
 1592SOL    HW216236   1.263   1.134  15.677 -0.1763 -2.1028 -1.0293
 1593SOL     OW16237   3.334   2.510  15.502  0.0288  0.1760  0.0994
 1593SOL    HW116238   3.247   2.549  15.507 -1.0070 -1.9693 -1.5421
 1593SOL    HW216239   3.375   2.584  15.547 -0.4946  0.9817 -0.7602
 1594SOL     OW16240   0.521   4.248   6.470  0.3205  0.6090  0.0794
 1594SOL    HW116241   0.452   4.188   6.499  0.6753 -0.5359 -1.4609
 1594SOL    HW216242   0.592   4.217   6.526  1.8164  0.7631 -1.7413
 1595SOL     OW16243   2.533   1.791  12.243  0.6746 -0.0507 -0.1702
 1595SOL    HW116244   2.550   1.704  12.207 -0.8124 -1.6708  2.9361
 1595SOL    HW216245   2.562   1.846  12.171 -0.6999 -1.4556 -1.8149
 1596SOL     OW16246   0.921   2.409   3.573  0.0021 -0.1731 -0.0562
 1596SOL    HW116247   0.987   2.456   3.522  0.0921  0.3269  0.5189
 1596SOL    HW216248   0.860   2.481   3.591  1.3689  0.8515  0.4848
 1597SOL     OW16249   4.433   4.373   8.602 -0.6986 -0.3585  0.2092
 1597SOL    HW116250   4.423   4.280   8.623  0.3313 -0.8931 -1.7038
 1597SOL    HW216251   4.416   4.376   8.508 -2.4575 -1.6290  0.4834
 1598SOL     OW16252   1.438   2.992  13.391  0.2301  0.0258  0.2490
 1598SOL    HW116253   1.395   2.975  13.475  1.3892  2.9875  1.4487
 1598SOL    HW216254   1.396   3.072  13.358 -1.8783 -0.9929  0.4940
 1599SOL     OW16255   2.366   0.251  17.617 -0.4708 -0.1724  0.2591
 1599SOL    HW116256   2.399   0.265   0.004 -0.0241  2.0978 -0.2583
 1599SOL    HW216257   2.272   0.236  17.628 -0.2794 -0.8470  0.9647
 1600SOL     OW16258   0.668   3.703   7.918  0.2927 -0.3330  0.1565
 1600SOL    HW116259   0.643   3.793   7.896 -2.4527 -0.5146  2.4459
 1600SOL    HW216260   0.654   3.648   7.841 -1.0353  0.0509  0.1243
 1601SOL     OW16261   4.047   3.750   2.514 -0.2991 -0.0915 -0.5280
 1601SOL    HW116262   3.972   3.782   2.463 -0.4691 -1.0639 -0.8839
 1601SOL    HW216263   4.107   3.713   2.449  0.4871 -1.3316  0.9204
 1602SOL     OW16264   3.060   4.222   5.455  0.6891  0.1946 -0.2198
 1602SOL    HW116265   3.108   4.243   5.535  0.4273 -0.4819  0.1140
 1602SOL    HW216266   3.082   4.129   5.451  3.2662  0.6477  3.8080
 1603SOL     OW16267   0.777   1.171   2.859 -0.0696  0.2933 -0.4438
 1603SOL    HW116268   0.740   1.255   2.885 -1.8180 -0.3816 -0.7529
 1603SOL    HW216269   0.712   1.113   2.899  0.2697  1.8067  2.3509
 1604SOL     OW16270   1.536   0.339   9.701 -0.4595 -0.0443 -0.2818
 1604SOL    HW116271   1.539   0.411   9.765 -0.4844 -0.2644 -0.0300
 1604SOL    HW216272   1.619   0.303   9.733  0.0261  0.4087 -1.0465
 1605SOL     OW16273   4.652   3.118  10.648 -0.7628 -0.4128  0.5016
 1605SOL    HW116274   4.704   3.053  10.696 -0.1584 -2.0314 -2.3173
 1605SOL    HW216275   4.667   3.198  10.699 -0.3260 -0.0548 -0.1897
 1606SOL     OW16276   0.547   3.713   5.673  0.0185  0.1884  0.0170
 1606SOL    HW116277   0.484   3.737   5.741 -0.6861 -0.7054 -0.3228
 1606SOL    HW216278   0.498   3.727   5.592  0.6957  1.9852 -0.0771
 1607SOL     OW16279   0.124   3.095   9.443 -0.3382 -0.7266 -0.1224
 1607SOL    HW116280   0.069   3.125   9.515  1.5359  0.9734  0.5984
 1607SOL    HW216281   0.123   3.176   9.393 -1.1329 -0.0678  0.9614
 1608SOL     OW16282   1.032   1.101   3.587 -0.2957  0.2536 -0.1044
 1608SOL    HW116283   1.095   1.067   3.650  0.1687 -0.3288 -0.8854
 1608SOL    HW216284   1.072   1.061   3.510 -0.8636  0.8757 -0.7308
 1609SOL     OW16285   0.175   2.606   8.056  0.1873  0.5542 -0.6456
 1609SOL    HW116286   0.235   2.557   7.998  0.6890  1.3834 -0.8203
 1609SOL    HW216287   0.092   2.603   8.008 -0.1005 -0.1226 -0.0997
 1610SOL     OW16288   0.461   1.094   1.826 -0.3626 -0.7349 -0.1241
 1610SOL    HW116289   0.523   1.134   1.887 -2.3318  1.8208  0.1615
 1610SOL    HW216290   0.375   1.093   1.868 -0.7728  2.3770 -0.9037
 1611SOL     OW16291   2.228   2.940   7.127 -0.1140  0.8995  0.2708
 1611SOL    HW116292   2.169   2.878   7.084 -0.9543  1.7268  0.2480
 1611SOL    HW216293   2.315   2.936   7.088 -0.6480  0.8473 -0.8907
 1612SOL     OW16294   4.336   3.465   9.932  0.0835 -0.0799  0.0835
 1612SOL    HW116295   4.409   3.475   9.993 -0.1749  1.0187  0.2015
 1612SOL    HW216296   4.376   3.410   9.864 -3.0836 -1.0590 -0.9897
 1613SOL     OW16297   2.132   1.526  12.223 -0.1542  0.3674  0.2550
 1613SOL    HW116298   2.104   1.442  12.258  2.3066 -0.1820  0.8881
 1613SOL    HW216299   2.081   1.585  12.278  0.1681  1.2969 -0.4435
 1614SOL     OW16300   2.142   3.597   0.742 -0.4940 -0.6881 -0.0354
 1614SOL    HW116301   2.105   3.645   0.816 -0.0821  0.3741 -0.5257
 1614SOL    HW216302   2.133   3.509   0.779  0.8142 -1.1503 -0.8008
 1615SOL     OW16303   4.266   0.616   6.672  0.5496  0.1378  0.1859
 1615SOL    HW116304   4.255   0.609   6.767 -0.8556 -1.8351 -0.1157
 1615SOL    HW216305   4.302   0.530   6.651 -2.1648 -1.0040  0.1370
 1616SOL     OW16306   2.430   4.487   1.614 -0.4387  0.2371 -0.4234
 1616SOL    HW116307   2.488   4.415   1.640 -0.8908  0.5685  1.4930
 1616SOL    HW216308   2.359   4.449   1.562 -0.7748 -0.3959  0.4875
 1617SOL     OW16309   4.492   0.428   5.272  0.1653  1.0784 -0.2947
 1617SOL    HW116310   4.525   0.517   5.267  0.2177  1.0134 -1.2098
 1617SOL    HW216311   4.411   0.447   5.224  0.1368 -0.5681 -0.9057
 1618SOL     OW16312   0.073   2.709  10.734 -0.4578 -0.7028  0.1282
 1618SOL    HW116313   0.138   2.766  10.776 -0.9625  0.3086 -0.4503
 1618SOL    HW216314   0.113   2.705  10.647  0.8764  1.2420  0.6433
 1619SOL     OW16315   4.457   2.052   4.606  0.2347 -0.7531 -0.0015
 1619SOL    HW116316   4.373   2.068   4.563 -0.4624 -1.8522  0.9573
 1619SOL    HW216317   4.450   1.968   4.652  0.3722  0.0296  1.4688
 1620SOL     OW16318   0.730   2.533  14.667 -0.1520  0.4006 -0.1232
 1620SOL    HW116319   0.669   2.581  14.723 -0.3369  1.0078 -0.8498
 1620SOL    HW216320   0.677   2.454  14.652  0.3573 -0.0846  0.6358
 1621SOL     OW16321   0.091   2.529   6.232 -0.0889  0.3678 -0.5981
 1621SOL    HW116322   0.062   2.466   6.297 -1.0964  0.8377 -0.6020
 1621SOL    HW216323   0.166   2.483   6.195 -0.4745 -0.4973 -0.2856
 1622SOL     OW16324   4.269   0.768  16.271 -0.3327  0.7971  0.5445
 1622SOL    HW116325   4.289   0.803  16.184  3.0090 -0.7743  0.6881
 1622SOL    HW216326   4.208   0.833  16.307  1.3461  2.9543 -0.4791
 1623SOL     OW16327   3.662   1.789   0.469 -0.0775  0.2964  0.1791
 1623SOL    HW116328   3.577   1.775   0.513 -0.0670 -1.0630 -0.2349
 1623SOL    HW216329   3.694   1.871   0.505  0.2874 -0.6550  2.0622
 1624SOL     OW16330   2.803   3.349   7.331  0.2881  0.0812  0.3008
 1624SOL    HW116331   2.839   3.437   7.320  0.0506 -0.1561 -2.4200
 1624SOL    HW216332   2.741   3.345   7.258 -0.3379 -1.5635  0.9232
 1625SOL     OW16333   3.912   1.892  12.745  0.0924  0.1726  0.1972
 1625SOL    HW116334   3.987   1.950  12.730 -1.1711  1.1949 -2.0736
 1625SOL    HW216335   3.871   1.876  12.660 -1.2227  0.6240  0.7577
 1626SOL     OW16336   1.747   3.605   4.534  0.2452 -0.2751  0.0274
 1626SOL    HW116337   1.711   3.564   4.455  0.0217  0.8808 -0.4813
 1626SOL    HW216338   1.705   3.560   4.607  1.2786 -0.4823  0.4943
 1627SOL     OW16339   2.864   0.759   4.311  0.4039  0.4676 -0.3412
 1627SOL    HW116340   2.819   0.682   4.345  0.4303  0.9317  0.7401
 1627SOL    HW216341   2.809   0.773   4.233 -2.4175 -0.9245  1.4112
 1628SOL     OW16342   1.750   1.896   3.962  0.0768  0.4778 -0.1391
 1628SOL    HW116343   1.805   1.928   4.033  1.3062 -0.1485 -0.8148
 1628SOL    HW216344   1.675   1.955   3.975  0.5174  1.1867 -0.8017
 1629SOL     OW16345   4.437   1.145  11.686  0.2105  0.3736 -0.2032
 1629SOL    HW116346   4.530   1.159  11.702  1.0269 -2.4263 -2.4159
 1629SOL    HW216347   4.426   1.216  11.624  2.4299 -0.3738 -1.4512
 1630SOL     OW16348   1.471   3.056   2.120  0.1082 -0.0565 -0.6576
 1630SOL    HW116349   1.555   3.086   2.156  0.5867  0.1697 -1.9524
 1630SOL    HW216350   1.413   3.130   2.136  3.2159  2.0033  1.0428
 1631SOL     OW16351   4.323   4.574   8.368  0.5016  0.1262  0.5547
 1631SOL    HW116352   4.397   4.609   8.418  0.8343  1.1711 -0.6734
 1631SOL    HW216353   4.241   4.612   8.398  0.5155  0.3802  0.2660
 1632SOL     OW16354   3.333   3.377   9.660 -0.1646 -0.3419 -0.0137
 1632SOL    HW116355   3.347   3.369   9.754  0.1295  0.1876 -0.0155
 1632SOL    HW216356   3.238   3.391   9.660  0.2934  2.5666  0.5471
 1633SOL     OW16357   0.534   2.031   0.568  0.1360 -0.3632  0.2644
 1633SOL    HW116358   0.558   2.034   0.660 -0.7147  3.2779  0.3606
 1633SOL    HW216359   0.440   2.033   0.584 -0.0826  1.0211 -1.1394
 1634SOL     OW16360   1.300   2.770   2.425 -0.1510 -0.6318  0.0401
 1634SOL    HW116361   1.387   2.734   2.442  0.2908  0.7611  0.6789
 1634SOL    HW216362   1.263   2.764   2.513  1.7690 -2.2728  0.7371
 1635SOL     OW16363   3.610   3.363   1.543  0.1532  0.1714  0.6901
 1635SOL    HW116364   3.627   3.341   1.634  2.1088 -1.3592 -0.0523
 1635SOL    HW216365   3.551   3.438   1.552  0.0575  0.2793 -0.8568
 1636SOL     OW16366   3.573   3.562  16.219 -0.1509 -0.1973  0.0961
 1636SOL    HW116367   3.540   3.480  16.183 -0.1398 -1.1027  2.1440
 1636SOL    HW216368   3.664   3.542  16.242 -1.1392 -1.6506  2.7480
 1637SOL     OW16369   2.447   3.712   6.940 -0.1119  0.6156 -0.3258
 1637SOL    HW116370   2.404   3.764   6.873 -2.0406 -0.6201 -0.0370
 1637SOL    HW216371   2.411   3.625   6.922 -2.0817  1.1782  0.8693
 1638SOL     OW16372   1.777   2.788   4.427 -0.1543 -0.0991  0.6949
 1638SOL    HW116373   1.859   2.763   4.469 -0.4919  0.6497  1.7730
 1638SOL    HW216374   1.810   2.842   4.355 -0.4302 -0.7381  0.0903
 1639SOL     OW16375   1.735   0.937   7.593  0.5752  0.6089 -0.3243
 1639SOL    HW116376   1.713   1.028   7.611 -1.6083  0.6067 -3.0904
 1639SOL    HW216377   1.696   0.894   7.669  2.5072  0.4827  0.5914
 1640SOL     OW16378   4.023   3.556   5.144  0.1309  0.5820  0.2786
 1640SOL    HW116379   3.933   3.587   5.148 -0.0439 -0.0040  1.0083
 1640SOL    HW216380   4.054   3.644   5.166 -2.9662  2.2287 -2.0117
 1641SOL     OW16381   3.764   1.572  10.049 -0.7505  0.6146  0.2448
 1641SOL    HW116382   3.683   1.526  10.072 -0.2151  0.7267  2.3545
 1641SOL    HW216383   3.816   1.513   9.995  0.2859  0.4074  1.4444
 1642SOL     OW16384   0.691   0.181   3.842 -0.1027 -0.4092  0.3859
 1642SOL    HW116385   0.671   0.238   3.916 -0.4044  0.5915 -0.4567
 1642SOL    HW216386   0.622   0.207   3.781 -0.2144  1.2786  1.2183
 1643SOL     OW16387   4.503   3.623  15.183 -0.3308 -0.0340 -0.3245
 1643SOL    HW116388   4.472   3.694  15.126 -1.7177 -2.9015 -3.1812
 1643SOL    HW216389   4.567   3.669  15.237 -1.9468  2.3301 -0.4345
 1644SOL     OW16390   2.494   2.542   2.630 -0.0642  0.4308  0.0508
 1644SOL    HW116391   2.533   2.457   2.611 -1.1688 -0.0161 -0.1916
 1644SOL    HW216392   2.540   2.597   2.566 -2.4237  1.1524 -1.0119
 1645SOL     OW16393   3.412   0.022   2.609  0.7346  0.1646  0.7415
 1645SOL    HW116394   3.378   0.039   2.697 -0.3516 -0.3362  0.4124
 1645SOL    HW216395   3.333   0.004   2.559 -0.4490  0.0877  2.6229
 1646SOL     OW16396   1.824   3.737   2.718 -0.0645  0.0915  0.1973
 1646SOL    HW116397   1.878   3.714   2.643 -0.5580  0.4022 -0.2497
 1646SOL    HW216398   1.896   3.770   2.773 -0.4306 -0.1742  0.8393
 1647SOL     OW16399   0.060   2.905  17.045  0.3683 -0.2471  0.1321
 1647SOL    HW116400   4.693   2.882  17.059  0.1821  0.3592 -0.1056
 1647SOL    HW216401   0.085   2.817  17.016  1.3211  0.2351 -0.5205
 1648SOL     OW16402   1.416   1.857   3.168  0.9135 -0.8669 -0.2513
 1648SOL    HW116403   1.325   1.847   3.196  0.0459  1.8906 -2.1425
 1648SOL    HW216404   1.402   1.919   3.096 -1.3095  2.0366  2.6720
 1649SOL     OW16405   2.939   3.333   3.957 -0.0713 -0.3854 -0.2210
 1649SOL    HW116406   2.961   3.426   3.959 -1.3890 -0.0690  0.1648
 1649SOL    HW216407   2.859   3.322   4.009  1.3489 -2.2512  1.5633
 1650SOL     OW16408   1.896   1.215   9.027 -0.2384  0.3530  0.9197
 1650SOL    HW116409   1.955   1.261   8.968  1.4036 -0.5657  1.8374
 1650SOL    HW216410   1.954   1.145   9.058  0.6180  0.5544 -0.2534
 1651SOL     OW16411   0.687   3.935   7.747  0.4294 -0.0475  0.6503
 1651SOL    HW116412   0.750   3.904   7.682  2.7013  0.5648  2.5796
 1651SOL    HW216413   0.747   3.984   7.804  1.1312  0.0267 -0.1571
 1652SOL     OW16414   2.985   0.046   8.333 -0.2267  0.3314  0.2439
 1652SOL    HW116415   2.907   4.715   8.336 -1.3958  1.9972  0.6867
 1652SOL    HW216416   3.006   0.043   8.427 -0.8269 -2.0924  0.3034
 1653SOL     OW16417   0.293   2.542  15.621 -0.1199  0.2128 -0.0186
 1653SOL    HW116418   0.277   2.622  15.672  1.1765  0.7885 -0.5164
 1653SOL    HW216419   0.275   2.569  15.531 -0.2663  0.5164  0.1002
 1654SOL     OW16420   2.266   1.475   7.513 -0.1194 -0.6180 -0.0945
 1654SOL    HW116421   2.267   1.381   7.493  0.0337 -0.3268 -1.4498
 1654SOL    HW216422   2.202   1.510   7.452  0.4255 -0.0358 -0.3336
 1655SOL     OW16423   4.468   1.383   3.844 -0.3661  0.2658  0.4364
 1655SOL    HW116424   4.486   1.454   3.905 -1.8998  1.5705 -0.6388
 1655SOL    HW216425   4.499   1.417   3.761  1.8839 -0.5560  0.9345
 1656SOL     OW16426   1.739   4.690  15.182  0.2574  0.3449  0.4718
 1656SOL    HW116427   1.731   4.718  15.091 -2.8174 -2.2051 -0.0562
 1656SOL    HW216428   1.657   0.000  15.216 -0.1649  0.6744 -0.9176
 1657SOL     OW16429   2.313   2.967  16.219  0.1977  0.0093  0.1378
 1657SOL    HW116430   2.305   2.873  16.201  0.6860  0.2342 -1.2852
 1657SOL    HW216431   2.386   2.968  16.281  0.3795  1.0852 -0.0920
 1658SOL     OW16432   1.566   4.187  12.969  0.2846 -0.7046  0.1732
 1658SOL    HW116433   1.660   4.200  12.954  0.3859 -1.9065 -0.2505
 1658SOL    HW216434   1.565   4.094  12.946  1.0532 -0.9406  1.1096
 1659SOL     OW16435   2.265   1.423   6.529  0.0850  0.2187  0.0055
 1659SOL    HW116436   2.172   1.399   6.531  0.1398  0.0450  0.4188
 1659SOL    HW216437   2.292   1.350   6.586  1.7883  1.4997  0.8381
 1660SOL     OW16438   3.582   2.146   1.176 -0.0464 -0.6406 -0.1055
 1660SOL    HW116439   3.584   2.206   1.101 -2.7330 -0.7531 -0.2628
 1660SOL    HW216440   3.592   2.065   1.126  3.3577  0.0996 -0.5950
 1661SOL     OW16441   0.296   1.985   7.324 -0.5071  0.4968  0.7433
 1661SOL    HW116442   0.246   2.049   7.272  0.0182 -0.3615 -0.8144
 1661SOL    HW216443   0.240   1.908   7.318  0.2867 -0.1201  1.3260
 1662SOL     OW16444   2.831   3.773   8.312 -0.6217 -0.4704  0.4466
 1662SOL    HW116445   2.881   3.722   8.376  1.0123 -0.3467 -0.7518
 1662SOL    HW216446   2.883   3.780   8.232 -0.7841 -0.6788  0.3232
 1663SOL     OW16447   0.081   1.827   5.332 -0.0934 -0.7303  0.0901
 1663SOL    HW116448   0.074   1.753   5.393  1.0271  0.5112  1.7201
 1663SOL    HW216449   0.054   1.784   5.251 -3.1279 -0.3295  0.8836
 1664SOL     OW16450   4.253   1.621   2.361 -0.6813 -0.8371 -0.0162
 1664SOL    HW116451   4.182   1.626   2.425  0.6287  1.6813  1.2254
 1664SOL    HW216452   4.213   1.666   2.287  2.4032  0.8011 -0.6917
 1665SOL     OW16453   4.261   0.994  14.393 -0.5644  0.2803 -0.6026
 1665SOL    HW116454   4.235   0.919  14.446 -0.0450 -0.1942 -1.0211
 1665SOL    HW216455   4.220   1.070  14.434 -0.2810  0.4855 -0.6915
 1666SOL     OW16456   0.680   1.201  15.147 -0.1572  0.5689  0.4300
 1666SOL    HW116457   0.633   1.118  15.134 -0.6435  0.9356 -0.1857
 1666SOL    HW216458   0.697   1.219  15.054 -0.3109 -1.3765  0.0316
 1667SOL     OW16459   1.621   0.457   3.775 -0.2527  0.9465  0.1149
 1667SOL    HW116460   1.695   0.428   3.721 -1.0288  0.8231 -0.8784
 1667SOL    HW216461   1.637   0.546   3.806 -0.3296  0.5892  1.2032
 1668SOL     OW16462   3.981   4.269   2.942  0.3169 -0.3432 -0.6372
 1668SOL    HW116463   3.978   4.180   2.976  0.8270  0.3775  1.3174
 1668SOL    HW216464   3.963   4.251   2.850 -1.2436 -1.5470 -0.0955
 1669SOL     OW16465   2.939   3.967   2.354 -0.1679 -0.6798 -0.7527
 1669SOL    HW116466   2.934   4.041   2.293  0.4641 -1.5620 -1.8978
 1669SOL    HW216467   3.030   3.939   2.344  0.3201 -1.0848  4.7291
 1670SOL     OW16468   1.960   3.986  14.985 -0.4077  0.2181 -0.8178
 1670SOL    HW116469   2.051   4.017  14.985 -0.1841 -0.4451 -1.8643
 1670SOL    HW216470   1.899   4.055  14.958  0.6983  1.9533  1.1409
 1671SOL     OW16471   3.304   3.523   2.138 -0.3471 -0.3068 -0.0412
 1671SOL    HW116472   3.249   3.540   2.214 -0.6894  0.8664 -0.5566
 1671SOL    HW216473   3.260   3.566   2.065 -1.0232 -2.3808 -0.8610
 1672SOL     OW16474   2.961   1.877   4.228 -0.1540 -0.2579  0.5635
 1672SOL    HW116475   2.969   1.972   4.225  1.6497 -0.3918  1.1008
 1672SOL    HW216476   3.001   1.858   4.144 -1.0789  3.1416 -0.6601
 1673SOL     OW16477   0.994   2.502   7.511 -0.6847  0.0917  0.1106
 1673SOL    HW116478   1.046   2.429   7.546  1.1737  0.8173 -1.1180
 1673SOL    HW216479   1.049   2.578   7.531 -0.7560 -0.6287  3.0273
 1674SOL     OW16480   1.600   2.593   2.959 -0.1515  0.4544 -0.0894
 1674SOL    HW116481   1.679   2.602   2.905 -0.2621  1.4640 -0.0832
 1674SOL    HW216482   1.600   2.497   2.964  1.4417  0.3783 -1.5118
 1675SOL     OW16483   0.470   0.308   6.186 -0.5266  0.6692 -0.3900
 1675SOL    HW116484   0.553   0.284   6.227 -1.2367  1.7564  1.6609
 1675SOL    HW216485   0.439   0.223   6.155 -0.3621  0.0245  1.1892
 1676SOL     OW16486   2.735   1.884   3.614  0.3485  0.0248  0.3523
 1676SOL    HW116487   2.683   1.927   3.682  3.0141  1.5260  1.4209
 1676SOL    HW216488   2.704   1.794   3.623  1.7302 -0.4297  0.4992
 1677SOL     OW16489   2.002   4.418  10.447  0.3853 -0.0003 -0.1567
 1677SOL    HW116490   1.996   4.323  10.435 -0.9934  0.3264 -2.0107
 1677SOL    HW216491   2.088   4.428  10.488  0.1586 -1.0359  0.6009
 1678SOL     OW16492   0.243   2.020   5.399 -0.0693  0.1625 -0.2301
 1678SOL    HW116493   0.325   1.976   5.375 -0.1106 -0.5757  0.9900
 1678SOL    HW216494   0.180   1.948   5.393  0.0378  0.1669 -1.6001
 1679SOL     OW16495   3.480   2.347   5.332  0.3949  0.0043  0.4084
 1679SOL    HW116496   3.490   2.440   5.352  1.1490  0.2428 -1.0674
 1679SOL    HW216497   3.421   2.351   5.257 -1.3765 -1.8033  1.6838
 1680SOL     OW16498   0.516   0.312   3.675 -0.4378  0.1820  0.4551
 1680SOL    HW116499   0.425   0.305   3.707 -0.4954 -2.7479 -0.3467
 1680SOL    HW216500   0.519   0.231   3.624 -0.4643  1.0106 -0.8404
 1681SOL     OW16501   2.509   3.477   7.977  0.3389  0.0810 -0.0863
 1681SOL    HW116502   2.419   3.444   7.970  0.5128 -0.6060  0.9610
 1681SOL    HW216503   2.522   3.434   8.062  0.9704 -0.1414 -0.3010
 1682SOL     OW16504   1.752   0.283   4.533 -0.2436 -0.5167  0.3192
 1682SOL    HW116505   1.800   0.278   4.451 -1.5532  0.0501 -0.4840
 1682SOL    HW216506   1.691   0.357   4.529  0.1785 -0.1793  0.1706
 1683SOL     OW16507   3.947   3.387  10.606  0.8960 -0.3466 -0.6562
 1683SOL    HW116508   3.972   3.409  10.516  2.3496 -1.4496 -0.5192
 1683SOL    HW216509   4.026   3.343  10.639  0.0900 -0.4314  1.1542
 1684SOL     OW16510   2.940   4.446   1.466 -0.3248 -0.0259 -0.3896
 1684SOL    HW116511   2.939   4.428   1.372  1.4536  0.2138 -0.4578
 1684SOL    HW216512   2.993   4.376   1.506 -1.2250 -0.2376  0.4294
 1685SOL     OW16513   4.114   3.406   2.470 -0.0890 -0.1194 -0.5399
 1685SOL    HW116514   4.081   3.319   2.495 -0.0322  0.1930  0.6194
 1685SOL    HW216515   4.053   3.449   2.410 -1.3441  1.1038  1.6349
 1686SOL     OW16516   0.980   2.151   3.495  0.1106 -0.5646  0.5004
 1686SOL    HW116517   0.954   2.237   3.529 -2.3602 -1.7597  1.6148
 1686SOL    HW216518   0.991   2.096   3.573 -0.9252  1.4199  2.0654
 1687SOL     OW16519   2.779   1.167   4.572 -0.2897  0.5874  0.4547
 1687SOL    HW116520   2.868   1.131   4.569 -2.1302 -3.6868 -1.6138
 1687SOL    HW216521   2.791   1.261   4.558  0.3395  0.3539 -0.5844
 1688SOL     OW16522   3.459   3.382   4.726 -0.4277 -0.7758  0.3151
 1688SOL    HW116523   3.526   3.329   4.683  1.0767 -0.1051  1.8488
 1688SOL    HW216524   3.408   3.417   4.653 -2.2036 -4.1233 -0.0926
 1689SOL     OW16525   1.334   2.918   4.048  0.2601 -0.3113  0.1709
 1689SOL    HW116526   1.359   3.008   4.071  2.6727 -0.6311 -1.2884
 1689SOL    HW216527   1.363   2.921   3.957  0.8837 -0.4217  0.3638
 1690SOL     OW16528   2.688   1.681   3.246  0.1478 -0.5784 -0.3974
 1690SOL    HW116529   2.598   1.659   3.269  0.8055 -0.9513  1.8905
 1690SOL    HW216530   2.722   1.592   3.238 -0.1713 -0.8053  0.7594
 1691SOL     OW16531   2.142   3.058   2.698  1.1157 -0.0945 -0.0919
 1691SOL    HW116532   2.188   3.141   2.708 -0.7735  0.9035  0.3422
 1691SOL    HW216533   2.203   3.013   2.640  3.1400  0.7667  1.4166
 1692SOL     OW16534   1.775   1.454   3.751  0.1280 -0.5991  0.4345
 1692SOL    HW116535   1.768   1.525   3.814  1.5470  1.7180 -2.0266
 1692SOL    HW216536   1.868   1.437   3.761  0.6300  1.5466 -0.4869
 1693SOL     OW16537   0.607   3.545   7.680  0.5000 -0.4066 -0.0276
 1693SOL    HW116538   0.650   3.585   7.604  0.8235  0.4202  0.5937
 1693SOL    HW216539   0.517   3.538   7.648  0.3324  0.8008  0.1753
 1694SOL     OW16540   0.714   2.454   2.746 -0.7609 -0.8617  0.1575
 1694SOL    HW116541   0.672   2.535   2.717  0.7295 -0.3128 -0.4450
 1694SOL    HW216542   0.799   2.488   2.774 -1.2402  1.0048 -0.6486
 1695SOL     OW16543   3.989   0.411   8.562  0.1861 -0.3637  0.1568
 1695SOL    HW116544   3.975   0.317   8.572 -1.9615  0.1581  2.1479
 1695SOL    HW216545   4.069   0.406   8.613  2.0921  1.3571 -2.6713
 1696SOL     OW16546   2.738   3.706   9.890  0.2301  0.5628  0.3748
 1696SOL    HW116547   2.786   3.776   9.845 -1.5171  1.6897  0.2730
 1696SOL    HW216548   2.805   3.638   9.883 -0.2862 -0.0239  1.1814
 1697SOL     OW16549   2.315   2.994  16.635  0.4824 -0.4585  0.0208
 1697SOL    HW116550   2.224   2.966  16.622  0.4920 -0.4701 -0.0210
 1697SOL    HW216551   2.347   2.924  16.691 -1.0287 -0.8415  0.4175
 1698SOL     OW16552   2.883   2.675   5.971  0.2059  0.0158  0.5238
 1698SOL    HW116553   2.920   2.611   6.032 -0.0480  0.2503  0.9316
 1698SOL    HW216554   2.814   2.625   5.927  1.4127 -1.3838  0.2283
 1699SOL     OW16555   2.343   3.012   8.883  0.5031 -0.5893 -0.3028
 1699SOL    HW116556   2.422   3.063   8.863  0.6787 -0.0327  1.8742
 1699SOL    HW216557   2.335   2.958   8.804 -1.3024  0.2056 -0.6762
 1700SOL     OW16558   3.622   3.685   7.374  0.8264 -0.2792 -0.9179
 1700SOL    HW116559   3.703   3.677   7.323  2.0298 -1.3703  1.1580
 1700SOL    HW216560   3.655   3.701   7.463 -1.7004 -0.4283  0.0393
 1701SOL     OW16561   0.103   2.933   7.284  0.0629 -0.0220  0.5519
 1701SOL    HW116562   0.051   2.903   7.209 -1.9540 -0.9193  2.2999
 1701SOL    HW216563   0.167   2.863   7.299  1.1667  1.1139  1.1135
 1702SOL     OW16564   1.739   1.811   8.463  0.2649 -0.0613  0.3927
 1702SOL    HW116565   1.790   1.835   8.540  1.5358 -0.4764 -0.3130
 1702SOL    HW216566   1.720   1.897   8.424 -0.2344 -0.4385 -0.1892
 1703SOL     OW16567   2.798   0.999   2.462  0.0235 -0.3349 -0.6446
 1703SOL    HW116568   2.727   0.945   2.496  0.6330 -1.5506 -1.3015
 1703SOL    HW216569   2.814   1.055   2.538  0.6413 -1.2929 -0.0618
 1704SOL     OW16570   2.292   3.301   9.160  0.6645 -0.2435  0.3397
 1704SOL    HW116571   2.301   3.337   9.248  1.3995  0.9843 -0.2308
 1704SOL    HW216572   2.314   3.381   9.113 -0.9384  0.3385  0.5919
 1705SOL     OW16573   0.999   1.693   0.209 -0.5400  0.1030 -0.1174
 1705SOL    HW116574   1.044   1.774   0.186 -1.6684 -0.4125 -4.1350
 1705SOL    HW216575   0.912   1.726   0.229 -0.4220 -0.0196  0.5814
 1706SOL     OW16576   0.694   1.061   9.034 -0.2500  0.8201 -0.1402
 1706SOL    HW116577   0.744   1.070   8.954  0.5023  0.4160  0.2882
 1706SOL    HW216578   0.735   1.133   9.082  1.9522  0.7790 -1.9842
 1707SOL     OW16579   2.853   0.138   7.511 -0.2277  0.9622 -0.2545
 1707SOL    HW116580   2.895   0.056   7.536 -0.4184  0.3650 -1.8821
 1707SOL    HW216581   2.811   0.108   7.430  2.0953  0.8819 -1.4217
 1708SOL     OW16582   0.569   2.756   3.450  0.0574  0.3282 -0.2370
 1708SOL    HW116583   0.647   2.808   3.431 -0.6549  1.8524  1.0324
 1708SOL    HW216584   0.505   2.820   3.480  0.5749  0.7272  0.0252
 1709SOL     OW16585   4.241   4.547  16.921 -0.6982 -0.4611 -0.9530
 1709SOL    HW116586   4.168   4.485  16.919 -0.6728 -0.4982 -0.7118
 1709SOL    HW216587   4.186   4.624  16.938  2.5630  1.3134  1.6814
 1710SOL     OW16588   1.490   0.813   3.728  0.5262  0.8102 -0.1706
 1710SOL    HW116589   1.568   0.771   3.764  0.5326  0.2586 -0.8169
 1710SOL    HW216590   1.482   0.774   3.641 -0.4147 -0.3155  0.4200
 1711SOL     OW16591   0.496   3.068   3.219  0.3416  0.2521 -0.5878
 1711SOL    HW116592   0.433   3.105   3.281  0.5850 -1.5689  0.7715
 1711SOL    HW216593   0.552   3.143   3.199 -0.7685  0.9472 -1.0698
 1712SOL     OW16594   3.821   1.665  11.333  0.7287 -0.7963 -0.3706
 1712SOL    HW116595   3.751   1.719  11.372 -0.3176  0.2572 -3.6167
 1712SOL    HW216596   3.865   1.736  11.286 -0.1280  1.0956  1.6700
 1713SOL     OW16597   3.502   2.886  10.726 -0.1202  0.5961  0.4291
 1713SOL    HW116598   3.496   2.822  10.655 -2.1298  1.3701 -0.1045
 1713SOL    HW216599   3.452   2.841  10.793 -0.6404  1.7131  0.7869
 1714SOL     OW16600   3.641   4.683   4.210  0.8184  0.3640 -0.7387
 1714SOL    HW116601   3.677   4.636   4.134 -2.4309  1.0180 -2.6762
 1714SOL    HW216602   3.563   4.719   4.169  1.9065  1.6514 -1.6750
 1715SOL     OW16603   2.697   2.727   4.316  0.4109 -0.6081  0.3768
 1715SOL    HW116604   2.674   2.725   4.222 -0.9709  1.4323  0.6657
 1715SOL    HW216605   2.625   2.677   4.355 -0.3891  0.7853  0.6943
 1716SOL     OW16606   0.634   1.250   4.516 -0.3562 -0.1853  0.0555
 1716SOL    HW116607   0.695   1.178   4.501  0.6891  0.9214 -1.1013
 1716SOL    HW216608   0.691   1.324   4.493  1.1764 -1.6157 -0.7299
 1717SOL     OW16609   0.160   3.890   2.497  0.1350  0.0374  0.0698
 1717SOL    HW116610   0.230   3.825   2.497  1.0000  0.9796  0.7512
 1717SOL    HW216611   0.208   3.970   2.518 -1.2635  1.1456 -0.9361
 1718SOL     OW16612   2.609   2.333   5.669 -0.5025  0.5190 -0.0818
 1718SOL    HW116613   2.660   2.253   5.657  0.7366  1.1598  0.8350
 1718SOL    HW216614   2.522   2.297   5.688  0.2166 -0.3493  1.5935
 1719SOL     OW16615   3.736   3.985  16.671 -1.0175 -0.8016 -0.7611
 1719SOL    HW116616   3.738   3.892  16.690 -1.2585 -0.9625 -1.5371
 1719SOL    HW216617   3.739   3.983  16.576 -2.7648 -0.4146 -0.8345
 1720SOL     OW16618   2.685   1.566   0.206  0.2122 -0.6422  0.0404
 1720SOL    HW116619   2.658   1.646   0.163  1.6778  0.1808  0.6540
 1720SOL    HW216620   2.770   1.580   0.247  0.6338 -1.5226 -0.5267
 1721SOL     OW16621   4.229   3.360   2.859 -0.3975 -0.1916  0.2490
 1721SOL    HW116622   4.143   3.337   2.823 -0.9583  0.7885  0.9773
 1721SOL    HW216623   4.213   3.367   2.953 -0.1569  1.9276  0.1420
 1722SOL     OW16624   3.598   4.664   7.469 -0.4155 -0.1800  0.0931
 1722SOL    HW116625   3.597   4.657   7.374  1.6597 -2.4381  0.2610
 1722SOL    HW216626   3.609   0.034   7.478  2.0292 -0.3818 -0.9572
 1723SOL     OW16627   1.961   2.395  11.616 -0.1927 -0.2898 -0.2903
 1723SOL    HW116628   2.032   2.448  11.581  0.0173 -1.6322 -1.9298
 1723SOL    HW216629   1.909   2.416  11.538 -0.1464  0.2671 -0.1706
 1724SOL     OW16630   3.554   4.107  14.245 -0.3684 -0.5585  0.8441
 1724SOL    HW116631   3.634   4.062  14.217 -0.3120  0.3628 -0.4447
 1724SOL    HW216632   3.485   4.041  14.237 -1.0339  0.2035  0.3805
 1725SOL     OW16633   1.677   0.395   4.075 -0.6142 -0.5171 -0.2631
 1725SOL    HW116634   1.748   0.458   4.076 -2.0635  1.0490  2.9003
 1725SOL    HW216635   1.626   0.433   4.004 -1.3289 -1.1559 -0.1026
 1726SOL     OW16636   3.214   3.578   8.686 -0.3090 -0.3081  0.1511
 1726SOL    HW116637   3.169   3.503   8.649  2.0576 -1.1902 -0.9368
 1726SOL    HW216638   3.302   3.542   8.696  0.4895  1.1456 -1.5714
 1727SOL     OW16639   1.478   2.965   5.582 -0.5090 -0.3704  0.1131
 1727SOL    HW116640   1.446   3.041   5.631 -0.4185  1.1313 -2.1333
 1727SOL    HW216641   1.400   2.953   5.527  0.4100 -0.5128 -1.1505
 1728SOL     OW16642   3.118   1.452   7.446 -0.1365  0.0409 -0.2140
 1728SOL    HW116643   3.089   1.406   7.367 -1.2121  1.1228 -0.4366
 1728SOL    HW216644   3.213   1.439   7.435 -0.1609  1.0486 -1.6819
 1729SOL     OW16645   2.809   4.354   5.332  0.6432  0.9577  0.1178
 1729SOL    HW116646   2.767   4.318   5.409  1.1806 -0.9497 -0.4767
 1729SOL    HW216647   2.896   4.322   5.355  1.0264  1.9160  0.0163
 1730SOL     OW16648   1.659   1.858   5.796 -0.5710  0.4178  0.0450
 1730SOL    HW116649   1.695   1.808   5.723 -0.7854 -0.7296  0.7279
 1730SOL    HW216650   1.635   1.776   5.838  0.5805 -0.5239 -1.1199
 1731SOL     OW16651   1.925   0.313   5.172  0.3365  0.2538  0.4755
 1731SOL    HW116652   1.978   0.265   5.109  0.6942 -0.1639  1.0916
 1731SOL    HW216653   1.905   0.378   5.105 -0.3539  0.1853  0.6090
 1732SOL     OW16654   3.398   2.821  10.994  0.2709 -0.0121  0.5174
 1732SOL    HW116655   3.374   2.900  10.946  0.3443  0.5632  1.4133
 1732SOL    HW216656   3.353   2.828  11.078  0.5057  0.5955  0.5921
 1733SOL     OW16657   3.668   0.921   2.967 -0.0312  0.1014  0.7343
 1733SOL    HW116658   3.617   0.988   2.922 -0.4420 -1.6077 -1.3637
 1733SOL    HW216659   3.684   0.861   2.894 -2.4908  2.4975 -1.7708
 1734SOL     OW16660   2.614   3.429   4.657 -0.3918  0.8362 -0.1708
 1734SOL    HW116661   2.553   3.358   4.641  0.3311  0.0437  0.5704
 1734SOL    HW216662   2.683   3.380   4.703 -2.2746 -2.6821 -1.1003
 1735SOL     OW16663   3.349   2.931   5.113 -0.2969 -0.1150  0.2064
 1735SOL    HW116664   3.292   3.006   5.099  0.7122  0.5273 -0.4199
 1735SOL    HW216665   3.330   2.906   5.204  0.9404  0.0229  0.5021
 1736SOL     OW16666   1.054   0.178   9.735  0.0502  0.1299  0.2538
 1736SOL    HW116667   1.140   0.219   9.733 -0.0758  0.4079  0.5181
 1736SOL    HW216668   1.070   0.083   9.733  1.1818  0.3705 -2.1119
 1737SOL     OW16669   4.323   2.126   6.722  0.2483  0.2981  0.4609
 1737SOL    HW116670   4.354   2.037   6.739  2.1854  1.0405  0.8979
 1737SOL    HW216671   4.413   2.155   6.705  1.0208 -1.8136  0.9313
 1738SOL     OW16672   0.733   4.304   2.613  0.1411 -0.5009  0.0707
 1738SOL    HW116673   0.824   4.274   2.621  0.6756  0.4506 -2.2946
 1738SOL    HW216674   0.745   4.393   2.579 -1.0528 -0.3176  0.1445
 1739SOL     OW16675   2.888   3.415  10.932 -0.5792  0.2235  0.4561
 1739SOL    HW116676   2.963   3.475  10.928 -2.2887  2.1650 -2.1986
 1739SOL    HW216677   2.846   3.437  10.850  0.4037 -2.7058 -0.8613
 1740SOL     OW16678   3.631   0.413   3.986  0.3975 -0.1179 -0.1220
 1740SOL    HW116679   3.648   0.361   3.908  1.6702  0.3227 -0.1475
 1740SOL    HW216680   3.546   0.380   4.014 -0.5919  2.6805  0.1587
 1741SOL     OW16681   0.120   3.751   1.175  0.5380 -0.7132 -0.6649
 1741SOL    HW116682   0.090   3.730   1.087 -1.1335  0.7024 -0.4301
 1741SOL    HW216683   0.041   3.743   1.229  0.0737 -0.1208 -1.2606
 1742SOL     OW16684   1.994   3.405  15.214 -0.5061 -0.6894 -0.2377
 1742SOL    HW116685   2.061   3.412  15.282  0.7758  0.0205 -1.5465
 1742SOL    HW216686   1.974   3.312  15.211 -2.0663 -0.4044  1.6218
 1743SOL     OW16687   2.638   2.665  17.582  0.0864 -0.2879 -0.4376
 1743SOL    HW116688   2.590   2.604  17.638 -0.5962  1.5104  0.9465
 1743SOL    HW216689   2.726   2.631  17.596 -0.2931 -0.9937  0.2069
 1744SOL     OW16690   0.228   2.635   2.711  0.0109  0.2946  0.4052
 1744SOL    HW116691   0.311   2.659   2.669 -1.1013  1.6770 -0.9831
 1744SOL    HW216692   0.260   2.600   2.794  0.2781 -0.5726 -0.0642
 1745SOL     OW16693   1.124   0.972   6.866  0.1253  0.8135  0.6420
 1745SOL    HW116694   1.127   0.976   6.771  2.4206  1.8697  0.7531
 1745SOL    HW216695   1.043   1.011   6.897 -1.1423 -0.2679 -1.3179
 1746SOL     OW16696   2.394   2.829   3.992 -0.1793  0.4529 -0.2435
 1746SOL    HW116697   2.319   2.888   4.000 -2.3435 -2.0745 -1.9557
 1746SOL    HW216698   2.356   2.747   3.960 -1.1343  1.7190 -2.3331
 1747SOL     OW16699   1.304   2.801  11.317  0.5901 -0.3053  0.2612
 1747SOL    HW116700   1.232   2.790  11.379 -1.6438  1.8798 -1.9390
 1747SOL    HW216701   1.354   2.720  11.325 -1.2953 -1.5263 -0.3724
 1748SOL     OW16702   3.183   2.028   8.815  0.5420  0.2757 -0.3165
 1748SOL    HW116703   3.205   2.073   8.733  0.2918  1.6372  0.3713
 1748SOL    HW216704   3.178   2.091   8.886  1.3836 -0.9430  0.8275
 1749SOL     OW16705   1.068   0.279   4.809  0.1965  0.4551  0.0341
 1749SOL    HW116706   1.078   0.189   4.841  1.1465  0.3172 -0.6416
 1749SOL    HW216707   1.106   0.324   4.885 -1.3482  0.3306  0.8707
 1750SOL     OW16708   0.159   0.906   6.523 -0.2914  0.0463  0.4239
 1750SOL    HW116709   0.089   0.936   6.581  1.6652 -0.1166  2.8644
 1750SOL    HW216710   0.209   0.846   6.579  0.6000  0.1192 -0.2973
 1751SOL     OW16711   1.677   0.219  11.584  0.2716 -0.6240  0.6745
 1751SOL    HW116712   1.734   0.145  11.606 -0.0125 -0.5570  1.6372
 1751SOL    HW216713   1.611   0.183  11.524 -0.9332 -0.9617  2.1928
 1752SOL     OW16714   2.846   3.958   3.563 -0.0097  0.5613  0.1634
 1752SOL    HW116715   2.773   3.967   3.502 -2.4316  0.9247  3.1182
 1752SOL    HW216716   2.903   4.023   3.520 -1.4463  1.5744 -0.2155
 1753SOL     OW16717   1.962   1.164   6.730  0.1547  0.5630  0.2894
 1753SOL    HW116718   2.019   1.182   6.804 -0.3729  0.6464  0.6775
 1753SOL    HW216719   1.891   1.227   6.742  0.6178  1.2435 -0.4889
 1754SOL     OW16720   0.704   0.179  15.592 -0.1599  0.4202  0.6195
 1754SOL    HW116721   0.739   0.269  15.593  1.5149 -0.2214 -0.0880
 1754SOL    HW216722   0.704   0.163  15.497  1.8292 -1.5940  0.9680
 1755SOL     OW16723   2.773   0.045  16.549 -0.0691  0.2731 -0.3806
 1755SOL    HW116724   2.683   0.040  16.581  0.0447 -0.1910 -0.1314
 1755SOL    HW216725   2.774   4.713  16.473 -1.9630  0.0457 -0.2252
 1756SOL     OW16726   1.984   3.195   8.749  0.6463 -0.0023 -0.2684
 1756SOL    HW116727   1.920   3.153   8.806 -1.3166  1.4841 -1.3717
 1756SOL    HW216728   2.028   3.239   8.821 -3.8249 -0.5222  2.7631
 1757SOL     OW16729   3.639   3.965   2.884 -0.9378  0.0379  0.1411
 1757SOL    HW116730   3.655   3.973   2.790 -0.7090 -2.2054 -0.0180
 1757SOL    HW216731   3.567   4.027   2.897 -0.8682  0.2077 -0.2948
 1758SOL     OW16732   2.868   1.558  11.836 -0.2991 -0.4395 -0.5019
 1758SOL    HW116733   2.962   1.570  11.826 -0.1956  0.8376  2.0399
 1758SOL    HW216734   2.875   1.475  11.883  0.5403 -0.4285 -0.6083
 1759SOL     OW16735   2.041   0.431   7.742 -0.0173  0.1022 -0.4767
 1759SOL    HW116736   1.950   0.453   7.765  0.3476  1.3802 -0.2771
 1759SOL    HW216737   2.053   0.362   7.807 -0.7492  2.4250  2.1414
 1760SOL     OW16738   1.430   3.225   7.680  0.0899 -0.5850 -0.7555
 1760SOL    HW116739   1.458   3.176   7.758  1.4980  2.1289  0.4677
 1760SOL    HW216740   1.403   3.150   7.627 -1.3002 -1.8157  1.7027
 1761SOL     OW16741   2.605   2.697   1.955 -0.1548  0.2011  0.2075
 1761SOL    HW116742   2.687   2.747   1.959  0.0584 -0.0923 -0.3605
 1761SOL    HW216743   2.629   2.628   1.893  1.6935  1.2562 -0.2517
 1762SOL     OW16744   4.655   2.384   8.878 -0.7110  0.3088  0.0845
 1762SOL    HW116745   4.676   2.392   8.972 -3.2449 -0.2394  0.6928
 1762SOL    HW216746   4.565   2.415   8.886 -0.7426  0.3930 -0.6410
 1763SOL     OW16747   2.185   3.165  16.420  0.2186 -0.0975  0.4476
 1763SOL    HW116748   2.202   3.106  16.347  2.6144 -0.1952  1.1003
 1763SOL    HW216749   2.202   3.120  16.503  0.4529  1.5830  1.3068
 1764SOL     OW16750   4.495   1.364  17.688  0.2565  0.1786  0.2216
 1764SOL    HW116751   4.586   1.345   0.008  0.9752  0.8067 -2.3258
 1764SOL    HW216752   4.457   1.374   0.074 -0.5644 -1.4555  0.0619
 1765SOL     OW16753   3.256   2.292   4.322  0.0369 -0.1227  0.4912
 1765SOL    HW116754   3.316   2.240   4.375 -0.3756  2.0147  3.0896
 1765SOL    HW216755   3.300   2.378   4.328  1.5090 -0.8156 -0.3293
 1766SOL     OW16756   0.396   3.221   4.599  0.1098  0.1163  0.7898
 1766SOL    HW116757   0.468   3.159   4.583  0.7077  0.8713  0.5814
 1766SOL    HW216758   0.434   3.285   4.539  0.4682  0.6850  1.6261
 1767SOL     OW16759   1.260   0.340   5.519 -0.8896  0.5237 -0.3589
 1767SOL    HW116760   1.211   0.364   5.598  1.1312  0.4235  0.8979
 1767SOL    HW216761   1.349   0.374   5.518 -0.7773  0.2550  1.4045
 1768SOL     OW16762   1.009   0.710  13.257 -0.1924 -0.6054 -0.4115
 1768SOL    HW116763   1.062   0.789  13.249  0.8239 -1.5654 -2.7621
 1768SOL    HW216764   0.949   0.709  13.182  0.8366 -3.5976 -1.1989
 1769SOL     OW16765   2.353   0.366   2.374 -0.2617  0.1249  0.3169
 1769SOL    HW116766   2.427   0.332   2.325  0.5335  0.5479  1.2254
 1769SOL    HW216767   2.287   0.357   2.306 -0.1943 -1.4326  0.4638
 1770SOL     OW16768   0.145   2.387  11.625 -0.5149  0.4150 -0.1190
 1770SOL    HW116769   0.201   2.310  11.631 -0.0835  0.5459 -2.3050
 1770SOL    HW216770   0.161   2.438  11.705  1.1682 -1.6046  0.8305
 1771SOL     OW16771   0.108   3.386  10.577 -0.3288  0.0804  0.7167
 1771SOL    HW116772   0.041   3.410  10.514  0.8033  1.5016  0.0587
 1771SOL    HW216773   0.066   3.400  10.662  3.0345  0.8678  2.2558
 1772SOL     OW16774   0.004   0.995   3.815 -0.1744  0.2673 -0.2912
 1772SOL    HW116775   0.018   0.920   3.758 -1.6943 -0.5482  0.3795
 1772SOL    HW216776   0.080   0.983   3.871 -0.3102  2.1659  0.2975
 1773SOL     OW16777   3.695   3.109   1.750 -0.1659  0.3466  0.5508
 1773SOL    HW116778   3.717   3.075   1.663  3.4274  1.2915  1.1013
 1773SOL    HW216779   3.688   3.028   1.800  0.7776 -0.4440 -0.5907
 1774SOL     OW16780   1.275   0.514  14.260  0.5979 -0.1822 -0.6389
 1774SOL    HW116781   1.193   0.493  14.304  1.0021 -0.5366 -0.0461
 1774SOL    HW216782   1.336   0.514  14.335 -1.2225 -3.1067  0.8128
 1775SOL     OW16783   4.649   0.165   6.678  0.3109 -0.1007  0.3513
 1775SOL    HW116784   4.718   0.151   6.743 -0.1291 -1.4152  0.5339
 1775SOL    HW216785   4.681   0.248   6.643  0.5692 -0.0566  0.6912
 1776SOL     OW16786   3.473   0.318   3.424 -0.3880 -0.1063  0.0311
 1776SOL    HW116787   3.415   0.336   3.350  0.6471 -2.1192 -1.2790
 1776SOL    HW216788   3.546   0.379   3.414 -0.4427 -0.3846 -2.0413
 1777SOL     OW16789   1.257   0.205   1.131 -0.0109 -0.0620  0.4325
 1777SOL    HW116790   1.275   0.291   1.092  1.0080 -0.9287 -1.0331
 1777SOL    HW216791   1.265   0.152   1.052  3.1118 -1.0237  1.4018
 1778SOL     OW16792   2.277   3.843   1.468  0.5461  0.1746 -0.4252
 1778SOL    HW116793   2.310   3.755   1.481  0.3545  0.2261  0.4153
 1778SOL    HW216794   2.343   3.867   1.403  0.2462 -0.2024 -0.8638
 1779SOL     OW16795   4.241   4.460   2.491 -0.5487 -0.1308  0.3733
 1779SOL    HW116796   4.318   4.516   2.497 -0.1073 -0.7628  0.6502
 1779SOL    HW216797   4.267   4.369   2.474 -1.4483 -0.6601  1.8653
 1780SOL     OW16798   1.765   3.791   0.748 -0.4203 -0.5912 -0.1080
 1780SOL    HW116799   1.736   3.878   0.721 -0.0652 -0.2390  0.6589
 1780SOL    HW216800   1.768   3.803   0.843 -0.4177 -1.7298  0.0347
 1781SOL     OW16801   0.318   1.611   2.885 -0.3190 -0.7785 -0.2574
 1781SOL    HW116802   0.402   1.615   2.931 -0.0409  1.1190 -0.8998
 1781SOL    HW216803   0.279   1.695   2.909  0.5051 -0.7298  0.8969
 1782SOL     OW16804   2.005   3.231   9.446  0.3561  0.1449 -0.3392
 1782SOL    HW116805   1.950   3.233   9.368  1.9599  0.6637 -1.4609
 1782SOL    HW216806   1.939   3.227   9.515  0.8211 -0.9094  0.0548
 1783SOL     OW16807   0.525   4.647  11.885  0.1812  0.6744 -0.0186
 1783SOL    HW116808   0.506   0.003  11.932  0.9703  0.0725  1.3621
 1783SOL    HW216809   0.441   4.615  11.853 -0.6101  1.6962  1.0290
 1784SOL     OW16810   0.507   0.828   3.109  0.0944 -0.7605 -0.3379
 1784SOL    HW116811   0.444   0.778   3.161 -1.4121 -0.9275 -2.3292
 1784SOL    HW216812   0.589   0.822   3.158  0.4632 -0.5251 -0.9239
 1785SOL     OW16813   4.015   3.818   4.334 -0.3206 -0.1071 -0.1438
 1785SOL    HW116814   3.989   3.897   4.381  1.1492 -0.7365  1.6772
 1785SOL    HW216815   4.022   3.746   4.397 -0.1599  0.1494  0.1281
 1786SOL     OW16816   3.023   2.499  15.260 -0.1818  0.1006 -0.0504
 1786SOL    HW116817   3.051   2.444  15.187  0.3832 -1.7150  1.5684
 1786SOL    HW216818   2.930   2.516  15.241 -0.6238 -1.3681  0.8750
 1787SOL     OW16819   1.010   1.988   6.757  0.1259 -0.1768  0.2259
 1787SOL    HW116820   1.019   2.012   6.665  0.7721 -0.5948  0.1773
 1787SOL    HW216821   0.999   1.893   6.750  0.3601 -0.2110  0.2975
 1788SOL     OW16822   0.939   0.337   9.513  0.1047 -0.1673 -0.1570
 1788SOL    HW116823   0.864   0.279   9.502  1.0168 -0.7906 -3.0470
 1788SOL    HW216824   0.995   0.283   9.568  1.3151  2.6474  1.3800
 1789SOL     OW16825   1.581   3.676   4.272 -0.4143  0.0317 -0.5500
 1789SOL    HW116826   1.574   3.770   4.287  0.8393  0.3550 -1.9829
 1789SOL    HW216827   1.547   3.671   4.182  1.5224 -1.0907 -1.2304
 1790SOL     OW16828   4.607   3.337   1.307  0.3229  0.1335 -0.3977
 1790SOL    HW116829   4.569   3.422   1.286  0.7476  0.4939  0.2664
 1790SOL    HW216830   4.556   3.275   1.256 -1.3342  0.8092  0.4382
 1791SOL     OW16831   2.635   3.862   4.115  0.1461  0.2521 -0.1822
 1791SOL    HW116832   2.564   3.848   4.178  0.9018 -0.4304  0.5224
 1791SOL    HW216833   2.710   3.840   4.171  0.0281  1.0792  0.3046
 1792SOL     OW16834   1.118   2.020   4.751 -0.4566 -0.0535  0.7174
 1792SOL    HW116835   1.193   1.961   4.742 -1.0384 -0.5288 -1.1063
 1792SOL    HW216836   1.051   1.957   4.775  0.4540 -0.5751  1.8778
 1793SOL     OW16837   3.067   3.246  11.177 -0.2698 -0.1784 -0.7466
 1793SOL    HW116838   3.144   3.294  11.146 -0.3224  1.0319  1.0473
 1793SOL    HW216839   3.083   3.165  11.127 -2.1210 -1.0463  0.0715
 1794SOL     OW16840   4.076   0.999   8.381  0.1426  0.2364  0.1908
 1794SOL    HW116841   3.997   1.020   8.331 -0.1724  0.7947  0.9131
 1794SOL    HW216842   4.128   1.079   8.371 -1.4857  1.2722 -0.0958
 1795SOL     OW16843   0.613   0.774  14.315 -0.3349  0.3567 -0.1110
 1795SOL    HW116844   0.654   0.827  14.383  0.4206  0.5175 -0.6867
 1795SOL    HW216845   0.521   0.781  14.342 -0.8691  2.0475 -2.3478
 1796SOL     OW16846   4.292   0.999   7.128  0.4936  0.0463 -0.4071
 1796SOL    HW116847   4.218   1.038   7.175  1.5122  0.3592  0.9230
 1796SOL    HW216848   4.324   0.947   7.202 -2.9788  0.2037  1.2076
 1797SOL     OW16849   1.368   1.138  16.337 -0.4238  0.3315  0.9119
 1797SOL    HW116850   1.366   1.192  16.258 -1.3456  1.4109  1.6835
 1797SOL    HW216851   1.281   1.099  16.341  0.6403 -2.0149  1.2875
 1798SOL     OW16852   2.698   0.384   7.464 -0.3106  0.3260 -0.2002
 1798SOL    HW116853   2.755   0.308   7.473 -1.6191 -0.5659  0.6846
 1798SOL    HW216854   2.723   0.410   7.375 -2.2628  1.4144 -0.4331
 1799SOL     OW16855   3.747   0.090  12.348 -0.4475 -0.3829 -0.0450
 1799SOL    HW116856   3.753   0.013  12.404 -0.3495  0.7277  1.4754
 1799SOL    HW216857   3.740   0.159  12.414  0.7618 -0.4722  0.1770
 1800SOL     OW16858   4.618   1.631   4.404  0.2741  0.1811 -0.4315
 1800SOL    HW116859   4.665   1.697   4.455  2.7071 -1.8421 -0.0459
 1800SOL    HW216860   4.606   1.561   4.468  0.6787 -0.2521 -0.8237
 1801SOL     OW16861   0.575   0.428   9.161 -0.0362 -0.0337  0.0828
 1801SOL    HW116862   0.551   0.342   9.125  0.3943 -0.1776  0.1364
 1801SOL    HW216863   0.561   0.485   9.086 -1.9282  0.3500  0.7331
 1802SOL     OW16864   4.427   1.313   3.150  0.2710 -0.3417  0.2269
 1802SOL    HW116865   4.336   1.333   3.173  0.1045 -1.9562  0.9656
 1802SOL    HW216866   4.471   1.330   3.233  1.2589  0.8492 -0.5418
 1803SOL     OW16867   3.753   2.397   5.284 -0.2975  0.2424 -0.4719
 1803SOL    HW116868   3.677   2.341   5.301 -0.4971 -0.2676 -3.1174
 1803SOL    HW216869   3.820   2.347   5.331 -2.2024 -1.6827  0.2129
 1804SOL     OW16870   2.354   2.518   1.590  0.2027 -0.0006 -1.0768
 1804SOL    HW116871   2.441   2.555   1.600 -0.6572  1.6845  0.0368
 1804SOL    HW216872   2.354   2.494   1.497  0.9850 -3.8123 -0.0753
 1805SOL     OW16873   0.694   4.177   3.530 -0.3660 -0.0248 -0.4641
 1805SOL    HW116874   0.613   4.130   3.552 -0.3767  0.7667  1.1995
 1805SOL    HW216875   0.712   4.211   3.618 -0.8284 -0.6260 -0.1343
 1806SOL     OW16876   1.997   2.226   8.766  0.1618  0.3202 -0.2539
 1806SOL    HW116877   2.046   2.281   8.705  1.9347 -1.8498 -0.7799
 1806SOL    HW216878   2.050   2.147   8.779 -0.1176  0.0816 -0.5841
 1807SOL     OW16879   1.617   3.869   6.421 -0.2736 -0.4132  0.2241
 1807SOL    HW116880   1.607   3.959   6.452  2.2935 -0.9381  2.5598
 1807SOL    HW216881   1.554   3.832   6.482  1.8647  1.0280  3.3187
 1808SOL     OW16882   4.202   1.654   8.054  0.1584 -0.2599 -0.1556
 1808SOL    HW116883   4.129   1.654   7.992  0.8907 -0.2135 -1.0370
 1808SOL    HW216884   4.169   1.596   8.122  1.6132 -1.4889 -0.4917
 1809SOL     OW16885   2.542   2.842   9.371 -0.1597  0.1738  0.3740
 1809SOL    HW116886   2.501   2.855   9.457 -0.8895  0.6911 -0.0442
 1809SOL    HW216887   2.512   2.921   9.327 -1.6129 -1.2163 -1.1488
 1810SOL     OW16888   1.177   4.410   6.909 -0.7337 -0.2515  0.7739
 1810SOL    HW116889   1.215   4.488   6.868 -0.1924 -0.8123  0.2066
 1810SOL    HW216890   1.087   4.433   6.933 -1.5583 -0.7784 -1.7681
 1811SOL     OW16891   4.077   3.832   2.085 -0.0239  0.9937 -0.4831
 1811SOL    HW116892   4.031   3.839   2.169  0.4038  0.1281 -0.1765
 1811SOL    HW216893   4.023   3.900   2.046  0.0156  1.5558  0.4421
 1812SOL     OW16894   0.920   0.734  15.574 -0.5957 -0.6029 -0.4248
 1812SOL    HW116895   0.890   0.668  15.512 -0.8440 -0.5376 -0.3716
 1812SOL    HW216896   0.869   0.712  15.652 -0.7402  0.4101 -0.2335
 1813SOL     OW16897   4.305   3.453  14.233 -0.0490  0.0326  0.0457
 1813SOL    HW116898   4.241   3.517  14.264 -0.3209 -1.1656  1.9058
 1813SOL    HW216899   4.287   3.447  14.139 -0.4743 -0.6799  0.1774
 1814SOL     OW16900   0.124   2.345   2.168  0.3556  0.6027  0.7742
 1814SOL    HW116901   0.198   2.290   2.142 -0.7839 -0.3454 -0.4476
 1814SOL    HW216902   0.078   2.367   2.086  1.0414 -1.6474 -0.2318
 1815SOL     OW16903   0.017   0.289   2.074 -0.3582 -0.2283  0.6696
 1815SOL    HW116904   4.720   0.354   2.008  0.4972 -0.5156  0.0935
 1815SOL    HW216905   0.023   0.335   2.158 -0.6422 -1.8996  1.6219
 1816SOL     OW16906   0.602   2.726  17.636 -0.6572  0.3031  0.3707
 1816SOL    HW116907   0.665   2.797  17.623 -0.8558  0.6042  1.1023
 1816SOL    HW216908   0.647   2.656  17.588  0.0599 -0.1333  1.6556
 1817SOL     OW16909   4.487   2.281   2.641  0.7936  0.2871  0.2212
 1817SOL    HW116910   4.504   2.265   2.548 -0.2050 -1.5366  0.3440
 1817SOL    HW216911   4.504   2.374   2.653  1.0210  0.1375  1.0418
 1818SOL     OW16912   1.039   1.272   8.170  0.0353  0.4110 -0.6429
 1818SOL    HW116913   1.029   1.257   8.076 -1.1107  2.2767 -0.8250
 1818SOL    HW216914   1.089   1.354   8.172 -0.7775  0.8671  0.7650
 1819SOL     OW16915   0.781   3.020  16.284  0.5840 -0.4776  0.2632
 1819SOL    HW116916   0.710   2.985  16.337 -0.6648  0.3116 -0.8958
 1819SOL    HW216917   0.751   3.107  16.259  0.4730  0.4392  3.5727
 1820SOL     OW16918   0.345   4.177  10.423  0.1326 -0.4216 -0.1246
 1820SOL    HW116919   0.422   4.231  10.442 -1.9667  2.3706  0.4565
 1820SOL    HW216920   0.296   4.231  10.361 -2.6435 -0.2599  2.2533
 1821SOL     OW16921   3.038   2.862   7.950  0.2193 -0.4847 -0.0272
 1821SOL    HW116922   3.037   2.822   8.037  1.2071  0.4182  0.4086
 1821SOL    HW216923   3.030   2.784   7.895  0.9463 -2.7381  3.0568
 1822SOL     OW16924   4.235   0.942  10.780 -0.0542 -0.4614 -0.8153
 1822SOL    HW116925   4.304   0.999  10.815  0.8825 -0.5107 -2.6025
 1822SOL    HW216926   4.187   1.011  10.734  1.8542  0.1888 -1.8161
 1823SOL     OW16927   4.221   0.367   4.228  0.1152 -0.2573  0.2064
 1823SOL    HW116928   4.281   0.296   4.253 -1.1389 -1.6465 -0.7088
 1823SOL    HW216929   4.211   0.352   4.134 -0.3091  1.7708 -0.0607
 1824SOL     OW16930   3.809   0.232  10.202 -0.1698 -0.7186  0.4274
 1824SOL    HW116931   3.813   0.205  10.294  0.4534  0.1212  0.6461
 1824SOL    HW216932   3.800   0.145  10.164  1.4821 -0.6600 -0.0937
 1825SOL     OW16933   1.120   0.732   4.057  0.4617 -0.5623 -0.4342
 1825SOL    HW116934   1.135   0.712   4.149  0.4958  2.9067  0.2818
 1825SOL    HW216935   1.182   0.804   4.050 -1.7059  1.2782 -0.5831
 1826SOL     OW16936   0.358   2.442   3.984  0.4282 -0.0111 -0.4129
 1826SOL    HW116937   0.398   2.428   3.898 -0.7299 -1.2662 -0.7512
 1826SOL    HW216938   0.347   2.359   4.029 -0.9536 -1.0260 -2.5988
 1827SOL     OW16939   1.218   1.887  16.629  0.0853 -0.1785 -0.1519
 1827SOL    HW116940   1.276   1.956  16.594  0.4690 -0.0758  0.6872
 1827SOL    HW216941   1.239   1.886  16.722 -0.8176  2.4207  0.0940
 1828SOL     OW16942   1.932   3.813   6.060  0.2018 -0.5281 -0.2110
 1828SOL    HW116943   1.917   3.890   6.114 -0.4965 -1.5319  1.0175
 1828SOL    HW216944   1.940   3.752   6.133 -0.0027  0.7908  0.9006
 1829SOL     OW16945   4.162   1.527   6.936 -0.2235  1.0051 -0.3329
 1829SOL    HW116946   4.218   1.480   6.874 -1.9732 -1.7865  0.2127
 1829SOL    HW216947   4.077   1.520   6.891 -0.7362 -0.6936  0.9081
 1830SOL     OW16948   3.067   3.092   2.171 -0.3919  0.2826 -0.1414
 1830SOL    HW116949   2.994   3.101   2.110 -1.0362  1.9258  0.8765
 1830SOL    HW216950   3.074   2.999   2.194 -1.1902  0.2463 -0.0338
 1831SOL     OW16951   1.850   0.748  12.479 -0.4113  0.9503  0.0577
 1831SOL    HW116952   1.834   0.671  12.534 -1.3904 -0.2173 -1.9041
 1831SOL    HW216953   1.874   0.810  12.548  0.0643  0.7232  0.0986
 1832SOL     OW16954   1.610   2.020   7.413 -0.4646 -0.7119  0.6780
 1832SOL    HW116955   1.691   2.071   7.416 -1.7616  1.1087  3.4001
 1832SOL    HW216956   1.548   2.092   7.419  0.1045 -0.0119 -1.6753
 1833SOL     OW16957   2.353   3.580   3.174 -0.1894 -0.0947 -0.3904
 1833SOL    HW116958   2.285   3.621   3.121 -0.9652  0.5163  1.0900
 1833SOL    HW216959   2.330   3.489   3.158  0.9450 -0.2825 -1.0168
 1834SOL     OW16960   3.991   3.508   9.485 -0.4937 -0.1329 -0.2639
 1834SOL    HW116961   4.034   3.476   9.564 -1.9929 -1.5008  0.0017
 1834SOL    HW216962   4.056   3.561   9.438 -0.4088  1.6994  1.9393
 1835SOL     OW16963   1.881   2.740   7.629 -0.3049  0.5088 -0.0267
 1835SOL    HW116964   1.940   2.816   7.639 -1.8900  1.6307  0.8533
 1835SOL    HW216965   1.892   2.700   7.543  0.3656  0.0263  0.2844
 1836SOL     OW16966   0.864   3.360   7.971  0.1169  0.3895  0.0417
 1836SOL    HW116967   0.854   3.265   7.974 -2.1417  0.5991 -1.8200
 1836SOL    HW216968   0.849   3.368   7.877  2.7932  1.0709 -0.3385
 1837SOL     OW16969   1.338   2.943   4.916 -0.6598  0.3961  0.6275
 1837SOL    HW116970   1.428   2.953   4.947 -0.7379 -2.2284  1.7645
 1837SOL    HW216971   1.315   3.029   4.881 -1.4930 -0.4458 -0.8917
 1838SOL     OW16972   4.170   1.858   2.813 -0.1125 -0.7221 -0.1796
 1838SOL    HW116973   4.140   1.946   2.789 -0.7293 -0.2344  2.3773
 1838SOL    HW216974   4.144   1.861   2.905  2.0032 -0.8049  0.4170
 1839SOL     OW16975   2.414   4.528   3.733  0.0321  0.1837  0.2117
 1839SOL    HW116976   2.424   4.616   3.770 -0.4279  1.6761 -3.2884
 1839SOL    HW216977   2.477   4.517   3.662  0.5108 -2.9900  1.1373
 1840SOL     OW16978   3.051   1.181  11.562  0.6140  0.4480 -0.1707
 1840SOL    HW116979   3.141   1.151  11.562  0.6036  0.4362 -2.1052
 1840SOL    HW216980   3.056   1.236  11.641 -0.0349  1.7398 -1.0257
 1841SOL     OW16981   2.039   4.486  14.454  0.1881 -0.2519  0.3597
 1841SOL    HW116982   2.065   4.579  14.452  3.5340 -1.1913  0.0835
 1841SOL    HW216983   2.028   4.477  14.359  0.2819  0.2192  0.3008
 1842SOL     OW16984   4.619   0.160   6.085  0.0932  0.6824 -0.2495
 1842SOL    HW116985   4.710   0.134   6.075 -0.3541 -1.2685  0.7587
 1842SOL    HW216986   4.639   0.242   6.129  2.3086 -0.4472  0.8597
 1843SOL     OW16987   2.877   2.040   8.781 -0.0687  0.0348  0.0529
 1843SOL    HW116988   2.869   1.950   8.751 -0.3938 -0.8337  2.7444
 1843SOL    HW216989   2.971   2.051   8.792  0.3256 -1.4343 -1.8066
 1844SOL     OW16990   2.027   3.425   3.242 -0.7550  0.4897  0.0970
 1844SOL    HW116991   2.007   3.349   3.187  1.0291  0.8820 -1.0761
 1844SOL    HW216992   2.023   3.502   3.185 -1.3478  1.2338  1.1452
 1845SOL     OW16993   3.132   4.676   2.566 -0.3681  0.6024 -0.6797
 1845SOL    HW116994   3.044   4.705   2.542 -0.0122  1.4282 -0.9742
 1845SOL    HW216995   3.154   0.025   2.622 -1.2741  0.6849 -0.4314
 1846SOL     OW16996   2.406   0.061   3.878  0.3885  0.2866  0.4942
 1846SOL    HW116997   2.435   0.146   3.845  2.2348 -0.3546  0.4354
 1846SOL    HW216998   2.469   0.046   3.948 -0.5128 -0.9567  1.0318
 1847SOL     OW16999   1.559   0.480  13.835  0.2199  0.1605 -0.0189
 1847SOL    HW117000   1.623   0.550  13.849 -0.1336  0.0151  2.4318
 1847SOL    HW217001   1.588   0.425  13.908 -0.1861 -0.0962 -0.0492
 1848SOL     OW17002   1.098   4.349   5.515  0.0722  0.0043  0.1963
 1848SOL    HW117003   1.116   4.336   5.608  1.9874 -1.2861 -0.3558
 1848SOL    HW217004   1.043   4.272   5.503 -0.4984  0.3122  0.8284
 1849SOL     OW17005   3.823   1.724  15.093 -0.4016 -0.1758 -0.0054
 1849SOL    HW117006   3.739   1.695  15.127 -0.4352 -0.6684 -0.4993
 1849SOL    HW217007   3.825   1.681  15.007  0.8299 -0.9533  0.4065
 1850SOL     OW17008   0.867   3.203   2.555 -0.1260  0.4451  0.0452
 1850SOL    HW117009   0.903   3.114   2.561 -1.1345  0.1071  1.2350
 1850SOL    HW217010   0.865   3.213   2.460 -1.6125 -0.6953 -0.0505
 1851SOL     OW17011   2.539   2.458   0.036 -0.6777 -0.0819  0.3533
 1851SOL    HW117012   2.475   2.388   0.022 -0.5075 -0.3656  0.9694
 1851SOL    HW217013   2.602   2.408   0.088  1.0905 -1.0997 -2.7824
 1852SOL     OW17014   0.794   3.065   2.935 -0.5983 -0.6961 -0.3740
 1852SOL    HW117015   0.715   3.078   2.883 -1.1175 -0.8821  0.3600
 1852SOL    HW217016   0.785   3.142   2.991 -1.8325 -0.0090 -1.5109
 1853SOL     OW17017   1.505   1.876   9.278 -0.1225 -0.1830  0.3003
 1853SOL    HW117018   1.547   1.928   9.209 -2.2508  0.3792 -0.5662
 1853SOL    HW217019   1.561   1.798   9.284 -0.0198 -0.0661  0.8597
 1854SOL     OW17020   3.892   0.391   6.102 -0.3377 -0.1260  0.1405
 1854SOL    HW117021   3.856   0.424   6.185 -0.1952  1.1461 -0.2959
 1854SOL    HW217022   3.846   0.453   6.045 -1.0475  0.3525  1.2164
 1855SOL     OW17023   0.029   2.994   6.050 -0.2896  0.3193  0.1130
 1855SOL    HW117024   4.660   2.988   6.034 -0.1007  0.6058 -1.1459
 1855SOL    HW217025   0.057   2.905   6.033 -0.6170  0.1450  0.4944
 1856SOL     OW17026   2.140   2.984   7.369 -0.0710  0.2514 -0.7914
 1856SOL    HW117027   2.173   2.918   7.429 -1.4962  2.5907  2.5489
 1856SOL    HW217028   2.180   2.951   7.289  0.4830  1.2786 -0.9438
 1857SOL     OW17029   0.293   0.849   7.976  0.1900 -0.1574 -0.0570
 1857SOL    HW117030   0.200   0.868   7.967  0.3263 -0.3476 -1.7145
 1857SOL    HW217031   0.280   0.760   7.943  0.0342 -0.6844  1.4026
 1858SOL     OW17032   1.367   0.341   2.720  0.3464 -0.0697 -0.5214
 1858SOL    HW117033   1.344   0.327   2.628  1.1752  1.2905 -0.9237
 1858SOL    HW217034   1.451   0.384   2.709 -0.0668  1.2080  1.3507
 1859SOL     OW17035   3.345   1.142   8.562  0.2501 -0.3865  0.1776
 1859SOL    HW117036   3.420   1.193   8.592  1.3777 -1.2098 -1.2282
 1859SOL    HW217037   3.272   1.203   8.574  0.0020 -0.6994  0.2617
 1860SOL     OW17038   2.210   4.488   4.597  0.0688  0.2212  0.4409
 1860SOL    HW117039   2.160   4.566   4.570 -1.4036 -1.0561 -0.5386
 1860SOL    HW217040   2.238   4.525   4.681 -1.2158  1.4548  0.3224
 1861SOL     OW17041   4.677   2.596   4.602 -0.2298 -0.4607 -0.1687
 1861SOL    HW117042   4.609   2.557   4.656  3.5983 -2.7242  2.9970
 1861SOL    HW217043   4.694   2.526   4.540 -0.4999  0.7010 -1.5500
 1862SOL     OW17044   2.340   4.263   6.613 -0.1702 -0.5353  0.0407
 1862SOL    HW117045   2.361   4.220   6.696  0.6554 -1.8677 -0.8708
 1862SOL    HW217046   2.354   4.194   6.549 -0.5711 -0.1174 -0.4960
 1863SOL     OW17047   0.392   4.102   8.141  0.3980  0.1304  0.2505
 1863SOL    HW117048   0.346   4.184   8.157  2.0056  1.1520 -0.3400
 1863SOL    HW217049   0.352   4.047   8.210  2.1510 -0.1067  1.0865
 1864SOL     OW17050   0.754   0.039   0.884 -0.1945  0.4208  0.2966
 1864SOL    HW117051   0.845   0.069   0.879 -0.0192 -0.0686  0.5961
 1864SOL    HW217052   0.704   0.119   0.901 -1.1276 -0.7328  2.9740
 1865SOL     OW17053   3.363   3.910  16.493  0.0085 -0.4491  0.2143
 1865SOL    HW117054   3.439   3.859  16.465 -1.4852 -2.4166 -0.1738
 1865SOL    HW217055   3.398   3.993  16.459  0.4187 -0.2171  1.1969
 1866SOL     OW17056   1.193   1.951  16.895  0.4871 -0.4704  0.3635
 1866SOL    HW117057   1.111   1.999  16.883  0.7181 -0.2638 -0.3776
 1866SOL    HW217058   1.162   1.888  16.960  2.5434 -0.4597  1.3241
 1867SOL     OW17059   0.081   2.917   6.599  0.0697  0.3356 -0.5988
 1867SOL    HW117060   0.100   3.001   6.557 -1.7752  1.2726  0.4327
 1867SOL    HW217061   4.714   2.920   6.575 -1.1090 -0.6157  3.7530
 1868SOL     OW17062   3.850   0.195   4.371 -0.1690  0.1672 -0.2690
 1868SOL    HW117063   3.841   0.240   4.287  1.4719 -0.3901 -0.7416
 1868SOL    HW217064   3.846   0.103   4.345  0.6216  0.3349 -0.9610
 1869SOL     OW17065   2.547   2.278   8.335  0.2868 -0.4726  0.2393
 1869SOL    HW117066   2.591   2.305   8.255 -0.8911 -0.9227 -0.5626
 1869SOL    HW217067   2.603   2.205   8.359  1.4502  0.5542  0.6473
 1870SOL     OW17068   4.280   0.077  14.262  0.0357  0.4027 -0.0917
 1870SOL    HW117069   4.191   0.046  14.279  1.0886 -2.9095 -0.7521
 1870SOL    HW217070   4.337   0.042  14.331  2.0490  1.4820 -1.1898
 1871SOL     OW17071   3.114   0.115   1.941  0.4353 -0.0894  0.3774
 1871SOL    HW117072   3.168   0.175   1.992 -0.6224  2.0244 -0.9867
 1871SOL    HW217073   3.134   0.147   1.853  0.3718 -2.2328 -0.4148
 1872SOL     OW17074   2.701   3.967   3.335  0.3996  0.3613  0.0813
 1872SOL    HW117075   2.653   3.902   3.283  0.0188  0.4349  0.3441
 1872SOL    HW217076   2.764   3.991   3.267  0.4763  2.0034  0.7391
 1873SOL     OW17077   1.209   1.121   2.386  0.4393  0.0904  0.5948
 1873SOL    HW117078   1.199   1.032   2.350 -1.4485  0.0753  1.1752
 1873SOL    HW217079   1.280   1.113   2.449 -0.2030  0.4794  1.3664
 1874SOL     OW17080   1.879   1.994  10.222  0.3262 -0.3293  0.1724
 1874SOL    HW117081   1.808   1.983  10.159 -1.8343  0.0656  2.5226
 1874SOL    HW217082   1.823   2.009  10.298 -0.4166 -1.1764 -0.2137
 1875SOL     OW17083   4.408   1.358  14.665  0.1075 -0.5908  0.1456
 1875SOL    HW117084   4.492   1.316  14.648  0.0289 -1.5967  2.2753
 1875SOL    HW217085   4.437   1.447  14.684 -0.5802 -0.8495  2.3593
 1876SOL     OW17086   0.602   1.570   5.672 -0.6252 -0.3364 -0.2031
 1876SOL    HW117087   0.643   1.575   5.759  1.2536 -0.5962 -1.0742
 1876SOL    HW217088   0.532   1.511   5.700  0.2990 -2.4548 -2.3080
 1877SOL     OW17089   0.968   3.440   2.951  0.1017 -0.1470  0.0503
 1877SOL    HW117090   1.056   3.432   2.912  0.0513 -1.1581  0.1266
 1877SOL    HW217091   0.913   3.402   2.882  0.5611 -2.2632  0.8497
 1878SOL     OW17092   2.819   3.276   4.791  0.4005  0.8549 -0.3734
 1878SOL    HW117093   2.905   3.236   4.779  0.3790 -0.1759  2.7571
 1878SOL    HW217094   2.781   3.213   4.852  1.5810  1.6535  1.1928
 1879SOL     OW17095   3.353   3.763   8.457  0.1275  0.0761  0.0527
 1879SOL    HW117096   3.439   3.722   8.469  1.5281  3.2486  0.8281
 1879SOL    HW217097   3.334   3.792   8.547  0.1314  2.3746 -0.6903
 1880SOL     OW17098   2.166   0.710   1.603  0.1662 -0.5712 -0.1163
 1880SOL    HW117099   2.102   0.760   1.653 -1.0369 -2.3321  0.0872
 1880SOL    HW217100   2.143   0.619   1.620 -1.8857 -0.3461 -1.6887
 1881SOL     OW17101   4.543   2.678   5.465 -0.8813  0.0542 -0.5240
 1881SOL    HW117102   4.469   2.618   5.471 -2.0537  1.7651  1.8680
 1881SOL    HW217103   4.507   2.755   5.420  0.6340  1.5036  0.7475
 1882SOL     OW17104   2.625   2.403   1.060 -0.2211  0.4061  0.1165
 1882SOL    HW117105   2.533   2.429   1.052 -0.0905  0.7858 -0.1598
 1882SOL    HW217106   2.660   2.471   1.002 -0.9295  1.2002  0.6320
 1883SOL     OW17107   2.825   3.721   5.644  0.5804  0.0325 -0.6375
 1883SOL    HW117108   2.735   3.719   5.675  0.3111  1.6773 -1.3247
 1883SOL    HW217109   2.829   3.644   5.587  0.0283  0.6512 -1.4923
 1884SOL     OW17110   0.921   1.826   4.252 -0.0389 -0.1498 -0.2707
 1884SOL    HW117111   0.966   1.883   4.315 -0.7473 -1.0757  1.0952
 1884SOL    HW217112   0.913   1.747   4.306 -0.9446  1.5890  2.1439
 1885SOL     OW17113   0.245   3.135  11.299  0.0087 -0.1814  0.2966
 1885SOL    HW117114   0.206   3.200  11.358 -1.2522 -0.5150 -0.1630
 1885SOL    HW217115   0.313   3.111  11.361  0.5745  0.5038 -0.0522
 1886SOL     OW17116   0.464   3.040   6.740 -0.1744 -0.0753 -0.4553
 1886SOL    HW117117   0.471   3.059   6.647  0.3603  0.0272 -0.3962
 1886SOL    HW217118   0.402   3.105   6.772  3.2712  1.5684  2.9926
 1887SOL     OW17119   2.204   2.794   0.433  0.1648  0.4740  0.0536
 1887SOL    HW117120   2.149   2.849   0.377  2.8635  1.5271 -1.5483
 1887SOL    HW217121   2.179   2.710   0.397 -0.2871  1.0830 -1.0483
 1888SOL     OW17122   2.269   2.157   3.647 -0.3392 -0.7257  0.8847
 1888SOL    HW117123   2.362   2.154   3.624 -0.1450  2.4454  1.3037
 1888SOL    HW217124   2.233   2.165   3.558  3.2002 -0.3079 -0.5101
 1889SOL     OW17125   2.264   1.713  13.157  0.1018  0.0458 -0.1153
 1889SOL    HW117126   2.310   1.796  13.170 -3.0824  1.9662 -0.8481
 1889SOL    HW217127   2.177   1.753  13.152 -0.9817 -2.3118  0.1590
 1890SOL     OW17128   1.681   3.306   3.200  0.4011  0.6963 -0.6637
 1890SOL    HW117129   1.754   3.244   3.203  0.8124  1.2687  0.9220
 1890SOL    HW217130   1.724   3.382   3.160 -0.9719  1.8511  0.0626
 1891SOL     OW17131   0.275   0.094   5.540 -0.0434 -0.2734 -0.3055
 1891SOL    HW117132   0.183   0.118   5.526 -0.8646 -2.8023  0.9186
 1891SOL    HW217133   0.284   0.086   5.635 -1.1596 -2.8042 -0.4359
 1892SOL     OW17134   0.225   2.523   2.959  0.0348 -0.1886  0.1641
 1892SOL    HW117135   0.162   2.592   2.982  0.9825  1.0058 -0.8430
 1892SOL    HW217136   0.194   2.441   2.998 -2.1609  0.3957 -0.3202
 1893SOL     OW17137   0.583   1.812  16.559 -0.2468 -0.3395 -0.0624
 1893SOL    HW117138   0.628   1.858  16.630 -0.0045 -2.2414  1.0282
 1893SOL    HW217139   0.499   1.778  16.589 -0.5303  1.1173  0.7934
 1894SOL     OW17140   0.847   4.023  13.562 -0.8828 -0.1771  0.5443
 1894SOL    HW117141   0.929   4.005  13.608 -0.1502 -0.0410 -0.6927
 1894SOL    HW217142   0.852   3.968  13.484 -2.3310 -0.3222  0.5510
 1895SOL     OW17143   1.780   2.223  11.976  0.2866  0.3077  0.1724
 1895SOL    HW117144   1.769   2.224  12.071  2.3833  0.7552  0.4113
 1895SOL    HW217145   1.709   2.161  11.964  1.2038 -0.5945 -0.6361
 1896SOL     OW17146   4.098   1.204  12.105 -0.2725 -0.5934 -0.8263
 1896SOL    HW117147   4.112   1.297  12.087  0.1652 -0.7890 -1.4760
 1896SOL    HW217148   4.122   1.163  12.022  0.4555 -0.1751 -0.8243
 1897SOL     OW17149   4.721   0.135   8.493  0.2311 -0.3200  0.4504
 1897SOL    HW117150   0.072   0.143   8.551  0.4487  1.7214 -0.1133
 1897SOL    HW217151   4.684   0.056   8.533 -3.1744  1.2986  0.5069
 1898SOL     OW17152   2.976   1.245   0.803 -0.0033 -0.2501 -0.6022
 1898SOL    HW117153   2.983   1.334   0.837 -0.7247 -0.4741  0.1405
 1898SOL    HW217154   2.886   1.249   0.770 -0.8319 -0.3145  1.6452
 1899SOL     OW17155   3.808   4.625  16.933 -0.0229  0.0996 -0.3855
 1899SOL    HW117156   3.799   4.696  16.997 -2.4171  0.0542 -0.6907
 1899SOL    HW217157   3.729   4.571  16.938 -0.9974  1.6186  0.8932
 1900SOL     OW17158   2.923   1.108  15.465  0.1521 -0.1494 -0.6305
 1900SOL    HW117159   2.963   1.132  15.549 -1.0870 -0.5480  0.0814
 1900SOL    HW217160   2.938   1.182  15.406  1.4424 -0.0103 -0.1123
 1901SOL     OW17161   3.904   3.576  15.585  0.0419  0.0325 -0.5877
 1901SOL    HW117162   3.881   3.669  15.588  0.1713 -0.0008  1.1107
 1901SOL    HW217163   3.860   3.538  15.661  1.3029 -2.7753 -1.2551
 1902SOL     OW17164   0.818   1.872   5.816 -0.1043  0.2179  0.2175
 1902SOL    HW117165   0.845   1.785   5.787 -1.3004 -0.6224  1.6039
 1902SOL    HW217166   0.903   1.912   5.836 -0.0908  0.9665 -1.3636
 1903SOL     OW17167   0.141   1.104   0.644 -0.3227 -0.3197 -0.5396
 1903SOL    HW117168   0.055   1.077   0.614 -1.1099 -1.6187  2.9146
 1903SOL    HW217169   0.115   1.158   0.719 -1.4629 -0.6129 -0.7263
 1904SOL     OW17170   1.114   0.078   7.347 -0.4813  0.3255  0.0859
 1904SOL    HW117171   1.200   0.109   7.320 -0.4128  0.0628  0.0127
 1904SOL    HW217172   1.089   0.043   7.262 -0.9922  1.0158 -0.0492
 1905SOL     OW17173   2.902   1.273   8.952 -0.1990  0.1761  0.6054
 1905SOL    HW117174   2.876   1.333   8.881  1.2284  1.6184  1.2930
 1905SOL    HW217175   2.905   1.340   9.020  0.0765 -0.7015  1.4635
 1906SOL     OW17176   3.868   1.137  12.431 -0.3240  0.1139  0.4075
 1906SOL    HW117177   3.928   1.063  12.441 -0.0578  0.1548 -0.8575
 1906SOL    HW217178   3.927   1.210  12.414 -0.0829 -0.1968 -0.1150
 1907SOL     OW17179   2.151   2.921  13.395  0.4264  0.8182 -0.3963
 1907SOL    HW117180   2.059   2.947  13.392  1.0932  3.1393 -1.0064
 1907SOL    HW217181   2.142   2.826  13.384  1.1220  0.9080 -1.8508
 1908SOL     OW17182   3.417   2.534   2.560 -0.3511  0.3925 -0.8254
 1908SOL    HW117183   3.481   2.596   2.526  1.3233  0.0729  1.7606
 1908SOL    HW217184   3.371   2.503   2.482 -1.3420  1.4472 -0.6642
 1909SOL     OW17185   4.408   4.303   7.758  0.1192 -0.2981 -0.0173
 1909SOL    HW117186   4.411   4.354   7.840  0.3725  0.2186 -0.3508
 1909SOL    HW217187   4.369   4.217   7.774 -1.1504  0.2286 -0.2892
 1910SOL     OW17188   3.185   1.299   3.040 -0.2259  0.1705  0.4036
 1910SOL    HW117189   3.158   1.208   3.045 -1.6831  0.5947  0.0613
 1910SOL    HW217190   3.176   1.308   2.945  0.0305 -0.4658  0.3157
 1911SOL     OW17191   2.916   0.185   2.152 -0.0949 -0.2146  0.6315
 1911SOL    HW117192   2.990   0.225   2.106  0.2004  0.7341  1.9003
 1911SOL    HW217193   2.943   0.095   2.134 -0.3631  0.0374 -1.0313
 1912SOL     OW17194   3.125   0.347   0.970  0.4071  0.0719 -0.5675
 1912SOL    HW117195   3.100   0.278   0.909 -0.1297 -0.3781  0.1663
 1912SOL    HW217196   3.043   0.371   1.012  0.3993 -2.4734  0.8943
 1913SOL     OW17197   4.288   2.295   9.616  0.3612 -0.1235 -0.1169
 1913SOL    HW117198   4.383   2.307   9.617  0.2296  0.7897  1.1046
 1913SOL    HW217199   4.276   2.261   9.528  1.7911  1.2608 -0.8445
 1914SOL     OW17200   3.051   4.243   2.987  0.5168 -0.1210 -0.0248
 1914SOL    HW117201   3.036   4.322   2.934 -1.3399 -0.2360  0.3308
 1914SOL    HW217202   3.136   4.273   3.020  1.0307 -1.4774 -0.1394
 1915SOL     OW17203   2.490   4.467  11.540  0.0853 -0.6246  0.0350
 1915SOL    HW117204   2.402   4.484  11.507 -0.5753  1.7887  3.0795
 1915SOL    HW217205   2.516   4.558  11.548  1.7230 -1.1841  1.0890
 1916SOL     OW17206   2.763   1.802   8.096  0.4381 -0.4653 -0.6035
 1916SOL    HW117207   2.690   1.742   8.079 -0.9612  0.4712  2.1965
 1916SOL    HW217208   2.767   1.799   8.191 -1.3515  0.5708 -0.5040
 1917SOL     OW17209   2.988   3.633  15.874  0.3272 -0.2104 -0.3135
 1917SOL    HW117210   2.904   3.677  15.873  0.0350 -0.7103  1.1323
 1917SOL    HW217211   3.049   3.693  15.918  0.6795 -1.4163  0.8421
 1918SOL     OW17212   1.724   1.803   7.081 -0.4657 -0.2322 -0.3290
 1918SOL    HW117213   1.789   1.733   7.087  0.0092  0.3155  1.0129
 1918SOL    HW217214   1.750   1.848   7.001  0.5963  0.1884  0.2522
 1919SOL     OW17215   1.966   3.839   3.189 -0.3342 -0.3075  0.3830
 1919SOL    HW117216   2.029   3.882   3.248 -0.3598  3.3956 -2.2852
 1919SOL    HW217217   1.885   3.874   3.225  0.6735  0.8043  1.6083
 1920SOL     OW17218   3.087   2.293  17.249  0.1693 -0.4697  0.4007
 1920SOL    HW117219   3.019   2.315  17.186  0.5944  1.8268  0.7381
 1920SOL    HW217220   3.143   2.242  17.190 -1.6585 -2.3889  0.3375
 1921SOL     OW17221   4.247   3.148  11.138  0.7952 -0.4339  0.0812
 1921SOL    HW117222   4.250   3.058  11.105  1.1382  0.4017 -2.1361
 1921SOL    HW217223   4.339   3.173  11.128  0.8551 -0.6289  0.1305
 1922SOL     OW17224   1.833   1.931  11.125  0.0306 -0.3493  0.0687
 1922SOL    HW117225   1.806   2.023  11.119 -0.0387 -0.3757 -0.0377
 1922SOL    HW217226   1.891   1.926  11.200 -0.0360 -0.1318  0.1347
 1923SOL     OW17227   2.492   3.724   2.894 -0.3161 -0.2431  0.0508
 1923SOL    HW117228   2.446   3.658   2.841 -1.5204 -1.5797  2.7879
 1923SOL    HW217229   2.555   3.758   2.830  2.4450 -1.5853  2.0878
 1924SOL     OW17230   1.527   4.061   8.047  0.5051  0.1032  0.3656
 1924SOL    HW117231   1.525   4.142   8.098  0.2018 -0.5104  1.3154
 1924SOL    HW217232   1.617   4.034   8.064  0.8227  1.5615  0.9752
 1925SOL     OW17233   1.276   1.700   3.569 -0.2001  0.0528 -0.4647
 1925SOL    HW117234   1.278   1.656   3.485 -1.2486  0.4097 -0.6675
 1925SOL    HW217235   1.351   1.649   3.602 -0.3049 -0.2751 -0.7338
 1926SOL     OW17236   0.243   2.429   0.382  1.0872 -0.0215  0.0024
 1926SOL    HW117237   0.275   2.515   0.409 -1.1775  0.2244  1.9109
 1926SOL    HW217238   0.196   2.449   0.301 -0.3209 -0.9279  0.5981
 1927SOL     OW17239   1.192   2.238   7.985 -0.7260 -0.1015 -0.6558
 1927SOL    HW117240   1.167   2.295   8.058  2.8590 -0.5037  0.9258
 1927SOL    HW217241   1.286   2.226   7.999 -0.4377  2.7765 -0.2076
 1928SOL     OW17242   0.978   1.903  10.320  0.4864 -0.1190 -0.3003
 1928SOL    HW117243   0.887   1.930  10.305  1.0927  3.3197  2.2365
 1928SOL    HW217244   0.963   1.852  10.400 -0.7971 -0.7880 -0.9550
 1929SOL     OW17245   2.525   2.598   4.959 -0.5969  0.3954 -0.3214
 1929SOL    HW117246   2.518   2.690   4.985 -1.1910  1.5226 -4.3401
 1929SOL    HW217247   2.561   2.606   4.870 -0.5811 -1.3241 -0.4667
 1930SOL     OW17248   3.634   4.704   2.400  0.5186 -0.1648 -0.0662
 1930SOL    HW117249   3.550   4.694   2.445  0.1255  0.4912 -0.6544
 1930SOL    HW217250   3.691   4.631   2.424  0.0894 -0.7334 -0.7731
 1931SOL     OW17251   0.454   0.927   7.373 -0.1358 -0.2995  0.2093
 1931SOL    HW117252   0.378   0.974   7.407  0.0093  0.0716  0.0293
 1931SOL    HW217253   0.530   0.985   7.387 -0.6281  0.5563 -0.6784
 1932SOL     OW17254   3.859   3.332   9.323 -0.1359 -0.2099  0.0201
 1932SOL    HW117255   3.911   3.396   9.372 -1.3598  0.3669  0.5660
 1932SOL    HW217256   3.853   3.375   9.238  1.4447  1.7250  0.8924
 1933SOL     OW17257   1.839   3.192  10.904 -0.6589  0.1124 -0.4894
 1933SOL    HW117258   1.785   3.268  10.926 -1.8607 -0.5373 -1.1527
 1933SOL    HW217259   1.921   3.218  10.944 -1.0103 -0.7439  0.7998
 1934SOL     OW17260   1.150   0.558   8.110  0.4883 -0.1239 -0.3745
 1934SOL    HW117261   1.102   0.576   8.191  0.3071  0.2882 -0.5737
 1934SOL    HW217262   1.077   0.551   8.049  0.6582  0.0694 -0.6022
 1935SOL     OW17263   1.300   0.485   4.160  0.0452 -0.6849 -0.3574
 1935SOL    HW117264   1.321   0.403   4.115 -2.2202 -2.0531  1.0921
 1935SOL    HW217265   1.251   0.521   4.085  0.0358 -1.2352 -0.6139
 1936SOL     OW17266   1.489   2.314  11.279 -0.0826  0.0985 -0.1876
 1936SOL    HW117267   1.459   2.303  11.369 -1.6384  0.3177 -0.6684
 1936SOL    HW217268   1.583   2.298  11.286  0.1027  0.6898 -1.2870
 1937SOL     OW17269   4.162   2.038   1.049 -0.2574  0.5293  0.6880
 1937SOL    HW117270   4.186   1.952   1.016 -0.5747  0.8958 -0.4926
 1937SOL    HW217271   4.108   2.012   1.123  1.9438  1.4771  2.6257
 1938SOL     OW17272   4.250   2.186  11.818 -0.0194  0.2767 -0.0118
 1938SOL    HW117273   4.190   2.196  11.891  1.4799 -0.0334  1.2625
 1938SOL    HW217274   4.298   2.268  11.829  2.0283 -1.0292  0.9754
 1939SOL     OW17275   2.418   3.389   5.919  0.1106  0.0799 -0.4947
 1939SOL    HW117276   2.370   3.314   5.885  0.1264  0.8798 -2.2550
 1939SOL    HW217277   2.393   3.392   6.012 -1.9744 -0.9742 -1.0194
 1940SOL     OW17278   2.779   2.532  15.153 -0.1716 -0.3734 -0.1180
 1940SOL    HW117279   2.812   2.475  15.083  2.2427 -0.1730  0.8301
 1940SOL    HW217280   2.707   2.474  15.177 -0.2756  0.4322  1.4907
 1941SOL     OW17281   3.582   1.721   7.121 -0.3758  0.7551  0.0663
 1941SOL    HW117282   3.669   1.683   7.135 -0.2160  0.3510 -1.8811
 1941SOL    HW217283   3.600   1.813   7.137  0.8835  0.7295 -1.1584
 1942SOL     OW17284   1.378   0.837   4.004 -0.0121 -0.7481  0.0031
 1942SOL    HW117285   1.381   0.932   4.019 -1.6453 -0.9027  1.2529
 1942SOL    HW217286   1.400   0.836   3.911  0.6329 -1.4320  0.1658
 1943SOL     OW17287   1.791   4.557  12.042 -0.0835 -0.5761 -0.3829
 1943SOL    HW117288   1.835   4.527  12.122  0.3191 -1.2089 -0.8422
 1943SOL    HW217289   1.814   4.482  11.987  2.7259  0.0081 -0.0304
 1944SOL     OW17290   3.900   4.482   3.307 -0.1400 -0.4389  0.3720
 1944SOL    HW117291   3.902   4.386   3.316  3.3177 -0.3662  0.2854
 1944SOL    HW217292   3.827   4.507   3.363 -1.4922 -0.8691 -1.2000
 1945SOL     OW17293   3.457   0.631   1.105  0.6772  0.6088 -0.2991
 1945SOL    HW117294   3.375   0.647   1.057  0.3374 -1.3032 -0.3711
 1945SOL    HW217295   3.436   0.593   1.190  2.7345  0.7041  0.2566
 1946SOL     OW17296   1.188   0.784   2.989 -0.0367  0.4313  0.0998
 1946SOL    HW117297   1.108   0.757   3.035 -0.1244  0.0946 -0.2490
 1946SOL    HW217298   1.177   0.749   2.901  0.2846 -0.8145  0.5517
 1947SOL     OW17299   2.697   2.568  11.506 -0.5185 -0.2758 -0.0358
 1947SOL    HW117300   2.613   2.554  11.462 -1.1164  0.4678  0.8835
 1947SOL    HW217301   2.754   2.579  11.430 -0.5851  2.2065  0.2697
 1948SOL     OW17302   1.667   1.214   1.337  0.3976 -0.3219 -0.4069
 1948SOL    HW117303   1.629   1.151   1.276 -1.0063 -1.1326  1.3189
 1948SOL    HW217304   1.698   1.158   1.407 -0.2453  0.4590  0.5061
 1949SOL     OW17305   3.982   1.954   4.749  0.8930  0.0917  0.4058
 1949SOL    HW117306   4.017   1.867   4.731  0.2157 -0.0746 -0.1261
 1949SOL    HW217307   3.896   1.927   4.780 -0.1615  0.0216 -2.5865
 1950SOL     OW17308   2.473   2.958   9.109  0.2020 -0.0365  0.5104
 1950SOL    HW117309   2.446   3.032   9.163  0.5963  0.6686 -0.2646
 1950SOL    HW217310   2.421   2.976   9.031  2.7102  0.1495 -1.1297
 1951SOL     OW17311   1.856   4.628  10.536  0.1463  0.0264 -0.0212
 1951SOL    HW117312   1.917   4.556  10.521 -0.0482  0.0155 -0.7763
 1951SOL    HW217313   1.815   4.608  10.620 -0.0591 -1.1684 -0.4119
 1952SOL     OW17314   2.207   1.110   5.354 -0.1448  0.1016  0.1470
 1952SOL    HW117315   2.290   1.135   5.314  0.3201 -2.4407 -0.4792
 1952SOL    HW217316   2.211   1.015   5.348 -0.6922  0.2037 -1.7346
 1953SOL     OW17317   2.946   2.429  10.433  0.1178 -0.5349  0.1479
 1953SOL    HW117318   2.870   2.466  10.388  0.6646  0.1466 -0.2203
 1953SOL    HW217319   2.913   2.403  10.519  0.8904 -2.0146 -0.0034
 1954SOL     OW17320   4.311   3.501   2.621 -0.0147 -0.7842  0.4777
 1954SOL    HW117321   4.236   3.478   2.566  1.1458 -2.7561 -0.2475
 1954SOL    HW217322   4.280   3.474   2.707  0.4512 -0.8539  0.6235
 1955SOL     OW17323   1.169   2.875   2.804  0.3864  0.6311  0.2103
 1955SOL    HW117324   1.232   2.928   2.853  3.5177 -0.5798 -2.5488
 1955SOL    HW217325   1.225   2.806   2.770 -1.2480 -1.6252  2.1196
 1956SOL     OW17326   0.962   1.435   1.678  0.2819  0.0733 -0.9845
 1956SOL    HW117327   0.970   1.530   1.672 -2.3875  0.2683 -1.3031
 1956SOL    HW217328   1.040   1.401   1.634  1.0037  0.1494  0.2287
 1957SOL     OW17329   2.942   4.195   5.869 -0.1329 -0.3456 -0.3622
 1957SOL    HW117330   2.958   4.108   5.832 -0.2194  0.1906 -1.6496
 1957SOL    HW217331   2.851   4.187   5.897  0.1399  0.6487  0.7830
 1958SOL     OW17332   2.866   0.603  14.378 -0.3132  0.0497 -0.2579
 1958SOL    HW117333   2.882   0.531  14.438  0.7970  1.4436  1.1254
 1958SOL    HW217334   2.771   0.604  14.365 -0.4917 -0.7401  1.0759
 1959SOL     OW17335   0.108   1.597   3.901 -0.0187  0.0893  0.4808
 1959SOL    HW117336   0.080   1.640   3.982 -0.5955  0.1319  0.2589
 1959SOL    HW217337   0.160   1.526   3.938  1.0756  0.9103  0.5482
 1960SOL     OW17338   3.219   3.798  10.988  0.4209  0.6185 -0.5650
 1960SOL    HW117339   3.298   3.788  11.041  1.0038 -0.5621 -1.6554
 1960SOL    HW217340   3.257   3.786  10.901 -0.0371  1.4883 -0.8895
 1961SOL     OW17341   1.222   0.445   3.830 -0.1079 -0.0365 -0.2427
 1961SOL    HW117342   1.191   0.407   3.747 -0.1501  0.4399 -0.4421
 1961SOL    HW217343   1.307   0.402   3.836 -0.2850 -0.5500 -1.2661
 1962SOL     OW17344   3.570   0.237   4.617  0.2627 -0.1424 -0.0827
 1962SOL    HW117345   3.533   0.191   4.541  0.4554 -0.0175 -0.2500
 1962SOL    HW217346   3.502   0.303   4.625 -1.3211 -1.8890  0.9670
 1963SOL     OW17347   3.257   0.428   9.249 -0.1013 -0.1726  0.1665
 1963SOL    HW117348   3.171   0.464   9.271  0.9355  2.7920 -0.7604
 1963SOL    HW217349   3.288   0.478   9.174 -1.8883  0.6404 -0.0108
 1964SOL     OW17350   0.263   4.476   2.197 -0.0091  0.5207  0.6920
 1964SOL    HW117351   0.267   4.464   2.292  1.4761  0.6520  0.6397
 1964SOL    HW217352   0.354   4.495   2.175 -0.2591  0.1430 -0.7166
 1965SOL     OW17353   2.698   0.722   7.037 -0.1416 -0.5406  0.0833
 1965SOL    HW117354   2.650   0.733   6.954 -1.0554  0.3290  0.7231
 1965SOL    HW217355   2.770   0.783   7.024 -0.4576  0.1333  1.4939
 1966SOL     OW17356   2.105   4.488   5.041  0.3639 -0.1746  0.0080
 1966SOL    HW117357   2.157   4.468   5.118  1.2702 -1.2446 -0.8977
 1966SOL    HW217358   2.107   4.405   4.993  0.5860 -0.8652  1.2322
 1967SOL     OW17359   0.348   2.275   7.803 -0.0776  0.3897 -0.3363
 1967SOL    HW117360   0.395   2.286   7.721 -2.2068 -0.2508 -1.6422
 1967SOL    HW217361   0.399   2.209   7.850 -0.0642  1.8070  1.6541
 1968SOL     OW17362   0.995   3.241   6.604  0.9338 -0.2535  0.5375
 1968SOL    HW117363   1.037   3.309   6.656 -0.5717 -0.2730  1.7910
 1968SOL    HW217364   1.069   3.187   6.577 -0.0907 -1.9945  1.2072
 1969SOL     OW17365   2.503   3.166   0.951  0.8803 -0.7510  0.1445
 1969SOL    HW117366   2.425   3.204   0.993  1.2307 -1.1309  1.1354
 1969SOL    HW217367   2.518   3.095   1.014 -0.2838 -2.0444 -1.0505
 1970SOL     OW17368   0.418   1.254   4.337  0.2664  0.8001  0.0410
 1970SOL    HW117369   0.423   1.349   4.331  0.2454  0.9624  2.9532
 1970SOL    HW217370   0.463   1.236   4.419  0.2347  2.0691  0.3303
 1971SOL     OW17371   0.227   4.257   3.746 -0.1541  0.2294  0.2010
 1971SOL    HW117372   0.252   4.338   3.791 -0.9006  0.3893  0.3402
 1971SOL    HW217373   0.134   4.272   3.727  0.3397  1.3875 -1.2689
 1972SOL     OW17374   1.854   0.790   1.245  0.8994 -0.2528  0.5676
 1972SOL    HW117375   1.808   0.706   1.241  0.7439 -0.0823 -1.1366
 1972SOL    HW217376   1.897   0.787   1.331 -1.7241 -1.9286  1.8135
 1973SOL     OW17377   3.509   3.141   8.451  0.1240  0.5586 -0.1108
 1973SOL    HW117378   3.488   3.234   8.457  1.7612  1.0385 -1.8310
 1973SOL    HW217379   3.444   3.106   8.511 -0.3954  0.0738 -0.9531
 1974SOL     OW17380   2.232   3.478   7.186 -0.4899 -0.3492 -0.2560
 1974SOL    HW117381   2.191   3.531   7.117 -0.3537 -0.8363 -0.7054
 1974SOL    HW217382   2.213   3.386   7.167  0.1162 -1.1845  3.2612
 1975SOL     OW17383   3.211   3.313   8.862 -0.1632  0.2406 -0.2219
 1975SOL    HW117384   3.251   3.397   8.882  0.1387 -0.0208  0.2717
 1975SOL    HW217385   3.178   3.323   8.773 -0.4006 -0.0658 -0.1705
 1976SOL     OW17386   4.304   3.116   1.794 -0.3405 -0.1329  0.0411
 1976SOL    HW117387   4.381   3.133   1.740 -0.9236  0.8625 -0.4710
 1976SOL    HW217388   4.276   3.039   1.744  1.1011 -0.3437 -0.4242
 1977SOL     OW17389   2.060   1.053   7.170  0.2077  0.0685  0.5461
 1977SOL    HW117390   2.130   1.000   7.208  1.8114  1.3005 -0.7195
 1977SOL    HW217391   2.082   1.043   7.077 -0.2764 -1.9776  0.6491
 1978SOL     OW17392   0.766   1.866   5.528 -0.2224  0.9447 -0.2372
 1978SOL    HW117393   0.861   1.868   5.533 -0.0969  0.5473 -2.3664
 1978SOL    HW217394   0.742   1.860   5.621  2.5436 -1.8580  0.2875
 1979SOL     OW17395   4.004   4.529   2.770  0.5780 -0.1867 -0.2552
 1979SOL    HW117396   4.094   4.534   2.801 -0.4394 -1.1903  2.9427
 1979SOL    HW217397   3.965   4.529   2.858 -1.0264 -0.6629 -0.9594
 1980SOL     OW17398   4.713   3.781   4.237  0.2059 -0.2962 -0.6564
 1980SOL    HW117399   4.679   3.722   4.169 -0.2503 -0.9725  0.1639
 1980SOL    HW217400   0.072   3.750   4.272  0.0546 -0.2998 -0.2979
 1981SOL     OW17401   4.102   0.633   8.049 -0.2315  0.0940 -0.0944
 1981SOL    HW117402   4.091   0.637   8.144 -2.5886 -1.2816 -0.3000
 1981SOL    HW217403   4.067   0.546   8.027  0.5471 -0.8075  2.2205
 1982SOL     OW17404   2.497   2.863   7.398 -0.7225 -0.2754 -0.6210
 1982SOL    HW117405   2.416   2.852   7.446  0.2676  4.0284  2.0320
 1982SOL    HW217406   2.553   2.838   7.471  1.4184  3.2086 -1.0859
 1983SOL     OW17407   0.910   0.162   3.674 -0.2719  0.2181  0.2563
 1983SOL    HW117408   0.844   0.208   3.726 -0.1659 -0.9827  1.4658
 1983SOL    HW217409   0.931   0.093   3.736 -0.2431  0.5845  0.6560
 1984SOL     OW17410   1.716   3.244   2.781 -0.1303  0.4545 -0.1506
 1984SOL    HW117411   1.735   3.183   2.852 -0.3269 -0.0692 -0.5528
 1984SOL    HW217412   1.733   3.330   2.820 -1.1419 -1.7152  5.0267
 1985SOL     OW17413   3.509   4.721   3.318 -0.0245 -0.0233 -0.4468
 1985SOL    HW117414   3.580   4.673   3.360  0.1083  1.0034  0.4725
 1985SOL    HW217415   3.529   0.087   3.338  0.1077  0.2336 -1.7281
 1986SOL     OW17416   0.661   1.243  11.976 -0.5517  0.1843 -0.1578
 1986SOL    HW117417   0.629   1.333  11.976  0.5576  0.5712 -0.1834
 1986SOL    HW217418   0.733   1.258  11.915 -1.1416  0.4767 -0.7821
 1987SOL     OW17419   4.150   0.446   7.524 -0.3780 -0.5258 -0.0252
 1987SOL    HW117420   4.117   0.357   7.531  1.7171 -1.4953 -2.1277
 1987SOL    HW217421   4.240   0.427   7.495  1.0614  0.6005  3.7177
 1988SOL     OW17422   3.986   2.166   7.723 -0.3104  0.2147  0.1655
 1988SOL    HW117423   3.929   2.130   7.792 -0.2815  1.9482  1.1045
 1988SOL    HW217424   4.057   2.103   7.728 -0.8171 -0.1604  2.8435
 1989SOL     OW17425   0.938   4.650   3.805 -0.0631  0.1495  0.3035
 1989SOL    HW117426   0.888   4.681   3.881  0.9528  1.3604  0.4790
 1989SOL    HW217427   1.010   4.610   3.854  0.2275 -0.6688 -0.7944
 1990SOL     OW17428   4.451   0.932   6.408 -0.0603  0.2165 -0.1719
 1990SOL    HW117429   4.523   0.874   6.432 -0.3808  0.1337  0.5859
 1990SOL    HW217430   4.382   0.911   6.471  0.8352 -0.0518  0.7010
 1991SOL     OW17431   3.277   0.129  16.969  0.1782  0.3440  0.0063
 1991SOL    HW117432   3.369   0.154  16.981  0.5519 -1.0210 -0.0010
 1991SOL    HW217433   3.260   0.073  17.045 -1.1382  0.4661 -0.1957
 1992SOL     OW17434   0.947   1.754  17.133 -0.5083 -0.5118  0.5021
 1992SOL    HW117435   0.972   1.752  17.225  1.0176 -3.8247  0.0136
 1992SOL    HW217436   0.923   1.845  17.120 -0.6850 -0.5180  0.7848
 1993SOL     OW17437   0.133   2.025  13.098 -0.5554  0.5312  0.6910
 1993SOL    HW117438   0.210   2.069  13.134  2.1803 -4.2121  0.6092
 1993SOL    HW217439   0.142   2.046  13.005  1.8393 -0.1057  0.7774
 1994SOL     OW17440   2.254   3.627   7.429  0.4072  0.0421  0.3649
 1994SOL    HW117441   2.191   3.698   7.421  1.8608  1.5023  2.0924
 1994SOL    HW217442   2.241   3.587   7.343  2.7286  2.2486 -1.0102
 1995SOL     OW17443   3.095   3.398   0.771  0.6711 -0.2696  0.1336
 1995SOL    HW117444   3.085   3.338   0.697 -2.1043 -0.3969  0.6007
 1995SOL    HW217445   3.080   3.331   0.839 -2.0189 -0.8502 -1.0146
 1996SOL     OW17446   0.870   4.488   1.216  0.5625  0.0124 -0.2594
 1996SOL    HW117447   0.815   4.462   1.142 -0.2034  0.9494 -0.0107
 1996SOL    HW217448   0.936   4.534   1.164 -1.8114  0.8069 -2.5668
 1997SOL     OW17449   0.254   1.490   7.839 -0.1482  0.5841 -0.3184
 1997SOL    HW117450   0.160   1.477   7.829  0.2117 -1.7768 -0.6003
 1997SOL    HW217451   0.287   1.431   7.771 -0.8395  0.4537 -0.5445
 1998SOL     OW17452   3.674   3.127   4.372  0.5749  0.2254 -0.1828
 1998SOL    HW117453   3.634   3.046   4.340 -0.6898  1.0980 -0.8182
 1998SOL    HW217454   3.620   3.191   4.325  0.0849 -0.0583 -0.0094
 1999SOL     OW17455   2.003   3.419  17.345  0.5004  0.0281 -0.2546
 1999SOL    HW117456   2.074   3.356  17.360  1.0674 -0.1868 -3.7899
 1999SOL    HW217457   1.980   3.431  17.437  1.3109 -0.3162 -0.0066
 2000SOL     OW17458   2.769   0.568   0.046 -0.3576  0.0110 -0.5566
 2000SOL    HW117459   2.852   0.524   0.064 -0.4040  0.4483  0.7237
 2000SOL    HW217460   2.765   0.566  17.652  2.7497  0.5883 -0.6868
 2001SOL     OW17461   0.315   0.491   3.498  0.4052 -0.1445  0.1851
 2001SOL    HW117462   0.313   0.473   3.592 -0.8179  1.8228  0.5302
 2001SOL    HW217463   0.222   0.510   3.487  0.6698  1.7750  1.2157
 2002SOL     OW17464   0.995   4.611   5.939 -0.4102  0.8632 -0.1662
 2002SOL    HW117465   1.054   4.614   6.014 -0.8643  1.4631  0.1735
 2002SOL    HW217466   1.054   4.584   5.869  0.6807  3.0240 -0.0866
 2003SOL     OW17467   3.079   3.582   9.581  0.0640 -0.4028  0.0719
 2003SOL    HW117468   3.158   3.580   9.527 -0.2204 -0.0612 -0.3606
 2003SOL    HW217469   3.048   3.663   9.541 -1.2340 -0.4599  0.9938
 2004SOL     OW17470   3.849   4.354   1.504 -0.3682  0.0202 -0.3765
 2004SOL    HW117471   3.917   4.373   1.568  1.0895  3.3228 -2.9003
 2004SOL    HW217472   3.851   4.259   1.512  0.9836  0.1114  0.3451
 2005SOL     OW17473   0.654   3.969   6.084 -0.3048 -0.0871 -0.3747
 2005SOL    HW117474   0.596   3.948   6.158 -1.3924 -0.4526 -1.3197
 2005SOL    HW217475   0.648   3.889   6.032  0.0749 -0.9909  0.9780
 2006SOL     OW17476   1.442   0.790  15.330 -0.3072 -0.0796 -0.5795
 2006SOL    HW117477   1.457   0.830  15.415  1.4435 -1.0610 -0.4394
 2006SOL    HW217478   1.514   0.811  15.271 -0.6523  0.2088 -0.9043
 2007SOL     OW17479   4.066   1.758   4.370 -0.2325  0.4775  0.6228
 2007SOL    HW117480   4.092   1.845   4.340  1.9612 -0.4448 -0.0710
 2007SOL    HW217481   3.975   1.754   4.340 -0.4273 -1.5331  1.5122
 2008SOL     OW17482   0.096   2.514  10.301 -0.2725 -0.7282 -0.0948
 2008SOL    HW117483   0.008   2.482  10.280 -0.6944 -0.0166  0.5873
 2008SOL    HW217484   0.109   2.563  10.219  1.1039 -0.3077  0.3783
 2009SOL     OW17485   3.792   1.974   0.669  0.4461 -0.0009  0.1241
 2009SOL    HW117486   3.871   1.982   0.616  0.3228 -1.3793 -0.2648
 2009SOL    HW217487   3.805   1.893   0.719  1.2485  1.2454  1.9487
 2010SOL     OW17488   1.849   3.801  11.353 -0.0003 -0.0973  0.4295
 2010SOL    HW117489   1.829   3.715  11.390 -1.3752  0.5709  1.2425
 2010SOL    HW217490   1.822   3.785  11.262 -2.1589 -1.2428  1.2913
 2011SOL     OW17491   3.107   1.165   8.748 -0.0783 -0.3520  0.0925
 2011SOL    HW117492   3.067   1.126   8.670  0.4314  1.0127 -0.8652
 2011SOL    HW217493   3.041   1.145   8.814  1.1243  1.5117  1.8477
 2012SOL     OW17494   1.646   4.193   2.292  0.1964  0.7438 -0.7108
 2012SOL    HW117495   1.630   4.106   2.329  1.0997  1.5882  1.6332
 2012SOL    HW217496   1.683   4.173   2.206 -0.6253  0.2772 -0.9640
 2013SOL     OW17497   4.582   2.202   6.747  0.2155 -0.1477  0.4461
 2013SOL    HW117498   4.587   2.297   6.731 -0.1336  0.0425  1.5043
 2013SOL    HW217499   4.653   2.193   6.810 -0.6774 -1.3167  1.2711
 2014SOL     OW17500   1.936   0.162   3.739  0.1057 -0.5497  0.8900
 2014SOL    HW117501   1.894   0.077   3.747 -0.7492 -0.3506 -1.3524
 2014SOL    HW217502   2.027   0.137   3.719  0.1845  0.7776 -0.3971
 2015SOL     OW17503   4.450   1.998   2.931  0.6094 -0.2408 -0.8914
 2015SOL    HW117504   4.467   1.916   2.977  0.1670  0.7710  1.1099
 2015SOL    HW217505   4.365   2.020   2.970  0.7127 -3.3033  1.0632
 2016SOL     OW17506   3.806   2.919   9.858  0.2742  0.2951  0.1418
 2016SOL    HW117507   3.887   2.907   9.908 -0.2387 -2.1679  0.4205
 2016SOL    HW217508   3.734   2.914   9.922 -1.2768  2.4313 -1.4282
 2017SOL     OW17509   4.349   3.391   4.578  0.2974  0.1284 -0.6652
 2017SOL    HW117510   4.366   3.341   4.658  1.0596  0.7788 -0.4162
 2017SOL    HW217511   4.383   3.346   4.501  0.8190 -0.2717 -0.1997
 2018SOL     OW17512   3.256   3.283   5.165 -0.2356  0.0393 -0.1668
 2018SOL    HW117513   3.191   3.220   5.134  2.0788 -1.1192 -2.7286
 2018SOL    HW217514   3.282   3.326   5.084  2.1222 -0.8656  0.0925
 2019SOL     OW17515   3.277   0.160  16.357  0.3714  0.0009  0.2116
 2019SOL    HW117516   3.367   0.142  16.382 -0.2894 -2.7546  0.5487
 2019SOL    HW217517   3.283   0.166  16.261  1.4902  0.7763  0.3295
 2020SOL     OW17518   3.775   3.472   9.034 -0.0484 -0.2003 -0.0424
 2020SOL    HW117519   3.862   3.432   9.035 -0.6011 -1.5130 -2.3051
 2020SOL    HW217520   3.743   3.433   8.952 -0.4723 -0.9054  0.4564
 2021SOL     OW17521   1.856   3.322   5.303 -0.1945  0.1161 -0.0158
 2021SOL    HW117522   1.894   3.309   5.389 -0.3916 -0.1143  0.0365
 2021SOL    HW217523   1.820   3.409   5.319 -0.7556 -0.0323 -0.4504
 2022SOL     OW17524   3.013   1.378   7.210 -0.0828 -0.3729  0.1692
 2022SOL    HW117525   2.958   1.393   7.134  1.0778  0.3932 -0.5122
 2022SOL    HW217526   3.076   1.316   7.174  0.3331  1.1361 -1.6803
 2023SOL     OW17527   4.198   0.561   6.382  0.0706  0.4737  0.4075
 2023SOL    HW117528   4.212   0.483   6.329  1.8334  0.5871  0.6865
 2023SOL    HW217529   4.234   0.534   6.467 -2.8975 -0.0474  1.4968
 2024SOL     OW17530   0.783   2.634   3.601 -0.5515  0.0926  0.3182
 2024SOL    HW117531   0.793   2.714   3.551  0.1623  0.3167  0.8190
 2024SOL    HW217532   0.698   2.601   3.573 -1.5248  0.7607  2.4284
 2025SOL     OW17533   2.884   2.260  12.309  0.8254  0.1570  0.0299
 2025SOL    HW117534   2.929   2.176  12.313  1.8837  0.6729 -1.0365
 2025SOL    HW217535   2.843   2.268  12.395  1.0038  2.4469 -0.0890
 2026SOL     OW17536   0.451   1.544   4.863 -0.0491 -0.3809 -0.1091
 2026SOL    HW117537   0.502   1.463   4.853 -0.5384 -0.5653 -1.1664
 2026SOL    HW217538   0.421   1.532   4.953 -0.5326 -0.5487 -0.2934
 2027SOL     OW17539   4.038   3.307   5.043 -0.3024 -0.2680 -0.3639
 2027SOL    HW117540   4.047   3.398   5.071 -0.5736 -0.2089 -0.4688
 2027SOL    HW217541   4.032   3.255   5.123  0.5964 -0.1769 -0.2322
 2028SOL     OW17542   3.846   2.008  10.834  0.4600 -0.4118  0.3177
 2028SOL    HW117543   3.814   2.030  10.921 -1.3579 -0.4666 -0.3418
 2028SOL    HW217544   3.812   1.920  10.817 -0.8164  0.1999 -0.2609
 2029SOL     OW17545   1.053   3.363   5.535 -0.4502 -0.5335  0.0750
 2029SOL    HW117546   1.050   3.313   5.617 -0.2604 -0.6769 -0.0030
 2029SOL    HW217547   0.963   3.392   5.528  0.4725  2.3844  0.2793
 2030SOL     OW17548   1.953   2.258  13.840 -0.0200  0.0890 -0.0391
 2030SOL    HW117549   1.945   2.303  13.924  0.9059  0.4471 -0.1532
 2030SOL    HW217550   1.934   2.168  13.867 -1.5952  1.5852  3.7886
 2031SOL     OW17551   2.317   0.706  16.091  0.3333 -0.1184 -0.1760
 2031SOL    HW117552   2.226   0.684  16.072  0.5510 -1.6876  0.5720
 2031SOL    HW217553   2.302   0.785  16.143  3.1806  0.6078 -0.4624
 2032SOL     OW17554   2.310   1.178  13.718 -0.1328 -0.4029  0.0517
 2032SOL    HW117555   2.242   1.195  13.652  0.1152  2.7056  0.5953
 2032SOL    HW217556   2.365   1.255  13.700 -1.8951  1.0555  0.9035
 2033SOL     OW17557   3.778   2.503   6.370 -0.3027  0.4459  0.0474
 2033SOL    HW117558   3.826   2.541   6.443 -0.3353 -0.2794  0.4425
 2033SOL    HW217559   3.778   2.410   6.395  0.3404  0.1945 -0.8849
 2034SOL     OW17560   0.046   3.938   5.533  0.2463  0.6262 -0.0751
 2034SOL    HW117561   0.098   3.866   5.568  2.4774  1.2136 -2.1273
 2034SOL    HW217562   0.054   3.921   5.439  0.7313 -0.6306  0.1931
 2035SOL     OW17563   4.280   4.115  10.536 -0.4139 -0.3879  0.5198
 2035SOL    HW117564   4.327   4.150  10.611 -0.7372 -1.2193  1.1025
 2035SOL    HW217565   4.209   4.180  10.530 -0.6254 -0.8664 -2.3230
 2036SOL     OW17566   1.105   1.606  13.001  0.9391 -0.4670  0.2555
 2036SOL    HW117567   1.119   1.671  12.933  0.0763  0.7409  1.2330
 2036SOL    HW217568   1.046   1.548  12.953 -1.2528  2.5830 -0.6986
 2037SOL     OW17569   2.942   2.644   7.818  0.2909  0.1160 -0.1398
 2037SOL    HW117570   3.022   2.662   7.768  0.2715 -0.6520 -0.4403
 2037SOL    HW217571   2.881   2.692   7.762 -0.7447  0.8286  1.6040
 2038SOL     OW17572   1.460   4.236   4.710 -0.1036 -0.7854 -0.0300
 2038SOL    HW117573   1.448   4.325   4.677 -0.6322 -1.2789 -1.1362
 2038SOL    HW217574   1.495   4.259   4.796  0.6697  1.8171 -1.0403
 2039SOL     OW17575   3.271   2.342  15.736  0.4906 -0.3790 -0.5825
 2039SOL    HW117576   3.268   2.368  15.644 -0.8906 -0.5052 -0.5721
 2039SOL    HW217577   3.365   2.354  15.751  0.5798 -1.2193 -0.4317
 2040SOL     OW17578   2.597   3.860  13.445 -0.2605 -0.0469 -0.0534
 2040SOL    HW117579   2.587   3.860  13.540  0.2756 -1.3872  0.0039
 2040SOL    HW217580   2.594   3.954  13.430  0.1525  0.3013  2.0788
 2041SOL     OW17581   1.870   1.630  12.175  0.0383  0.3201  0.2029
 2041SOL    HW117582   1.890   1.549  12.128 -1.3599 -0.8489  1.6182
 2041SOL    HW217583   1.815   1.678  12.113 -1.6336 -1.4038  0.3409
 2042SOL     OW17584   1.638   1.344  13.681 -0.1788  0.1995  0.6013
 2042SOL    HW117585   1.663   1.419  13.627  0.3404 -0.1532  0.3575
 2042SOL    HW217586   1.570   1.302  13.629 -0.6633 -0.1901  1.5430
 2043SOL     OW17587   0.844   3.483   8.393 -0.2579  0.2984  0.6067
 2043SOL    HW117588   0.893   3.519   8.467 -2.0431  0.4907  1.6856
 2043SOL    HW217589   0.832   3.559   8.337  0.4869  1.1380  1.5909
 2044SOL     OW17590   3.550   0.270  12.307 -0.0705 -0.1886  0.4298
 2044SOL    HW117591   3.506   0.218  12.373 -0.2421  0.5674  0.9125
 2044SOL    HW217592   3.620   0.212  12.277  0.7364 -0.4020  2.7787
 2045SOL     OW17593   1.598   1.040   3.244 -0.4684  0.1053  0.4650
 2045SOL    HW117594   1.565   1.031   3.333 -1.7986 -1.6678 -0.2001
 2045SOL    HW217595   1.580   0.949   3.220  0.3958 -0.2734  1.2362
 2046SOL     OW17596   4.385   0.571   4.564 -0.0071 -0.1325 -0.2355
 2046SOL    HW117597   4.325   0.606   4.498  1.1650 -0.2183 -1.3673
 2046SOL    HW217598   4.344   0.503   4.617  0.1212 -0.8147 -1.0039
 2047SOL     OW17599   1.432   0.901  15.565 -0.0297  0.2861  0.0467
 2047SOL    HW117600   1.431   0.995  15.580  1.1576  0.2988  0.0323
 2047SOL    HW217601   1.341   0.873  15.572  0.3223 -1.2823 -1.6821
 2048SOL     OW17602   2.082   1.679   8.069  0.4190  0.8689  0.3640
 2048SOL    HW117603   2.177   1.680   8.079  0.5746  0.3486 -0.9336
 2048SOL    HW217604   2.056   1.592   8.100 -0.8168  1.6404  1.5059
 2049SOL     OW17605   3.045   0.328   3.104 -0.1282  0.5801 -0.3724
 2049SOL    HW117606   2.970   0.332   3.044  0.7335  0.1479 -1.4811
 2049SOL    HW217607   2.994   0.362   3.178  0.9407 -1.1888  1.1772
 2050SOL     OW17608   2.950   2.790  11.048  0.2895  0.0191 -0.5600
 2050SOL    HW117609   2.908   2.705  11.036  0.6448 -0.2869  0.4198
 2050SOL    HW217610   3.035   2.759  11.077  0.2966  1.1289  0.6099
 2051SOL     OW17611   1.227   1.156   2.707 -0.1148 -0.3589 -0.2830
 2051SOL    HW117612   1.180   1.226   2.663  1.1906  0.4077 -0.4566
 2051SOL    HW217613   1.168   1.139   2.781 -1.5489 -1.3719 -1.6668
 2052SOL     OW17614   3.886   1.297  10.272  0.4846  0.4727 -0.8041
 2052SOL    HW117615   3.845   1.211  10.287  0.1795  0.4049 -2.0601
 2052SOL    HW217616   3.802   1.336  10.246  1.2189  1.5521 -1.5504
 2053SOL     OW17617   4.497   3.334  14.077 -0.1820 -0.2763  0.3609
 2053SOL    HW117618   4.523   3.398  14.011 -0.9157 -1.9811 -1.5895
 2053SOL    HW217619   4.419   3.372  14.116 -0.2290  0.2295 -0.2388
 2054SOL     OW17620   2.584   3.564  17.644  0.1269 -0.6127  0.2095
 2054SOL    HW117621   2.502   3.600  17.611 -0.6335 -2.7873 -0.2989
 2054SOL    HW217622   2.560   3.492   0.001 -0.5082 -1.4866 -1.1037
 2055SOL     OW17623   1.502   0.669   5.035 -0.2035  0.5572 -0.0264
 2055SOL    HW117624   1.566   0.635   5.098  1.1699 -0.2504 -1.8565
 2055SOL    HW217625   1.449   0.718   5.099  0.7880  1.0312  0.4281
 2056SOL     OW17626   0.785   1.410   3.101  0.2155 -0.1433  0.4735
 2056SOL    HW117627   0.782   1.388   3.194  1.3777  0.4815  0.6571
 2056SOL    HW217628   0.864   1.363   3.077  0.4705  1.1442 -1.1891
 2057SOL     OW17629   1.175   3.077   6.480 -0.6951 -0.5009  0.1581
 2057SOL    HW117630   1.216   3.003   6.524 -1.4312 -1.2389 -0.4004
 2057SOL    HW217631   1.140   3.030   6.404 -0.6023 -2.5319  1.3611
 2058SOL     OW17632   2.479   2.979  16.428  0.5360  0.0333  0.3151
 2058SOL    HW117633   2.419   2.957  16.500  0.9219  1.9921  1.2236
 2058SOL    HW217634   2.521   3.061  16.455  1.8152  0.0305 -1.6741
 2059SOL     OW17635   3.805   3.457  13.759  0.6009 -0.0947  0.0704
 2059SOL    HW117636   3.762   3.379  13.723  2.9569 -1.7517  0.9006
 2059SOL    HW217637   3.880   3.417  13.802  1.2143  0.2395 -0.6871
 2060SOL     OW17638   1.000   4.020   3.464 -0.2963 -0.6545 -0.3152
 2060SOL    HW117639   1.052   3.992   3.538 -0.1746  0.5262  0.0527
 2060SOL    HW217640   1.006   4.116   3.468 -0.1420 -0.5374 -3.3475
 2061SOL     OW17641   4.632   4.370   5.675 -0.9194  0.0921  0.5568
 2061SOL    HW117642   4.576   4.416   5.613  1.3016  0.0918 -1.4187
 2061SOL    HW217643   4.713   4.420   5.677 -0.7882 -0.1210  0.5775
 2062SOL     OW17644   0.236   3.489   5.811 -0.0582  0.1339  0.1711
 2062SOL    HW117645   0.295   3.424   5.773 -1.7968 -0.5584 -1.3120
 2062SOL    HW217646   0.255   3.495   5.905  4.0598  0.6861 -0.6769
 2063SOL     OW17647   1.243   0.006  11.446 -1.4796  0.1973  0.4619
 2063SOL    HW117648   1.240   0.068  11.373 -0.3013  0.6109  0.7712
 2063SOL    HW217649   1.244   4.648  11.398 -0.1138 -0.4045  1.5400
 2064SOL     OW17650   3.424   0.677  13.531 -0.4198  0.1151  0.2422
 2064SOL    HW117651   3.346   0.732  13.537 -0.4797  0.0988 -0.3232
 2064SOL    HW217652   3.416   0.615  13.603  0.9610  0.7562  0.9503
 2065SOL     OW17653   1.632   3.210   2.525  0.7147  0.4914 -0.1491
 2065SOL    HW117654   1.555   3.266   2.533 -0.3017 -0.7860 -0.9876
 2065SOL    HW217655   1.678   3.220   2.608 -0.5289  1.7005  0.3892
 2066SOL     OW17656   2.736   3.173   2.406 -0.4001 -0.7016  0.2705
 2066SOL    HW117657   2.682   3.250   2.386  0.1528 -0.5182 -0.5356
 2066SOL    HW217658   2.823   3.201   2.377 -0.6268 -0.4116 -0.1311
 2067SOL     OW17659   0.076   0.295  17.090 -0.4245 -0.1175  0.6005
 2067SOL    HW117660   0.053   0.213  17.133 -1.5481  0.5719  1.2930
 2067SOL    HW217661   0.133   0.337  17.155 -0.6865 -0.1718  0.8631
 2068SOL     OW17662   2.183   0.185   6.848 -0.1609  0.2326  0.1955
 2068SOL    HW117663   2.239   0.254   6.814  0.7817 -1.3832 -1.5112
 2068SOL    HW217664   2.103   0.231   6.871 -0.8877 -1.5434  1.2337
 2069SOL     OW17665   4.718   4.225  14.898 -0.0081 -0.0907  0.2760
 2069SOL    HW117666   0.084   4.207  14.874  0.6039  2.2800  0.8769
 2069SOL    HW217667   4.681   4.224  14.810 -0.8496 -1.9316  0.6490
 2070SOL     OW17668   3.279   3.685  10.743 -0.1794 -0.0117 -0.3363
 2070SOL    HW117669   3.256   3.657  10.654 -0.7097  0.0437 -0.2174
 2070SOL    HW217670   3.365   3.645  10.752 -0.8750 -1.6052 -0.7199
 2071SOL     OW17671   4.006   1.770   6.621 -0.2050 -0.5746  0.0106
 2071SOL    HW117672   3.967   1.781   6.707 -1.2555  3.0807 -0.9322
 2071SOL    HW217673   3.952   1.700   6.584  0.7842  0.2847 -3.0808
 2072SOL     OW17674   2.077   4.685   6.716 -0.2878  0.4345  0.0444
 2072SOL    HW117675   2.141   0.012   6.765 -1.8270 -1.3740  3.9222
 2072SOL    HW217676   2.072   0.021   6.641 -1.0678 -0.7626 -0.8765
 2073SOL     OW17677   0.684   2.248   3.253  0.1021  0.3404  0.0809
 2073SOL    HW117678   0.698   2.209   3.167  0.9675  1.5217 -0.3257
 2073SOL    HW217679   0.772   2.281   3.273 -0.2632  2.1079 -1.1579
 2074SOL     OW17680   2.487   0.895  16.493 -0.6550  0.3993  0.3849
 2074SOL    HW117681   2.406   0.938  16.522 -2.4396 -2.1077 -0.8807
 2074SOL    HW217682   2.480   0.815  16.544 -0.2694  0.6486  0.8243
 2075SOL     OW17683   1.066   2.069  12.470 -0.4752  0.8772 -0.1541
 2075SOL    HW117684   1.133   2.033  12.411  1.0233  0.4041  1.8433
 2075SOL    HW217685   1.009   2.111  12.406 -2.8415 -1.2086  0.6165
 2076SOL     OW17686   2.416   4.311   7.296 -0.4446  0.3330  0.7324
 2076SOL    HW117687   2.396   4.287   7.206 -1.6001  0.7136  0.8786
 2076SOL    HW217688   2.440   4.404   7.289 -0.9076  0.4548  0.7556
 2077SOL     OW17689   0.538   0.577   5.559 -0.2656  0.1710  0.1492
 2077SOL    HW117690   0.447   0.550   5.549  0.4716 -2.3390  0.3779
 2077SOL    HW217691   0.541   0.578   5.655  2.8840  2.0151  0.0279
 2078SOL     OW17692   3.409   0.358   0.911  0.7061 -0.2944  0.0728
 2078SOL    HW117693   3.390   0.431   0.852 -0.2892 -0.0621  0.6872
 2078SOL    HW217694   3.323   0.354   0.953 -0.1595 -1.6682 -1.8775
 2079SOL     OW17695   4.203   1.108  11.829  0.9130  0.0157  0.3472
 2079SOL    HW117696   4.138   1.127  11.762  0.0399  0.8815  1.4375
 2079SOL    HW217697   4.276   1.131  11.772  1.1108  0.2188  0.6810
 2080SOL     OW17698   0.516   2.881   8.897 -0.2599 -0.7307 -0.6840
 2080SOL    HW117699   0.497   2.834   8.978  0.6544  0.6586  0.3267
 2080SOL    HW217700   0.428   2.908   8.870 -1.0663 -1.4586  1.1890
 2081SOL     OW17701   3.358   0.745   2.639 -0.4556 -0.2458  0.1225
 2081SOL    HW117702   3.377   0.680   2.708  0.4137 -0.3617 -0.2266
 2081SOL    HW217703   3.345   0.687   2.564  0.5255  0.0892 -0.3028
 2082SOL     OW17704   0.361   3.630  17.056  0.2738 -0.2914 -0.0143
 2082SOL    HW117705   0.274   3.669  17.050  0.6892  0.3728 -1.7481
 2082SOL    HW217706   0.408   3.684  16.992  0.3076  0.9373  1.0473
 2083SOL     OW17707   4.595   2.340   5.288  0.1956  0.2713 -0.2525
 2083SOL    HW117708   4.516   2.287   5.301  0.1367  0.6711  1.0160
 2083SOL    HW217709   4.665   2.277   5.270 -1.3363 -1.0233 -1.6028
 2084SOL     OW17710   4.719   3.385   2.409  0.2015  0.3345  0.1301
 2084SOL    HW117711   0.004   3.413   2.318 -1.9046  1.6529  0.3013
 2084SOL    HW217712   4.663   3.454   2.445  0.6815  0.8735 -0.1678
 2085SOL     OW17713   1.033   0.079   8.364  0.7124 -0.0772 -0.0593
 2085SOL    HW117714   1.088   0.118   8.296  3.1043  1.3692  2.7018
 2085SOL    HW217715   0.965   0.045   8.306  1.5467 -1.9147  0.0392
 2086SOL     OW17716   2.787   0.449   3.043  0.3902 -0.0734  0.5735
 2086SOL    HW117717   2.739   0.375   3.006 -1.2634  1.1754  0.1861
 2086SOL    HW217718   2.722   0.485   3.104 -1.6116 -1.5908 -0.6562
 2087SOL     OW17719   0.701   2.140  10.023 -0.1864  0.0087 -0.3971
 2087SOL    HW117720   0.792   2.159  10.046 -0.3907 -0.6251  0.9079
 2087SOL    HW217721   0.717   2.047  10.005  0.3830  0.2376 -1.0840
 2088SOL     OW17722   0.544   2.036   6.837  0.1189 -0.7067  0.9156
 2088SOL    HW117723   0.502   2.018   6.921  1.8966  0.7007  2.1099
 2088SOL    HW217724   0.635   2.047   6.863  0.9341  1.7865 -3.0091
 2089SOL     OW17725   4.607   1.783   0.264  0.1522 -0.2910  0.3704
 2089SOL    HW117726   4.684   1.815   0.311 -1.0729  0.2714  1.9809
 2089SOL    HW217727   4.613   1.840   0.188  1.7252  1.5095  1.8464
 2090SOL     OW17728   1.037   4.206  17.021  0.5342  0.1953 -0.4307
 2090SOL    HW117729   1.037   4.301  17.025  1.1202  0.2397 -1.4433
 2090SOL    HW217730   1.091   4.173  17.093 -2.0030  0.7165  1.7395
 2091SOL     OW17731   2.873   2.338  17.437 -0.0393  0.4680  0.4200
 2091SOL    HW117732   2.961   2.318  17.404 -0.2943 -0.0261  0.0291
 2091SOL    HW217733   2.877   2.433  17.435 -1.4146  0.4839 -1.1802
 2092SOL     OW17734   1.250   4.085   2.660 -0.1064  0.2781  0.3042
 2092SOL    HW117735   1.326   4.121   2.614 -0.9634 -2.4539 -3.2464
 2092SOL    HW217736   1.295   4.052   2.739  0.2017 -0.8514 -0.3351
 2093SOL     OW17737   4.107   0.153   0.968 -0.3282  0.2438 -0.1884
 2093SOL    HW117738   4.051   0.195   1.033  1.0115  0.5941  0.7576
 2093SOL    HW217739   4.181   0.131   1.024  0.6515 -0.6223 -1.8053
 2094SOL     OW17740   3.998   0.129   8.612  0.2248 -0.2352 -0.0391
 2094SOL    HW117741   4.052   0.081   8.549 -3.4771 -0.0366 -3.3397
 2094SOL    HW217742   3.928   0.064   8.628  1.3924 -1.1916  1.2446
 2095SOL     OW17743   3.905   1.583   6.468  0.5495  0.0818 -0.4080
 2095SOL    HW117744   3.839   1.543   6.411  1.8148 -0.0013 -1.8056
 2095SOL    HW217745   3.963   1.613   6.399 -1.4534  1.2089 -1.6148
 2096SOL     OW17746   3.213   4.307  15.027  0.1630  0.0886  0.3210
 2096SOL    HW117747   3.182   4.217  15.040 -2.8559  1.2301  1.1757
 2096SOL    HW217748   3.127   4.344  15.005 -0.1385 -0.0333  1.3199
 2097SOL     OW17749   3.946   2.963   8.462  0.3330  0.0966 -0.2773
 2097SOL    HW117750   3.878   2.974   8.528  1.5753 -0.2274  1.0569
 2097SOL    HW217751   3.891   2.987   8.387 -0.0035  0.8415  0.2029
 2098SOL     OW17752   3.251   0.856   3.551  0.1514 -0.1704 -0.1403
 2098SOL    HW117753   3.331   0.811   3.525  0.9121  0.5166  1.0410
 2098SOL    HW217754   3.286   0.906   3.625  0.7080 -2.4469  1.1151
 2099SOL     OW17755   0.601   2.374  15.430 -0.9624 -0.1496 -0.2314
 2099SOL    HW117756   0.590   2.280  15.441 -0.6141 -0.1877 -0.2073
 2099SOL    HW217757   0.571   2.407  15.515  2.0049  0.0818  0.7140
 2100SOL     OW17758   1.397   1.113   6.826  0.3966 -0.4364 -0.0779
 2100SOL    HW117759   1.410   1.023   6.796 -1.2472 -0.3111 -1.1981
 2100SOL    HW217760   1.311   1.108   6.869  0.3109 -2.1332 -0.4658
 2101SOL     OW17761   2.408   3.957   2.386 -0.0282 -0.1103 -0.3718
 2101SOL    HW117762   2.484   3.902   2.401 -0.4673 -0.6880 -0.2649
 2101SOL    HW217763   2.372   3.918   2.305  1.1535 -0.1720 -0.8638
 2102SOL     OW17764   2.422   0.432   0.151  0.2277  0.1073  0.6981
 2102SOL    HW117765   2.328   0.417   0.166  0.1567 -0.1322  0.0568
 2102SOL    HW217766   2.442   0.521   0.180  0.4945  0.6964 -1.2557
 2103SOL     OW17767   2.462   3.485   5.679  0.5392 -0.0717 -0.2721
 2103SOL    HW117768   2.511   3.416   5.633  0.9776 -1.1917  1.8732
 2103SOL    HW217769   2.448   3.458   5.770 -2.4455 -1.2222 -1.0784
 2104SOL     OW17770   1.447   1.243   3.666 -0.0192  0.0346  0.4536
 2104SOL    HW117771   1.466   1.259   3.573  0.5890 -0.0544  0.5613
 2104SOL    HW217772   1.355   1.268   3.659 -0.0080  0.0629  0.4065
 2105SOL     OW17773   4.185   2.885   1.726  0.4987  0.4742 -0.0168
 2105SOL    HW117774   4.104   2.836   1.736  1.0715 -0.2679  0.9440
 2105SOL    HW217775   4.248   2.826   1.767  0.9532  0.9953  0.0349
 2106SOL     OW17776   2.557   2.468  13.153 -0.4246 -0.7152  0.2451
 2106SOL    HW117777   2.570   2.481  13.059 -0.2059  0.2168  0.3983
 2106SOL    HW217778   2.465   2.489  13.167 -0.8816 -0.8562 -2.6691
 2107SOL     OW17779   2.789   2.725  10.387  0.2679  0.3919 -0.8158
 2107SOL    HW117780   2.731   2.712  10.461  1.2226 -0.8947 -0.2923
 2107SOL    HW217781   2.775   2.646  10.335 -0.2976  0.5177 -0.8501
 2108SOL     OW17782   3.936   2.580   6.890  0.2468 -0.1797 -0.3362
 2108SOL    HW117783   3.842   2.599   6.887  0.3864  0.4020 -0.9711
 2108SOL    HW217784   3.958   2.524   6.816  1.6049 -2.7084  1.9936
 2109SOL     OW17785   4.673   1.027   9.455  0.6006 -0.6340  0.1659
 2109SOL    HW117786   4.722   1.015   9.374  0.8699 -0.3275  0.2805
 2109SOL    HW217787   4.649   0.935   9.463 -1.1299 -0.2218 -0.2694
 2110SOL     OW17788   3.132   0.243  15.660 -0.2189 -0.0332  0.7805
 2110SOL    HW117789   3.092   0.165  15.621 -1.8477  0.3350  1.7323
 2110SOL    HW217790   3.223   0.218  15.675 -0.2188 -0.0134  0.8146
 2111SOL     OW17791   1.773   3.545   3.961 -0.9199 -0.0224  0.6849
 2111SOL    HW117792   1.858   3.550   3.917 -1.0617  0.0617  0.4217
 2111SOL    HW217793   1.721   3.608   3.911  0.0114  0.6807  0.6055
 2112SOL     OW17794   0.701   4.415  10.622 -0.8594  0.0628 -0.3457
 2112SOL    HW117795   0.773   4.447  10.676 -0.4142 -0.1213 -0.8382
 2112SOL    HW217796   0.673   4.334  10.666 -2.0574  1.6635  1.8858
 2113SOL     OW17797   3.235   4.290   1.209  0.1258 -0.3192  0.2365
 2113SOL    HW117798   3.234   4.210   1.260 -1.8250  0.0408  0.7910
 2113SOL    HW217799   3.270   4.249   1.131 -0.2923 -0.9889  0.4010
 2114SOL     OW17800   0.700   1.012   6.996 -0.0951  0.3758  0.1356
 2114SOL    HW117801   0.732   1.043   6.912  0.9600  1.6359  1.0022
 2114SOL    HW217802   0.642   1.087   7.005 -2.7288 -1.6539  0.0595
 2115SOL     OW17803   4.211   4.242   5.561 -0.2956  0.1184  0.5566
 2115SOL    HW117804   4.199   4.337   5.565  2.1425  0.4944 -0.7581
 2115SOL    HW217805   4.280   4.230   5.626  0.2800 -1.3395 -0.3200
 2116SOL     OW17806   2.580   3.773  11.263  0.1783 -0.3528 -0.0040
 2116SOL    HW117807   2.595   3.706  11.196  0.8384 -1.1567  0.9609
 2116SOL    HW217808   2.549   3.730  11.343  1.1235  1.9263  1.5736
 2117SOL     OW17809   4.235   1.654   1.497 -0.8809  0.1738 -0.0177
 2117SOL    HW117810   4.156   1.613   1.532  0.6061 -2.0483  0.7315
 2117SOL    HW217811   4.305   1.609   1.545 -0.3878 -1.8752 -2.6957
 2118SOL     OW17812   2.332   1.592  10.508 -0.2065  0.5932  0.1385
 2118SOL    HW117813   2.422   1.563  10.494  0.2576  2.9670 -1.6912
 2118SOL    HW217814   2.334   1.670  10.453  0.6717 -0.8146 -1.8672
 2119SOL     OW17815   3.471   3.584   9.105 -0.1840 -0.4630  0.3437
 2119SOL    HW117816   3.542   3.606   9.044  0.5234  0.3443  1.4586
 2119SOL    HW217817   3.510   3.561   9.189 -0.2459 -1.3402  0.1291
 2120SOL     OW17818   4.438   3.649   4.520  0.1223  0.5679 -0.5583
 2120SOL    HW117819   4.408   3.569   4.563 -0.0920  0.2297 -1.3415
 2120SOL    HW217820   4.451   3.602   4.438  3.9199 -2.2704  1.6472
 2121SOL     OW17821   1.407   0.071   2.571 -0.8368 -0.2095  0.7579
 2121SOL    HW117822   1.474   0.134   2.597 -0.3084 -0.7900  0.7907
 2121SOL    HW217823   1.361   0.116   2.500 -0.1973  1.1149  1.1826
 2122SOL     OW17824   1.859   3.767   4.855 -0.4294 -0.3383 -0.1283
 2122SOL    HW117825   1.829   3.857   4.863 -0.4936 -0.2770 -1.0050
 2122SOL    HW217826   1.896   3.770   4.767  1.7740 -4.1095  0.6772
 2123SOL     OW17827   4.158   3.244  11.637 -0.4414 -0.2801 -0.1276
 2123SOL    HW117828   4.087   3.207  11.689 -0.0199 -1.1907 -0.2112
 2123SOL    HW217829   4.211   3.294  11.699  1.2000 -0.6737 -1.2150
 2124SOL     OW17830   2.365   3.784   8.597 -0.0198 -0.2336  0.3634
 2124SOL    HW117831   2.390   3.697   8.568  0.4552  0.5004 -1.3977
 2124SOL    HW217832   2.440   3.810   8.650 -0.1503  1.5846 -0.3300
 2125SOL     OW17833   2.162   2.048   4.210  0.5220 -0.3657 -0.1690
 2125SOL    HW117834   2.244   2.059   4.257  1.8242  1.3601 -2.8176
 2125SOL    HW217835   2.170   2.133   4.167  0.5615 -0.2349  0.0995
 2126SOL     OW17836   1.712   3.152   2.249 -0.4139  0.0435  0.0821
 2126SOL    HW117837   1.668   3.175   2.331  1.7137  0.1349  1.2053
 2126SOL    HW217838   1.760   3.233   2.231  0.1481 -0.3822 -0.3320
 2127SOL     OW17839   3.658   3.969   4.522  0.1047 -0.0740  0.4213
 2127SOL    HW117840   3.608   4.036   4.476 -0.6559  0.8185  2.5438
 2127SOL    HW217841   3.742   3.992   4.481 -0.0700  1.3217  0.8553
 2128SOL     OW17842   0.876   4.059  10.980  0.0680 -0.1283 -0.4371
 2128SOL    HW117843   0.859   3.966  10.992 -1.2406  0.3249  1.1645
 2128SOL    HW217844   0.883   4.067  10.885  0.2247  1.6336 -0.2723
 2129SOL     OW17845   2.190   0.585   7.194 -0.3426  0.1239 -0.0651
 2129SOL    HW117846   2.262   0.630   7.238  0.6764 -0.4403 -1.1503
 2129SOL    HW217847   2.165   0.526   7.266 -1.3922 -2.9402 -2.9513
 2130SOL     OW17848   4.154   4.543   2.118 -0.2102  0.7249 -0.3237
 2130SOL    HW117849   4.154   4.630   2.078 -1.7366  0.9177  0.0737
 2130SOL    HW217850   4.229   4.541   2.177  1.2911 -1.9794 -2.3400
 2131SOL     OW17851   4.406   3.982   9.231 -0.0331 -0.2315  0.3863
 2131SOL    HW117852   4.430   4.040   9.304 -0.9016  0.1498  0.3753
 2131SOL    HW217853   4.465   4.005   9.160  0.2893 -3.5653 -0.4237
 2132SOL     OW17854   2.306   0.783  10.427 -0.0044 -0.0478  0.2186
 2132SOL    HW117855   2.297   0.816  10.516 -0.1634  1.2312 -0.2779
 2132SOL    HW217856   2.222   0.807  10.388 -0.0710  1.1241  1.0979
 2133SOL     OW17857   3.375   1.478   2.737 -0.4752 -0.2796  0.2798
 2133SOL    HW117858   3.469   1.481   2.755 -0.1547  3.2997 -2.2641
 2133SOL    HW217859   3.367   1.401   2.681  0.8752  0.8036 -1.3683
 2134SOL     OW17860   0.759   0.301   5.215 -0.3531  0.6214 -0.2379
 2134SOL    HW117861   0.760   0.396   5.223 -1.2766  0.4174  2.2432
 2134SOL    HW217862   0.720   0.267   5.295  0.8199 -1.7025 -0.6300
 2135SOL     OW17863   4.033   2.536   2.771  0.2428 -0.3788 -0.3019
 2135SOL    HW117864   4.093   2.607   2.747 -0.8100  0.1927 -1.2458
 2135SOL    HW217865   4.097   2.466   2.785 -0.8701 -1.4070 -0.3016
 2136SOL     OW17866   3.240   3.547   2.424  0.1092  0.2504 -0.3732
 2136SOL    HW117867   3.308   3.611   2.444 -0.2373 -0.5475  3.5355
 2136SOL    HW217868   3.281   3.476   2.475  0.2707  1.1433  0.7360
 2137SOL     OW17869   3.776   3.393   7.553  0.1652 -0.4193 -0.2404
 2137SOL    HW117870   3.807   3.303   7.539  0.0457 -0.6975  1.2986
 2137SOL    HW217871   3.857   3.434   7.585  1.2310 -1.8940 -0.9950
 2138SOL     OW17872   0.850   0.546   0.296  1.0138 -0.3954  0.3112
 2138SOL    HW117873   0.860   0.502   0.380 -2.4179 -0.6276  0.5990
 2138SOL    HW217874   0.888   0.479   0.239  0.7654  0.0538 -0.3830
 2139SOL     OW17875   3.198   3.563   0.551  0.5142 -0.0962 -0.1460
 2139SOL    HW117876   3.186   3.514   0.632  0.2354  0.2967  0.0470
 2139SOL    HW217877   3.108   3.549   0.522  1.3452  1.0525 -3.3478
 2140SOL     OW17878   4.206   1.367   4.018 -0.1022 -0.0538 -0.2305
 2140SOL    HW117879   4.246   1.282   4.038  0.1859  0.3417  0.8316
 2140SOL    HW217880   4.234   1.426   4.087  0.4171  0.1580 -0.6166
 2141SOL     OW17881   2.939   2.455   1.910  0.1878 -0.1390  0.1934
 2141SOL    HW117882   2.858   2.477   1.865 -0.1768 -2.8955 -0.5517
 2141SOL    HW217883   2.997   2.431   1.838 -1.2607  0.7854 -1.2699
 2142SOL     OW17884   4.276   4.587  15.140  0.0340  0.2040 -0.2501
 2142SOL    HW117885   4.215   4.660  15.135  0.4050  0.7267  3.1820
 2142SOL    HW217886   4.340   4.626  15.199 -1.7732  1.7958  0.6629
 2143SOL     OW17887   0.724   4.488  16.929 -0.6074  0.4318 -0.1714
 2143SOL    HW117888   0.717   4.535  16.845  3.7671 -1.5850 -1.6553
 2143SOL    HW217889   0.818   4.485  16.945 -0.5636  1.5216 -0.2330
 2144SOL     OW17890   0.254   2.356  16.279  0.6419 -0.1567  0.1915
 2144SOL    HW117891   0.217   2.289  16.222 -0.6634  0.8340 -0.1210
 2144SOL    HW217892   0.225   2.437  16.237  0.8485 -1.7401 -2.9881
 2145SOL     OW17893   1.857   4.261   0.357  0.0079  0.1564 -0.8805
 2145SOL    HW117894   1.884   4.180   0.399 -0.5023  0.7064  0.5112
 2145SOL    HW217895   1.927   4.280   0.294 -1.4958 -0.8486 -2.8545
 2146SOL     OW17896   3.128   2.531   9.648 -0.0888 -0.0742 -0.4277
 2146SOL    HW117897   3.058   2.584   9.688  0.9519  2.0868 -1.4799
 2146SOL    HW217898   3.106   2.540   9.556 -1.6614 -0.4756 -0.0928
 2147SOL     OW17899   0.587   2.436   8.670  0.1891  0.1622 -0.2144
 2147SOL    HW117900   0.562   2.529   8.663 -0.0229  0.1816  0.9094
 2147SOL    HW217901   0.590   2.426   8.765  1.9605 -0.6011 -0.3668
 2148SOL     OW17902   1.701   1.099  12.612  0.0685 -0.2801 -0.1699
 2148SOL    HW117903   1.730   1.189  12.629 -1.3029  0.5240 -2.1322
 2148SOL    HW217904   1.688   1.110  12.518  0.6456 -0.1646 -0.2333
 2149SOL     OW17905   2.187   2.251   2.434  0.4298  0.1719 -0.4538
 2149SOL    HW117906   2.196   2.272   2.527  1.0042  0.5017 -0.5872
 2149SOL    HW217907   2.217   2.327   2.383 -0.7846 -0.0392 -1.5105
 2150SOL     OW17908   1.100   3.597   6.229  0.0526  0.4107  0.2955
 2150SOL    HW117909   1.090   3.604   6.134  1.0750  0.4344  0.1921
 2150SOL    HW217910   1.037   3.667   6.250 -1.3378 -0.7561 -0.0084
 2151SOL     OW17911   2.732   4.561   9.844  0.4533 -0.4799  0.2096
 2151SOL    HW117912   2.781   4.483   9.817  3.6300  1.5706  0.0885
 2151SOL    HW217913   2.781   4.636   9.811  1.5463 -0.7878  1.1856
 2152SOL     OW17914   4.068   1.720   5.839  0.2365 -0.2135 -0.6164
 2152SOL    HW117915   4.157   1.685   5.831  0.1154 -0.7151  0.2578
 2152SOL    HW217916   4.042   1.689   5.926  0.6678  1.3066  0.0645
 2153SOL     OW17917   3.378   1.910   6.515 -0.3211  0.4907  0.0385
 2153SOL    HW117918   3.430   1.979   6.473 -1.5822  0.6965 -1.1708
 2153SOL    HW217919   3.392   1.927   6.608  1.3714 -1.5762  0.1470
 2154SOL     OW17920   4.136   2.688   5.052  0.4682 -0.0980 -0.3622
 2154SOL    HW117921   4.145   2.764   4.994 -0.6628  1.0260  0.9287
 2154SOL    HW217922   4.051   2.692   5.096  0.6076  1.2464 -0.1985
 2155SOL     OW17923   2.548   4.146   5.730 -0.7425 -0.3799 -0.1464
 2155SOL    HW117924   2.461   4.116   5.757 -1.2143 -0.1715 -1.4564
 2155SOL    HW217925   2.519   4.196   5.654 -0.1843 -0.4623 -0.4105
 2156SOL     OW17926   2.669   1.101   6.481  0.3198 -0.6980 -0.1807
 2156SOL    HW117927   2.645   1.168   6.546 -0.5949 -1.8314  0.6440
 2156SOL    HW217928   2.600   1.036   6.497  1.8581 -2.2844 -0.0920
 2157SOL     OW17929   2.938   1.718   5.694 -0.3339 -0.0363 -0.1481
 2157SOL    HW117930   3.013   1.776   5.677 -0.2909 -0.0532 -0.0158
 2157SOL    HW217931   2.870   1.772   5.655  2.8262  2.1971 -2.6056
 2158SOL     OW17932   1.857   3.129  13.062 -0.2544 -0.4095 -0.1416
 2158SOL    HW117933   1.858   3.122  12.966 -2.5248 -2.5809 -0.0233
 2158SOL    HW217934   1.806   3.207  13.082 -0.5419 -0.5359 -0.3764
 2159SOL     OW17935   3.672   3.875   3.344 -0.7462 -0.4210  0.3565
 2159SOL    HW117936   3.594   3.919   3.379  1.5490  4.4803 -0.7107
 2159SOL    HW217937   3.722   3.954   3.325  1.3855 -1.3601  2.0186
 2160SOL     OW17938   4.541   2.675   1.660  0.6663  0.2401  0.1724
 2160SOL    HW117939   4.493   2.745   1.616  1.3350 -1.5986 -3.4662
 2160SOL    HW217940   4.473   2.655   1.725 -0.2811  1.2676 -0.4938
 2161SOL     OW17941   0.011   1.203   0.037 -0.0558  0.0120  0.4277
 2161SOL    HW117942   0.098   1.172   0.062 -0.3195  0.1358  1.5071
 2161SOL    HW217943   4.715   1.149  17.663  0.4381  0.2805  0.0975
 2162SOL     OW17944   0.130   0.281   4.017 -0.4260  0.1251 -0.5349
 2162SOL    HW117945   0.088   0.199   4.045  0.2454 -0.2668 -0.6783
 2162SOL    HW217946   0.055   0.338   3.997 -2.0844 -1.4567  1.1428
 2163SOL     OW17947   2.190   3.858   4.133  0.1664 -0.1447 -0.2710
 2163SOL    HW117948   2.100   3.845   4.164  0.6229 -1.6030  0.4585
 2163SOL    HW217949   2.217   3.932   4.187  0.5584  1.4266 -2.6232
 2164SOL     OW17950   4.046   3.960   4.899  0.0596  0.0177 -0.0296
 2164SOL    HW117951   3.996   3.879   4.902  0.1900 -0.1162 -1.9944
 2164SOL    HW217952   3.997   4.006   4.831  1.9801 -1.2691 -2.2754
 2165SOL     OW17953   4.623   3.013   8.201 -0.0251  0.4518  0.3663
 2165SOL    HW117954   4.564   3.032   8.274  1.6844 -1.5822  2.2568
 2165SOL    HW217955   4.702   3.049   8.243 -0.0356  0.8195  0.0706
 2166SOL     OW17956   1.942   3.814   4.250  0.3308  0.2061  0.2345
 2166SOL    HW117957   1.941   3.879   4.320 -0.3323 -0.1745  0.5737
 2166SOL    HW217958   1.918   3.733   4.296 -1.1078  1.6039  1.9752
 2167SOL     OW17959   1.135   1.014   1.206 -0.2362 -0.4108 -0.1091
 2167SOL    HW117960   1.178   0.955   1.145  0.4747  0.3369 -0.3351
 2167SOL    HW217961   1.048   1.012   1.167 -0.6470 -1.3310  0.8626
 2168SOL     OW17962   3.609   1.895   5.774 -0.1044 -0.3733  0.8360
 2168SOL    HW117963   3.604   1.971   5.716  0.0488 -1.0084 -0.0208
 2168SOL    HW217964   3.527   1.854   5.748  1.3745 -2.3410 -0.7839
 2169SOL     OW17965   1.591   3.945  17.195  0.0226 -0.7974 -0.2766
 2169SOL    HW117966   1.622   4.017  17.139 -3.0601  1.1195  0.4657
 2169SOL    HW217967   1.562   3.991  17.274 -0.4376 -0.5921 -0.5683
 2170SOL     OW17968   0.273   4.270   4.140  0.3895 -0.2788 -0.0933
 2170SOL    HW117969   0.228   4.314   4.212  1.9283  0.7824  0.2218
 2170SOL    HW217970   0.228   4.315   4.069 -1.0774 -0.7521  0.5363
 2171SOL     OW17971   1.364   0.417   1.334  0.2771  0.8409  0.3469
 2171SOL    HW117972   1.311   0.424   1.254  0.8865 -0.1483 -0.1488
 2171SOL    HW217973   1.380   0.508   1.358  0.0664  0.9796 -0.0419
 2172SOL     OW17974   1.137   1.525   4.782  0.1659  0.2104 -0.1658
 2172SOL    HW117975   1.055   1.573   4.772  0.0712  0.1320  0.2375
 2172SOL    HW217976   1.106   1.472   4.855 -0.2961 -2.4479 -2.3042
 2173SOL     OW17977   4.517   3.887  11.613 -0.1159  0.3477  0.3636
 2173SOL    HW117978   4.572   3.964  11.599 -0.2162  0.4107  0.3168
 2173SOL    HW217979   4.455   3.923  11.677 -2.0065 -0.4831 -1.0037
 2174SOL     OW17980   1.848   3.904  12.928  0.5974 -0.4948  0.2353
 2174SOL    HW117981   1.895   3.966  12.984 -0.6238  0.7003 -0.0862
 2174SOL    HW217982   1.759   3.936  12.913  0.3314 -0.7403  1.2779
 2175SOL     OW17983   3.218   2.636   3.572  0.1358  0.0082 -0.9569
 2175SOL    HW117984   3.180   2.663   3.656 -1.3209  1.1443 -1.9763
 2175SOL    HW217985   3.272   2.712   3.550 -2.1793  1.6025 -1.2191
 2176SOL     OW17986   3.368   0.785   7.295 -0.3486  0.2005  0.0403
 2176SOL    HW117987   3.350   0.694   7.317  1.6075 -0.1079  0.3505
 2176SOL    HW217988   3.436   0.796   7.361  0.1514  1.5832 -0.7086
 2177SOL     OW17989   1.166   1.488   3.877 -0.1713 -0.1008 -0.0223
 2177SOL    HW117990   1.192   1.420   3.815 -0.6437  1.1788 -1.6265
 2177SOL    HW217991   1.104   1.543   3.829  1.3790  0.6824 -1.1082
 2178SOL     OW17992   2.933   1.812  10.856  0.5089  0.3396 -0.1868
 2178SOL    HW117993   2.900   1.899  10.832 -0.8941 -0.2989 -0.5199
 2178SOL    HW217994   2.868   1.789  10.922 -1.0911  1.2661 -1.4465
 2179SOL     OW17995   3.228   0.694   0.937  0.0467 -0.3903 -0.3613
 2179SOL    HW117996   3.137   0.711   0.914  0.1881 -1.4530 -1.7247
 2179SOL    HW217997   3.257   0.637   0.866 -0.0779 -2.4184  1.2172
 2180SOL     OW17998   0.022   2.640   7.459 -0.0003  0.2021  0.0276
 2180SOL    HW117999   0.093   2.669   7.402 -1.6055  2.1717 -0.9552
 2180SOL    HW218000   0.051   2.665   7.547  1.3980  0.7013 -0.5859
 2181SOL     OW18001   3.081   0.547  12.091  0.1419  0.8977 -0.4600
 2181SOL    HW118002   3.125   0.463  12.104  0.5516  1.0737 -0.6990
 2181SOL    HW218003   3.035   0.567  12.173  0.7200 -0.8854  0.2955
 2182SOL     OW18004   4.143   3.744  10.017  0.0255  0.0035  0.2727
 2182SOL    HW118005   4.164   3.805  10.088 -0.2802 -1.6887  1.8001
 2182SOL    HW218006   4.068   3.790   9.979 -0.8724 -2.1537 -0.5467
 2183SOL     OW18007   1.154   0.326  12.608 -0.0452  0.8921  0.1001
 2183SOL    HW118008   1.230   0.270  12.597 -0.1560  0.7056  0.2760
 2183SOL    HW218009   1.176   0.370  12.689 -1.0074  2.9839 -0.7826
 2184SOL     OW18010   0.374   0.943  11.269  0.5187 -1.0408  0.4561
 2184SOL    HW118011   0.457   0.903  11.297  1.3376 -0.4589 -1.1514
 2184SOL    HW218012   0.378   1.017  11.328  3.0285 -0.7806 -0.0563
 2185SOL     OW18013   0.959   2.178  10.061  0.0910 -0.0779  0.2656
 2185SOL    HW118014   1.005   2.233  10.124 -0.5966 -0.5743  1.2125
 2185SOL    HW218015   1.027   2.131  10.013 -1.5373 -1.6497 -0.5081
 2186SOL     OW18016   2.286   1.919   6.836  0.2023  0.1586  0.2995
 2186SOL    HW118017   2.379   1.942   6.840  0.6424 -2.0226  2.8853
 2186SOL    HW218018   2.277   1.897   6.744 -0.3258 -0.7185  0.5498
 2187SOL     OW18019   1.287   1.969  11.963 -0.8436 -0.4539 -0.3271
 2187SOL    HW118020   1.334   1.886  11.959 -0.2649 -0.1763  0.8232
 2187SOL    HW218021   1.328   2.024  11.896 -1.5374  1.6837  1.0143
 2188SOL     OW18022   0.457   2.347   0.748  0.3305  0.1358  0.4736
 2188SOL    HW118023   0.375   2.338   0.797 -0.7780  0.3562 -1.3331
 2188SOL    HW218024   0.493   2.430   0.779 -0.2641  0.0993  1.2900
 2189SOL     OW18025   3.983   2.724   2.278 -0.1748 -0.2821 -0.7456
 2189SOL    HW118026   3.959   2.645   2.231  0.6935 -1.1453  0.2748
 2189SOL    HW218027   3.903   2.773   2.295  0.6219  0.3202  1.2545
 2190SOL     OW18028   2.528   0.358   6.952  0.5019 -0.3807 -0.2313
 2190SOL    HW118029   2.504   0.327   6.864  0.1349  0.4515 -0.4186
 2190SOL    HW218030   2.512   0.452   6.945  0.2147 -0.2663  2.2265
 2191SOL     OW18031   1.402   4.602   0.281 -0.3197  0.4082 -0.0385
 2191SOL    HW118032   1.338   4.662   0.244 -0.4940  1.0088  1.2365
 2191SOL    HW218033   1.461   4.596   0.205  1.9841  0.9285  1.6883
 2192SOL     OW18034   3.241   2.095   8.535  0.0698  0.1657  0.2170
 2192SOL    HW118035   3.206   2.006   8.531  1.1164 -0.2651  0.6941
 2192SOL    HW218036   3.336   2.085   8.546  0.1380 -1.2249 -1.7186
 2193SOL     OW18037   4.707   1.315   4.705  0.0410  0.7218 -0.1167
 2193SOL    HW118038   0.056   1.331   4.646 -0.3190 -1.4806 -1.1444
 2193SOL    HW218039   4.705   1.220   4.708 -0.6821  0.6813 -1.9585
 2194SOL     OW18040   1.233   1.485   1.400  0.3396 -0.6266  0.0389
 2194SOL    HW118041   1.248   1.467   1.493 -1.4059 -0.0866  0.4442
 2194SOL    HW218042   1.190   1.408   1.364 -1.7000  1.2355 -1.5450
 2195SOL     OW18043   3.268   0.160   8.956  0.0247 -0.3252 -0.4994
 2195SOL    HW118044   3.283   0.247   8.918  0.6940 -0.1388  0.1975
 2195SOL    HW218045   3.343   0.144   9.013  0.0882 -0.0868 -0.5137
 2196SOL     OW18046   1.994   2.494   5.362  0.0374  0.3313 -0.5300
 2196SOL    HW118047   1.929   2.527   5.300 -0.1684  2.6565  0.9031
 2196SOL    HW218048   2.009   2.402   5.341  1.0657  0.1477  1.0348
 2197SOL     OW18049   4.595   2.437  11.674  0.3658 -0.7230  0.5229
 2197SOL    HW118050   4.680   2.400  11.651 -0.3308 -1.4828 -0.7824
 2197SOL    HW218051   4.558   2.355  11.705 -0.4859  0.1701  1.8854
 2198SOL     OW18052   0.688   3.725   4.427 -0.2533  0.4070 -0.1691
 2198SOL    HW118053   0.690   3.699   4.519  1.9560  1.2878  0.0494
 2198SOL    HW218054   0.737   3.807   4.426  1.9543 -0.8742  0.5448
 2199SOL     OW18055   3.155   0.217   2.630 -0.4583 -0.3818  0.0590
 2199SOL    HW118056   3.170   0.258   2.715  1.4173  0.3950 -0.6540
 2199SOL    HW218057   3.184   0.276   2.561 -3.3841  1.2367  0.2056
 2200SOL     OW18058   2.611   4.111   7.383  0.6736  0.0014  1.3116
 2200SOL    HW118059   2.534   4.166   7.369  1.1918 -0.0765 -1.8339
 2200SOL    HW218060   2.577   4.023   7.366 -1.9824  0.9281  1.7974
 2201SOL     OW18061   4.638   1.023  17.424 -0.0423 -0.8734  0.0047
 2201SOL    HW118062   4.681   0.975  17.495  1.5178  0.6294  0.0782
 2201SOL    HW218063   4.561   0.968  17.412  0.4051 -1.6778  0.8278
 2202SOL     OW18064   0.663   1.756  11.690  0.0226 -0.0309 -0.2301
 2202SOL    HW118065   0.645   1.735  11.781  3.7989  1.0265  0.7715
 2202SOL    HW218066   0.753   1.788  11.677  0.0154  0.2593  0.4595
 2203SOL     OW18067   1.482   1.882   2.709  0.3218  0.0289  0.6563
 2203SOL    HW118068   1.424   1.817   2.669  0.6216 -1.2365  2.2960
 2203SOL    HW218069   1.456   1.954   2.651  1.6853  1.1862  1.4887
 2204SOL     OW18070   3.517   3.768   3.022 -0.3056 -0.8473 -0.1774
 2204SOL    HW118071   3.570   3.840   2.987 -0.1325 -0.5443  0.6894
 2204SOL    HW218072   3.505   3.717   2.942  2.9236 -0.4559 -0.9103
 2205SOL     OW18073   4.130   4.428   3.873  0.1933 -0.3976  0.0482
 2205SOL    HW118074   4.205   4.389   3.918  0.5006 -1.1561 -1.1446
 2205SOL    HW218075   4.169   4.497   3.819  0.5045 -1.2837 -0.8682
 2206SOL     OW18076   3.533   1.145   3.322 -0.4261 -0.1716  0.8932
 2206SOL    HW118077   3.555   1.203   3.249  0.8358 -0.5303  0.9927
 2206SOL    HW218078   3.594   1.168   3.393 -1.0981  1.7035  0.8591
 2207SOL     OW18079   4.243   3.060   7.855 -0.1195  0.4337  0.3428
 2207SOL    HW118080   4.151   3.038   7.871  0.3059 -0.5622  1.4609
 2207SOL    HW218081   4.253   3.142   7.903  2.6390  0.1717  0.2531
 2208SOL     OW18082   2.492   2.580  11.336 -0.2429  0.1952  0.3388
 2208SOL    HW118083   2.532   2.636  11.270 -0.4259 -0.2138 -0.1161
 2208SOL    HW218084   2.403   2.616  11.337 -0.0054  0.7773  0.3226
 2209SOL     OW18085   3.027   1.009  16.077 -0.1240 -0.5872 -0.4980
 2209SOL    HW118086   3.008   1.095  16.042  0.6065  0.0689  0.7215
 2209SOL    HW218087   2.950   0.960  16.048 -0.1667 -1.9299  1.8752
 2210SOL     OW18088   4.427   0.880   4.990  0.4076 -0.0700  0.5770
 2210SOL    HW118089   4.451   0.787   4.981  0.5959  0.1972 -1.6337
 2210SOL    HW218090   4.370   0.887   4.914  2.0094  1.6080 -0.4662
 2211SOL     OW18091   1.145   2.391  13.321 -0.1670 -0.0311  0.3588
 2211SOL    HW118092   1.205   2.396  13.247 -0.6281  1.6470  0.0942
 2211SOL    HW218093   1.112   2.302  13.311 -1.2979  0.2371  1.5934
 2212SOL     OW18094   1.383   3.158  10.010 -0.4826  0.1602  0.2313
 2212SOL    HW118095   1.383   3.240  10.058 -2.1125  0.0880  0.3654
 2212SOL    HW218096   1.391   3.088  10.075  0.1912 -0.2087 -0.2563
 2213SOL     OW18097   1.827   0.033   4.387 -0.5719 -0.2844  0.0768
 2213SOL    HW118098   1.901   0.019   4.329 -0.8139  2.9242 -0.9980
 2213SOL    HW218099   1.775   0.075   4.319 -1.0651  0.6692  1.0361
 2214SOL     OW18100   1.960   3.663   3.690  0.1521  0.0506  0.2315
 2214SOL    HW118101   1.926   3.627   3.609  1.9717  0.4111 -0.6806
 2214SOL    HW218102   1.887   3.712   3.729  0.2997  0.0265  0.5391
 2215SOL     OW18103   0.759   3.586  12.892 -0.2790 -0.9416 -0.2841
 2215SOL    HW118104   0.773   3.676  12.921  0.8615 -0.8867 -1.0309
 2215SOL    HW218105   0.731   3.555  12.979 -0.5509  0.0853 -0.0095
 2216SOL     OW18106   2.915   3.575   2.346 -0.0982  0.4993  0.3586
 2216SOL    HW118107   2.911   3.482   2.323 -0.9790  0.5170  0.4326
 2216SOL    HW218108   3.010   3.588   2.350 -0.2217  1.1575  1.2648
 2217SOL     OW18109   0.421   4.483   3.435 -0.3091  0.2168 -0.1472
 2217SOL    HW118110   0.452   4.438   3.513  0.0810 -2.0300 -1.6181
 2217SOL    HW218111   0.503   4.525   3.407  0.2898 -0.5523  0.4666
 2218SOL     OW18112   3.990   1.883  11.258 -0.2421  0.0886  0.4499
 2218SOL    HW118113   3.982   1.970  11.218  1.7336 -0.1927 -0.5429
 2218SOL    HW218114   4.076   1.853  11.229 -1.3093 -1.2262 -1.3205
 2219SOL     OW18115   4.713   1.127   7.667  0.3809  0.3219  0.7895
 2219SOL    HW118116   0.070   1.082   7.651  0.7877  0.7304  1.7510
 2219SOL    HW218117   4.709   1.191   7.596  1.3791 -1.7382 -1.1105
 2220SOL     OW18118   0.379   0.622   1.421 -0.0095  0.2471  0.2996
 2220SOL    HW118119   0.402   0.629   1.514 -1.7574 -0.5487  0.7746
 2220SOL    HW218120   0.425   0.538   1.413 -1.7774 -0.7042  0.2382
 2221SOL     OW18121   2.994   2.323   8.161  0.2830  0.2235  0.0139
 2221SOL    HW118122   3.006   2.275   8.243  0.4635 -0.0283 -0.1598
 2221SOL    HW218123   3.080   2.346   8.126  0.8275 -0.0672  1.1588
 2222SOL     OW18124   1.316   3.241   5.562 -0.7199  0.1113 -0.7288
 2222SOL    HW118125   1.270   3.244   5.479  0.1105 -1.1073 -1.2309
 2222SOL    HW218126   1.269   3.318   5.594 -2.0601 -0.4864 -1.2422
 2223SOL     OW18127   3.469   2.639  10.610  0.2237 -0.7568  0.3820
 2223SOL    HW118128   3.485   2.569  10.546 -3.2781 -1.2204 -0.0162
 2223SOL    HW218129   3.375   2.625  10.623  0.0586 -1.9894 -2.1059
 2224SOL     OW18130   3.869   1.991   1.443 -0.3307 -0.1963 -0.3399
 2224SOL    HW118131   3.883   1.993   1.349 -1.2912  2.4065 -0.4272
 2224SOL    HW218132   3.803   2.060   1.454  1.0568  1.1836 -0.7432
 2225SOL     OW18133   0.567   3.494  15.556  0.1718 -0.5170  0.4690
 2225SOL    HW118134   0.578   3.477  15.462 -0.5007 -0.2068  0.3298
 2225SOL    HW218135   0.656   3.522  15.578 -1.2674  3.1769  1.6009
 2226SOL     OW18136   1.392   0.957   5.986 -0.3093  0.9792 -0.3031
 2226SOL    HW118137   1.341   0.886   5.947 -0.4350  0.2785  1.1421
 2226SOL    HW218138   1.447   0.986   5.913  0.6214  2.4950  1.0170
 2227SOL     OW18139   0.310   2.711   3.330  0.2742  0.2035  0.4115
 2227SOL    HW118140   0.324   2.705   3.424  0.6683  1.9082  0.4537
 2227SOL    HW218141   0.239   2.774   3.340 -1.0520 -1.1268 -0.5029
 2228SOL     OW18142   2.561   2.045   2.447  0.3325  0.0034 -0.1373
 2228SOL    HW118143   2.605   2.017   2.366  1.3531 -1.4508  0.9333
 2228SOL    HW218144   2.621   2.018   2.516  0.3627 -0.9184 -0.5102
 2229SOL     OW18145   3.347   1.005  11.154  0.0825 -0.1132 -0.6056
 2229SOL    HW118146   3.370   0.929  11.101 -0.5762 -0.2625 -0.6755
 2229SOL    HW218147   3.419   1.064  11.133  0.8884 -0.9036 -0.0268
 2230SOL     OW18148   0.705   3.041   2.306  0.0991 -0.1555  0.5584
 2230SOL    HW118149   0.635   3.104   2.322 -0.3946 -0.3680 -0.7185
 2230SOL    HW218150   0.770   3.100   2.268  0.9984 -0.0404  2.2722
 2231SOL     OW18151   0.756   0.473   3.113 -0.2968  0.4852 -0.4672
 2231SOL    HW118152   0.671   0.498   3.077 -0.5662  2.0650  1.2681
 2231SOL    HW218153   0.772   0.389   3.068  0.1905  0.4007 -0.1394
 2232SOL     OW18154   3.592   1.547   1.061  0.1826  0.1610  0.1193
 2232SOL    HW118155   3.508   1.514   1.091  0.0783  0.6983  0.4280
 2232SOL    HW218156   3.653   1.474   1.051  0.5963  0.4933  0.2145
 2233SOL     OW18157   3.921   1.193   8.689 -0.4408 -0.1157 -0.5631
 2233SOL    HW118158   3.968   1.122   8.646  0.4217 -0.4302  0.8696
 2233SOL    HW218159   3.882   1.153   8.767  0.9728  1.3111  0.8948
 2234SOL     OW18160   3.104   0.520  14.567 -0.4848  0.0481  0.6542
 2234SOL    HW118161   3.106   0.502  14.661 -0.3133 -0.3614  0.5737
 2234SOL    HW218162   3.155   0.445  14.536  1.5224  1.0022  1.6292
 2235SOL     OW18163   2.752   1.868  13.768  0.1348  0.2850  0.0652
 2235SOL    HW118164   2.670   1.904  13.802 -1.3560 -1.0063 -2.1213
 2235SOL    HW218165   2.719   1.818  13.693  2.5103  0.0310 -0.8167
 2236SOL     OW18166   2.532   3.713   0.329 -0.4499  0.3116  0.2772
 2236SOL    HW118167   2.466   3.655   0.291 -0.4102 -0.6237  1.6458
 2236SOL    HW218168   2.545   3.673   0.415  0.4208  1.2682  0.5905
 2237SOL     OW18169   4.296   3.538   7.965  0.2490  0.3956  0.0480
 2237SOL    HW118170   4.265   3.606   7.906 -3.7233  0.8739  2.7321
 2237SOL    HW218171   4.387   3.563   7.982  0.1359  0.9452 -0.1563
 2238SOL     OW18172   1.339   2.972   6.878 -0.2636  0.5593  0.3601
 2238SOL    HW118173   1.331   2.944   6.787 -0.8552  0.1621  0.5331
 2238SOL    HW218174   1.248   3.001   6.889 -0.7628 -0.4005 -1.2534
 2239SOL     OW18175   2.933   0.907   2.886  0.1613  0.0226 -0.0127
 2239SOL    HW118176   3.006   0.903   2.824 -1.4638  1.4961 -2.0045
 2239SOL    HW218177   2.895   0.819   2.889 -0.9034  0.4579 -0.7363
 2240SOL     OW18178   4.545   3.770   7.003 -0.3404 -0.4676  0.0951
 2240SOL    HW118179   4.559   3.755   7.097 -0.2710 -0.5920  0.0646
 2240SOL    HW218180   4.607   3.702   6.976 -0.6439 -1.1712  1.1662
 2241SOL     OW18181   2.939   2.138   6.585 -0.0825 -0.8296  0.4154
 2241SOL    HW118182   2.922   2.195   6.660  1.2164  1.8139 -1.3175
 2241SOL    HW218183   3.031   2.155   6.568 -0.1186 -0.5974  0.4447
 2242SOL     OW18184   0.783   0.614  12.594 -0.1495  0.4320 -0.3982
 2242SOL    HW118185   0.855   0.653  12.644  1.7328 -1.4054 -1.6522
 2242SOL    HW218186   0.841   0.581  12.525 -0.5668 -0.6979 -0.2036
 2243SOL     OW18187   4.066   0.530   5.749  0.2345  0.2697 -0.2594
 2243SOL    HW118188   4.061   0.572   5.663  4.0163 -1.2047 -1.1674
 2243SOL    HW218189   4.160   0.517   5.753  0.3738  1.2582 -0.1841
 2244SOL     OW18190   1.329   0.722   8.879 -0.0778 -0.4648 -0.1707
 2244SOL    HW118191   1.303   0.800   8.929  1.3538 -1.3992  2.0450
 2244SOL    HW218192   1.318   0.759   8.792  0.1844 -1.3536 -0.5810
 2245SOL     OW18193   3.584   1.039  14.628 -0.2736  0.0213  0.8176
 2245SOL    HW118194   3.499   0.999  14.644 -1.8478  4.1808  2.6308
 2245SOL    HW218195   3.602   1.077  14.714  0.3525 -0.5292  0.9264
 2246SOL     OW18196   0.873   2.073   2.531 -0.7286  0.3811 -0.6847
 2246SOL    HW118197   0.919   2.154   2.553  0.0788 -0.3431  0.3253
 2246SOL    HW218198   0.800   2.079   2.592  0.8093 -1.2965  1.3208
 2247SOL     OW18199   3.387   2.404   8.594  0.6251  0.4194 -0.0071
 2247SOL    HW118200   3.350   2.327   8.550  2.0068 -2.1323  3.2593
 2247SOL    HW218201   3.482   2.395   8.606  0.5506 -2.6251 -1.6277
 2248SOL     OW18202   4.122   3.205  10.707 -0.5422 -0.1336 -0.2317
 2248SOL    HW118203   4.058   3.138  10.730  1.9534 -1.7262  2.1314
 2248SOL    HW218204   4.183   3.157  10.650  0.7807  2.7897 -1.2907
 2249SOL     OW18205   4.328   2.213   1.216  0.1763  0.5554  0.4616
 2249SOL    HW118206   4.273   2.280   1.176 -2.0158  0.2334  2.9584
 2249SOL    HW218207   4.291   2.135   1.173 -1.2635  1.4495  0.0764
 2250SOL     OW18208   2.970   2.658   2.730 -0.6448  0.3168  0.5226
 2250SOL    HW118209   2.937   2.680   2.817  0.9422  0.1034  1.1649
 2250SOL    HW218210   3.037   2.594   2.753 -0.0791  0.9934  0.7677
 2251SOL     OW18211   4.521   0.357  11.733  0.2617  0.3047  0.4911
 2251SOL    HW118212   4.552   0.267  11.745 -0.0070  0.3237  1.3849
 2251SOL    HW218213   4.427   0.349  11.748  0.0651 -0.9071 -1.4585
 2252SOL     OW18214   1.847   1.082   4.915 -0.1083 -0.1570  0.1696
 2252SOL    HW118215   1.917   1.017   4.909  0.7244  0.8137 -0.7240
 2252SOL    HW218216   1.806   1.066   4.829  0.6161  0.1224 -0.2304
 2253SOL     OW18217   0.176   1.449   0.858  0.7172  0.3930  0.5734
 2253SOL    HW118218   0.252   1.475   0.805 -0.1608  1.6116 -0.0774
 2253SOL    HW218219   0.124   1.529   0.856  0.5943  0.3209  0.9281
 2254SOL     OW18220   0.255   1.510   5.052  0.2034  0.7938 -0.6359
 2254SOL    HW118221   0.209   1.552   4.979  0.1919  0.1253 -1.0059
 2254SOL    HW218222   0.190   1.506   5.121  0.2317 -0.0037 -0.6560
 2255SOL     OW18223   4.349   4.170   5.124 -0.0705  0.1517  0.3166
 2255SOL    HW118224   4.258   4.187   5.099 -0.4907 -2.6900 -0.0732
 2255SOL    HW218225   4.399   4.236   5.075  0.2400  1.5655  2.4977
 2256SOL     OW18226   3.291   1.748   9.118  0.4274 -0.4133  0.0933
 2256SOL    HW118227   3.293   1.763   9.213 -0.8203 -0.1021  0.0597
 2256SOL    HW218228   3.259   1.832   9.086 -1.3182 -1.3003 -0.4664
 2257SOL     OW18229   4.363   3.244   4.343  0.6825 -1.1324 -0.4512
 2257SOL    HW118230   4.303   3.195   4.287 -0.2219 -1.0397  0.4410
 2257SOL    HW218231   4.411   3.166   4.372  0.9764 -1.1913 -1.0876
 2258SOL     OW18232   4.706   3.298  14.502 -0.4845 -0.2152  0.5928
 2258SOL    HW118233   4.692   3.376  14.556 -0.2931 -1.1554  2.0218
 2258SOL    HW218234   0.043   3.241  14.548  1.1523 -1.2716 -2.9168
 2259SOL     OW18235   2.804   0.610  10.548 -0.3622 -0.6121 -0.5432
 2259SOL    HW118236   2.776   0.522  10.573  1.8354 -0.9023  1.0071
 2259SOL    HW218237   2.721   0.646  10.518  0.1523 -0.6816 -2.0463
 2260SOL     OW18238   3.708   3.557  15.849 -0.2757  0.8119  0.2468
 2260SOL    HW118239   3.613   3.549  15.856 -0.2743 -1.0783 -2.1611
 2260SOL    HW218240   3.721   3.651  15.862 -0.7245  0.7739  0.9987
 2261SOL     OW18241   3.102   4.100   3.721 -0.1453 -0.0550  0.5501
 2261SOL    HW118242   3.146   4.141   3.795 -0.3138 -1.9488  1.6948
 2261SOL    HW218243   3.036   4.044   3.762 -0.5383 -0.8541 -1.1962
 2262SOL     OW18244   4.339   1.841   6.409  0.0892 -0.3776 -0.2730
 2262SOL    HW118245   4.259   1.890   6.391  1.3597  1.1423 -1.7513
 2262SOL    HW218246   4.322   1.781   6.482  0.4859  0.3198  0.3947
 2263SOL     OW18247   1.241   0.908  16.556  0.3328  0.8081 -0.3768
 2263SOL    HW118248   1.186   0.932  16.482 -1.1343  0.0416  0.4699
 2263SOL    HW218249   1.226   0.813  16.549 -1.6692  1.1109 -0.1688
 2264SOL     OW18250   1.272   0.195  14.513  0.0047 -0.0727  0.7295
 2264SOL    HW118251   1.200   0.239  14.468 -0.9097 -1.9856  0.3116
 2264SOL    HW218252   1.338   0.265  14.514 -1.0028  0.8819  0.4698
 2265SOL     OW18253   1.809   4.100   8.135  0.3407 -0.3104  0.0389
 2265SOL    HW118254   1.858   4.055   8.066  0.2391  0.6531 -0.6595
 2265SOL    HW218255   1.833   4.037   8.203  2.3720  0.4460  0.0099
 2266SOL     OW18256   3.667   0.051   5.109  0.0866 -0.2416 -0.3006
 2266SOL    HW118257   3.692   4.684   5.105 -0.3542 -0.3770  0.0953
 2266SOL    HW218258   3.639   0.054   5.018  1.7597 -1.4172 -0.8614
 2267SOL     OW18259   0.272   1.298   3.256 -0.4422 -1.0715  0.3688
 2267SOL    HW118260   0.193   1.342   3.285 -0.2490 -0.0405 -0.6888
 2267SOL    HW218261   0.307   1.272   3.341  2.6942  1.0248 -0.2737
 2268SOL     OW18262   0.484   3.545   0.249 -0.8261  0.4726 -0.1788
 2268SOL    HW118263   0.572   3.529   0.283 -0.7135  0.5322 -0.4390
 2268SOL    HW218264   0.450   3.587   0.327  0.7760  0.3367  0.5848
 2269SOL     OW18265   3.603   3.936   9.332  0.3402  0.4378  0.2124
 2269SOL    HW118266   3.610   4.031   9.325  0.6148  0.5686  2.0681
 2269SOL    HW218267   3.690   3.905   9.355  0.2786 -0.8494 -1.3330
 2270SOL     OW18268   3.018   2.132   4.235  0.7732  0.3451  0.5001
 2270SOL    HW118269   2.971   2.215   4.221  1.4575  0.4466 -1.2487
 2270SOL    HW218270   3.106   2.165   4.254  0.7301  0.4708  0.4791
 2271SOL     OW18271   3.859   4.321   8.165 -0.3177 -0.3415  0.3836
 2271SOL    HW118272   3.800   4.393   8.145  0.3502  1.0680  3.6446
 2271SOL    HW218273   3.931   4.341   8.105  1.3119  2.0864  3.2223
 2272SOL     OW18274   0.358   0.307   7.789 -0.2453 -0.0628 -0.0458
 2272SOL    HW118275   0.370   0.212   7.780  0.9798  0.1378 -0.5622
 2272SOL    HW218276   0.308   0.311   7.870 -0.9679  0.0958 -0.5056
 2273SOL     OW18277   3.436   2.677   7.254  0.1846  0.0784 -0.3040
 2273SOL    HW118278   3.365   2.728   7.214  1.3392  1.2317 -0.8623
 2273SOL    HW218279   3.463   2.725   7.333 -1.0013 -0.4603  0.4436
 2274SOL     OW18280   3.333   3.549   9.480 -0.1821  0.4028  0.4854
 2274SOL    HW118281   3.379   3.630   9.506  0.0465  1.1154 -2.0812
 2274SOL    HW218282   3.369   3.479   9.534 -0.3859  1.4853  2.0440
 2275SOL     OW18283   4.618   4.226  13.394  0.1949  0.1766 -0.3651
 2275SOL    HW118284   4.673   4.223  13.316 -0.0569  1.1284 -0.5811
 2275SOL    HW218285   4.673   4.275  13.455  0.0193 -0.6805  0.4805
 2276SOL     OW18286   3.358   3.149   2.198  0.5203  0.1436  0.6291
 2276SOL    HW118287   3.264   3.150   2.184  0.6727 -1.7065 -0.5487
 2276SOL    HW218288   3.374   3.060   2.167 -2.9226 -0.1188 -0.3609
 2277SOL     OW18289   3.908   1.891   3.765 -0.0834  0.0878  0.3056
 2277SOL    HW118290   3.887   1.923   3.853  0.5785 -1.3385  0.9724
 2277SOL    HW218291   3.880   1.800   3.775 -3.8644  0.9722 -2.1920
 2278SOL     OW18292   3.404   1.128   4.505 -0.2597 -0.3134  0.0196
 2278SOL    HW118293   3.357   1.198   4.549  0.0354 -0.7608  1.0353
 2278SOL    HW218294   3.497   1.135   4.525 -0.3733  1.0682  0.0661
 2279SOL     OW18295   2.539   4.279   3.638  0.1170  0.2328  0.1962
 2279SOL    HW118296   2.541   4.308   3.729  0.6894  1.5509 -0.2367
 2279SOL    HW218297   2.517   4.188   3.657 -0.8619  1.0479  3.0892
 2280SOL     OW18298   3.972   2.236  11.648  0.1925  0.0575  0.3755
 2280SOL    HW118299   4.063   2.227  11.675  0.1726 -1.3403 -0.0128
 2280SOL    HW218300   3.945   2.144  11.650 -2.7476  0.9102 -0.0302
 2281SOL     OW18301   0.940   2.636   5.571  0.0032 -0.7371  0.3540
 2281SOL    HW118302   0.992   2.655   5.649  0.2460  1.9166 -0.4631
 2281SOL    HW218303   0.993   2.587   5.508 -0.7048 -0.1128 -0.7285
 2282SOL     OW18304   3.576   4.408   6.615  0.1155 -0.1050  0.0155
 2282SOL    HW118305   3.651   4.359   6.647 -0.0038 -2.1653 -2.8382
 2282SOL    HW218306   3.500   4.352   6.633 -0.2303  0.2786 -0.2270
 2283SOL     OW18307   3.946   1.928   8.043 -0.1014  0.2138  0.1900
 2283SOL    HW118308   3.983   1.913   8.130  0.5757  0.5364 -0.0414
 2283SOL    HW218309   3.899   2.009   8.064  2.6420  1.2272  2.4379
 2284SOL     OW18310   4.034   1.035   6.751 -0.1681 -0.3139  0.4846
 2284SOL    HW118311   4.012   0.990   6.833 -2.7326  0.7539  0.3851
 2284SOL    HW218312   4.129   1.036   6.765 -0.0163 -2.8042 -0.4419
 2285SOL     OW18313   3.629   2.443   4.177 -0.0508  0.3324  0.2499
 2285SOL    HW118314   3.541   2.464   4.145 -0.4747 -2.5833 -0.5165
 2285SOL    HW218315   3.627   2.493   4.258  0.6089 -0.0748  0.5123
 2286SOL     OW18316   2.185   1.715   2.421 -0.2076  0.0025  0.0973
 2286SOL    HW118317   2.229   1.799   2.437 -0.6783 -0.1901  2.3659
 2286SOL    HW218318   2.093   1.741   2.410 -0.2931 -0.0195  0.7531
 2287SOL     OW18319   0.673   4.326   4.248 -0.1565  0.7355 -0.0553
 2287SOL    HW118320   0.595   4.311   4.194  0.6787  0.3578 -1.1593
 2287SOL    HW218321   0.657   4.417   4.272 -1.1346  1.0891 -2.0744
 2288SOL     OW18322   3.910   3.995   2.977  0.1492 -0.8755  0.0179
 2288SOL    HW118323   3.827   3.982   2.932 -1.0513  0.3884  1.9235
 2288SOL    HW218324   3.970   3.948   2.918  0.8961 -0.0763  0.1436
 2289SOL     OW18325   4.167   1.427  12.543  0.1062 -0.2174  0.7229
 2289SOL    HW118326   4.223   1.353  12.519 -0.0830 -0.6918  1.7364
 2289SOL    HW218327   4.126   1.437  12.457  1.5864  1.8673  0.2521
 2290SOL     OW18328   3.331   0.526   1.908 -0.4841  0.1241 -0.1853
 2290SOL    HW118329   3.322   0.548   1.815 -0.3347 -0.2811 -0.2951
 2290SOL    HW218330   3.259   0.575   1.946  0.1930  0.2432  0.9625
 2291SOL     OW18331   1.535   3.639  11.315 -0.2742  0.4857  0.1567
 2291SOL    HW118332   1.600   3.680  11.258 -0.7429  0.9684 -0.0351
 2291SOL    HW218333   1.470   3.709  11.319  0.7430  1.4556 -0.0172
 2292SOL     OW18334   1.185   1.813   8.722  0.1834  0.0733  0.2605
 2292SOL    HW118335   1.167   1.721   8.704  1.7115 -0.0287 -0.7811
 2292SOL    HW218336   1.229   1.805   8.806 -1.5991  2.3783  1.3987
 2293SOL     OW18337   1.159   1.896   3.195 -0.0459  0.1916  0.0691
 2293SOL    HW118338   1.195   1.982   3.175 -0.9211  0.7331  0.8166
 2293SOL    HW218339   1.068   1.912   3.220 -0.3988 -1.3481 -0.1972
 2294SOL     OW18340   2.853   0.017   6.613 -0.5002 -0.7336  0.5144
 2294SOL    HW118341   2.786   4.701   6.668  0.1747 -0.7053  1.3643
 2294SOL    HW218342   2.887   4.670   6.560  1.5762 -0.5083  1.5421
 2295SOL     OW18343   3.479   4.566   9.087 -0.5867  0.0356 -0.3952
 2295SOL    HW118344   3.526   4.605   9.013  3.5795 -0.9545  1.7296
 2295SOL    HW218345   3.526   4.601   9.162  0.7587  1.5579 -1.9577
 2296SOL     OW18346   2.756   0.284  16.241 -0.2095 -0.9090 -0.1954
 2296SOL    HW118347   2.761   0.326  16.155  0.8156  0.0056  0.3144
 2296SOL    HW218348   2.683   0.224  16.224 -1.1545  0.4440 -0.9510
 2297SOL     OW18349   4.118   2.825  11.627 -0.2625 -0.3040  0.3361
 2297SOL    HW118350   4.093   2.905  11.673  0.5181  0.2535 -0.2135
 2297SOL    HW218351   4.179   2.860  11.563  1.6145  0.3431  2.4952
 2298SOL     OW18352   3.160   2.056   9.430  0.2961 -0.3116  0.0376
 2298SOL    HW118353   3.164   1.985   9.365  0.0625 -0.2337 -0.0623
 2298SOL    HW218354   3.234   2.112   9.410 -0.6928  1.5194  1.4814
 2299SOL     OW18355   0.139   4.668   4.005  0.0733 -0.3937  0.1047
 2299SOL    HW118356   0.083   4.624   3.941 -1.3019  1.5399 -0.0101
 2299SOL    HW218357   0.105   4.631   4.087  0.3977  0.3963  0.5894
 2300SOL     OW18358   3.011   0.761   2.510 -0.0337 -0.0851 -0.5653
 2300SOL    HW118359   2.965   0.840   2.482 -0.8539  0.5478  2.6898
 2300SOL    HW218360   2.949   0.690   2.491 -0.3538 -0.3318  1.4472
 2301SOL     OW18361   0.348   1.328   6.699  0.2764  0.1603 -0.4571
 2301SOL    HW118362   0.349   1.262   6.630 -2.8165 -0.1967 -0.1672
 2301SOL    HW218363   0.258   1.322   6.732  0.0916 -0.2455 -1.0401
 2302SOL     OW18364   0.234   2.520   4.926  0.1137 -0.9619  0.1750
 2302SOL    HW118365   0.287   2.553   4.998 -0.6360 -0.7138  0.6162
 2302SOL    HW218366   0.258   2.590   4.865  1.0075 -1.2131  0.2448
 2303SOL     OW18367   0.580   2.685  10.579 -0.3239 -0.4417  0.1329
 2303SOL    HW118368   0.572   2.662  10.486  1.4702 -0.5083 -0.0027
 2303SOL    HW218369   0.577   2.599  10.622 -0.1595 -0.1814  0.6555
 2304SOL     OW18370   4.045   1.411  12.299 -0.1081  0.0525 -0.1218
 2304SOL    HW118371   4.118   1.409  12.237 -0.0990 -1.0785 -0.0743
 2304SOL    HW218372   3.975   1.408  12.233  2.2329 -2.2838 -2.4728
 2305SOL     OW18373   1.163   4.181   8.238 -0.1628 -0.4913 -1.2256
 2305SOL    HW118374   1.209   4.223   8.311  0.5144 -0.6517 -1.5593
 2305SOL    HW218375   1.098   4.250   8.225  0.7419  0.3334 -1.2852
 2306SOL     OW18376   3.398   4.505  10.707 -0.1692 -0.3771 -0.4429
 2306SOL    HW118377   3.413   4.599  10.693  0.1336 -0.3392  0.1373
 2306SOL    HW218378   3.488   4.484  10.734  0.6614  1.0820 -2.0448
 2307SOL     OW18379   1.412   3.538   5.351  0.4630  0.4939 -0.0493
 2307SOL    HW118380   1.453   3.591   5.282 -0.7454  0.5405 -0.7202
 2307SOL    HW218381   1.445   3.448   5.345  0.3312  0.4544 -0.1617
 2308SOL     OW18382   2.010   4.435   9.920 -0.0022  0.0415 -0.3518
 2308SOL    HW118383   1.927   4.397   9.891 -0.6395  2.2821 -1.4610
 2308SOL    HW218384   2.076   4.412   9.855 -0.9841  2.2162 -2.1055
 2309SOL     OW18385   0.990   1.480   7.539  0.7073  0.0768 -0.5733
 2309SOL    HW118386   1.043   1.457   7.615  0.6358 -0.5535 -0.7142
 2309SOL    HW218387   0.914   1.518   7.582 -0.0813 -1.7605 -0.3374
 2310SOL     OW18388   2.316   0.867  10.685  0.0070 -0.0795 -0.0166
 2310SOL    HW118389   2.242   0.928  10.685  1.1153  1.2685  1.7606
 2310SOL    HW218390   2.390   0.925  10.700  0.1665 -0.2809 -0.0245
 2311SOL     OW18391   4.009   4.491   5.168  0.4433  0.1778  0.0014
 2311SOL    HW118392   4.002   4.421   5.234 -1.1681  0.0774 -0.2736
 2311SOL    HW218393   3.916   4.511   5.158  0.0930 -1.4198 -0.0596
 2312SOL     OW18394   2.300   3.924   0.801  0.3492 -0.1658 -0.2309
 2312SOL    HW118395   2.317   3.847   0.747  2.3637  0.5752 -0.6515
 2312SOL    HW218396   2.217   3.950   0.762 -1.0229 -2.9215  0.8483
 2313SOL     OW18397   0.030   1.220   1.895 -0.3238  0.2134  0.5776
 2313SOL    HW118398   4.676   1.205   1.946 -0.8782  2.1547  0.3053
 2313SOL    HW218399   0.015   1.312   1.874 -2.4560  0.4032  2.9526
 2314SOL     OW18400   0.817   0.145   2.667  0.2985 -0.4941  0.0967
 2314SOL    HW118401   0.905   0.116   2.643 -0.2445 -0.7583 -1.5630
 2314SOL    HW218402   0.793   0.206   2.597  3.8450  0.4508 -0.2794
 2315SOL     OW18403   4.280   1.621  14.232 -0.2844  0.1505  0.2373
 2315SOL    HW118404   4.322   1.689  14.284 -1.7164  0.9034  0.4006
 2315SOL    HW218405   4.311   1.538  14.269 -0.2565  0.8329  1.7305
 2316SOL     OW18406   0.691   2.489   6.759  0.1226  0.4387  0.5265
 2316SOL    HW118407   0.695   2.572   6.807 -1.9701  1.1807 -0.5754
 2316SOL    HW218408   0.676   2.524   6.671  1.1667 -2.9365 -0.9852
 2317SOL     OW18409   3.553   3.082   2.381 -0.2655  0.1892  0.3625
 2317SOL    HW118410   3.472   3.038   2.406 -0.1683  0.7945  1.7938
 2317SOL    HW218411   3.514   3.145   2.321 -0.0332 -0.4599 -0.4670
 2318SOL     OW18412   0.486   0.926   1.609 -0.5651 -0.1632 -0.0488
 2318SOL    HW118413   0.507   0.959   1.697  1.3161 -1.4524 -0.0083
 2318SOL    HW218414   0.437   0.846   1.625 -1.9281  0.6925  0.0056
 2319SOL     OW18415   0.218   0.137   5.810  0.2691  0.6658 -0.2656
 2319SOL    HW118416   0.291   0.100   5.860  0.1147  0.6722 -0.0318
 2319SOL    HW218417   0.144   0.083   5.838  1.6417  0.1491  2.3742
 2320SOL     OW18418   0.186   4.541   5.764  0.2815 -0.8350  0.5905
 2320SOL    HW118419   0.261   4.551   5.705 -0.3167 -1.4619 -0.2560
 2320SOL    HW218420   0.228   4.478   5.822  1.3581 -1.4353 -0.8389
 2321SOL     OW18421   2.847   3.474   0.062 -0.1940  0.1313 -0.7781
 2321SOL    HW118422   2.768   3.486   0.114  0.5941 -0.9175  0.6655
 2321SOL    HW218423   2.869   3.383   0.082 -0.4168  0.0079 -1.0954
 2322SOL     OW18424   3.949   1.030   0.477  0.1576  0.0427  0.4464
 2322SOL    HW118425   3.872   1.072   0.439 -1.3605 -2.9563  0.2328
 2322SOL    HW218426   4.016   1.053   0.413 -0.5224 -2.6814 -1.2440
 2323SOL     OW18427   0.239   2.646   7.037  0.1887 -0.3591  0.2236
 2323SOL    HW118428   0.169   2.704   7.009  0.8525  0.7825  0.9441
 2323SOL    HW218429   0.310   2.675   6.980  0.6524  2.3708  2.1803
 2324SOL     OW18430   4.220   0.238  10.862 -0.4311  0.0786 -0.1089
 2324SOL    HW118431   4.247   0.195  10.944 -0.5496 -1.3378 -0.8110
 2324SOL    HW218432   4.140   0.190  10.841 -1.1506  1.2296  0.0116
 2325SOL     OW18433   2.505   1.546  13.966 -0.3097 -0.2976 -0.2468
 2325SOL    HW118434   2.481   1.634  13.996 -0.0863 -0.0248 -0.8830
 2325SOL    HW218435   2.600   1.552  13.969 -0.3382 -0.5101  1.1373
 2326SOL     OW18436   2.972   2.940   3.618 -0.1911  0.7138 -0.6595
 2326SOL    HW118437   2.971   3.023   3.666  3.0922 -0.0064  0.7011
 2326SOL    HW218438   2.898   2.939   3.557 -2.6775 -1.7064  2.3846
 2327SOL     OW18439   1.407   2.337  11.538  0.1292 -0.1311  0.4472
 2327SOL    HW118440   1.447   2.369  11.619 -1.2154  0.6733  0.8081
 2327SOL    HW218441   1.329   2.293  11.572 -1.4594  2.2862 -0.0077
 2328SOL     OW18442   2.638   4.588  11.130 -0.0107  0.1380 -0.3917
 2328SOL    HW118443   2.602   4.499  11.124  0.1842 -0.0813  1.5161
 2328SOL    HW218444   2.561   4.638  11.159  0.9894  1.1239  0.5481
 2329SOL     OW18445   1.052   0.081   3.443  0.1293 -0.1619  0.1480
 2329SOL    HW118446   0.989   0.043   3.382 -2.3892  0.7659  2.1738
 2329SOL    HW218447   0.993   0.078   3.518 -0.7610  2.4757 -0.4370
 2330SOL     OW18448   1.056   3.558  13.066 -0.1795 -0.0978 -0.2834
 2330SOL    HW118449   0.975   3.509  13.082  0.5717 -0.8986  1.1333
 2330SOL    HW218450   1.110   3.496  13.018 -0.8398 -0.4960 -0.5200
 2331SOL     OW18451   3.076   3.081   1.601  0.2977  0.1750  0.0089
 2331SOL    HW118452   3.135   3.155   1.613 -1.1236  1.1131  1.2236
 2331SOL    HW218453   3.016   3.127   1.542  3.0206  2.7482 -0.7274
 2332SOL     OW18454   1.733   3.305   6.971  0.4608 -0.2932 -0.2984
 2332SOL    HW118455   1.653   3.255   6.989 -0.1969  0.0821 -2.2142
 2332SOL    HW218456   1.696   3.369   6.912 -2.2919  0.2274  1.9653
 2333SOL     OW18457   2.157   3.874   8.065  0.4985  0.3352 -0.0106
 2333SOL    HW118458   2.228   3.862   8.128 -0.8656 -0.5229  1.3641
 2333SOL    HW218459   2.097   3.812   8.108  0.3912  0.8500  0.5763
 2334SOL     OW18460   3.181   2.128   6.226 -0.3204 -0.2326  0.7095
 2334SOL    HW118461   3.230   2.197   6.181  0.1193 -0.7604  0.3681
 2334SOL    HW218462   3.116   2.100   6.161 -1.0534 -0.0376  1.3557
 2335SOL     OW18463   3.194   1.479   6.969 -0.2706  0.0585  0.4858
 2335SOL    HW118464   3.289   1.476   6.961 -0.3093 -0.6255  0.2853
 2335SOL    HW218465   3.177   1.519   7.054  0.6136  2.6322 -0.5628
 2336SOL     OW18466   0.317   2.542   5.479  0.5422  0.1480  0.4153
 2336SOL    HW118467   0.229   2.546   5.442  0.2700  0.7524  1.1437
 2336SOL    HW218468   0.338   2.455   5.444 -0.4288  0.3706 -0.7346
 2337SOL     OW18469   0.348   3.123   4.132  0.0016  0.1377 -1.0879
 2337SOL    HW118470   0.417   3.189   4.121  0.3719  0.2248  1.8433
 2337SOL    HW218471   0.410   3.058   4.166  1.5166  1.6613 -0.9217
 2338SOL     OW18472   2.165   3.059   7.886  0.4021  0.0498  0.0145
 2338SOL    HW118473   2.196   3.004   7.958  0.1383 -1.1875 -0.8153
 2338SOL    HW218474   2.255   3.081   7.863  0.1441  0.6915 -0.3756
 2339SOL     OW18475   0.857   3.330   4.403  0.4513 -0.4561  0.2696
 2339SOL    HW118476   0.795   3.403   4.402 -2.1051 -2.6310 -1.5266
 2339SOL    HW218477   0.867   3.317   4.309  0.5580  0.8552  0.0933
 2340SOL     OW18478   3.370   1.256   9.276  0.2140 -0.0970 -0.4640
 2340SOL    HW118479   3.327   1.333   9.237 -1.7126 -2.4074 -2.8882
 2340SOL    HW218480   3.333   1.255   9.364  2.0946 -0.4962  0.3272
 2341SOL     OW18481   3.332   0.195  16.704  0.5333 -0.0520  0.3705
 2341SOL    HW118482   3.291   0.155  16.781  0.3365 -0.6058 -0.0168
 2341SOL    HW218483   3.400   0.254  16.736  1.1385  0.1611 -1.3022
 2342SOL     OW18484   0.094   2.423  12.320  0.1090  0.7355 -0.1098
 2342SOL    HW118485   0.153   2.369  12.372  0.5564  0.7675 -0.5804
 2342SOL    HW218486   0.112   2.505  12.366 -0.5047  0.2241  1.0349
 2343SOL     OW18487   3.574   0.601   9.651  0.2178  0.2326  0.1171
 2343SOL    HW118488   3.663   0.619   9.622 -0.5178  1.9948 -1.0545
 2343SOL    HW218489   3.544   0.567   9.566  0.0014  0.7701 -0.0178
 2344SOL     OW18490   3.161   3.047   6.617  0.3335  0.4023 -0.5219
 2344SOL    HW118491   3.124   3.135   6.617  3.1465  1.5852 -0.8662
 2344SOL    HW218492   3.142   3.032   6.710  0.6363 -0.8786 -0.6640
 2345SOL     OW18493   1.116   3.696   0.000  0.0224 -0.2714 -0.1225
 2345SOL    HW118494   1.061   3.688   0.078 -1.0631 -1.1822 -0.9944
 2345SOL    HW218495   1.200   3.658   0.024 -1.3462 -2.4038  1.2942
 2346SOL     OW18496   2.506   3.743  10.784  0.4821 -0.5964 -0.0838
 2346SOL    HW118497   2.514   3.825  10.834 -0.5162  1.4676 -3.2690
 2346SOL    HW218498   2.458   3.787  10.714  0.0253 -0.8867  0.0408
 2347SOL     OW18499   0.624   1.921   5.163  0.1788 -0.5802  0.6797
 2347SOL    HW118500   0.574   1.900   5.242 -0.8039 -2.5908 -0.4503
 2347SOL    HW218501   0.640   1.831   5.136 -0.3327 -0.5982  0.4319
 2348SOL     OW18502   2.110   0.561   2.784 -0.1262  0.0025 -0.3925
 2348SOL    HW118503   2.195   0.539   2.821  1.3709  2.9879 -2.1157
 2348SOL    HW218504   2.069   0.603   2.859  1.2648 -1.6780  1.3207
 2349SOL     OW18505   3.444   0.849   8.081  0.2638 -0.2459  0.1413
 2349SOL    HW118506   3.512   0.839   8.014 -1.3572  1.3855 -1.7534
 2349SOL    HW218507   3.370   0.876   8.028  0.0469  0.8183  0.9988
 2350SOL     OW18508   0.939   1.033  17.048 -0.2681 -0.5353 -0.3789
 2350SOL    HW118509   0.981   1.031  16.962  0.0603 -0.0522 -0.2276
 2350SOL    HW218510   0.972   1.113  17.088 -0.8660  0.0397 -1.0328
 2351SOL     OW18511   4.698   3.736  15.316 -0.2624 -0.1365  0.0583
 2351SOL    HW118512   4.710   3.817  15.367 -0.0489 -1.3062  1.8592
 2351SOL    HW218513   0.062   3.702  15.329 -0.2490 -0.4268 -0.8268
 2352SOL     OW18514   0.528   4.390  12.878 -0.1310 -0.2977 -0.2442
 2352SOL    HW118515   0.546   4.481  12.854 -0.5092 -0.8457 -2.5895
 2352SOL    HW218516   0.615   4.350  12.881 -0.1389 -0.2345  0.8469
 2353SOL     OW18517   3.455   2.314  17.661  0.1928 -0.7066 -0.1434
 2353SOL    HW118518   3.366   2.309  17.625 -0.3437 -0.9099  1.2379
 2353SOL    HW218519   3.448   2.396   0.008  2.9355 -0.7465  0.3455
 2354SOL     OW18520   2.944   3.860  17.686  0.4408  0.3317  0.0880
 2354SOL    HW118521   3.016   3.903  17.639  0.9713 -0.3149  0.2920
 2354SOL    HW218522   2.945   3.930   0.049 -1.0155  0.9684 -0.6029
 2355SOL     OW18523   2.130   0.685   0.461  0.1843  0.3039 -0.0177
 2355SOL    HW118524   2.083   0.762   0.429 -0.9918 -1.5649 -2.8255
 2355SOL    HW218525   2.221   0.707   0.443 -0.5137  2.2686 -1.2265
 2356SOL     OW18526   3.452   0.249   1.726  0.4257 -0.2601 -0.0100
 2356SOL    HW118527   3.500   0.331   1.738  2.3120 -1.3270 -0.4235
 2356SOL    HW218528   3.429   0.218   1.814 -1.7499 -1.7420 -1.1130
 2357SOL     OW18529   3.624   1.719  17.519 -0.5999  0.2484 -0.4167
 2357SOL    HW118530   3.679   1.793  17.543  0.1173 -0.4668  0.1813
 2357SOL    HW218531   3.693   1.655  17.498 -1.6054 -1.1292  0.5004
 2358SOL     OW18532   4.304   1.201   6.639  0.3795 -0.3832  0.6204
 2358SOL    HW118533   4.371   1.160   6.693 -0.3522 -0.2466  1.6424
 2358SOL    HW218534   4.294   1.136   6.569  0.0742 -1.2777  1.4996
 2359SOL     OW18535   2.536   4.690  16.252 -0.1429 -0.0005  0.2085
 2359SOL    HW118536   2.612   4.635  16.270  0.2762  0.6085  0.2924
 2359SOL    HW218537   2.564   0.017  16.177 -1.0658 -0.9951 -0.8145
 2360SOL     OW18538   4.075   0.080  15.079 -0.0062  0.5475  0.3612
 2360SOL    HW118539   4.025   0.110  15.003 -0.5550  1.0641  0.9396
 2360SOL    HW218540   4.006   0.050  15.138  0.3442  0.9585  0.9691
 2361SOL     OW18541   2.362   3.838   4.520 -0.2259  0.0158 -0.0028
 2361SOL    HW118542   2.442   3.880   4.491 -0.8379  1.8674  0.9550
 2361SOL    HW218543   2.392   3.780   4.589  0.5530 -1.7658 -1.8718
 2362SOL     OW18544   4.618   2.876   4.586  0.5785  0.5617 -0.0669
 2362SOL    HW118545   4.624   2.780   4.582  3.2562  0.7602 -0.3376
 2362SOL    HW218546   4.675   2.890   4.511  1.5995 -1.4112  0.3282
 2363SOL     OW18547   0.635   3.094   4.582  0.2718 -0.1203 -0.1052
 2363SOL    HW118548   0.710   3.037   4.566  2.1919  1.8959  1.4567
 2363SOL    HW218549   0.680   3.179   4.589 -0.7785  0.5219 -1.3190
 2364SOL     OW18550   0.234   2.411  16.580 -0.2046 -0.5456 -0.0929
 2364SOL    HW118551   0.160   2.350  16.577  0.2394 -1.0400 -0.9053
 2364SOL    HW218552   0.239   2.440  16.489 -0.9180 -0.6887 -0.1754
 2365SOL     OW18553   2.791   3.913  13.782 -0.8497 -0.0155  0.0382
 2365SOL    HW118554   2.808   3.846  13.715  0.6133  0.0610  0.3390
 2365SOL    HW218555   2.703   3.940  13.756 -1.1831  1.1901  2.4923
 2366SOL     OW18556   0.429   3.909  11.122 -0.4389  0.2020  0.3135
 2366SOL    HW118557   0.357   3.909  11.184  0.1930  2.1442  1.0425
 2366SOL    HW218558   0.407   3.836  11.063 -0.7150  1.1563 -0.7813
 2367SOL     OW18559   1.255   0.605   7.668 -0.0568 -0.6626 -0.3858
 2367SOL    HW118560   1.253   0.576   7.577 -2.3198 -3.3886  0.5318
 2367SOL    HW218561   1.164   0.592   7.695 -0.4952 -0.4518 -1.7585
 2368SOL     OW18562   1.037   3.601   2.316 -0.4853 -0.6054  0.2536
 2368SOL    HW118563   0.943   3.615   2.325 -0.4873  0.4442 -1.4151
 2368SOL    HW218564   1.043   3.517   2.272 -0.5731 -0.6925  0.4065
 2369SOL     OW18565   1.625   1.457   1.444 -0.1203 -0.0107  0.4908
 2369SOL    HW118566   1.637   1.377   1.393  2.0622 -0.2879  1.4134
 2369SOL    HW218567   1.545   1.492   1.405 -0.6692 -0.4935  1.1930
 2370SOL     OW18568   0.021   0.358   5.792  0.1476 -0.0604 -0.5060
 2370SOL    HW118569   4.723   0.430   5.851 -3.0243 -0.6744 -0.9957
 2370SOL    HW218570   0.112   0.330   5.800  0.8274  2.0476 -0.7738
 2371SOL     OW18571   3.883   3.399   8.321 -0.3853  0.0493 -0.0875
 2371SOL    HW118572   3.901   3.351   8.402 -1.1689 -1.9602 -1.1065
 2371SOL    HW218573   3.917   3.348   8.248 -2.5905 -0.9760 -0.4242
 2372SOL     OW18574   1.566   1.022   5.786 -0.2301  0.5792 -0.3080
 2372SOL    HW118575   1.615   0.986   5.861 -1.0703  1.2854  0.5858
 2372SOL    HW218576   1.621   0.987   5.716  2.3546  2.4355  0.7608
 2373SOL     OW18577   3.762   1.642   5.717  0.1528  0.2964 -0.4593
 2373SOL    HW118578   3.828   1.642   5.648 -0.3475  1.9067 -0.9421
 2373SOL    HW218579   3.733   1.731   5.735  1.0998  0.1336  1.8829
 2374SOL     OW18580   0.574   0.251  15.190  0.9288 -0.7941 -0.3036
 2374SOL    HW118581   0.603   0.340  15.172  1.5766 -0.4430  2.4874
 2374SOL    HW218582   0.482   0.258  15.163  1.2652  0.5358 -1.1296
 2375SOL     OW18583   3.818   3.276   1.375  0.5501 -0.2661  0.1035
 2375SOL    HW118584   3.774   3.322   1.304  2.8471  0.0825 -1.1057
 2375SOL    HW218585   3.743   3.285   1.434 -0.7038  1.1628 -1.7069
 2376SOL     OW18586   2.670   0.171   3.238  0.5303  0.5876  0.1950
 2376SOL    HW118587   2.696   0.079   3.227 -0.5838  0.1421  1.2823
 2376SOL    HW218588   2.599   0.177   3.174  1.3310 -0.0955 -0.7476
 2377SOL     OW18589   2.285   1.980   2.458 -0.0180 -0.4929  0.5422
 2377SOL    HW118590   2.256   2.043   2.392  2.0419  1.2242  1.2911
 2377SOL    HW218591   2.377   1.991   2.437  0.3223  0.5511  2.5721
 2378SOL     OW18592   0.109   2.985   5.036  0.0577  0.0477  0.0934
 2378SOL    HW118593   0.064   2.903   5.058  0.4041 -0.5214 -1.2809
 2378SOL    HW218594   0.090   2.995   4.942  2.8825  3.9294 -0.0511
 2379SOL     OW18595   2.250   1.230   4.189  0.0002 -0.5263 -0.2984
 2379SOL    HW118596   2.196   1.176   4.132  0.1458  0.7414 -1.6388
 2379SOL    HW218597   2.304   1.165   4.234  0.0540 -1.0524 -1.1212
 2380SOL     OW18598   2.986   1.959  14.891  0.1353  0.0242  0.3128
 2380SOL    HW118599   3.009   2.048  14.918  1.6058  0.0072 -0.8637
 2380SOL    HW218600   2.904   1.954  14.939 -1.5858 -1.5631 -2.7925
 2381SOL     OW18601   0.733   0.771  15.868 -0.1318  0.4841  0.1332
 2381SOL    HW118602   0.699   0.714  15.799  0.6811  0.1160  0.0346
 2381SOL    HW218603   0.654   0.800  15.914  1.0467  0.0321  2.4239
 2382SOL     OW18604   1.143   2.203   1.272  0.2538 -0.1804  0.0530
 2382SOL    HW118605   1.074   2.259   1.307 -0.7819 -0.2953 -1.8132
 2382SOL    HW218606   1.106   2.115   1.281 -0.1939 -0.0841 -0.8314
 2383SOL     OW18607   1.378   3.190  16.950  0.1084 -0.4923  0.2868
 2383SOL    HW118608   1.408   3.197  17.040  0.8273 -0.4771  0.0422
 2383SOL    HW218609   1.301   3.137  16.970 -0.5308 -0.4413 -2.0515
 2384SOL     OW18610   3.073   3.083   6.307 -0.3441 -0.0880  0.0863
 2384SOL    HW118611   3.025   3.155   6.349 -0.6265 -2.0634  3.1007
 2384SOL    HW218612   3.043   3.091   6.216 -2.1029  1.5108  0.7997
 2385SOL     OW18613   4.327   2.098  11.520 -0.5774 -0.0257 -0.1288
 2385SOL    HW118614   4.361   2.016  11.557 -3.1366 -0.5238  1.1030
 2385SOL    HW218615   4.323   2.143  11.604  0.8702  1.4323 -0.8346
 2386SOL     OW18616   4.685   1.357   1.240  0.2781 -0.0804  0.5526
 2386SOL    HW118617   4.683   1.266   1.210  2.9383 -0.1054  0.4427
 2386SOL    HW218618   0.003   1.348   1.325  1.1272  3.0111  0.4466
 2387SOL     OW18619   4.058   0.356   2.094  0.6850  0.9863 -0.3574
 2387SOL    HW118620   4.060   0.360   2.189  0.4284 -3.0601 -0.1771
 2387SOL    HW218621   4.014   0.439   2.078 -0.6877  0.0076 -1.6452
 2388SOL     OW18622   3.143   1.976   9.113 -0.3588  0.1505  0.4386
 2388SOL    HW118623   3.175   2.036   9.046 -1.3336  0.4027  0.1961
 2388SOL    HW218624   3.054   2.009   9.122  0.0618  1.0027  1.4470
 2389SOL     OW18625   2.198   0.188   7.199  0.0078  0.2171 -0.0241
 2389SOL    HW118626   2.108   0.161   7.178  0.5159 -1.9393  0.6468
 2389SOL    HW218627   2.187   0.244   7.275 -0.2596 -0.0137  0.1063
 2390SOL     OW18628   4.119   1.190   0.884 -0.3206 -0.1309 -0.3506
 2390SOL    HW118629   4.204   1.227   0.858  0.4372 -1.2210  0.5872
 2390SOL    HW218630   4.099   1.249   0.957  0.2913 -0.7379  0.3105
 2391SOL     OW18631   1.926   2.212   3.652 -0.3748 -0.2809 -0.6292
 2391SOL    HW118632   1.935   2.237   3.561 -0.5394 -0.7573 -0.7766
 2391SOL    HW218633   1.897   2.122   3.638  0.4262 -0.5289 -0.6730
 2392SOL     OW18634   1.107   4.481   6.387 -0.1488 -0.0673 -0.1390
 2392SOL    HW118635   1.021   4.523   6.384  0.0295  0.1665 -2.4067
 2392SOL    HW218636   1.089   4.393   6.421  0.1552  0.7695  2.1554
 2393SOL     OW18637   4.208   4.624   5.877  0.1515  0.3820 -0.7983
 2393SOL    HW118638   4.304   4.620   5.877  0.1059 -0.5568 -0.3578
 2393SOL    HW218639   4.193   4.691   5.811 -0.5221 -1.4191 -2.4432
 2394SOL     OW18640   0.675   4.618  15.535  0.1028 -0.5761  0.4799
 2394SOL    HW118641   0.702   4.693  15.481  1.9493 -0.4307  1.6121
 2394SOL    HW218642   0.601   4.580  15.487 -0.6842  0.8800  0.5316
 2395SOL     OW18643   1.040   3.663   3.599 -0.3789  0.4464  0.5973
 2395SOL    HW118644   0.978   3.590   3.599 -2.0513  1.8906  1.5713
 2395SOL    HW218645   1.013   3.710   3.521 -0.7263 -2.0212 -0.7734
 2396SOL     OW18646   1.737   2.721   4.016 -0.2382 -0.0987 -0.1162
 2396SOL    HW118647   1.656   2.670   4.006  0.4954 -1.1215 -0.8348
 2396SOL    HW218648   1.696   2.807   4.030 -0.1561  0.0693 -0.8620
 2397SOL     OW18649   1.276   1.049   2.043  0.1283  0.0186  0.1137
 2397SOL    HW118650   1.187   1.065   2.013 -0.5741 -1.6852  1.2833
 2397SOL    HW218651   1.268   0.983   2.113 -1.1529 -2.2515 -2.1636
 2398SOL     OW18652   3.326   4.160   9.464 -0.1957 -0.3830  0.5033
 2398SOL    HW118653   3.239   4.197   9.449 -0.7881 -1.3836  1.4645
 2398SOL    HW218654   3.340   4.153   9.559  1.7898  0.1005  0.2474
 2399SOL     OW18655   2.035   0.630   5.306  0.0851  0.6567  0.4208
 2399SOL    HW118656   1.976   0.575   5.254 -1.0409  1.1788  1.1375
 2399SOL    HW218657   2.041   0.581   5.388 -1.4640  0.6104  0.5219
 2400SOL     OW18658   2.307   0.406   6.722 -0.0604  0.2135  0.5316
 2400SOL    HW118659   2.385   0.396   6.669  0.0346  0.5979  0.5983
 2400SOL    HW218660   2.235   0.424   6.661 -0.6285 -0.6562  0.9522
 2401SOL     OW18661   4.135   4.015   5.390 -0.2926  0.1617  0.0201
 2401SOL    HW118662   4.209   3.999   5.330 -0.2336 -1.3633  0.5064
 2401SOL    HW218663   4.171   4.084   5.445 -0.6582  1.1105 -0.9166
 2402SOL     OW18664   3.505   0.723   5.365  0.2646 -0.3036 -0.1589
 2402SOL    HW118665   3.478   0.749   5.277 -0.0635  0.3852  0.1485
 2402SOL    HW218666   3.431   0.672   5.399  0.6071 -1.5985 -1.3415
 2403SOL     OW18667   0.119   2.017  14.451 -0.2869 -0.4303 -0.1426
 2403SOL    HW118668   0.154   2.086  14.506 -0.6038 -0.4652  0.0996
 2403SOL    HW218669   0.130   2.055  14.363 -0.4230 -1.8306 -0.7732
 2404SOL     OW18670   3.769   2.275  12.294  0.5880 -0.6093  0.3223
 2404SOL    HW118671   3.819   2.310  12.367 -0.9632 -1.4811  1.8031
 2404SOL    HW218672   3.765   2.183  12.320  1.1220 -0.5083  0.7645
 2405SOL     OW18673   4.431   1.296   7.515 -0.1141  0.0709  0.2673
 2405SOL    HW118674   4.484   1.249   7.450 -0.6811 -1.9012  1.2093
 2405SOL    HW218675   4.355   1.238   7.522 -0.6483  0.7777  0.2733
 2406SOL     OW18676   1.619   4.399   2.956  0.3151  0.5189  0.2769
 2406SOL    HW118677   1.680   4.453   2.905  0.5589 -0.1756 -0.1530
 2406SOL    HW218678   1.603   4.452   3.034 -2.0616 -0.3473  0.3832
 2407SOL     OW18679   2.621   0.814  17.625 -0.2333 -0.3641 -0.3664
 2407SOL    HW118680   2.591   0.905  17.614 -0.6224 -0.4081  0.2979
 2407SOL    HW218681   2.644   0.805  17.533 -0.5153  0.6224 -0.5407
 2408SOL     OW18682   1.929   1.691   1.963 -0.2649  0.6673  0.0325
 2408SOL    HW118683   1.987   1.760   1.995  0.7283 -0.0940 -0.1412
 2408SOL    HW218684   1.904   1.645   2.042 -2.4618  0.6281 -0.6895
 2409SOL     OW18685   1.325   1.669  13.529  0.1645  0.0252 -0.1589
 2409SOL    HW118686   1.325   1.637  13.439 -0.3818 -0.2574 -0.0646
 2409SOL    HW218687   1.360   1.758  13.524  2.3649 -0.8693 -0.6998
 2410SOL     OW18688   1.894   0.160   3.177 -0.7694  0.9296 -0.2519
 2410SOL    HW118689   1.949   0.137   3.102 -1.1530 -0.7489 -0.0186
 2410SOL    HW218690   1.840   0.081   3.187 -0.2957  0.5806 -0.4234
 2411SOL     OW18691   4.581   1.593   4.747 -0.2389  0.0133 -0.0068
 2411SOL    HW118692   4.674   1.573   4.753 -0.3293 -0.1035  1.0097
 2411SOL    HW218693   4.590   1.687   4.731  1.6139  0.3133  2.7976
 2412SOL     OW18694   4.580   2.845  10.885 -0.2102 -0.4111 -0.2463
 2412SOL    HW118695   4.649   2.812  10.828 -0.4421 -2.6062  0.7316
 2412SOL    HW218696   4.634   2.900  10.942 -0.5287 -1.2738  0.9042
 2413SOL     OW18697   2.774   3.935   7.717 -0.0871 -0.3913  0.3268
 2413SOL    HW118698   2.755   4.025   7.690 -0.6289 -0.3987  0.6968
 2413SOL    HW218699   2.860   3.914   7.679 -0.0825 -0.4735  0.3834
 2414SOL     OW18700   1.790   3.083  11.917 -0.4368  0.7198 -0.1404
 2414SOL    HW118701   1.878   3.113  11.939  0.5331 -2.9094  1.0056
 2414SOL    HW218702   1.786   3.005  11.973  0.9996  1.0002  0.3638
 2415SOL     OW18703   1.462   0.252  16.771 -0.5439  0.1469 -0.2086
 2415SOL    HW118704   1.423   0.246  16.858  1.7085  0.6467  0.8182
 2415SOL    HW218705   1.383   0.238  16.718 -0.5714  1.7205 -0.6027
 2416SOL     OW18706   0.122   2.161   7.191  0.2171 -0.0481 -0.2055
 2416SOL    HW118707   0.113   2.200   7.278  1.9134 -1.4283  0.5846
 2416SOL    HW218708   0.118   2.242   7.141  3.7076 -0.2199 -0.7455
 2417SOL     OW18709   3.527   2.397  12.379  0.1494 -0.4099 -0.0511
 2417SOL    HW118710   3.504   2.380  12.470 -1.9868 -1.4714 -0.7680
 2417SOL    HW218711   3.600   2.336  12.379 -0.7969 -1.5516 -0.0051
 2418SOL     OW18712   1.349   1.420   8.866 -0.3668 -0.1467 -0.3669
 2418SOL    HW118713   1.420   1.471   8.828 -1.5699  1.6976 -0.1335
 2418SOL    HW218714   1.271   1.472   8.847 -0.7129 -0.6780 -0.4057
 2419SOL     OW18715   0.401   0.925   4.349  0.1331 -0.2891  0.0919
 2419SOL    HW118716   0.341   0.999   4.354 -0.0646 -0.1236 -4.4631
 2419SOL    HW218717   0.344   0.848   4.355  0.8303 -0.8994 -1.1681
 2420SOL     OW18718   1.958   4.394   5.667  0.2364 -0.3830  0.0276
 2420SOL    HW118719   2.035   4.451   5.658 -1.5863  2.3869  1.6690
 2420SOL    HW218720   1.931   4.393   5.576 -0.5114 -2.0793  0.2875
 2421SOL     OW18721   2.661   3.351  15.596  0.4460  0.6878 -0.6929
 2421SOL    HW118722   2.576   3.322  15.563  0.3633  0.2734 -0.1243
 2421SOL    HW218723   2.664   3.322  15.688 -1.5801  2.1942 -0.1471
 2422SOL     OW18724   2.043   1.500   3.867 -0.0718  0.7273  0.4564
 2422SOL    HW118725   2.055   1.405   3.867 -1.0134  0.6022  0.4862
 2422SOL    HW218726   1.974   1.514   3.932 -1.1694 -0.1493 -0.5186
 2423SOL     OW18727   4.042   2.751  12.672  0.3994  0.4213 -0.0840
 2423SOL    HW118728   4.098   2.816  12.714  0.7814  1.3691 -2.0388
 2423SOL    HW218729   4.015   2.801  12.595 -0.7370 -0.5827 -0.3455
 2424SOL     OW18730   2.511   4.038   4.755 -0.1808 -0.4962  0.1349
 2424SOL    HW118731   2.578   3.976   4.728  0.6664  0.6892 -0.4763
 2424SOL    HW218732   2.463   3.980   4.814 -0.4700 -1.5754 -1.1679
 2425SOL     OW18733   2.193   2.646   4.844  0.1774  0.4132  0.2448
 2425SOL    HW118734   2.176   2.561   4.883  0.2107  0.1157 -0.3905
 2425SOL    HW218735   2.235   2.618   4.763 -0.9909  0.7080 -0.4749
 2426SOL     OW18736   4.118   3.836  11.272  0.1421 -0.5237  0.0872
 2426SOL    HW118737   4.100   3.914  11.324  0.4626 -1.0108  0.9279
 2426SOL    HW218738   4.035   3.788  11.278 -0.1190 -0.0979 -0.1641
 2427SOL     OW18739   4.614   4.638   7.067 -0.2505  0.4862 -0.3648
 2427SOL    HW118740   4.607   4.543   7.059 -0.6949  0.4978 -0.1215
 2427SOL    HW218741   4.706   4.651   7.092 -0.6014  2.3396  0.0203
 2428SOL     OW18742   2.810   0.767   9.188 -0.1482  0.6948  0.4630
 2428SOL    HW118743   2.747   0.701   9.216 -0.0944  0.3497 -0.2468
 2428SOL    HW218744   2.893   0.724   9.205 -0.8694 -0.6615  0.5618
 2429SOL     OW18745   3.151   3.907  14.060  0.4401 -0.1019 -0.2491
 2429SOL    HW118746   3.144   3.989  14.109  1.3162 -2.4611  3.8067
 2429SOL    HW218747   3.074   3.906  14.003  0.0572 -2.0968  0.3095
 2430SOL     OW18748   0.126   2.392   5.688  0.4370  0.0036 -0.1081
 2430SOL    HW118749   0.066   2.466   5.678  3.8249  2.4863 -2.0915
 2430SOL    HW218750   0.070   2.317   5.666 -1.3420  0.8292  1.5653
 2431SOL     OW18751   2.818   4.573   4.729 -0.4174  0.1051  0.2595
 2431SOL    HW118752   2.838   4.575   4.823  0.2423 -3.2967  0.1932
 2431SOL    HW218753   2.723   4.583   4.730 -0.3116  1.1554 -0.9610
 2432SOL     OW18754   0.378   2.880   7.783 -0.5787  0.0581 -0.7907
 2432SOL    HW118755   0.308   2.816   7.797  0.0172  0.2769  3.1617
 2432SOL    HW218756   0.439   2.822   7.738 -0.0203 -0.5669  0.7600
 2433SOL     OW18757   2.014   1.521   5.080 -0.3794 -0.2714  0.1954
 2433SOL    HW118758   2.099   1.478   5.083  0.3062  1.0390 -0.3260
 2433SOL    HW218759   1.955   1.446   5.082 -0.2065 -0.4068  0.1980
 2434SOL     OW18760   0.442   3.924   7.053 -0.1544 -0.5611  0.3734
 2434SOL    HW118761   0.531   3.919   7.088 -1.0577  0.8421  2.8633
 2434SOL    HW218762   0.391   3.886   7.124  1.2065  0.2862  1.8057
 2435SOL     OW18763   0.128   3.106   8.299  0.1407 -0.5408  0.5173
 2435SOL    HW118764   0.223   3.097   8.291  0.2455  0.2938  0.7979
 2435SOL    HW218765   0.130   3.110   8.395 -2.3174 -0.0150  0.5465
 2436SOL     OW18766   3.370   3.236   9.140  0.3241  0.6376 -0.1785
 2436SOL    HW118767   3.334   3.253   9.227  0.9230 -2.1373  0.6126
 2436SOL    HW218768   3.323   3.302   9.089  2.6636  1.3606 -1.3901
 2437SOL     OW18769   0.946   3.845   5.782  0.4966  0.0209 -0.5071
 2437SOL    HW118770   0.888   3.917   5.755 -0.5853 -1.1898 -1.3793
 2437SOL    HW218771   0.895   3.779   5.736  0.1645  0.7683 -1.2239
 2438SOL     OW18772   4.102   2.426   1.189  0.5798  0.3250 -0.0689
 2438SOL    HW118773   4.102   2.440   1.283  0.5610  0.0076 -0.0209
 2438SOL    HW218774   4.026   2.368   1.181 -0.4723  2.0717 -2.9556
 2439SOL     OW18775   0.427   0.764   4.571  0.1678  0.1199 -0.1971
 2439SOL    HW118776   0.363   0.706   4.531  2.5622 -2.3654 -0.4926
 2439SOL    HW218777   0.435   0.836   4.509  2.1667 -0.8871 -1.1120
 2440SOL     OW18778   4.721   1.393   0.250 -0.1007  0.2005 -0.4963
 2440SOL    HW118779   0.069   1.368   0.305 -0.8932  1.2108  1.0285
 2440SOL    HW218780   0.003   1.316   0.194 -0.4281 -1.2880  1.5074
 2441SOL     OW18781   0.796   0.066  16.975 -0.5182  0.0226  0.1205
 2441SOL    HW118782   0.746   0.028  17.048  1.4533 -0.8387  1.0079
 2441SOL    HW218783   0.797   0.000  16.906  1.5260  1.8388 -1.5676
 2442SOL     OW18784   4.253   2.268   5.005 -0.5528  0.5057  0.0138
 2442SOL    HW118785   4.263   2.348   5.057  2.1846 -0.0868  0.4372
 2442SOL    HW218786   4.218   2.301   4.923  0.7941 -1.4732 -1.3731
 2443SOL     OW18787   3.316   1.352   8.872 -0.5736 -0.1528 -0.5332
 2443SOL    HW118788   3.234   1.383   8.834 -0.1757 -0.6408 -1.7819
 2443SOL    HW218789   3.329   1.421   8.936 -0.0050 -2.1327  1.4821
 2444SOL     OW18790   1.407   3.279   2.802  0.0121  0.0794 -0.5350
 2444SOL    HW118791   1.463   3.262   2.879  0.1175 -1.0474 -0.8610
 2444SOL    HW218792   1.358   3.198   2.788 -0.1183  0.1631 -0.5534
 2445SOL     OW18793   3.212   2.972  11.522 -0.1423 -0.0939 -0.7139
 2445SOL    HW118794   3.257   2.960  11.438 -0.2618  1.2707 -0.9836
 2445SOL    HW218795   3.125   2.995  11.489  0.1961  1.6497 -0.4001
 2446SOL     OW18796   2.133   3.913   4.666 -0.0065 -0.8171 -0.2042
 2446SOL    HW118797   2.113   3.833   4.715  2.1455 -1.1699  0.1135
 2446SOL    HW218798   2.211   3.892   4.614  0.4059  0.0432  0.0577
 2447SOL     OW18799   2.538   1.805   5.171 -0.2639  0.2786 -0.1097
 2447SOL    HW118800   2.475   1.843   5.232 -0.8743 -0.4712 -0.2612
 2447SOL    HW218801   2.620   1.818   5.217  0.2241  2.5064 -1.5943
 2448SOL     OW18802   2.846   4.305  11.227 -0.4122  0.3293  0.0774
 2448SOL    HW118803   2.835   4.333  11.318  1.0151 -0.4929  0.5018
 2448SOL    HW218804   2.752   4.299  11.211 -0.6291  1.4047  0.9693
 2449SOL     OW18805   2.098   4.249  13.390  0.9360 -0.3281 -0.0076
 2449SOL    HW118806   2.050   4.293  13.320  2.3305  1.1727 -0.0103
 2449SOL    HW218807   2.070   4.301  13.466  2.3726  0.2258  0.1249
 2450SOL     OW18808   1.534   2.027   4.261 -0.0968 -0.6936  0.1565
 2450SOL    HW118809   1.513   2.013   4.169  0.4879 -0.7469  0.0317
 2450SOL    HW218810   1.584   1.950   4.285 -0.0788 -0.8808 -0.4994
 2451SOL     OW18811   0.362   1.150   6.485 -0.0619  0.1814  0.1338
 2451SOL    HW118812   0.336   1.060   6.468  0.2055  0.4631 -1.7553
 2451SOL    HW218813   0.311   1.185   6.412  0.9610  1.8068  0.2033
 2452SOL     OW18814   0.982   0.579   7.712 -0.6285 -0.3888  0.2249
 2452SOL    HW118815   0.926   0.622   7.647  0.1913  0.0085 -0.2157
 2452SOL    HW218816   0.926   0.542   7.780  1.9324 -0.7628  2.0805
 2453SOL     OW18817   4.092   1.742   4.639 -0.1423 -0.2752 -0.2775
 2453SOL    HW118818   4.097   1.740   4.543 -1.1623 -2.9711 -0.2769
 2453SOL    HW218819   4.152   1.670   4.662  2.0410  2.4630  2.6073
 2454SOL     OW18820   0.229   4.042   7.895  1.0315 -0.0590  0.3274
 2454SOL    HW118821   0.183   3.965   7.928 -0.0480  0.4722  0.0641
 2454SOL    HW218822   0.290   4.047   7.970  1.8748  3.9405 -0.6560
 2455SOL     OW18823   3.033   2.309   4.491 -0.5067 -0.0337  0.0766
 2455SOL    HW118824   3.096   2.322   4.420 -0.1656  1.0689  0.5619
 2455SOL    HW218825   3.073   2.243   4.547  1.3309  1.7618  0.9170
 2456SOL     OW18826   3.561   3.610  12.417 -0.1658  0.3834  0.1523
 2456SOL    HW118827   3.509   3.668  12.473 -1.4205  2.8568 -3.5861
 2456SOL    HW218828   3.644   3.656  12.425  1.0343 -1.8258  0.5045
 2457SOL     OW18829   0.371   0.783   3.586 -0.0857  0.0561  0.2228
 2457SOL    HW118830   0.442   0.719   3.583  0.4655  0.6347  0.9904
 2457SOL    HW218831   0.417   0.854   3.630  0.4173  0.3939 -0.8411
 2458SOL     OW18832   3.513   3.744   9.553 -0.7488 -0.2818  0.3735
 2458SOL    HW118833   3.576   3.816   9.550 -1.9591  0.7622 -0.5551
 2458SOL    HW218834   3.466   3.755   9.636 -0.5435  0.2628  0.4193
 2459SOL     OW18835   4.283   3.532   6.853  0.8106  0.1663 -0.5982
 2459SOL    HW118836   4.306   3.610   6.803  2.8430  0.9979  1.6255
 2459SOL    HW218837   4.203   3.514   6.803 -1.0907  3.2828  1.2925
 2460SOL     OW18838   1.296   4.131   4.325 -0.0647  0.4641  0.3709
 2460SOL    HW118839   1.243   4.091   4.394 -0.5655  0.4500 -0.0188
 2460SOL    HW218840   1.319   4.218   4.355 -1.5435  0.8596  0.3477
 2461SOL     OW18841   2.891   2.014   9.689 -0.1463  0.3239 -0.1086
 2461SOL    HW118842   2.915   1.957   9.762 -0.6369 -1.1139 -1.0778
 2461SOL    HW218843   2.923   2.096   9.728 -1.7220  0.2009  1.4261
 2462SOL     OW18844   0.354   2.598  11.447 -0.0246  0.0557  0.2780
 2462SOL    HW118845   0.271   2.563  11.415  0.7218 -0.5762 -1.0045
 2462SOL    HW218846   0.345   2.564  11.536 -1.4824 -0.0198  0.1022
 2463SOL     OW18847   3.910   4.186   8.584 -1.2049 -0.1014  0.3452
 2463SOL    HW118848   3.980   4.212   8.643 -1.0588 -1.4653  0.7669
 2463SOL    HW218849   3.865   4.113   8.627 -1.8894 -0.0550 -0.2853
 2464SOL     OW18850   2.512   3.623  11.502 -0.8777 -0.0041  0.2646
 2464SOL    HW118851   2.596   3.620  11.548 -0.2795 -3.6626 -1.1102
 2464SOL    HW218852   2.481   3.534  11.519 -0.7780  0.0692  0.8345
 2465SOL     OW18853   2.979   0.648  10.351  0.2048 -0.1027 -0.2131
 2465SOL    HW118854   2.908   0.641  10.416 -1.4108 -0.6750 -2.0417
 2465SOL    HW218855   2.924   0.663  10.275  0.3827 -0.4114 -0.4032
 2466SOL     OW18856   1.210   3.773  14.052  0.2212 -0.0222  0.3659
 2466SOL    HW118857   1.170   3.820  13.979 -1.5152 -1.3240  0.4569
 2466SOL    HW218858   1.263   3.708  14.007  0.4330  1.5288 -1.6335
 2467SOL     OW18859   0.963   1.497  16.229  0.0162  0.6884  0.8434
 2467SOL    HW118860   0.926   1.567  16.282 -0.1530  2.1746 -1.2828
 2467SOL    HW218861   0.974   1.432  16.299  0.7831  0.1736  0.2539
 2468SOL     OW18862   3.976   3.631  16.366  0.2023 -0.6270  0.1339
 2468SOL    HW118863   3.942   3.551  16.326  1.6140 -0.8183 -0.6595
 2468SOL    HW218864   4.054   3.647  16.314  0.9386 -1.3335  1.0236
 2469SOL     OW18865   1.795   3.431   9.612  0.9329  0.0988 -0.1141
 2469SOL    HW118866   1.770   3.480   9.690 -3.4424 -0.7683 -0.9291
 2469SOL    HW218867   1.808   3.342   9.646 -1.2754  0.6120  2.0486
 2470SOL     OW18868   0.374   2.024   0.820  0.3451 -0.2148 -0.2382
 2470SOL    HW118869   0.460   1.986   0.838  0.2791 -0.5667 -0.6816
 2470SOL    HW218870   0.361   2.082   0.895  0.4946 -0.6760  0.1430
 2471SOL     OW18871   0.531   2.193  14.134  0.0411  0.2486  0.2289
 2471SOL    HW118872   0.583   2.220  14.059 -0.0830  1.1600  0.4763
 2471SOL    HW218873   0.565   2.260  14.193 -1.0807  0.1682  0.9788
 2472SOL     OW18874   0.623   1.447   7.529 -0.1148 -0.7255  0.2944
 2472SOL    HW118875   0.571   1.462   7.450  1.1871 -0.4704 -0.5160
 2472SOL    HW218876   0.562   1.406   7.590 -1.8450  0.4603 -0.6631
 2473SOL     OW18877   1.166   1.275   7.140  0.0135  1.0158 -0.6046
 2473SOL    HW118878   1.179   1.283   7.045  3.3656 -1.7745 -0.3780
 2473SOL    HW218879   1.082   1.230   7.131  1.3111 -1.5926  0.1647
 2474SOL     OW18880   0.705   0.878   1.416  0.5827  0.4526 -0.1254
 2474SOL    HW118881   0.623   0.913   1.449  0.4236 -1.2014  1.2338
 2474SOL    HW218882   0.704   0.922   1.331  2.5469 -1.0733 -0.9463
 2475SOL     OW18883   3.266   2.525   5.610 -0.2874  0.5280 -0.1638
 2475SOL    HW118884   3.286   2.452   5.668 -0.1497 -1.3903 -2.6056
 2475SOL    HW218885   3.353   2.544   5.574  1.5623 -1.4456  3.3205
 2476SOL     OW18886   2.992   2.718   3.023  0.3426 -0.2730 -0.0442
 2476SOL    HW118887   2.955   2.635   2.995  1.3930 -1.5189  2.2044
 2476SOL    HW218888   2.926   2.785   3.001  1.3004  0.2580 -1.3219
 2477SOL     OW18889   4.276   3.256   9.072 -0.5744 -0.3163 -0.2207
 2477SOL    HW118890   4.283   3.330   9.012 -0.3666 -1.0941 -1.1534
 2477SOL    HW218891   4.341   3.281   9.138 -0.0210  2.3494 -1.7676
 2478SOL     OW18892   0.262   2.954  13.038  0.5626  0.2489  0.2735
 2478SOL    HW118893   0.277   2.950  13.133  0.8962  0.7805  0.2414
 2478SOL    HW218894   0.196   3.022  13.023 -0.4309 -0.9579 -0.7471
 2479SOL     OW18895   0.402   1.515  14.239 -0.1081  0.0994  0.4221
 2479SOL    HW118896   0.400   1.611  14.231 -1.1049 -0.0935 -1.7818
 2479SOL    HW218897   0.396   1.484  14.149 -0.2526  0.2609  0.3752
 2480SOL     OW18898   0.859   0.154   1.183  0.2365 -0.9341  0.5491
 2480SOL    HW118899   0.894   0.144   1.095  1.5064  0.7990  0.8715
 2480SOL    HW218900   0.935   0.151   1.242 -0.1647 -0.1851  1.1019
 2481SOL     OW18901   1.109   1.202   5.919 -0.6597 -0.2205 -0.2269
 2481SOL    HW118902   1.071   1.218   6.005 -0.2420 -0.3969 -0.0118
 2481SOL    HW218903   1.162   1.278   5.893 -0.0675 -0.2264  0.9716
 2482SOL     OW18904   3.823   1.762  10.676  0.6659  0.3890  0.3740
 2482SOL    HW118905   3.744   1.780  10.626 -0.1426 -2.8122  0.5267
 2482SOL    HW218906   3.799   1.675  10.707  0.9359 -0.7408 -2.5854
 2483SOL     OW18907   0.138   4.682   3.456 -0.0645 -0.2603  0.4498
 2483SOL    HW118908   0.081   4.653   3.384 -0.7928  2.0514  0.1030
 2483SOL    HW218909   0.189   4.601   3.463 -1.2233 -1.0423  0.0690
 2484SOL     OW18910   0.095   1.936   7.627 -0.2690  0.2461 -0.8401
 2484SOL    HW118911   0.067   1.971   7.542 -0.1608  0.1036 -0.9347
 2484SOL    HW218912   0.014   1.943   7.678  1.0849 -2.2046  1.6163
 2485SOL     OW18913   0.724   2.535   7.617 -0.1732 -0.2906 -0.0506
 2485SOL    HW118914   0.805   2.546   7.567  0.8252 -1.0099  1.4317
 2485SOL    HW218915   0.755   2.558   7.704 -1.2830 -0.0158  0.2815
 2486SOL     OW18916   3.029   3.756   3.438 -0.4330  0.1500 -0.0702
 2486SOL    HW118917   2.943   3.790   3.464 -0.6136 -0.2937 -0.0973
 2486SOL    HW218918   3.046   3.818   3.367 -0.9488 -0.5366 -0.7903
 2487SOL     OW18919   0.681   2.386  14.277 -0.1331 -0.0946  0.3434
 2487SOL    HW118920   0.745   2.386  14.206 -1.7168 -2.1257 -1.0828
 2487SOL    HW218921   0.687   2.476  14.309  1.0043 -0.1337  0.2148
 2488SOL     OW18922   2.845   2.058  10.787 -0.0957 -0.6146  0.3478
 2488SOL    HW118923   2.755   2.090  10.786 -0.6984 -2.2884  0.3610
 2488SOL    HW218924   2.894   2.110  10.850  1.7512  1.5754 -2.9367
 2489SOL     OW18925   0.164   1.016  12.309 -0.2468 -0.4487  0.1239
 2489SOL    HW118926   0.135   0.990  12.396  1.1582  3.6886  1.8514
 2489SOL    HW218927   0.248   0.971  12.299 -0.4307 -0.1920 -2.4579
 2490SOL     OW18928   4.228   4.316  11.961  0.1308  0.3004 -0.0031
 2490SOL    HW118929   4.300   4.315  12.024  0.8133 -1.1540 -0.7914
 2490SOL    HW218930   4.249   4.395  11.912  1.8958  0.5116  1.0930
 2491SOL     OW18931   2.302   2.464   1.312  0.0659  0.2293  0.3560
 2491SOL    HW118932   2.245   2.393   1.343  1.1237 -1.3039 -1.2363
 2491SOL    HW218933   2.246   2.491   1.240 -1.7585 -1.1239  1.2509
 2492SOL     OW18934   0.367   0.050  15.115  0.8371  0.1027  0.0097
 2492SOL    HW118935   0.390   0.059  15.208  0.1786 -0.0365  0.1823
 2492SOL    HW218936   0.438   0.096  15.069 -0.3320  0.6398 -1.2644
 2493SOL     OW18937   3.796   0.607  11.016  0.3882  0.2721  0.7396
 2493SOL    HW118938   3.859   0.534  11.009  2.1848  1.8464  0.5169
 2493SOL    HW218939   3.858   0.678  11.001 -0.1502  0.7909  1.0199
 2494SOL     OW18940   4.033   3.611  10.883 -0.1947  0.4706 -0.9188
 2494SOL    HW118941   4.071   3.524  10.897  0.0593  0.3714 -2.2724
 2494SOL    HW218942   4.089   3.656  10.947  0.5848  1.5850 -2.3847
 2495SOL     OW18943   4.482   0.008   1.920  0.1179 -0.0577  0.7840
 2495SOL    HW118944   4.445   0.094   1.942  0.0468 -0.5478  2.5747
 2495SOL    HW218945   4.558   0.000   1.978  0.8355  1.3624  0.0556
 2496SOL     OW18946   2.298   4.499  13.435 -0.2040 -0.2673  0.4206
 2496SOL    HW118947   2.275   4.477  13.345  0.6242 -1.5389  0.5119
 2496SOL    HW218948   2.319   4.409  13.461 -1.5462 -0.2148  1.6743
 2497SOL     OW18949   2.156   3.087   9.085  0.9190 -0.2188  0.1697
 2497SOL    HW118950   2.203   3.070   9.003 -0.3376  0.1528 -0.6219
 2497SOL    HW218951   2.207   3.161   9.118  3.8536 -1.2790 -1.9315
 2498SOL     OW18952   3.919   1.323   3.926 -0.0601 -0.0949  0.1033
 2498SOL    HW118953   3.970   1.243   3.912  1.5492  1.3211 -2.0525
 2498SOL    HW218954   3.984   1.391   3.909 -0.2417 -0.5380 -2.2857
 2499SOL     OW18955   0.230   1.116   9.159  0.3641 -0.3030  0.2861
 2499SOL    HW118956   0.246   1.056   9.086 -2.4296 -0.7646  0.0811
 2499SOL    HW218957   0.229   1.051   9.230  0.5810  0.2106  0.7667
 2500SOL     OW18958   4.239   1.238   2.509 -0.0850 -0.0023 -0.1824
 2500SOL    HW118959   4.327   1.239   2.469  0.5333  1.0424  1.2088
 2500SOL    HW218960   4.239   1.154   2.554 -0.0924  0.6403  0.9963
 2501SOL     OW18961   2.197   1.005   6.923  0.6648  0.4635 -0.1083
 2501SOL    HW118962   2.292   1.006   6.935  0.5197  1.0900  0.9969
 2501SOL    HW218963   2.187   1.073   6.857  2.0221 -1.5052 -2.3103
 2502SOL     OW18964   3.866   2.914   4.987 -0.3420 -0.5021 -0.2539
 2502SOL    HW118965   3.804   2.969   4.938 -0.0177 -0.4191 -0.5734
 2502SOL    HW218966   3.811   2.837   4.985 -2.8028  1.2437  0.3002
 2503SOL     OW18967   0.976   0.779  13.639 -0.0627 -0.0029  0.3573
 2503SOL    HW118968   0.923   0.706  13.607 -0.6530  0.4869  0.2192
 2503SOL    HW218969   0.907   0.814  13.695 -0.9638  0.0736 -0.8169
 2504SOL     OW18970   4.345   1.588   4.663  0.1316 -0.3768  0.0053
 2504SOL    HW118971   4.342   1.501   4.622  1.0295 -0.6504  0.5233
 2504SOL    HW218972   4.431   1.576   4.703 -0.6795 -0.3637  1.7637
 2505SOL     OW18973   2.959   4.340   1.192 -0.2622 -0.0649  0.0366
 2505SOL    HW118974   2.894   4.274   1.215 -2.3650  1.3915 -1.8828
 2505SOL    HW218975   3.032   4.282   1.169 -1.1086 -0.4621 -1.6556
 2506SOL     OW18976   3.945   2.450   2.194 -0.0779  0.6087  0.0162
 2506SOL    HW118977   3.895   2.461   2.114 -1.1894  0.6286  0.7170
 2506SOL    HW218978   3.877   2.410   2.248  0.8136  1.7357  1.9869
 2507SOL     OW18979   0.546   2.968   5.265 -0.4862  0.5083 -0.3781
 2507SOL    HW118980   0.529   2.926   5.181  0.1320 -1.2485  0.3774
 2507SOL    HW218981   0.629   2.927   5.289 -0.0799  0.6443 -1.5400
 2508SOL     OW18982   0.195   0.118   2.001 -0.6535  0.0432  0.7320
 2508SOL    HW118983   0.129   0.186   2.014  0.7371  2.0265 -2.6529
 2508SOL    HW218984   0.242   0.157   1.927  1.3059 -0.1892  1.8455
 2509SOL     OW18985   0.379   3.517   5.094  0.4541  0.4539  0.0893
 2509SOL    HW118986   0.285   3.511   5.075 -0.0550 -0.3880  2.8975
 2509SOL    HW218987   0.391   3.593   5.151  1.7049 -0.5982  1.2139
 2510SOL     OW18988   3.925   1.252   1.817  0.8230 -0.0691  0.3872
 2510SOL    HW118989   3.982   1.268   1.892  0.0316  2.9932  0.3610
 2510SOL    HW218990   3.972   1.177   1.780 -1.1496  1.0208 -4.3687
 2511SOL     OW18991   4.067   1.464   6.653 -0.1081  0.5038 -0.1960
 2511SOL    HW118992   4.021   1.488   6.572  2.1146 -0.2524 -1.6942
 2511SOL    HW218993   4.012   1.400   6.697 -0.6442  0.1119 -1.4132
 2512SOL     OW18994   3.588   4.589   2.817  0.1111 -0.6585 -0.1268
 2512SOL    HW118995   3.521   4.612   2.752 -2.1902  1.2632  2.9343
 2512SOL    HW218996   3.543   4.585   2.901  1.5656  3.7192  0.8523
 2513SOL     OW18997   2.650   0.599   8.851 -0.2582 -0.6204 -0.2768
 2513SOL    HW118998   2.603   0.548   8.917 -0.4129 -0.6303 -0.3946
 2513SOL    HW218999   2.728   0.544   8.854 -0.3879 -0.9212 -2.3599
 2514SOL     OW19000   0.676   1.814   9.395 -0.5755 -0.2852  0.2027
 2514SOL    HW119001   0.720   1.888   9.354 -0.2484 -1.7253 -2.0691
 2514SOL    HW219002   0.601   1.854   9.439 -2.1034 -1.1852 -1.5942
 2515SOL     OW19003   2.785   3.219  11.112  0.4566  0.0217 -0.1750
 2515SOL    HW119004   2.785   3.294  11.053 -0.5030 -0.4808 -0.8008
 2515SOL    HW219005   2.876   3.223  11.142  0.5753 -1.2660 -0.3670
 2516SOL     OW19006   4.554   1.260   4.474  0.2884 -0.5147  0.0306
 2516SOL    HW119007   4.627   1.296   4.525  0.8945  0.6170 -1.6564
 2516SOL    HW219008   4.595   1.266   4.388 -0.4249 -3.6693 -0.5207
 2517SOL     OW19009   1.741   3.350  15.110 -0.1550 -0.2663 -0.0734
 2517SOL    HW119010   1.772   3.259  15.118  0.4354 -0.1234 -0.7077
 2517SOL    HW219011   1.649   3.338  15.133 -0.5227 -0.8873 -1.9084
 2518SOL     OW19012   0.050   2.567   5.348 -0.2276  0.1036  0.1024
 2518SOL    HW119013   4.711   2.617   5.398 -0.9040 -0.6982  0.0437
 2518SOL    HW219014   4.714   2.499   5.319  0.4352 -0.4131 -0.1004
 2519SOL     OW19015   0.979   0.901   4.684  0.3542 -0.3666 -0.1331
 2519SOL    HW119016   1.031   0.853   4.748  1.3926 -0.0257 -0.7150
 2519SOL    HW219017   0.934   0.831   4.637 -2.5311  0.4012  1.4707
 2520SOL     OW19018   4.149   0.342   3.418 -0.0213  0.5042 -0.7796
 2520SOL    HW119019   4.220   0.405   3.427 -0.5430  0.7078  1.9202
 2520SOL    HW219020   4.179   0.274   3.359 -0.8063 -0.6274  0.1204
 2521SOL     OW19021   0.223   2.241   7.445 -0.7936 -0.3291 -0.6685
 2521SOL    HW119022   0.248   2.149   7.433 -0.9224 -0.6430  1.5667
 2521SOL    HW219023   0.308   2.284   7.436 -0.1968 -1.2617  0.5723
 2522SOL     OW19024   4.391   2.909  14.526 -0.6521 -0.4143  0.6482
 2522SOL    HW119025   4.299   2.883  14.520 -1.1915  1.8814 -0.8777
 2522SOL    HW219026   4.391   3.004  14.536  0.5165 -0.0511 -2.5582
 2523SOL     OW19027   4.167   2.185  12.343  0.4685 -0.0671 -0.2971
 2523SOL    HW119028   4.144   2.179  12.436  1.2555 -1.4873 -0.1920
 2523SOL    HW219029   4.159   2.279  12.330 -1.4747  0.0525  1.7589
 2524SOL     OW19030   1.032   4.676   2.621 -0.4178 -0.4262 -0.5531
 2524SOL    HW119031   1.014   4.595   2.669  1.5728 -0.1908  0.6092
 2524SOL    HW219032   1.115   4.699   2.662  0.0887 -1.6431 -0.8919
 2525SOL     OW19033   4.644   1.723   7.252 -0.1159  0.1667  0.1200
 2525SOL    HW119034   4.622   1.789   7.186 -0.2947 -2.2894 -2.3050
 2525SOL    HW219035   4.580   1.651   7.249  0.4108 -0.3669  1.7852
 2526SOL     OW19036   2.002   2.995  16.702 -0.0226  0.0571 -0.4297
 2526SOL    HW119037   2.008   3.090  16.690  1.3867  0.2952  2.2237
 2526SOL    HW219038   1.932   2.968  16.642 -0.5302 -1.5702  0.8743
 2527SOL     OW19039   4.573   3.469   5.302  0.0317  0.1391  0.5258
 2527SOL    HW119040   4.487   3.507   5.319  1.1160  3.1194 -0.6025
 2527SOL    HW219041   4.553   3.393   5.249  2.1070  0.2001 -0.3592
 2528SOL     OW19042   2.536   1.554   6.756  0.0923 -0.1223  1.0698
 2528SOL    HW119043   2.547   1.598   6.840 -0.3491 -0.2807  1.2091
 2528SOL    HW219044   2.596   1.610   6.707 -1.0827  1.1581  1.0872
 2529SOL     OW19045   3.444   3.238   5.369 -0.2940 -0.1760  0.0664
 2529SOL    HW119046   3.381   3.251   5.298  1.0525  0.8888 -0.9166
 2529SOL    HW219047   3.509   3.206   5.307 -0.4024 -1.8871  0.8225
 2530SOL     OW19048   1.213   1.546  13.991  0.0441  0.1470 -0.1923
 2530SOL    HW119049   1.280   1.494  14.035  0.2136  1.0764  0.6514
 2530SOL    HW219050   1.261   1.554  13.909 -2.2128  0.2600 -1.5254
 2531SOL     OW19051   2.465   3.868   1.284  0.1116 -0.3483 -0.2224
 2531SOL    HW119052   2.465   3.822   1.200  1.3414 -2.2501  0.8112
 2531SOL    HW219053   2.551   3.836   1.311 -0.2189 -0.1728  1.0331
 2532SOL     OW19054   1.404   4.173   7.504  0.3516  0.3013 -0.1376
 2532SOL    HW119055   1.401   4.190   7.598 -2.2900  1.4238 -0.4385
 2532SOL    HW219056   1.312   4.166   7.479  0.0833  1.4516  0.5195
 2533SOL     OW19057   3.190   2.227   8.984 -0.0504  0.0136  0.6865
 2533SOL    HW119058   3.121   2.289   8.962 -0.7445 -1.0059  0.0141
 2533SOL    HW219059   3.208   2.251   9.075 -1.1365  2.1064  0.3676
 2534SOL     OW19060   3.408   1.240   6.545 -0.5640  0.0286  0.3334
 2534SOL    HW119061   3.361   1.206   6.621 -1.0509 -0.3605 -0.1491
 2534SOL    HW219062   3.449   1.160   6.512  0.5371  0.5406  0.4638
 2535SOL     OW19063   3.925   4.133   5.576  0.2283  0.2691  0.1988
 2535SOL    HW119064   3.930   4.038   5.587 -0.1637  0.7307  4.6880
 2535SOL    HW219065   4.016   4.154   5.597  0.0826  0.3830  0.7356
 2536SOL     OW19066   1.088   2.658  13.419 -0.7523 -0.0550  0.4095
 2536SOL    HW119067   1.086   2.568  13.386  0.8318  1.5252 -3.9093
 2536SOL    HW219068   1.176   2.685  13.396  0.1892 -2.2461  1.4617
 2537SOL     OW19069   2.001   3.974   5.643 -0.6285  0.0477 -0.3250
 2537SOL    HW119070   2.040   3.943   5.561 -1.6101 -1.0031 -0.4047
 2537SOL    HW219071   2.027   3.911   5.710  0.5317 -0.6091 -1.4014
 2538SOL     OW19072   2.966   3.039   7.620 -0.0330 -0.3238  0.3227
 2538SOL    HW119073   2.901   3.099   7.584 -0.4289 -0.8960  0.0913
 2538SOL    HW219074   2.942   3.047   7.713 -0.1545  2.7701  0.0023
 2539SOL     OW19075   4.068   3.943  11.913 -1.1976 -0.3637  0.4795
 2539SOL    HW119076   4.108   3.857  11.928  0.1311  0.1229 -0.2676
 2539SOL    HW219077   4.112   3.999  11.977 -1.0585 -0.9354  0.8812
 2540SOL     OW19078   3.146   3.972   1.598 -0.0723  0.3281  0.3757
 2540SOL    HW119079   3.170   3.880   1.612  1.8277  0.8531  0.5531
 2540SOL    HW219080   3.230   4.015   1.617  0.5227 -0.7099  0.1271
 2541SOL     OW19081   3.974   3.207  16.979 -0.0571  0.9005 -0.2178
 2541SOL    HW119082   4.047   3.261  16.947 -0.0405  1.4851  0.8205
 2541SOL    HW219083   3.923   3.193  16.899 -2.2919  1.4377  1.1257
 2542SOL     OW19084   1.658   4.299  14.316 -0.1745 -0.1940 -0.2178
 2542SOL    HW119085   1.665   4.293  14.411 -0.8693  0.1458 -0.1462
 2542SOL    HW219086   1.655   4.394  14.310 -0.1221 -0.0891  1.6825
 2543SOL     OW19087   2.417   3.968  11.711 -0.3713  0.9712  0.4595
 2543SOL    HW119088   2.381   3.883  11.688 -0.3654  0.7009  1.4494
 2543SOL    HW219089   2.462   3.982  11.628  0.3422  0.4393  0.7584
 2544SOL     OW19090   0.060   1.030   6.005 -0.5530  0.5751  0.6864
 2544SOL    HW119091   4.722   0.959   6.018 -3.4699  2.9152 -0.4135
 2544SOL    HW219092   0.141   0.995   6.040  0.0127  1.3759  0.1885
 2545SOL     OW19093   2.045   0.354   8.553  0.1500  0.1332 -0.0963
 2545SOL    HW119094   2.095   0.352   8.635 -0.0145 -3.0603 -0.0770
 2545SOL    HW219095   2.026   0.261   8.543  0.9143 -0.0589  0.1946
 2546SOL     OW19096   4.520   1.033  10.693  0.8564 -0.2567  0.5432
 2546SOL    HW119097   4.578   1.098  10.732 -0.0920  1.8901 -1.6591
 2546SOL    HW219098   4.555   0.950  10.726  0.2951 -0.3070  1.0278
 2547SOL     OW19099   2.778   0.530   7.211  0.2611 -0.1572 -1.0878
 2547SOL    HW119100   2.718   0.589   7.166 -0.3445 -0.1110 -0.2258
 2547SOL    HW219101   2.796   0.471   7.138 -1.0527  0.4470 -1.8935
 2548SOL     OW19102   1.271   2.760  10.292  0.0147 -0.6101  0.1649
 2548SOL    HW119103   1.198   2.733  10.349 -0.3090  0.5342  0.3035
 2548SOL    HW219104   1.345   2.765  10.352 -0.7511 -1.3915  1.1861
 2549SOL     OW19105   3.786   3.033  15.488 -0.5362  0.0495 -0.0818
 2549SOL    HW119106   3.762   3.049  15.397  0.3611 -2.0692 -0.7029
 2549SOL    HW219107   3.878   3.060  15.493 -0.6022  0.1389  0.7578
 2550SOL     OW19108   0.066   0.462  11.708 -0.2342 -0.2572  0.2950
 2550SOL    HW119109   0.075   0.513  11.789 -1.1110  0.5232 -0.1038
 2550SOL    HW219110   4.710   0.504  11.680  0.3541 -0.3476 -1.5096
 2551SOL     OW19111   2.433   2.695   3.134  0.1590 -0.0116  0.0147
 2551SOL    HW119112   2.485   2.765   3.174  1.5249 -0.2946 -1.2747
 2551SOL    HW219113   2.495   2.622   3.136  0.0304 -0.0961  1.1396
 2552SOL     OW19114   1.073   0.358   2.548  0.0603 -0.2665  0.4839
 2552SOL    HW119115   1.164   0.340   2.527 -0.4844 -0.6260 -1.5746
 2552SOL    HW219116   1.070   0.452   2.534 -2.2497 -0.0653  2.2766
 2553SOL     OW19117   0.451   4.513   7.690 -0.4037  0.3991  0.0508
 2553SOL    HW119118   0.478   4.487   7.602  2.8383 -0.6334  1.3765
 2553SOL    HW219119   0.423   4.427   7.721 -0.2453 -0.0216 -0.9799
 2554SOL     OW19120   0.248   0.935   0.872  0.4547  0.0189  0.0970
 2554SOL    HW119121   0.323   0.992   0.854  1.0079 -0.3876  1.1091
 2554SOL    HW219122   0.183   1.005   0.876  0.9533  0.4142  1.3586
 2555SOL     OW19123   0.902   2.268   1.975  0.5879  0.0759  0.2863
 2555SOL    HW119124   0.866   2.225   2.053  0.6883  0.6838  0.6635
 2555SOL    HW219125   0.833   2.246   1.913  0.5169 -1.2709  0.8287
 2556SOL     OW19126   0.201   1.397   4.041 -0.2132  0.1588  0.2851
 2556SOL    HW119127   0.267   1.451   4.084  2.3630 -1.1175 -2.0734
 2556SOL    HW219128   0.257   1.321   4.025  1.3703  1.2034  0.8414
 2557SOL     OW19129   1.617   4.257   4.181  0.5667  0.6373 -0.5034
 2557SOL    HW119130   1.695   4.303   4.211 -0.3844  1.6807  0.3849
 2557SOL    HW219131   1.549   4.292   4.238 -0.3499  1.0783 -1.8751
 2558SOL     OW19132   1.905   3.611   6.247 -0.1089  0.4307  0.2039
 2558SOL    HW119133   1.904   3.525   6.288  1.1619  0.3805  0.1283
 2558SOL    HW219134   1.813   3.635   6.249 -0.4758 -0.9316 -0.4761
 2559SOL     OW19135   1.904   3.210   9.181  0.3148 -0.7325  0.0861
 2559SOL    HW119136   1.989   3.170   9.163  0.5287 -0.5268  0.6496
 2559SOL    HW219137   1.860   3.208   9.096  0.2629  2.0782  0.0662
 2560SOL     OW19138   1.532   3.028   1.854 -0.2646  0.1664  0.0289
 2560SOL    HW119139   1.490   3.102   1.810 -1.5573 -1.7735 -1.9887
 2560SOL    HW219140   1.512   3.049   1.945 -1.2893 -0.4619 -0.0577
 2561SOL     OW19141   2.113   3.824   5.841 -0.1670  0.6016  0.1431
 2561SOL    HW119142   2.127   3.737   5.802  2.4533  0.9763  0.2510
 2561SOL    HW219143   2.050   3.822   5.913 -0.6391  1.9477 -0.2250
 2562SOL     OW19144   0.401   3.765   2.536 -0.1369 -0.0709  0.2312
 2562SOL    HW119145   0.455   3.807   2.468 -0.7240  1.8047  0.9326
 2562SOL    HW219146   0.464   3.699   2.565 -0.4698  0.0283  1.1773
 2563SOL     OW19147   0.608   2.938   5.582  0.0804 -0.0843  1.1595
 2563SOL    HW119148   0.631   2.848   5.562 -0.1501  0.7733 -3.0139
 2563SOL    HW219149   0.512   2.938   5.576  0.0850 -2.6522  1.1256
 2564SOL     OW19150   1.208   0.787   5.861  0.4360 -0.1512  0.4456
 2564SOL    HW119151   1.138   0.723   5.853 -0.4235  1.0700 -1.8036
 2564SOL    HW219152   1.163   0.862   5.823  1.7891  1.9960  3.0410
 2565SOL     OW19153   1.699   2.481   8.121  0.0642  0.6605 -0.2236
 2565SOL    HW119154   1.635   2.528   8.174  1.4169  0.5386  1.5485
 2565SOL    HW219155   1.754   2.555   8.094  1.9955  0.0003  1.8744
 2566SOL     OW19156   3.195   1.183   7.127 -0.1218  0.7076 -0.5325
 2566SOL    HW119157   3.143   1.132   7.189  1.8310  1.0688  1.3902
 2566SOL    HW219158   3.285   1.164   7.153 -0.3143 -1.0058 -1.1027
 2567SOL     OW19159   0.672   0.584   8.017  0.5804  0.3800  0.4411
 2567SOL    HW119160   0.634   0.641   7.951  1.6249 -0.1770 -0.6430
 2567SOL    HW219161   0.623   0.628   8.086 -1.0255 -0.1063 -0.3942
 2568SOL     OW19162   0.848   0.392   1.347  0.0507  0.0005  0.3555
 2568SOL    HW119163   0.873   0.302   1.325 -1.7141 -0.2641 -0.5998
 2568SOL    HW219164   0.850   0.425   1.257 -1.5307 -0.8286  0.0055
 2569SOL     OW19165   4.175   3.582  16.538  0.0973  0.2854  0.3218
 2569SOL    HW119166   4.134   3.585  16.625 -1.2553  1.0376 -0.3531
 2569SOL    HW219167   4.106   3.614  16.482  0.0646 -1.5132 -0.6769
 2570SOL     OW19168   0.812   1.866   2.828 -1.0085 -0.1871  0.0442
 2570SOL    HW119169   0.751   1.799   2.860 -1.1744 -0.7317 -1.4012
 2570SOL    HW219170   0.828   1.822   2.745  2.0089  3.6313 -1.3338
 2571SOL     OW19171   0.785   3.328   2.779 -0.3134 -0.0001  0.4868
 2571SOL    HW119172   0.750   3.388   2.713 -0.1845 -1.4592 -0.9061
 2571SOL    HW219173   0.810   3.257   2.719  1.6668  0.5063  0.7089
 2572SOL     OW19174   4.677   3.374  16.967  0.5108 -0.1046  0.5133
 2572SOL    HW119175   4.650   3.441  16.905 -0.4898 -1.5595 -0.6399
 2572SOL    HW219176   4.629   3.298  16.933  1.7174 -0.2049 -1.0175
 2573SOL     OW19177   1.547   0.544   8.068  0.3115 -0.0780 -0.5816
 2573SOL    HW119178   1.581   0.455   8.077 -0.3432 -0.2904 -0.2150
 2573SOL    HW219179   1.598   0.587   8.138 -1.1366  1.3551 -0.3985
 2574SOL     OW19180   0.323   0.315   6.971  0.1006  0.1999  0.0877
 2574SOL    HW119181   0.391   0.248   6.972  0.8349  0.9188 -1.3043
 2574SOL    HW219182   0.285   0.297   7.057  0.9318 -0.0978  0.3932
 2575SOL     OW19183   4.707   4.640   7.568  0.1829  0.3458 -0.0677
 2575SOL    HW119184   4.614   4.618   7.568  0.7780 -2.2115 -0.0671
 2575SOL    HW219185   4.715   4.674   7.657  2.3799  0.1407 -0.1931
 2576SOL     OW19186   0.414   1.246   5.332  0.8792  0.7428 -0.9244
 2576SOL    HW119187   0.356   1.316   5.362  2.0113 -0.0064  2.9608
 2576SOL    HW219188   0.373   1.238   5.245 -1.5969 -3.6314  0.6264
 2577SOL     OW19189   2.000   0.908   8.822 -0.1105 -0.2777 -0.3330
 2577SOL    HW119190   1.987   0.899   8.727 -3.1703  0.0637  0.0771
 2577SOL    HW219191   1.908   0.910   8.848 -0.0621  2.8343 -0.3866
 2578SOL     OW19192   1.936   0.268   2.472  0.3406  0.4612 -0.1278
 2578SOL    HW119193   1.946   0.341   2.410  0.3668  0.3402 -0.2644
 2578SOL    HW219194   1.955   0.188   2.423  0.2348  0.2886  0.1146
 2579SOL     OW19195   4.519   0.903   8.350 -0.3842  0.0998  0.0373
 2579SOL    HW119196   4.501   0.927   8.440 -0.0785 -2.3771  0.7769
 2579SOL    HW219197   4.434   0.867   8.323 -0.5444 -0.8115  1.7821
 2580SOL     OW19198   0.866   2.738   7.799 -0.2038 -0.4325 -0.7316
 2580SOL    HW119199   0.922   2.768   7.727  0.7480 -1.3600 -0.3730
 2580SOL    HW219200   0.793   2.793   7.769  0.2535  1.6250  1.9004
 2581SOL     OW19201   2.588   2.540   9.373 -0.1789  0.6808  0.3083
 2581SOL    HW119202   2.558   2.456   9.338 -0.2669  1.2386 -0.9256
 2581SOL    HW219203   2.660   2.516   9.432 -0.9808 -0.2475  0.9042
 2582SOL     OW19204   0.180   3.518  11.035 -0.7206 -0.4273  0.0074
 2582SOL    HW119205   0.109   3.548  11.091 -0.3013 -0.3047  0.4812
 2582SOL    HW219206   0.198   3.575  10.961  0.5703 -0.5717  0.2004
 2583SOL     OW19207   2.593   0.633  14.329  0.8107 -0.5040 -0.0005
 2583SOL    HW119208   2.508   0.591  14.315  0.9088 -0.7778  0.2141
 2583SOL    HW219209   2.611   0.680  14.248  2.4866 -0.3406  0.4650
 2584SOL     OW19210   1.574   0.859  14.850  0.4247 -0.2682  0.6558
 2584SOL    HW119211   1.510   0.795  14.817  0.7277  0.4917 -1.4075
 2584SOL    HW219212   1.634   0.859  14.775 -1.4225 -1.5873 -0.8400
 2585SOL     OW19213   2.748   1.737  17.690  0.3539 -0.1499  0.6060
 2585SOL    HW119214   2.724   1.830  17.698 -1.4645 -0.5358 -0.1605
 2585SOL    HW219215   2.657   1.708  17.677  0.4337  0.5126 -1.4009
 2586SOL     OW19216   0.473   4.484  15.386  0.2048 -0.5475 -0.2437
 2586SOL    HW119217   0.386   4.478  15.426  0.7678 -1.1390  0.8817
 2586SOL    HW219218   0.453   4.501  15.294  0.7490  0.9283 -0.0882
 2587SOL     OW19219   3.996   2.440   6.665  0.2424 -0.4796 -0.2343
 2587SOL    HW119220   4.059   2.369   6.656 -0.5591 -0.8382 -3.1299
 2587SOL    HW219221   3.920   2.396   6.627  0.3719 -2.0104  1.2571
 2588SOL     OW19222   0.921   0.014   5.465  0.3200  0.5319  0.1602
 2588SOL    HW119223   1.012   4.720   5.445  0.4239 -2.4285  3.2390
 2588SOL    HW219224   0.888   0.062   5.389  0.4807  0.1567 -0.1472
 2589SOL     OW19225   3.409   0.111   8.708  0.6680 -0.3427  0.1442
 2589SOL    HW119226   3.366   0.086   8.790 -2.5856  0.6953 -1.2205
 2589SOL    HW219227   3.418   0.024   8.669 -0.5195 -0.6653  0.5833
 2590SOL     OW19228   3.460   4.385  15.155  0.1667  0.1716  0.7329
 2590SOL    HW119229   3.377   4.362  15.114  0.5803  0.0878 -0.0618
 2590SOL    HW219230   3.468   4.334  15.236 -0.9863  0.4982  1.0388
 2591SOL     OW19231   0.815   2.895   5.308  1.0539 -0.1598 -0.8184
 2591SOL    HW119232   0.811   2.800   5.305 -1.2356 -0.1472  1.6244
 2591SOL    HW219233   0.898   2.906   5.262  0.5811 -0.6341 -1.7888
 2592SOL     OW19234   4.628   0.816   6.014 -0.1785 -0.0056 -0.5001
 2592SOL    HW119235   4.561   0.838   5.949 -2.4160 -2.1315  1.0611
 2592SOL    HW219236   4.641   0.726   5.985  0.7380 -0.8214  2.3810
 2593SOL     OW19237   3.752   2.491   6.034 -0.6328  0.4775 -0.1064
 2593SOL    HW119238   3.731   2.452   6.119 -1.7926  0.9794 -0.1660
 2593SOL    HW219239   3.818   2.433   5.995 -2.3743 -0.1398 -2.1774
 2594SOL     OW19240   2.307   1.022   2.612 -0.5587  0.6446  0.3522
 2594SOL    HW119241   2.258   0.955   2.660 -0.4348  0.4976  0.2728
 2594SOL    HW219242   2.373   0.965   2.574 -1.6364 -0.0420 -0.5126
 2595SOL     OW19243   0.163   3.272   4.987 -0.0068 -0.2915  0.0732
 2595SOL    HW119244   0.137   3.180   4.988 -1.2716  0.0710  0.7182
 2595SOL    HW219245   0.172   3.290   4.894 -1.4980 -1.3522 -0.2677
 2596SOL     OW19246   2.841   0.493   5.468 -0.3368 -0.2856  0.0380
 2596SOL    HW119247   2.886   0.441   5.535  0.5174  0.3452 -0.0446
 2596SOL    HW219248   2.871   0.453   5.386  0.2004  1.5592 -0.6522
 2597SOL     OW19249   3.727   3.006  10.551  0.6375 -0.6350 -0.6133
 2597SOL    HW119250   3.661   2.968  10.493  1.0360  0.5367 -1.8551
 2597SOL    HW219251   3.709   2.974  10.640  2.0051  1.2960  0.3493
 2598SOL     OW19252   3.725   4.595   6.401  0.0114 -0.2897  0.2962
 2598SOL    HW119253   3.662   4.571   6.469 -0.6042 -2.0255 -0.8930
 2598SOL    HW219254   3.663   4.623   6.334  0.8332 -0.3843 -0.5132
 2599SOL     OW19255   2.890   4.688   1.581  0.4536 -0.4206 -0.1679
 2599SOL    HW119256   2.927   4.605   1.552  0.5039 -0.4155 -0.1168
 2599SOL    HW219257   2.802   4.660   1.557  0.3660  0.8005 -1.3315
 2600SOL     OW19258   2.744   1.883  15.023  0.0283 -0.0596 -0.5868
 2600SOL    HW119259   2.651   1.896  15.042 -0.2347 -0.6375 -1.4711
 2600SOL    HW219260   2.776   1.846  15.105  1.2584  2.3195 -0.0045
 2601SOL     OW19261   4.503   2.719   2.439 -0.2718 -0.4200 -0.1299
 2601SOL    HW119262   4.424   2.703   2.386 -0.2608 -0.2089 -0.2110
 2601SOL    HW219263   4.558   2.763   2.375  1.7761 -2.1668  0.4553
 2602SOL     OW19264   4.126   0.846   3.820 -0.6114  0.4147 -0.4791
 2602SOL    HW119265   4.033   0.862   3.830 -0.8794 -1.4378  0.0954
 2602SOL    HW219266   4.160   0.929   3.787 -0.0606  0.4756  0.2364
 2603SOL     OW19267   4.476   4.615   6.718  0.0192 -0.5935  0.8137
 2603SOL    HW119268   4.534   4.685   6.689 -0.5334  0.4861  2.3479
 2603SOL    HW219269   4.476   4.628   6.813  0.4662 -1.0849  0.8852
 2604SOL     OW19270   3.875   0.158   8.002  0.4671  0.0716  0.1952
 2604SOL    HW119271   3.803   0.126   8.057  1.0339  0.0511  0.9290
 2604SOL    HW219272   3.835   0.148   7.915  0.5067 -0.8428  0.2824
 2605SOL     OW19273   3.940   2.803   8.764 -0.3108  0.6973 -0.4407
 2605SOL    HW119274   3.897   2.718   8.760 -1.1616  1.1437 -0.6251
 2605SOL    HW219275   3.890   2.853   8.700 -0.0209  2.3667  0.6289
 2606SOL     OW19276   2.563   3.573   6.206 -0.6196 -0.4790 -0.1376
 2606SOL    HW119277   2.530   3.486   6.185  0.7579 -0.8295 -0.8261
 2606SOL    HW219278   2.635   3.582   6.144 -0.7683 -0.0454 -0.2489
 2607SOL     OW19279   2.760   3.550   5.425  0.2910  1.0736 -0.9025
 2607SOL    HW119280   2.804   3.581   5.345 -0.9179 -0.3174 -2.1075
 2607SOL    HW219281   2.677   3.511   5.398  0.0599 -1.1014  3.0613
 2608SOL     OW19282   0.006   0.437   2.304 -0.0060 -0.0402 -0.1660
 2608SOL    HW119283   4.681   0.359   2.327  0.6772 -0.1791  0.8204
 2608SOL    HW219284   4.693   0.498   2.366  1.5602  1.3376 -0.5650
 2609SOL     OW19285   1.185   2.223   5.031 -0.6062  0.5223 -0.1619
 2609SOL    HW119286   1.202   2.317   5.034  0.4549  0.3017  0.8650
 2609SOL    HW219287   1.094   2.215   5.058 -0.1889 -0.6072  0.9647
 2610SOL     OW19288   1.025   4.304  11.066 -0.1849  0.1696  0.4392
 2610SOL    HW119289   1.052   4.376  11.010  1.0223 -0.4300  0.2492
 2610SOL    HW219290   1.005   4.238  11.000 -0.3396 -0.9120  1.5614
 2611SOL     OW19291   1.660   2.469   2.303  0.0850 -0.7826 -0.3613
 2611SOL    HW119292   1.746   2.481   2.262 -0.6333  3.1842 -0.6782
 2611SOL    HW219293   1.607   2.421   2.239 -2.4244  0.2961  0.9265
 2612SOL     OW19294   3.445   0.368  10.770 -0.0885  0.4843 -0.1534
 2612SOL    HW119295   3.507   0.440  10.778  0.3672  0.3775 -2.9334
 2612SOL    HW219296   3.465   0.312  10.845  2.2983 -1.2091 -2.0804
 2613SOL     OW19297   1.790   1.169   7.959 -0.1458  0.1340 -0.4015
 2613SOL    HW119298   1.840   1.250   7.953  0.4627 -0.2650 -0.6602
 2613SOL    HW219299   1.783   1.149   8.052 -0.7948  0.7732 -0.3137
 2614SOL     OW19300   3.019   1.655   5.196  0.0529  0.5382 -0.1895
 2614SOL    HW119301   2.988   1.655   5.286  0.5113  0.6423 -0.0285
 2614SOL    HW219302   2.983   1.738   5.167 -0.5503  0.7174  1.0815
 2615SOL     OW19303   2.466   0.150   4.539  0.3670 -0.4924 -0.3398
 2615SOL    HW119304   2.559   0.173   4.535  0.3055 -0.1393  0.2552
 2615SOL    HW219305   2.430   0.223   4.590  1.0282  0.5615 -1.3748
 2616SOL     OW19306   3.358   0.120  11.566  0.1152  0.5752  0.5430
 2616SOL    HW119307   3.276   0.080  11.596  0.0979  0.6296  0.5677
 2616SOL    HW219308   3.336   0.213  11.570  1.0811  0.8108  0.4375
 2617SOL     OW19309   0.810   1.065   4.182 -0.5179  0.1570 -0.4324
 2617SOL    HW119310   0.900   1.060   4.149  0.4111  0.4103  2.0331
 2617SOL    HW219311   0.823   1.094   4.273 -2.5379 -3.2273  0.9391
 2618SOL     OW19312   1.572   1.635   5.911 -0.2361  0.0038  0.3869
 2618SOL    HW119313   1.596   1.554   5.865  1.0065 -0.5821  2.0621
 2618SOL    HW219314   1.519   1.603   5.985 -2.5641 -0.5386 -1.5257
 2619SOL     OW19315   2.697   3.276   6.287  0.3145  0.0267  0.2429
 2619SOL    HW119316   2.633   3.344   6.271  0.0556 -0.1812  0.4019
 2619SOL    HW219317   2.662   3.204   6.234 -0.2323  0.7894 -0.4232
 2620SOL     OW19318   3.629   1.095   0.857  0.2165 -0.2989  0.1456
 2620SOL    HW119319   3.716   1.103   0.818 -0.0366 -0.8796 -0.5353
 2620SOL    HW219320   3.581   1.025   0.813 -1.9250  1.3054 -0.0731
 2621SOL     OW19321   3.523   1.714  16.125  0.0817 -0.1300 -0.3301
 2621SOL    HW119322   3.434   1.749  16.128  2.1253  4.8232  1.7324
 2621SOL    HW219323   3.550   1.734  16.036 -1.3411  1.2380 -0.4421
 2622SOL     OW19324   1.286   2.179   3.503  0.4057  0.1100 -0.1473
 2622SOL    HW119325   1.194   2.152   3.507  0.1114  1.1125 -0.1979
 2622SOL    HW219326   1.277   2.262   3.456 -2.4501 -0.7129 -1.0619
 2623SOL     OW19327   2.903   2.810  12.804  0.1351 -0.1937  0.2718
 2623SOL    HW119328   2.845   2.790  12.877 -1.0557  0.0926 -0.5788
 2623SOL    HW219329   2.870   2.892  12.767 -0.9515 -2.0942 -2.9723
 2624SOL     OW19330   2.306   3.790   8.286  0.1269 -0.3444 -0.6215
 2624SOL    HW119331   2.349   3.814   8.368 -0.2336 -0.2845 -0.4525
 2624SOL    HW219332   2.381   3.768   8.231  0.5180 -1.7721  0.4882
 2625SOL     OW19333   4.181   4.575  14.071 -0.0145  0.1506  0.1700
 2625SOL    HW119334   4.251   4.639  14.061  0.5404  0.1272  3.8416
 2625SOL    HW219335   4.213   4.528  14.148  0.9195  1.6695  0.6910
 2626SOL     OW19336   1.444   1.383   8.454 -0.3337 -0.6155  0.3824
 2626SOL    HW119337   1.456   1.401   8.360  2.7862  0.2214  0.9524
 2626SOL    HW219338   1.350   1.367   8.451 -0.5018  0.2836  0.9169
 2627SOL     OW19339   4.077   2.411  13.816  0.3143 -0.3515  0.5247
 2627SOL    HW119340   4.149   2.357  13.848 -0.2667 -2.3316 -1.4656
 2627SOL    HW219341   4.001   2.367  13.855 -1.6900  2.9269  0.3617
 2628SOL     OW19342   2.595   2.001   9.642 -0.2618 -0.2080  0.2852
 2628SOL    HW119343   2.682   1.961   9.638  1.1159  2.9399 -0.6918
 2628SOL    HW219344   2.536   1.928   9.660 -1.1003  0.8015  1.6478
 2629SOL     OW19345   2.797   0.961   1.133  0.3181 -0.2024 -0.5066
 2629SOL    HW119346   2.878   1.010   1.144  0.9438 -1.6218  1.1329
 2629SOL    HW219347   2.804   0.908   1.212  0.1958  0.8152  0.1893
 2630SOL     OW19348   2.522   4.655   2.776  0.5736 -0.8373  0.5852
 2630SOL    HW119349   2.480   4.572   2.802 -3.0988  1.5478  2.3013
 2630SOL    HW219350   2.587   4.635   2.709 -0.4387 -0.2569 -0.5817
 2631SOL     OW19351   4.491   1.916   7.654  0.1445  0.5946 -0.0574
 2631SOL    HW119352   4.447   1.844   7.608  0.7378 -0.1786  0.5938
 2631SOL    HW219353   4.537   1.955   7.579 -0.8249 -0.1079 -1.0288
 2632SOL     OW19354   2.786   0.741   5.614  0.0509  0.3872 -0.5830
 2632SOL    HW119355   2.798   0.685   5.690  0.1751 -0.2307 -1.0612
 2632SOL    HW219356   2.815   0.680   5.546  1.5462  0.1205  0.3076
 2633SOL     OW19357   4.268   0.703  16.560  0.2216 -0.3904  0.6700
 2633SOL    HW119358   4.300   0.784  16.600  2.1479 -0.8694  0.0750
 2633SOL    HW219359   4.245   0.749  16.479 -0.9660 -0.9257  0.7053
 2634SOL     OW19360   3.853   3.594  12.786 -0.0685 -0.5551  0.5850
 2634SOL    HW119361   3.765   3.610  12.752 -0.2028 -1.0906  0.6775
 2634SOL    HW219362   3.842   3.614  12.879 -2.5401  0.1943  0.1438
 2635SOL     OW19363   0.170   4.713  14.837 -0.7328  0.0523  0.6679
 2635SOL    HW119364   0.226   4.723  14.913 -0.3447 -0.8792  0.4979
 2635SOL    HW219365   0.105   4.653  14.873 -2.7087 -0.1098 -3.1640
 2636SOL     OW19366   4.078   2.211  12.016  0.3052 -0.3015 -0.0325
 2636SOL    HW119367   4.041   2.295  11.988 -0.9346 -0.7936  0.1453
 2636SOL    HW219368   3.999   2.159  12.031  0.5741 -1.1010 -1.3764
 2637SOL     OW19369   0.660   2.361   3.904 -0.6685  0.1611  0.0247
 2637SOL    HW119370   0.713   2.288   3.935 -0.6853  0.8354  1.6916
 2637SOL    HW219371   0.621   2.315   3.830  1.3695  0.1551 -1.0376
 2638SOL     OW19372   3.964   3.954   6.279  0.3856 -0.0707 -0.1186
 2638SOL    HW119373   4.012   3.910   6.210  2.1379 -1.7660  2.1864
 2638SOL    HW219374   3.998   3.907   6.356  0.0913  2.9352  1.8687
 2639SOL     OW19375   1.087   1.503  13.593  0.0017  0.0033  0.6828
 2639SOL    HW119376   1.147   1.577  13.589  0.5372 -0.5384 -1.2027
 2639SOL    HW219377   1.119   1.444  13.661  2.7134  1.0693  0.2988
 2640SOL     OW19378   2.507   4.150  16.549 -0.4598 -0.4304 -0.5779
 2640SOL    HW119379   2.458   4.101  16.484  0.1820 -0.5240 -0.9849
 2640SOL    HW219380   2.455   4.132  16.628  2.4634 -0.7510  1.2972
 2641SOL     OW19381   4.524   3.650   3.106 -0.0387  0.7501 -0.2678
 2641SOL    HW119382   4.573   3.569   3.087  0.4025  1.3969 -1.8674
 2641SOL    HW219383   4.591   3.717   3.093 -0.7820  1.4375 -0.4984
 2642SOL     OW19384   1.276   1.637  13.271  0.0058 -0.3441 -0.7402
 2642SOL    HW119385   1.306   1.728  13.267 -2.8657  0.5943 -1.1182
 2642SOL    HW219386   1.241   1.621  13.183 -0.8600 -0.6837 -0.3289
 2643SOL     OW19387   4.141   3.463   4.720  0.2647 -0.4361  0.1958
 2643SOL    HW119388   4.202   3.436   4.651 -0.1998  0.1140 -0.4337
 2643SOL    HW219389   4.208   3.489   4.783  1.1439 -0.8376 -0.5672
 2644SOL     OW19390   1.792   1.085   4.444 -0.0548 -0.2568 -0.3183
 2644SOL    HW119391   1.721   1.135   4.404  0.1234 -0.9341 -1.4600
 2644SOL    HW219392   1.823   1.034   4.369  1.2474  0.7894 -0.4934
 2645SOL     OW19393   3.614   3.988  16.363  0.5002 -0.0224  0.1889
 2645SOL    HW119394   3.591   4.078  16.343  2.9241  0.4917 -0.3451
 2645SOL    HW219395   3.709   3.997  16.355  0.4855 -0.9570 -1.0706
 2646SOL     OW19396   4.456   1.439   2.370  0.2822 -0.4493 -0.7505
 2646SOL    HW119397   4.372   1.477   2.397  1.1110  2.0677 -1.6984
 2646SOL    HW219398   4.437   1.345   2.370  0.2871 -0.4491 -1.4757
 2647SOL     OW19399   3.594   0.165  12.806 -0.4375  0.2932 -0.3650
 2647SOL    HW119400   3.600   0.253  12.844 -1.1076  0.6591 -1.0970
 2647SOL    HW219401   3.586   0.189  12.714 -0.1122  0.8089 -0.2561
 2648SOL     OW19402   1.145   0.437   5.074  0.0696 -0.2698 -1.2201
 2648SOL    HW119403   1.141   0.374   5.146 -0.2436  1.2982  0.1370
 2648SOL    HW219404   1.062   0.484   5.087  1.3293  2.0641 -1.6074
 2649SOL     OW19405   4.027   2.974  13.375  0.2733 -0.1988  0.0223
 2649SOL    HW119406   4.078   2.940  13.301  0.8632 -0.6537  0.6444
 2649SOL    HW219407   4.083   2.943  13.446  0.9364  0.4099 -0.2340
 2650SOL     OW19408   3.548   2.127  13.744  0.3192  0.0830 -0.0161
 2650SOL    HW119409   3.492   2.055  13.772  0.4699  1.0874  2.9082
 2650SOL    HW219410   3.630   2.098  13.784  0.4809  0.2375 -0.2301
 2651SOL     OW19411   2.192   4.343   6.337  0.1547  0.0882  0.2981
 2651SOL    HW119412   2.169   4.257   6.373 -0.7239 -0.0889 -0.7111
 2651SOL    HW219413   2.214   4.397   6.413  0.8524  4.6025 -3.0995
 2652SOL     OW19414   4.022   0.497   4.351 -0.1602 -0.0139  0.5180
 2652SOL    HW119415   3.956   0.507   4.282 -0.2016  0.0417  0.5651
 2652SOL    HW219416   4.097   0.476   4.296  1.3643  1.2561  2.0923
 2653SOL     OW19417   2.668   0.462   5.159 -0.0308 -0.5542 -0.0170
 2653SOL    HW119418   2.637   0.424   5.076  0.3305  0.5372 -0.6570
 2653SOL    HW219419   2.754   0.501   5.143 -0.3178  0.2721  0.4715
 2654SOL     OW19420   2.543   1.929  11.936 -0.4817 -0.7516 -0.0030
 2654SOL    HW119421   2.525   1.948  11.844 -0.6539  1.9555  0.5878
 2654SOL    HW219422   2.453   1.940  11.968 -0.9907  0.8478 -1.9893
 2655SOL     OW19423   0.608   4.481   3.118 -0.6856 -0.0600  0.6198
 2655SOL    HW119424   0.687   4.522   3.083 -0.1930 -0.8198  0.8367
 2655SOL    HW219425   0.563   4.460   3.037 -0.6478 -0.0282  0.5909
 2656SOL     OW19426   1.709   2.331   4.056 -0.0776  0.1347  0.1960
 2656SOL    HW119427   1.752   2.382   3.987 -2.2716  1.7017  0.0217
 2656SOL    HW219428   1.758   2.356   4.134  1.2065  1.0522 -0.9055
 2657SOL     OW19429   2.926   3.929  16.973  0.3131  0.5865  0.0068
 2657SOL    HW119430   2.874   3.948  16.895 -0.1129 -2.9443 -0.5790
 2657SOL    HW219431   3.002   3.986  16.965  0.3596  0.4531 -0.4674
 2658SOL     OW19432   0.053   3.645   1.663 -0.4849  0.1621  0.0935
 2658SOL    HW119433   0.032   3.738   1.663 -2.3378 -0.2488 -0.5108
 2658SOL    HW219434   0.053   3.640   1.567  0.5814 -0.0327  0.1062
 2659SOL     OW19435   4.350   4.620  16.216 -0.2011 -0.8097 -0.4573
 2659SOL    HW119436   4.292   4.546  16.233  0.4658 -0.9273  1.3147
 2659SOL    HW219437   4.327   4.624  16.123 -2.0232  2.9804  0.1712
 2660SOL     OW19438   4.028   2.641   6.494  0.0253 -0.5094  0.3638
 2660SOL    HW119439   4.051   2.594   6.575  0.3611 -0.2459  0.4240
 2660SOL    HW219440   4.068   2.726   6.513  0.4292 -0.0904 -2.4312
 2661SOL     OW19441   2.868   1.560   4.767 -0.1938 -0.4760  0.0088
 2661SOL    HW119442   2.803   1.609   4.818 -0.8106 -2.6358  1.3151
 2661SOL    HW219443   2.949   1.575   4.817  1.1664 -2.6960 -1.5347
 2662SOL     OW19444   3.193   3.947   5.848 -0.0099  0.3992 -0.3998
 2662SOL    HW119445   3.229   3.984   5.928  3.0421 -0.8678 -1.2054
 2662SOL    HW219446   3.099   3.956   5.866 -0.4121 -1.6282 -1.4815
 2663SOL     OW19447   2.389   2.337   4.750  0.0242 -0.2768 -0.3144
 2663SOL    HW119448   2.317   2.355   4.689  0.3649 -1.0752 -0.9496
 2663SOL    HW219449   2.463   2.384   4.712 -0.5404  0.0278 -1.0260
 2664SOL     OW19450   3.318   2.357   8.150  0.2472  0.2075 -0.1781
 2664SOL    HW119451   3.329   2.280   8.095  0.4099  0.6867 -0.8075
 2664SOL    HW219452   3.403   2.382   8.184  0.2693  4.2860 -3.1638
 2665SOL     OW19453   0.996   4.275  11.876  0.3412  0.0416  0.2317
 2665SOL    HW119454   1.010   4.237  11.789 -0.3148  0.4430 -0.0471
 2665SOL    HW219455   0.921   4.329  11.854  0.7573  0.1424 -0.9210
 2666SOL     OW19456   2.887   4.531   5.036 -0.2828 -0.4621 -1.2590
 2666SOL    HW119457   2.843   4.446   5.043 -0.8404 -0.1374 -0.8542
 2666SOL    HW219458   2.965   4.519   5.091 -0.2645 -1.9981 -1.6215
 2667SOL     OW19459   3.899   4.053   4.444  0.5567 -0.8105 -0.3042
 2667SOL    HW119460   3.934   4.074   4.531 -0.3572 -0.1736 -0.0916
 2667SOL    HW219461   3.967   4.082   4.383  1.6676 -3.2141 -0.2065
 2668SOL     OW19462   2.071   4.113   2.458  0.6546  0.0500 -0.2903
 2668SOL    HW119463   2.093   4.112   2.551  1.2223 -1.2034 -0.4325
 2668SOL    HW219464   1.976   4.116   2.472  0.2829 -1.1828 -2.4435
 2669SOL     OW19465   4.026   1.797  14.271 -0.0339 -0.4847  0.1572
 2669SOL    HW119466   4.064   1.711  14.253  1.9141  0.2397  0.8065
 2669SOL    HW219467   3.938   1.773  14.301  0.6168 -0.3156  2.2083
 2670SOL     OW19468   1.736   1.730   3.512 -0.2084 -0.2245  0.6040
 2670SOL    HW119469   1.786   1.798   3.557  2.7917 -2.1499  0.1186
 2670SOL    HW219470   1.672   1.785   3.466  0.0602  0.6057  1.2123
 2671SOL     OW19471   4.082   0.562   8.967  0.4145  0.1518 -0.1673
 2671SOL    HW119472   4.010   0.621   8.947  0.3144  0.4514  1.0895
 2671SOL    HW219473   4.113   0.576   9.057 -0.3630  0.1012  0.1105
 2672SOL     OW19474   1.027   0.465   6.226 -0.5196  0.2999 -0.5999
 2672SOL    HW119475   1.053   0.385   6.180  1.7156 -0.8714  2.6812
 2672SOL    HW219476   0.939   0.477   6.191 -0.3817 -0.9940 -1.3982
 2673SOL     OW19477   0.581   1.335  15.408 -0.4577 -0.5753 -0.1923
 2673SOL    HW119478   0.513   1.402  15.395 -2.0228 -1.8882  1.2696
 2673SOL    HW219479   0.596   1.298  15.321  0.4052 -1.3883  0.3141
 2674SOL     OW19480   1.756   4.086  15.907 -0.4421 -0.4224 -0.0438
 2674SOL    HW119481   1.710   4.041  15.978  0.8721  0.8910  1.6270
 2674SOL    HW219482   1.817   4.134  15.963 -1.7093 -0.9398  1.7658
 2675SOL     OW19483   3.329   4.667   7.323  0.2051  0.3768 -0.4963
 2675SOL    HW119484   3.416   4.651   7.287  0.5720  0.7481  0.2313
 2675SOL    HW219485   3.284   0.007   7.268 -1.3215  0.4997  0.8937
 2676SOL     OW19486   0.509   2.411   3.337 -0.0138 -0.0907  0.2145
 2676SOL    HW119487   0.435   2.352   3.353 -1.5190  1.5114 -0.7553
 2676SOL    HW219488   0.560   2.340   3.297  0.4415  0.3352  0.0402
 2677SOL     OW19489   1.124   2.769   6.122 -0.2895  0.0704 -0.2149
 2677SOL    HW119490   1.071   2.834   6.167 -1.4031  0.8757 -2.7012
 2677SOL    HW219491   1.199   2.760   6.180  0.9092  0.0731 -1.7495
 2678SOL     OW19492   3.344   1.851   3.168 -0.6098 -0.6534 -0.0628
 2678SOL    HW119493   3.392   1.798   3.232  0.6788 -0.7254 -1.0899
 2678SOL    HW219494   3.393   1.932   3.172  0.6856 -1.4208 -0.4551
 2679SOL     OW19495   4.188   2.519   2.043  0.0811  0.0460 -0.3272
 2679SOL    HW119496   4.157   2.606   2.018 -1.3250 -0.8627 -1.7447
 2679SOL    HW219497   4.125   2.496   2.111  0.0436  3.0851  0.6505
 2680SOL     OW19498   4.480   2.269  16.258 -0.7370  0.0424  0.4517
 2680SOL    HW119499   4.447   2.203  16.198  1.5692  1.7738 -2.6851
 2680SOL    HW219500   4.560   2.237  16.299 -0.0144  0.7788 -0.3906
 2681SOL     OW19501   4.582   2.858   3.416 -0.1036  0.1726 -0.0682
 2681SOL    HW119502   4.495   2.870   3.377 -1.7688  0.0866  3.5973
 2681SOL    HW219503   4.566   2.773   3.456  0.1284 -1.0743 -2.6487
 2682SOL     OW19504   4.410   4.511   7.963  0.2403  0.5991  0.7053
 2682SOL    HW119505   4.491   4.562   7.954 -0.1264  0.9380 -0.6825
 2682SOL    HW219506   4.358   4.574   8.013  2.5003  2.4869  0.6686
 2683SOL     OW19507   0.637   3.582  16.924 -0.1453  0.0354 -0.5979
 2683SOL    HW119508   0.628   3.667  16.880 -0.3316 -0.9749 -2.5312
 2683SOL    HW219509   0.726   3.584  16.961 -0.6186 -0.0693  0.5310
 2684SOL     OW19510   0.429   2.636   0.493  0.1528 -0.0883 -0.2360
 2684SOL    HW119511   0.375   2.691   0.551  1.0424 -1.0542  1.5051
 2684SOL    HW219512   0.511   2.676   0.522 -0.0879  0.0453  0.2700
 2685SOL     OW19513   3.490   1.074  14.292  0.9100  0.6666 -0.4942
 2685SOL    HW119514   3.456   0.988  14.317 -1.0951  0.5079 -3.8906
 2685SOL    HW219515   3.407   1.109  14.261 -0.1463 -0.3402  1.1524
 2686SOL     OW19516   1.997   0.410  12.406 -0.2760 -0.0973 -0.9819
 2686SOL    HW119517   1.913   0.447  12.379 -0.6103 -0.8117 -0.9159
 2686SOL    HW219518   2.053   0.473  12.360  1.1669 -0.3930  0.3802
 2687SOL     OW19519   0.412   0.749  17.456  0.3947  1.2692  0.3379
 2687SOL    HW119520   0.504   0.740  17.432  0.2320 -1.3237  0.6855
 2687SOL    HW219521   0.417   0.764  17.550  0.0116  0.7910  0.4345
 2688SOL     OW19522   4.465   2.369   7.603  0.4495 -0.2793  0.4050
 2688SOL    HW119523   4.429   2.374   7.692 -1.7587  2.1614 -0.6193
 2688SOL    HW219524   4.553   2.401   7.624 -0.7103  1.6512  2.3709
 2689SOL     OW19525   4.692   1.633   0.858  0.7878  0.9525 -0.0326
 2689SOL    HW119526   4.708   1.719   0.819  0.4969 -0.1203 -2.5618
 2689SOL    HW219527   4.636   1.587   0.794  1.2675  0.4459 -0.0897
 2690SOL     OW19528   1.337   3.532   3.690  0.5358  0.0454  0.3632
 2690SOL    HW119529   1.263   3.566   3.640  1.8370  1.0697 -0.8450
 2690SOL    HW219530   1.384   3.614   3.699 -0.7735  0.7820  0.4819
 2691SOL     OW19531   0.735   2.082   9.672  0.1042  0.0364 -0.2924
 2691SOL    HW119532   0.666   2.037   9.623 -0.4228 -0.3968  0.8360
 2691SOL    HW219533   0.746   2.030   9.752 -0.8407 -0.4826 -0.4993
 2692SOL     OW19534   1.546   1.090   8.315  0.0065 -0.3185 -0.2902
 2692SOL    HW119535   1.621   1.150   8.314 -0.7998  0.7262  1.7059
 2692SOL    HW219536   1.513   1.107   8.403 -2.6572 -0.4045 -1.2577
 2693SOL     OW19537   2.096   4.454   9.416 -0.6861 -0.5511 -0.2468
 2693SOL    HW119538   2.189   4.475   9.421 -0.3222 -1.8736 -1.3695
 2693SOL    HW219539   2.097   4.366   9.455  1.4022 -0.5782 -0.3793
 2694SOL     OW19540   4.268   3.078  14.288 -0.2732 -0.7872 -0.1237
 2694SOL    HW119541   4.314   3.076  14.205 -1.6991  0.0675 -0.9528
 2694SOL    HW219542   4.340   3.079  14.351  0.1799 -0.6683 -0.6525
 2695SOL     OW19543   3.207   4.724  10.886 -0.1257 -0.0922 -0.9592
 2695SOL    HW119544   3.162   0.082  10.901 -1.2949 -1.2051  1.5924
 2695SOL    HW219545   3.201   4.707  10.792 -0.5593  2.2176 -1.3457
 2696SOL     OW19546   4.491   3.195   1.547 -0.4267  0.6671  0.2339
 2696SOL    HW119547   4.581   3.174   1.521  1.3693  1.9346  5.4014
 2696SOL    HW219548   4.466   3.238   1.465  1.0258 -2.0016 -1.6259
 2697SOL     OW19549   2.682   1.707  11.703  0.1434 -0.4660  0.1058
 2697SOL    HW119550   2.763   1.672  11.740  1.4901  1.7274 -0.7734
 2697SOL    HW219551   2.643   1.760  11.773 -1.0756 -1.7791  0.4176
 2698SOL     OW19552   0.382   1.143   3.825  0.7200 -0.2904  0.2309
 2698SOL    HW119553   0.403   1.235   3.809 -3.1061  0.5267 -0.1192
 2698SOL    HW219554   0.366   1.150   3.919  1.4373 -0.5956  0.3743
 2699SOL     OW19555   4.640   3.808   8.795  0.5370 -0.0868  0.4210
 2699SOL    HW119556   4.703   3.794   8.724 -0.7416  1.9820 -1.0993
 2699SOL    HW219557   4.611   3.719   8.814 -0.4769  1.0216  4.0399
 2700SOL     OW19558   2.860   3.159  13.912 -0.2013  0.2553 -0.4440
 2700SOL    HW119559   2.882   3.126  13.999 -2.5543 -0.0500  0.0352
 2700SOL    HW219560   2.786   3.216  13.933  0.5978  1.0684  0.1532
 2701SOL     OW19561   3.691   0.577   2.910 -0.0868 -0.7323  0.1790
 2701SOL    HW119562   3.649   0.651   2.867 -0.0654 -1.5298 -1.2230
 2701SOL    HW219563   3.684   0.509   2.843  0.2673  0.0839 -0.6729
 2702SOL     OW19564   2.990   0.976   0.731 -0.3656 -0.7266 -0.7435
 2702SOL    HW119565   2.976   1.066   0.761 -1.9146 -1.1126 -0.2783
 2702SOL    HW219566   3.085   0.976   0.718 -0.1283 -1.7296  0.9551
 2703SOL     OW19567   0.795   1.999   7.157 -0.0416 -0.3558  0.2549
 2703SOL    HW119568   0.747   1.921   7.185  0.1026 -0.1542  1.0713
 2703SOL    HW219569   0.886   1.983   7.181  0.1349  1.6890  0.9086
 2704SOL     OW19570   3.400   4.312   5.106  0.2000  0.4512 -0.4408
 2704SOL    HW119571   3.349   4.233   5.123 -0.1435  1.0280  1.1029
 2704SOL    HW219572   3.428   4.293   5.016  0.0452  0.2961 -0.4563
 2705SOL     OW19573   3.782   0.764   8.283 -0.1703 -0.0144 -0.4197
 2705SOL    HW119574   3.816   0.722   8.363  1.7306  1.3449 -0.5214
 2705SOL    HW219575   3.687   0.754   8.293 -0.0310  1.6533  2.7067
 2706SOL     OW19576   3.895   3.074   1.564 -0.3743 -0.8580  0.4679
 2706SOL    HW119577   3.901   3.118   1.479 -1.3646  0.0774  0.8872
 2706SOL    HW219578   3.894   2.985   1.526  1.9275 -0.8368  0.3328
 2707SOL     OW19579   0.161   1.604   8.100  0.9474  0.0607  0.3115
 2707SOL    HW119580   0.175   1.518   8.061  1.2437 -0.5918  1.8589
 2707SOL    HW219581   0.094   1.644   8.046  0.5642  1.4970  1.8512
 2708SOL     OW19582   2.453   0.307   3.812  0.2797 -0.2904  0.3916
 2708SOL    HW119583   2.391   0.376   3.834  1.1694 -0.1262  2.3134
 2708SOL    HW219584   2.507   0.351   3.747  1.7827  0.2143  2.0071
 2709SOL     OW19585   1.426   4.234  15.987  1.1011 -0.5620 -0.1364
 2709SOL    HW119586   1.470   4.153  15.963  1.0936 -0.5779 -0.0972
 2709SOL    HW219587   1.341   4.238  15.944  0.9204  0.0747  0.2703
 2710SOL     OW19588   1.350   0.108  17.604 -0.0218  0.3760  0.2873
 2710SOL    HW119589   1.348   0.028  17.552  0.5602  0.2150  0.5119
 2710SOL    HW219590   1.428   0.152  17.571  0.1281  1.1505  1.6450
 2711SOL     OW19591   4.114   1.522   1.902  0.3769  0.3645  0.0637
 2711SOL    HW119592   4.129   1.494   1.812 -3.1843  0.0314 -0.4183
 2711SOL    HW219593   4.161   1.606   1.900 -2.0743  1.7076 -0.1630
 2712SOL     OW19594   0.616   2.493  13.238 -0.0528 -0.4368  0.4100
 2712SOL    HW119595   0.653   2.558  13.299 -0.6553 -0.2237  0.5540
 2712SOL    HW219596   0.558   2.447  13.299 -1.2509  0.2041 -0.2343
 2713SOL     OW19597   0.081   0.619   0.793 -0.1912  0.2652 -0.3620
 2713SOL    HW119598   0.104   0.529   0.768  0.8584  0.6679 -0.8579
 2713SOL    HW219599   0.096   0.668   0.712 -0.8111 -0.8309 -1.1403
 2714SOL     OW19600   4.720   0.260   6.970 -0.0892 -0.4065  0.1144
 2714SOL    HW119601   0.032   0.189   6.916  0.4124 -0.7558  0.9168
 2714SOL    HW219602   0.057   0.274   7.042  1.0882 -2.1762 -0.5454
 2715SOL     OW19603   1.164   0.739   6.658  0.5900 -0.5604 -0.3986
 2715SOL    HW119604   1.085   0.725   6.710  1.1148  1.2051  0.8545
 2715SOL    HW219605   1.120   0.764   6.576 -0.3024 -2.0082 -0.3747
 2716SOL     OW19606   0.896   2.839   5.768 -0.0892 -0.1485 -0.4371
 2716SOL    HW119607   0.887   2.915   5.711 -0.4425 -1.6195 -2.3193
 2716SOL    HW219608   0.974   2.801   5.727  0.2772  1.5365 -1.2694
 2717SOL     OW19609   3.914   2.502   9.286 -0.7181  0.2868  0.1238
 2717SOL    HW119610   3.836   2.486   9.339 -0.6462 -1.4373 -0.2619
 2717SOL    HW219611   3.977   2.522   9.354  0.2438 -1.4442 -0.2569
 2718SOL     OW19612   1.399   2.964   9.064  0.3527 -0.1382  0.6709
 2718SOL    HW119613   1.371   3.022   9.135 -1.7999 -1.2454  0.7133
 2718SOL    HW219614   1.374   3.018   8.990 -0.0148  2.2031  2.5027
 2719SOL     OW19615   2.690   4.435   7.571  0.0961 -0.6186 -0.2565
 2719SOL    HW119616   2.648   4.514   7.537 -1.2714 -1.1760  0.1622
 2719SOL    HW219617   2.770   4.478   7.601  0.3724 -0.8988 -0.5874
 2720SOL     OW19618   3.736   3.478   5.411  0.1724 -0.0338 -0.0275
 2720SOL    HW119619   3.747   3.540   5.339  3.7389  0.0230  0.5996
 2720SOL    HW219620   3.814   3.471   5.465  2.0641 -1.7673 -2.9885
 2721SOL     OW19621   2.653   1.997   9.266  0.0921 -0.1161  0.7137
 2721SOL    HW119622   2.747   1.994   9.282  0.8877  1.4611 -3.6541
 2721SOL    HW219623   2.632   1.942   9.341 -0.6644  0.1157  0.6726
 2722SOL     OW19624   1.850   2.398   6.850  0.3397 -0.0803 -0.1498
 2722SOL    HW119625   1.841   2.368   6.760 -1.1713  0.9563 -0.3509
 2722SOL    HW219626   1.761   2.430   6.864  1.0568  1.5714  0.6398
 2723SOL     OW19627   1.444   3.615  13.587 -0.2654 -0.6639  0.1969
 2723SOL    HW119628   1.516   3.678  13.593 -1.7104  1.1210 -1.4502
 2723SOL    HW219629   1.405   3.636  13.503  1.1692  2.2646  0.2498
 2724SOL     OW19630   3.598   2.664   2.949  0.0906  0.3163  0.2381
 2724SOL    HW119631   3.582   2.599   2.881 -3.1048  1.4799 -0.1428
 2724SOL    HW219632   3.504   2.673   2.963  0.4684 -0.8142  3.5582
 2725SOL     OW19633   3.665   1.603  14.879  0.0137  0.3266  0.0603
 2725SOL    HW119634   3.665   1.517  14.838  0.9951  0.6085 -0.5418
 2725SOL    HW219635   3.647   1.668  14.811 -2.6551 -0.7755 -0.2568
 2726SOL     OW19636   2.289   3.020   4.755 -0.5038 -0.1555  0.3730
 2726SOL    HW119637   2.218   3.075   4.786  0.1062 -0.7888  2.8920
 2726SOL    HW219638   2.243   2.994   4.675  1.7065 -2.0457 -0.2834
 2727SOL     OW19639   1.219   3.191  10.991 -0.2373 -0.1017 -0.1718
 2727SOL    HW119640   1.301   3.198  11.040 -1.5917  0.8409  1.9579
 2727SOL    HW219641   1.203   3.099  11.008  1.7709  0.3045  3.9550
 2728SOL     OW19642   2.471   1.425  13.390 -0.3927  0.0904  0.0676
 2728SOL    HW119643   2.442   1.502  13.440 -2.7560 -0.4974 -0.3981
 2728SOL    HW219644   2.404   1.417  13.322  0.3917  0.9088 -0.8112
 2729SOL     OW19645   0.111   2.995  12.635  0.5531 -0.3461 -0.3008
 2729SOL    HW119646   0.202   2.981  12.609  0.5597  1.8587 -1.4353
 2729SOL    HW219647   0.057   2.997  12.556 -0.0861  0.0977  0.1456
 2730SOL     OW19648   4.268   3.816   9.053  0.1759  0.1545  0.2684
 2730SOL    HW119649   4.319   3.738   9.075 -1.8536 -1.6487 -1.4015
 2730SOL    HW219650   4.289   3.872   9.127 -0.5146 -0.3517  0.8411
 2731SOL     OW19651   0.230   3.375   8.358  0.0635 -0.4531  0.2564
 2731SOL    HW119652   0.189   3.344   8.277 -2.2792 -0.0395  1.2964
 2731SOL    HW219653   0.213   3.468   8.368  1.1037 -0.1600 -0.7400
 2732SOL     OW19654   3.385   0.693  12.036 -0.4926  0.4377 -0.3927
 2732SOL    HW119655   3.339   0.641  11.969 -0.7912 -1.4716  1.3044
 2732SOL    HW219656   3.428   0.637  12.101 -0.6803  0.5605 -0.1651
 2733SOL     OW19657   2.199   2.186   9.167 -0.1867  0.1711  0.2306
 2733SOL    HW119658   2.247   2.144   9.238 -2.0038 -2.1398  0.1143
 2733SOL    HW219659   2.254   2.261   9.147 -0.2672  0.0437 -0.4734
 2734SOL     OW19660   0.951   3.134   4.795 -0.2034  0.2259  0.5106
 2734SOL    HW119661   0.903   3.097   4.721 -0.7659 -0.4958  1.2332
 2734SOL    HW219662   1.035   3.165   4.763  0.2835 -0.0034  1.5644
 2735SOL     OW19663   1.771   4.515   4.213  0.4487 -0.1026 -0.1508
 2735SOL    HW119664   1.815   4.525   4.129  0.6471 -0.3189 -0.0718
 2735SOL    HW219665   1.845   4.482   4.265 -0.5492 -2.5782 -0.3092
 2736SOL     OW19666   3.009   0.638   5.771 -0.1142  0.3135 -0.7283
 2736SOL    HW119667   3.097   0.619   5.805 -0.3178 -1.7591 -1.3583
 2736SOL    HW219668   3.029   0.636   5.677  0.3202  1.1174 -0.6542
 2737SOL     OW19669   0.759   1.374   2.308  0.3919  0.2364 -0.2035
 2737SOL    HW119670   0.761   1.387   2.403  1.5009 -2.6059  0.1319
 2737SOL    HW219671   0.808   1.452   2.281  1.4481 -0.3860 -0.0967
 2738SOL     OW19672   0.406   2.480  17.013 -0.6896 -0.4895 -0.7899
 2738SOL    HW119673   0.443   2.471  17.101 -1.4325  1.4867 -0.2749
 2738SOL    HW219674   0.403   2.387  16.987  0.5752 -0.5799 -0.6116
 2739SOL     OW19675   2.510   1.550   4.781 -0.5398  0.3017 -0.3978
 2739SOL    HW119676   2.489   1.562   4.873 -0.4935  0.6890 -0.4387
 2739SOL    HW219677   2.437   1.497   4.751  1.3539 -3.3800  1.3897
 2740SOL     OW19678   1.153   2.120   9.837  0.5238 -0.0763  0.0373
 2740SOL    HW119679   1.114   2.100   9.752 -1.4267 -1.2039  1.1913
 2740SOL    HW219680   1.151   2.216   9.841  2.1306  0.0297 -1.7135
 2741SOL     OW19681   2.416   2.283   2.924 -0.4562  0.0160 -0.0852
 2741SOL    HW119682   2.507   2.298   2.899  0.7990 -2.8152  2.8634
 2741SOL    HW219683   2.418   2.190   2.946  0.7708  0.7380  2.7698
 2742SOL     OW19684   0.068   4.345   6.013  0.1794  0.3177  0.1714
 2742SOL    HW119685   0.137   4.354   6.079  0.2256 -1.0840  0.3303
 2742SOL    HW219686   0.095   4.261   5.975 -0.7277  0.2339 -0.2804
 2743SOL     OW19687   3.802   1.090   4.946  0.4041  0.2113  0.4075
 2743SOL    HW119688   3.894   1.072   4.925  0.0515  0.5244 -1.3933
 2743SOL    HW219689   3.749   1.027   4.898  0.1867  1.6165 -1.2020
 2744SOL     OW19690   1.058   0.456   7.403  0.7050  0.2168 -0.6995
 2744SOL    HW119691   1.026   0.443   7.314 -0.3606  1.1116 -0.4385
 2744SOL    HW219692   1.034   0.372   7.442 -1.1548  0.1356 -2.0344
 2745SOL     OW19693   1.153   4.230   4.843  0.5677 -0.5925  0.7682
 2745SOL    HW119694   1.236   4.209   4.886  1.0825 -0.7100 -0.2780
 2745SOL    HW219695   1.167   4.324   4.839  0.9526 -0.7805 -2.0626
 2746SOL     OW19696   1.699   1.964  17.051  0.1627  0.3370  0.0691
 2746SOL    HW119697   1.679   2.018  17.127  1.5770 -1.3896  1.6782
 2746SOL    HW219698   1.622   1.971  16.994 -1.0078  1.8891  1.8374
 2747SOL     OW19699   1.377   3.953   9.316 -0.1312 -0.1926 -0.3167
 2747SOL    HW119700   1.433   3.955   9.239  0.2714 -0.1528 -0.0229
 2747SOL    HW219701   1.402   3.871   9.359 -2.2139 -1.5420 -1.6869
 2748SOL     OW19702   0.758   0.206   0.162  0.2628 -0.3857 -0.1786
 2748SOL    HW119703   0.756   0.189   0.256 -0.0872 -3.0420 -0.6690
 2748SOL    HW219704   0.707   0.132   0.131 -1.7220  0.4506  1.1520
 2749SOL     OW19705   0.177   1.194   1.408 -0.1071  0.1618 -0.2630
 2749SOL    HW119706   0.165   1.188   1.313 -1.4373  2.0680 -0.2291
 2749SOL    HW219707   0.220   1.111   1.426  0.6981  0.5529 -0.4136
 2750SOL     OW19708   0.968   1.925   1.933 -0.3567 -0.4091  0.0892
 2750SOL    HW119709   0.879   1.960   1.925 -0.6741 -1.5451 -1.1776
 2750SOL    HW219710   1.020   1.980   1.875  1.1407 -1.2533  0.6188
 2751SOL     OW19711   3.037   3.913   8.552 -0.5364  0.3354 -0.3738
 2751SOL    HW119712   3.009   3.822   8.542  2.6389 -0.9113  2.1719
 2751SOL    HW219713   2.956   3.963   8.552 -0.3344  0.6622 -0.9618
 2752SOL     OW19714   1.141   4.148   9.929 -0.2989 -0.0623  0.2836
 2752SOL    HW119715   1.085   4.225   9.924  0.3054  0.4648  1.4742
 2752SOL    HW219716   1.107   4.103   9.852  2.3506 -2.2147  0.3377
 2753SOL     OW19717   1.446   2.676   7.945  0.1546 -0.4591  0.2074
 2753SOL    HW119718   1.486   2.712   8.024 -0.0706 -2.4384  1.2242
 2753SOL    HW219719   1.376   2.739   7.925 -0.4494 -2.2772 -3.3914
 2754SOL     OW19720   1.052   1.042   6.552 -0.4871 -0.0435  0.8624
 2754SOL    HW119721   1.093   1.129   6.552 -0.2866 -0.1481 -0.0812
 2754SOL    HW219722   1.115   0.984   6.510 -0.4080  1.4394 -1.0320
 2755SOL     OW19723   4.418   2.752   5.109  0.2850 -0.1393 -0.0432
 2755SOL    HW119724   4.371   2.706   5.040  1.3072  0.3778 -1.0926
 2755SOL    HW219725   4.500   2.706   5.122 -0.2128 -0.7420  0.9175
 2756SOL     OW19726   1.000   1.770  10.562 -0.4377 -0.1768  0.4554
 2756SOL    HW119727   0.965   1.817  10.638  0.0284 -0.3159  0.7572
 2756SOL    HW219728   1.050   1.709  10.615 -4.4949 -3.4158  0.5176
 2757SOL     OW19729   0.907   1.562  10.768  0.2847  0.7962  0.1288
 2757SOL    HW119730   0.900   1.510  10.848  3.5152  0.0643 -0.0459
 2757SOL    HW219731   0.897   1.651  10.802  2.1104  0.9463  0.2697
 2758SOL     OW19732   2.573   3.282   8.147  0.1583 -0.4845 -0.1126
 2758SOL    HW119733   2.667   3.301   8.146  0.3327 -1.4798 -2.0019
 2758SOL    HW219734   2.575   3.195   8.186  0.7871 -0.9682 -1.2466
 2759SOL     OW19735   3.961   1.642   5.519  0.6533 -0.2173 -0.1467
 2759SOL    HW119736   3.895   1.605   5.460 -0.0621  0.7571  0.0493
 2759SOL    HW219737   4.011   1.696   5.458 -1.7906  1.7962 -0.3713
 2760SOL     OW19738   4.613   4.551  13.220  0.3130 -0.4452 -0.3210
 2760SOL    HW119739   4.579   4.607  13.150 -0.9348 -0.8294 -0.0272
 2760SOL    HW219740   4.687   4.607  13.243 -1.3443  2.1514 -1.3440
 2761SOL     OW19741   3.510   2.078  12.608 -0.0640 -0.5088  0.8228
 2761SOL    HW119742   3.581   2.048  12.664  0.0316 -0.6896  0.6035
 2761SOL    HW219743   3.498   2.166  12.644  2.7967  0.1759  0.0688
 2762SOL     OW19744   3.952   3.099   7.072  0.8031 -0.6199  0.3428
 2762SOL    HW119745   4.026   3.069   7.125  0.5361 -0.7507  0.6420
 2762SOL    HW219746   3.890   3.049   7.125  0.1402 -0.1674 -0.0048
 2763SOL     OW19747   3.791   4.397   5.672  0.2652 -0.5854 -0.5954
 2763SOL    HW119748   3.864   4.436   5.720 -2.3289  3.5381 -0.0347
 2763SOL    HW219749   3.819   4.322   5.620 -0.5304 -1.3590  0.1056
 2764SOL     OW19750   0.331   2.589   8.504 -0.2184  0.6467  0.0164
 2764SOL    HW119751   0.401   2.649   8.531 -0.7852  0.6183  1.5586
 2764SOL    HW219752   0.258   2.630   8.550  0.8096  1.8550  0.5726
 2765SOL     OW19753   2.874   4.585  14.443  0.3308  0.6902 -0.4957
 2765SOL    HW119754   2.831   4.656  14.395 -1.7022 -0.0496  0.2464
 2765SOL    HW219755   2.927   4.640  14.501 -1.9346 -0.4265  2.6574
 2766SOL     OW19756   0.469   3.550  16.703  0.0195  0.3343 -0.5957
 2766SOL    HW119757   0.482   3.455  16.704 -0.1136  0.3045 -1.3583
 2766SOL    HW219758   0.560   3.580  16.692 -0.6982  1.9338 -2.1544
 2767SOL     OW19759   4.568   3.055   2.556 -0.0788 -0.2012 -0.6064
 2767SOL    HW119760   4.634   3.124   2.556  0.4423 -0.6709  1.0885
 2767SOL    HW219761   4.504   3.078   2.623 -2.3625  0.8847 -3.1788
 2768SOL     OW19762   3.619   3.619   9.329 -0.6593 -0.1580  0.1850
 2768SOL    HW119763   3.667   3.593   9.408  4.7407  1.4355 -2.5184
 2768SOL    HW219764   3.546   3.670   9.364  1.2655  1.3527  1.9963
 2769SOL     OW19765   4.479   0.852   2.050  0.3017  0.0126  0.0137
 2769SOL    HW119766   4.493   0.811   1.965 -0.2705  1.5580 -0.8417
 2769SOL    HW219767   4.388   0.879   2.042  0.4262  0.1609 -0.8430
 2770SOL     OW19768   4.072   3.342  10.953  0.7861  0.0741 -0.3225
 2770SOL    HW119769   3.982   3.311  10.939  1.4072 -0.4268 -3.1103
 2770SOL    HW219770   4.122   3.309  10.878 -2.6876 -2.9776 -1.3284
 2771SOL     OW19771   2.603   1.402  11.225 -0.0386 -0.2374  0.2571
 2771SOL    HW119772   2.685   1.360  11.199 -0.8418 -2.1305  0.7818
 2771SOL    HW219773   2.633   1.441  11.307  0.9052 -0.7482  0.1579
 2772SOL     OW19774   0.239   3.530   4.658 -0.3939  0.2000  0.2605
 2772SOL    HW119775   0.191   3.569   4.731 -0.2854  0.2104  0.3260
 2772SOL    HW219776   0.330   3.537   4.685 -0.9385  3.3825  1.2923
 2773SOL     OW19777   1.484   0.358   0.867 -0.3862  0.5669  0.3786
 2773SOL    HW119778   1.521   0.361   0.779  0.6608  0.6581  0.8198
 2773SOL    HW219779   1.444   0.271   0.868 -1.0058  0.8570  1.3430
 2774SOL     OW19780   1.371   1.345  13.060 -0.8024 -0.0160 -0.0645
 2774SOL    HW119781   1.359   1.411  12.991  1.8760  1.1704  0.6467
 2774SOL    HW219782   1.441   1.298  13.015 -0.6742 -0.5128  0.6746
 2775SOL     OW19783   1.471   1.894   7.878  0.5613  0.1969 -0.8970
 2775SOL    HW119784   1.508   1.914   7.792  1.7212 -2.3729 -0.9834
 2775SOL    HW219785   1.521   1.818   7.908  0.3191 -0.7158 -2.7742
 2776SOL     OW19786   1.134   2.414   8.195  0.5059 -0.5494 -0.3699
 2776SOL    HW119787   1.043   2.438   8.212  0.3727 -2.2520  1.3038
 2776SOL    HW219788   1.172   2.451   8.274  0.5544  0.0175 -0.6526
 2777SOL     OW19789   1.629   1.215   7.639  0.7202  0.7298  0.2757
 2777SOL    HW119790   1.571   1.250   7.572 -0.3814  2.5721  2.1868
 2777SOL    HW219791   1.565   1.207   7.709 -0.3165 -1.1819 -0.9062
 2778SOL     OW19792   0.236   2.260   3.666  0.1141  0.1348  0.1440
 2778SOL    HW119793   0.145   2.240   3.691  0.4287 -1.1043  0.2904
 2778SOL    HW219794   0.221   2.335   3.608 -0.3889  1.1124  1.5500
 2779SOL     OW19795   1.893   1.069  16.503 -0.1402 -0.0935  0.0031
 2779SOL    HW119796   1.833   1.120  16.557  0.5531 -1.0139  1.6489
 2779SOL    HW219797   1.831   1.023  16.445 -1.5596 -1.1458  2.3463
 2780SOL     OW19798   2.096   0.578   0.059  0.2769 -0.1316  0.4022
 2780SOL    HW119799   2.075   0.629   0.137  1.6230  2.0798 -0.6610
 2780SOL    HW219800   2.167   0.630   0.021 -1.5381  1.1473 -1.2472
 2781SOL     OW19801   4.375   3.715  11.463  0.3372 -0.0911 -0.6932
 2781SOL    HW119802   4.366   3.657  11.537  2.9599  0.7000  0.2549
 2781SOL    HW219803   4.449   3.769  11.490  1.4066 -1.9854  0.1421
 2782SOL     OW19804   3.642   3.111   3.718 -0.2112 -0.2399  0.1505
 2782SOL    HW119805   3.623   3.031   3.767 -1.9773  0.2618  0.2473
 2782SOL    HW219806   3.726   3.128   3.761  0.8450  1.2697 -2.4933
 2783SOL     OW19807   4.165   3.438   3.518 -0.0209 -0.2898 -0.2348
 2783SOL    HW119808   4.121   3.447   3.602 -3.3723  0.4382 -2.0717
 2783SOL    HW219809   4.208   3.352   3.522  0.8861  0.2280  1.0438
 2784SOL     OW19810   3.569   2.410   8.206  0.2565  0.0724  0.0461
 2784SOL    HW119811   3.595   2.419   8.114 -1.4889 -4.3828 -0.8610
 2784SOL    HW219812   3.598   2.322   8.231  1.3719  0.4351  0.0629
 2785SOL     OW19813   1.980   1.493  15.723  0.6340 -0.0513 -0.0315
 2785SOL    HW119814   2.056   1.459  15.676  1.4084  3.2550 -1.1709
 2785SOL    HW219815   1.986   1.581  15.685  0.8169 -0.4138 -0.8501
 2786SOL     OW19816   0.020   1.237   4.211 -0.2663  0.4241 -0.0723
 2786SOL    HW119817   4.692   1.221   4.132  1.0545 -0.2902 -0.8042
 2786SOL    HW219818   0.083   1.287   4.160  1.0900  0.7580  1.9597
 2787SOL     OW19819   0.615   0.542  11.558  0.4579  0.1952  0.3259
 2787SOL    HW119820   0.552   0.614  11.558  0.1340 -0.0798 -0.3239
 2787SOL    HW219821   0.690   0.584  11.516  1.3446  0.2508  1.9712
 2788SOL     OW19822   2.485   0.448  16.428  0.1967  0.7747  0.0132
 2788SOL    HW119823   2.466   0.354  16.424  0.0569  0.8222 -0.4810
 2788SOL    HW219824   2.579   0.447  16.446  0.7779  1.9614 -2.8896
 2789SOL     OW19825   1.331   2.134  16.583 -0.0078  0.3247 -0.0555
 2789SOL    HW119826   1.262   2.200  16.585  0.1633  0.5489 -1.6768
 2789SOL    HW219827   1.412   2.184  16.592 -0.1296  0.6243 -0.6264
 2790SOL     OW19828   3.044   3.579   4.302 -0.1217 -0.2944  0.2692
 2790SOL    HW119829   3.048   3.490   4.267  0.0155 -0.0938 -0.2215
 2790SOL    HW219830   2.999   3.563   4.385  0.8314 -0.0442  0.8325
 2791SOL     OW19831   0.411   1.643  10.713 -0.6174  0.1355 -0.2996
 2791SOL    HW119832   0.453   1.557  10.721  0.2603  0.6678  0.7399
 2791SOL    HW219833   0.473   1.689  10.769 -2.0890 -0.1523  1.5207
 2792SOL     OW19834   3.304   4.028   3.523 -0.5139 -0.3431  0.2526
 2792SOL    HW119835   3.233   4.005   3.463 -1.2202  0.9932  0.5746
 2792SOL    HW219836   3.244   4.063   3.589 -0.2701 -0.6704  0.6424
 2793SOL     OW19837   2.359   0.600   6.908 -0.1244 -0.3875 -0.0482
 2793SOL    HW119838   2.339   0.534   6.842  0.3706 -0.8958  0.3127
 2793SOL    HW219839   2.289   0.599   6.973  0.3901 -0.3264  0.5122
 2794SOL     OW19840   2.566   0.080  12.585 -0.0882 -0.5432  0.7178
 2794SOL    HW119841   2.649   0.105  12.624 -0.8195  2.4885  0.3063
 2794SOL    HW219842   2.527   0.159  12.548 -0.4465 -1.7553 -1.4912
 2795SOL     OW19843   0.815   2.851   8.204 -0.5521  0.3927 -0.0445
 2795SOL    HW119844   0.730   2.886   8.179 -0.0949  0.7972 -1.0169
 2795SOL    HW219845   0.820   2.762   8.169 -0.1696  1.1608 -1.8908
 2796SOL     OW19846   4.011   4.023   8.974 -0.2716  0.2831  0.2694
 2796SOL    HW119847   4.107   4.027   8.969 -0.2885 -0.2986 -0.5724
 2796SOL    HW219848   3.989   4.106   8.931 -1.9669 -1.5366 -2.3586
 2797SOL     OW19849   1.555   3.973   2.005  0.3480 -0.3518 -0.2253
 2797SOL    HW119850   1.573   3.996   1.914 -0.3957  0.9323 -0.0527
 2797SOL    HW219851   1.463   4.000   2.007  0.0483 -1.6001  2.2594
 2798SOL     OW19852   1.558   3.960   4.338  0.1759 -0.1810  0.2553
 2798SOL    HW119853   1.600   4.029   4.389 -1.8144  0.1606  1.4364
 2798SOL    HW219854   1.475   4.004   4.321  1.3854  0.8889 -2.9522
 2799SOL     OW19855   0.091   3.877   5.271  0.0137  0.4782  0.5609
 2799SOL    HW119856   0.015   3.820   5.260 -0.6328  1.4542 -0.0240
 2799SOL    HW219857   0.093   3.918   5.184 -4.2677 -0.7125 -0.0767
 2800SOL     OW19858   3.200   4.359  10.811  0.3628 -0.1210 -0.0390
 2800SOL    HW119859   3.279   4.406  10.783 -0.8552 -0.2173 -3.6048
 2800SOL    HW219860   3.234   4.273  10.835 -1.1787 -0.9587 -0.8665
 2801SOL     OW19861   3.011   3.152   9.002 -0.0893 -0.1781  0.1427
 2801SOL    HW119862   3.077   3.211   8.966 -2.3896  0.4168 -3.1695
 2801SOL    HW219863   2.935   3.211   9.004  0.7280  0.8317  1.6931
 2802SOL     OW19864   2.013   4.179  10.364  0.0719 -0.5078  0.1209
 2802SOL    HW119865   1.928   4.139  10.344  1.3273 -3.0962 -0.0749
 2802SOL    HW219866   2.035   4.212  10.276  0.0619  0.4780  0.4859
 2803SOL     OW19867   0.647   2.152   9.164 -0.4639  0.6011  1.1682
 2803SOL    HW119868   0.603   2.107   9.092 -0.0221  0.1979  1.1463
 2803SOL    HW219869   0.577   2.147   9.229  0.1395 -0.3740  1.7414
 2804SOL     OW19870   0.395   3.020  16.973  0.2693 -0.0162 -0.2968
 2804SOL    HW119871   0.488   2.998  16.974 -0.5128 -3.2963  0.5788
 2804SOL    HW219872   0.398   3.091  17.037 -1.2997 -0.1680 -0.0612
 2805SOL     OW19873   3.965   0.663   2.871  0.1500  0.2114 -0.1288
 2805SOL    HW119874   3.962   0.759   2.865  1.9220  0.2130 -0.9944
 2805SOL    HW219875   3.874   0.634   2.878 -0.3019  0.8735 -3.0666
 2806SOL     OW19876   2.430   3.738  12.271 -0.2655 -0.4160  0.5249
 2806SOL    HW119877   2.361   3.782  12.320  2.3602  2.1279  1.9781
 2806SOL    HW219878   2.482   3.815  12.249 -1.1334  0.0427  0.0990
 2807SOL     OW19879   0.052   2.176  16.600  0.0230 -0.9585 -0.2853
 2807SOL    HW119880   0.008   2.091  16.611  0.0597 -0.8052  1.0957
 2807SOL    HW219881   0.017   2.193  16.513  2.2916 -0.5645 -1.1116
 2808SOL     OW19882   0.871   0.713   3.971  0.0094  0.0786  0.6920
 2808SOL    HW119883   0.869   0.631   3.922 -1.9583  0.8833 -0.5600
 2808SOL    HW219884   0.959   0.704   4.008  0.6409 -1.5681 -1.2452
 2809SOL     OW19885   1.535   0.314   0.606  0.4079 -0.0184  1.0218
 2809SOL    HW119886   1.552   0.222   0.624 -1.2935 -0.4489  0.4884
 2809SOL    HW219887   1.456   0.301   0.553  0.2057  1.8985  0.8406
 2810SOL     OW19888   4.498   2.719  12.368 -0.3926 -0.3769  0.5152
 2810SOL    HW119889   4.410   2.688  12.392 -0.8232 -0.8929 -1.7541
 2810SOL    HW219890   4.497   2.677  12.282  0.8089  0.5585  0.0564
 2811SOL     OW19891   2.745   1.513   7.353 -0.3898 -0.0107  0.3004
 2811SOL    HW119892   2.819   1.463   7.318  0.4014  2.0729 -1.0115
 2811SOL    HW219893   2.676   1.447   7.348 -2.7534  2.4511  0.4187
 2812SOL     OW19894   2.999   3.201   5.541 -0.6331 -0.3930  0.1375
 2812SOL    HW119895   3.094   3.189   5.537 -0.5348  0.1595  0.8496
 2812SOL    HW219896   2.968   3.173   5.455  1.5568 -0.5572 -0.5887
 2813SOL     OW19897   2.695   0.535   5.852 -1.1097  0.2336 -0.2755
 2813SOL    HW119898   2.689   0.441   5.869  1.1501  0.1283 -0.1621
 2813SOL    HW219899   2.788   0.550   5.869 -0.8189 -2.5142  0.5347
 2814SOL     OW19900   0.533   0.066  14.662  0.3634  0.0171  0.2918
 2814SOL    HW119901   0.530   0.105  14.575 -0.9890  1.9205  1.1896
 2814SOL    HW219902   0.458   0.006  14.665 -0.1600  0.5056 -2.6270
 2815SOL     OW19903   2.878   1.345   2.975  0.0626  0.5038  0.5096
 2815SOL    HW119904   2.905   1.436   2.957 -0.8641  0.4543 -1.1625
 2815SOL    HW219905   2.950   1.300   2.930 -0.1506  0.4056  0.2650
 2816SOL     OW19906   0.480   3.814   6.806  0.4734  0.3308 -0.1303
 2816SOL    HW119907   0.547   3.749   6.827  0.3961  0.1008 -0.6065
 2816SOL    HW219908   0.477   3.879   6.876 -0.3744  2.2294 -1.9367
 2817SOL     OW19909   3.736   3.229   2.082 -0.4726 -0.2738  0.7520
 2817SOL    HW119910   3.654   3.275   2.101 -1.8717 -1.2043 -3.0025
 2817SOL    HW219911   3.697   3.172   2.016 -0.1000  0.9042 -0.4996
 2818SOL     OW19912   1.576   3.017   5.014  0.4683  0.0039  0.5918
 2818SOL    HW119913   1.604   3.069   5.089  0.2800  1.1699 -0.1456
 2818SOL    HW219914   1.629   2.938   5.028  0.8009  0.3091  1.0514
 2819SOL     OW19915   2.082   1.664   8.444 -0.3108  0.4089 -0.5655
 2819SOL    HW119916   2.037   1.616   8.513  0.8653 -0.0926 -0.1456
 2819SOL    HW219917   2.032   1.640   8.366  1.3565  1.6007 -2.0024
 2820SOL     OW19918   0.286   0.469   2.241 -0.2132  0.1724  0.2046
 2820SOL    HW119919   0.202   0.451   2.282 -1.2836  1.4138 -1.4407
 2820SOL    HW219920   0.321   0.558   2.254 -0.1175  0.5075 -2.2610
 2821SOL     OW19921   2.363   0.547   8.406  0.0941 -0.2000 -0.1464
 2821SOL    HW119922   2.284   0.587   8.443  0.3926  0.4194 -0.1898
 2821SOL    HW219923   2.403   0.529   8.491  0.6119  1.2837 -0.0898
 2822SOL     OW19924   0.187   1.002   2.354  0.3388  0.2919 -0.0889
 2822SOL    HW119925   0.140   0.988   2.271  0.1775 -1.8196  0.3506
 2822SOL    HW219926   0.276   0.976   2.330 -0.3812 -3.6631  1.6112
 2823SOL     OW19927   1.038   3.941   3.034  0.0009  0.0316 -0.2128
 2823SOL    HW119928   0.968   4.006   3.047  0.1432 -0.1543  1.4866
 2823SOL    HW219929   1.113   3.999   3.045  0.6947 -0.9032 -0.0925
 2824SOL     OW19930   2.709   0.082   7.274  0.4253  0.1299 -0.1196
 2824SOL    HW119931   2.773   0.082   7.203  0.1044 -2.9882 -0.4122
 2824SOL    HW219932   2.630   0.109   7.227  0.7702 -1.8468 -1.8464
 2825SOL     OW19933   0.305   2.513   6.450  0.2072  0.0598 -0.4382
 2825SOL    HW119934   0.358   2.440   6.418  1.1978  0.6213 -0.0669
 2825SOL    HW219935   0.347   2.585   6.403  1.4937 -1.1451 -1.1140
 2826SOL     OW19936   0.082   0.439   7.641 -0.0752  0.0861 -0.1150
 2826SOL    HW119937   4.720   0.398   7.633  1.0211 -2.6641  1.8991
 2826SOL    HW219938   0.136   0.376   7.688  2.2582  3.4592  1.6243
 2827SOL     OW19939   3.080   3.662   7.044 -0.1099 -0.2893 -0.4046
 2827SOL    HW119940   3.125   3.578   7.047  0.5956 -0.0204 -2.7941
 2827SOL    HW219941   3.084   3.677   6.949 -1.3009 -0.4009 -0.4809
 2828SOL     OW19942   2.105   1.250  15.872 -0.7081  0.0133 -0.3183
 2828SOL    HW119943   2.125   1.170  15.920  0.7071  0.3171 -0.4157
 2828SOL    HW219944   2.193   1.284  15.862 -0.6289  0.1737  0.9461
 2829SOL     OW19945   1.686   0.088   4.923 -0.0744  1.3219  0.5971
 2829SOL    HW119946   1.674   0.147   4.849 -0.1248  0.9929  0.3474
 2829SOL    HW219947   1.774   0.097   4.958  0.1953  1.2565 -0.0713
 2830SOL     OW19948   1.997   2.776   3.114 -0.2113  0.0918  0.0872
 2830SOL    HW119949   2.004   2.692   3.069  0.6279 -0.2909  0.9481
 2830SOL    HW219950   2.039   2.837   3.053  2.0211  0.3991  1.9492
 2831SOL     OW19951   0.580   1.734   6.233 -0.9870 -0.0403  0.1846
 2831SOL    HW119952   0.576   1.649   6.276  2.5987 -1.6107 -2.6008
 2831SOL    HW219953   0.566   1.803   6.297 -0.8629  0.3283 -0.1820
 2832SOL     OW19954   2.433   3.236   0.671  0.1828 -0.3842 -0.4150
 2832SOL    HW119955   2.442   3.203   0.760 -0.0365  0.3060 -0.1399
 2832SOL    HW219956   2.519   3.271   0.645  0.7364 -1.3178  0.1744
 2833SOL     OW19957   0.188   3.351   8.018  0.0548 -0.2007 -0.4127
 2833SOL    HW119958   0.218   3.276   7.966 -3.6268 -1.2630 -1.0277
 2833SOL    HW219959   0.272   3.396   8.011  0.1902 -0.4338 -0.2899
 2834SOL     OW19960   1.633   3.954   1.738  0.0023 -0.1579 -0.1385
 2834SOL    HW119961   1.698   4.022   1.757  0.6962 -0.3166 -1.9152
 2834SOL    HW219962   1.692   3.883   1.710  1.5799 -0.2027  3.2889
 2835SOL     OW19963   3.177   1.119   8.092 -0.5521 -0.1468  0.0144
 2835SOL    HW119964   3.214   1.063   8.161  0.1838  2.3246  1.6122
 2835SOL    HW219965   3.102   1.149   8.143 -0.4122  1.1812 -0.5716
 2836SOL     OW19966   2.616   2.252   9.342 -0.4588 -0.3275  0.3230
 2836SOL    HW119967   2.604   2.172   9.291  0.5049 -0.9357  1.0471
 2836SOL    HW219968   2.665   2.301   9.277  0.0971  0.5898  1.4214
 2837SOL     OW19969   0.543   1.082   5.091 -0.1003 -0.7095  0.4889
 2837SOL    HW119970   0.598   1.108   5.165 -0.3631  3.3637 -0.7587
 2837SOL    HW219971   0.460   1.127   5.106  0.3963  0.2831  0.3137
 2838SOL     OW19972   3.975   2.775   0.430  0.4766 -0.6395  0.0275
 2838SOL    HW119973   3.885   2.803   0.418  0.5002 -0.0501  1.2254
 2838SOL    HW219974   3.984   2.698   0.373  0.6753 -0.7028  0.1428
 2839SOL     OW19975   3.362   2.642   6.273 -0.0614 -0.5147 -0.5720
 2839SOL    HW119976   3.294   2.645   6.206 -0.2643  0.0212 -0.3395
 2839SOL    HW219977   3.328   2.715   6.325  0.1363 -1.2548  0.6084
 2840SOL     OW19978   1.249   4.219   6.288 -1.1214 -0.7896 -0.5148
 2840SOL    HW119979   1.319   4.254   6.343 -0.0920 -1.3934 -1.4388
 2840SOL    HW219980   1.293   4.136   6.269  0.5152  0.0906 -0.4744
 2841SOL     OW19981   3.911   1.910   2.630  0.1813 -0.8194  0.1625
 2841SOL    HW119982   3.898   1.995   2.671 -2.3798 -0.8056 -0.6345
 2841SOL    HW219983   3.862   1.872   2.703 -0.7776 -0.6617 -0.4001
 2842SOL     OW19984   2.253   0.500   3.914 -0.0450  0.0993  0.0190
 2842SOL    HW119985   2.167   0.459   3.930 -0.4407  0.7858 -0.3866
 2842SOL    HW219986   2.234   0.594   3.916 -2.2240 -0.3311 -0.3035
 2843SOL     OW19987   1.152   2.058   2.844  0.2795 -0.3745  0.1781
 2843SOL    HW119988   1.084   2.051   2.776  0.1594 -0.1356  0.2718
 2843SOL    HW219989   1.123   2.139   2.886  0.9153 -0.8891  1.5923
 2844SOL     OW19990   2.660   2.711   3.989 -0.0836  0.3516 -0.0019
 2844SOL    HW119991   2.696   2.692   3.903  1.0136 -1.2251  0.8053
 2844SOL    HW219992   2.599   2.783   3.973  0.0759  0.7241  1.0652
 2845SOL     OW19993   2.616   2.155   3.199  0.0450 -0.5104  0.1125
 2845SOL    HW119994   2.664   2.083   3.239 -0.1514 -0.6476  0.1018
 2845SOL    HW219995   2.565   2.118   3.127  0.1145  1.7349 -1.0876
 2846SOL     OW19996   0.807   2.542   1.143  0.6413 -0.1383 -0.0614
 2846SOL    HW119997   0.730   2.594   1.168  0.7085  1.7241 -3.8218
 2846SOL    HW219998   0.867   2.611   1.116  1.3562 -1.4487 -1.8459
 2847SOL     OW19999   3.594   1.675   3.140 -0.0006 -0.2551 -0.1092
 2847SOL    HW120000   3.673   1.717   3.175 -0.4516  1.6014 -1.3327
 2847SOL    HW220001   3.586   1.726   3.059 -0.0372 -1.8529 -1.1130
 2848SOL     OW20002   1.986   2.397   9.705 -0.7253  0.0876 -1.0091
 2848SOL    HW120003   2.065   2.419   9.655 -1.1902  0.8954 -1.3938
 2848SOL    HW220004   1.926   2.350   9.646  0.3299 -1.1321 -1.1113
 2849SOL     OW20005   2.662   3.487  15.898 -0.1113 -0.2760 -0.1395
 2849SOL    HW120006   2.723   3.560  15.885 -0.0107 -0.8061 -2.7188
 2849SOL    HW220007   2.710   3.434  15.962  0.3978 -0.8367 -0.9782
 2850SOL     OW20008   1.573   2.894   2.391 -0.0380  0.3393 -0.4192
 2850SOL    HW120009   1.624   2.953   2.335  0.9754 -0.5551 -0.4391
 2850SOL    HW220010   1.495   2.949   2.400 -0.0449  0.2462  0.0566
 2851SOL     OW20011   0.854   0.377   1.621 -0.1912  0.2148 -0.4217
 2851SOL    HW120012   0.814   0.462   1.641 -1.2842  0.2013 -2.4460
 2851SOL    HW220013   0.850   0.381   1.525 -0.7816  0.0178 -0.4044
 2852SOL     OW20014   4.084   4.095   5.898  0.5662 -0.6528 -0.6553
 2852SOL    HW120015   4.171   4.067   5.870  1.1962  1.0802 -0.4337
 2852SOL    HW220016   4.025   4.027   5.867 -1.3955 -0.1297  1.8894
 2853SOL     OW20017   0.802   3.887  14.153  0.3448  0.0103 -0.3320
 2853SOL    HW120018   0.837   3.961  14.202 -0.5032  0.0306  0.2416
 2853SOL    HW220019   0.711   3.909  14.135  0.6535  0.1512 -1.7342
 2854SOL     OW20020   3.360   0.682  15.682 -0.4946  0.6432  0.0742
 2854SOL    HW120021   3.337   0.705  15.592  2.7795 -1.0803 -1.1998
 2854SOL    HW220022   3.275   0.668  15.724 -0.4417 -2.5131 -0.8643
 2855SOL     OW20023   0.409   1.055   8.512 -0.0522  0.2731 -0.2172
 2855SOL    HW120024   0.448   1.068   8.426  0.5414  1.1072  0.1769
 2855SOL    HW220025   0.389   1.144   8.540 -1.0339  0.0169 -0.0861
 2856SOL     OW20026   2.462   4.199   2.177  0.0653  0.3801 -0.2201
 2856SOL    HW120027   2.460   4.246   2.094  0.9787 -1.6476 -1.4024
 2856SOL    HW220028   2.503   4.117   2.150  1.6222  1.5933 -1.5198
 2857SOL     OW20029   2.562   0.409   2.543 -0.3264  0.4180 -0.4252
 2857SOL    HW120030   2.501   0.360   2.488  0.5064  0.2868 -1.2482
 2857SOL    HW220031   2.621   0.335   2.557  0.5370  0.6804 -2.6053
 2858SOL     OW20032   1.269   0.274  14.106 -0.2655 -0.3307  0.2210
 2858SOL    HW120033   1.284   0.359  14.147 -1.8246  0.1517 -0.2110
 2858SOL    HW220034   1.180   0.255  14.134 -1.7843  3.1646 -2.2313
 2859SOL     OW20035   2.856   4.055  13.006  0.9433  0.7344  0.4188
 2859SOL    HW120036   2.838   3.962  12.996 -0.2866  0.9581  0.5012
 2859SOL    HW220037   2.831   4.068  13.098 -2.9416  1.4222 -0.7282
 2860SOL     OW20038   2.313   1.355  11.196 -0.0747  0.4171  0.7246
 2860SOL    HW120039   2.274   1.429  11.242  1.1886  1.8164 -0.4444
 2860SOL    HW220040   2.404   1.377  11.215  0.6758 -0.4422 -1.8685
 2861SOL     OW20041   3.042   3.531  11.239 -0.1262  0.3330  0.2468
 2861SOL    HW120042   3.042   3.533  11.335 -4.0297 -0.5558  0.2488
 2861SOL    HW220043   3.018   3.439  11.229  2.2796 -0.5514  2.7343
 2862SOL     OW20044   2.711   3.177   1.199 -0.3348 -0.1345 -0.1608
 2862SOL    HW120045   2.787   3.118   1.198  1.9462  2.7885  2.0962
 2862SOL    HW220046   2.685   3.194   1.289  1.8596  0.9925  0.2666
 2863SOL     OW20047   2.102   3.170   4.844 -0.4423  0.0398  0.2596
 2863SOL    HW120048   2.044   3.197   4.915 -1.7901  0.1499 -0.8693
 2863SOL    HW220049   2.092   3.247   4.788  0.6653 -0.6499 -0.8940
 2864SOL     OW20050   2.406   2.750  15.855 -0.3539  0.2607  0.3797
 2864SOL    HW120051   2.363   2.732  15.939  1.2515 -0.4840  1.0414
 2864SOL    HW220052   2.337   2.704  15.807 -0.1843 -0.2103  0.5846
 2865SOL     OW20053   1.596   2.491  11.955 -0.3039 -0.0155 -0.2256
 2865SOL    HW120054   1.544   2.518  12.030  1.7159 -0.2334  1.2497
 2865SOL    HW220055   1.539   2.425  11.915  0.2713  0.6515 -2.1664
 2866SOL     OW20056   4.445   2.866   1.467  0.1028  0.1078  0.1914
 2866SOL    HW120057   4.524   2.897   1.424 -0.1458 -2.1626 -1.9077
 2866SOL    HW220058   4.397   2.949   1.470  0.2743  0.1219  2.6174
 2867SOL     OW20059   4.093   2.072   1.624  0.1928  0.3016  0.2093
 2867SOL    HW120060   4.039   2.031   1.556  1.8728  0.6462 -1.3308
 2867SOL    HW220061   4.138   2.142   1.576  2.9170 -0.6159  1.4648
 2868SOL     OW20062   1.485   3.606  14.706 -0.6066  0.0600  0.1760
 2868SOL    HW120063   1.534   3.686  14.689 -3.4050  1.6696 -0.2360
 2868SOL    HW220064   1.506   3.555  14.627 -2.2048 -0.1845 -0.0926
 2869SOL     OW20065   0.119   3.199  13.102  0.2234 -0.5986  0.1389
 2869SOL    HW120066   0.079   3.193  13.189  0.1727  0.8750  0.2113
 2869SOL    HW220067   0.112   3.293  13.088  1.2504 -0.5472 -0.0438
 2870SOL     OW20068   0.350   1.851   2.059 -0.0186  0.2178 -0.3293
 2870SOL    HW120069   0.380   1.857   1.969 -3.3015  0.4466 -1.3976
 2870SOL    HW220070   0.417   1.792   2.092 -0.9477 -1.9143 -2.2227
 2871SOL     OW20071   4.104   0.406   2.364  0.0702 -0.4880  0.2428
 2871SOL    HW120072   4.104   0.450   2.449 -1.5035 -0.6001  0.2964
 2871SOL    HW220073   4.129   0.318   2.393  1.0351 -0.6255 -1.0092
 2872SOL     OW20074   1.550   3.592   2.567 -0.2678 -0.1214 -0.3219
 2872SOL    HW120075   1.501   3.513   2.545  0.2500 -0.7338  0.7461
 2872SOL    HW220076   1.637   3.574   2.531 -0.4026  1.0128 -1.2340
 2873SOL     OW20077   1.476   2.748   7.013  0.6603 -0.1753  0.2781
 2873SOL    HW120078   1.469   2.705   7.098 -2.1043  0.4909  0.3933
 2873SOL    HW220079   1.391   2.793   7.012  0.5728 -0.3558 -0.4096
 2874SOL     OW20080   4.616   2.037   3.900 -0.2307  0.2507 -0.3584
 2874SOL    HW120081   4.618   2.126   3.934  0.8629 -0.4245  1.3403
 2874SOL    HW220082   4.554   1.992   3.959  1.0120  2.6726  2.8172
 2875SOL     OW20083   3.908   0.511   1.310  0.0940  0.8301  0.5321
 2875SOL    HW120084   3.835   0.556   1.267  0.5941  0.6770 -0.4657
 2875SOL    HW220085   3.853   0.475   1.381 -0.9250 -0.7246 -1.0431
 2876SOL     OW20086   2.437   2.680  16.589 -0.6749  0.0127  0.3147
 2876SOL    HW120087   2.347   2.689  16.557 -1.3409  2.6862  3.0122
 2876SOL    HW220088   2.452   2.585  16.583 -1.2398 -0.0850  0.3877
 2877SOL     OW20089   0.382   3.686   7.999  0.7278  0.0099  0.0340
 2877SOL    HW120090   0.464   3.703   8.045  0.2369 -1.1166  1.3155
 2877SOL    HW220091   0.401   3.604   7.954 -0.0844  0.5349 -1.2715
 2878SOL     OW20092   0.590   3.059   0.674 -0.4198 -0.7675  0.2029
 2878SOL    HW120093   0.671   3.091   0.712 -0.2477 -0.2996 -0.5654
 2878SOL    HW220094   0.591   3.091   0.584  0.7956 -0.7421  0.2278
 2879SOL     OW20095   1.442   1.357   6.539  0.0042 -0.9991  0.3499
 2879SOL    HW120096   1.507   1.287   6.549  0.4001 -0.5482  0.9445
 2879SOL    HW220097   1.365   1.309   6.508 -0.7918  0.3753  0.2001
 2880SOL     OW20098   2.362   2.085   7.314  1.2861 -0.4222  0.2112
 2880SOL    HW120099   2.283   2.138   7.318  1.7912  0.2490  1.2942
 2880SOL    HW220100   2.366   2.067   7.220 -1.1473  1.4368 -0.2456
 2881SOL     OW20101   1.488   4.385  13.158 -0.3413  0.1954  0.5051
 2881SOL    HW120102   1.540   4.343  13.227  0.1442  0.4010  0.2637
 2881SOL    HW220103   1.496   4.319  13.089  1.8215  1.9894 -0.9348
 2882SOL     OW20104   2.153   0.666   8.850  0.5548 -0.4951  0.0083
 2882SOL    HW120105   2.081   0.612   8.884 -0.1771  0.4107 -0.1103
 2882SOL    HW220106   2.100   0.740   8.823 -2.7332 -2.5290  0.8768
 2883SOL     OW20107   2.652   1.493  11.489 -0.2286 -0.0007 -0.0357
 2883SOL    HW120108   2.658   1.533  11.576 -1.7137  0.2100 -0.0297
 2883SOL    HW220109   2.745   1.495  11.467 -0.0567  0.1782  0.6950
 2884SOL     OW20110   1.007   4.122   5.397  0.3967  0.1614 -0.4362
 2884SOL    HW120111   0.961   4.042   5.372  0.0504  0.7323 -1.6147
 2884SOL    HW220112   1.095   4.096   5.373  0.2976 -1.1161  0.5458
 2885SOL     OW20113   3.486   0.878   0.798  0.3165  0.0436 -0.4090
 2885SOL    HW120114   3.403   0.896   0.754 -0.7370 -0.0760  1.5476
 2885SOL    HW220115   3.466   0.813   0.864  1.9720  1.2965  1.3425
 2886SOL     OW20116   2.250   2.001   5.044 -0.5961 -0.0032 -0.0814
 2886SOL    HW120117   2.233   2.072   5.106  0.0425 -1.7450  2.1359
 2886SOL    HW220118   2.169   1.954   5.063 -1.1332  1.1604  0.4914
 2887SOL     OW20119   4.300   3.518   4.081 -0.1327 -0.1828 -0.7442
 2887SOL    HW120120   4.257   3.476   4.006 -1.3689  1.0323 -0.7202
 2887SOL    HW220121   4.244   3.494   4.154  3.5343 -1.0324  1.7754
 2888SOL     OW20122   3.922   3.648   6.484 -0.6581 -0.8851  0.2061
 2888SOL    HW120123   3.853   3.651   6.550 -1.9576  0.3439 -1.2192
 2888SOL    HW220124   3.864   3.667   6.410 -1.3088 -1.0478  0.6747
 2889SOL     OW20125   1.082   2.628   1.108 -0.1344 -0.5389  0.0322
 2889SOL    HW120126   1.136   2.699   1.074  0.2230 -1.4783 -1.3906
 2889SOL    HW220127   1.035   2.611   1.026 -2.1499 -1.2036  1.3232
 2890SOL     OW20128   2.644   1.151   4.342  0.2368  0.9501  0.1276
 2890SOL    HW120129   2.603   1.237   4.354 -0.1834  0.5706  1.3807
 2890SOL    HW220130   2.653   1.125   4.433  0.1557 -0.2838 -0.2249
 2891SOL     OW20131   2.461   0.186  16.412  0.7354  0.1525  0.0094
 2891SOL    HW120132   2.507   0.134  16.477  2.0869  0.8468 -0.3964
 2891SOL    HW220133   2.432   0.120  16.349  1.0316  0.8504 -0.8699
 2892SOL     OW20134   4.401   2.936   6.732 -0.1880  0.4068 -1.0551
 2892SOL    HW120135   4.455   2.965   6.659  0.1589 -0.6851 -1.2413
 2892SOL    HW220136   4.315   2.976   6.720 -1.3299 -1.5554  0.5474
 2893SOL     OW20137   3.436   0.996   9.139 -0.2631 -0.9329  0.4428
 2893SOL    HW120138   3.438   1.015   9.045 -1.5108 -2.3522  0.1217
 2893SOL    HW220139   3.425   1.085   9.173 -0.2988 -1.3161  1.4170
 2894SOL     OW20140   3.475   1.831   8.036  0.2570 -0.3642  0.0467
 2894SOL    HW120141   3.434   1.770   7.975  0.6609 -0.2738 -0.3124
 2894SOL    HW220142   3.557   1.855   7.992 -0.5931 -2.0995 -2.4325
 2895SOL     OW20143   1.047   0.563   9.641 -0.1389 -0.6187 -0.1686
 2895SOL    HW120144   0.977   0.579   9.704 -0.7976  1.3214 -1.3939
 2895SOL    HW220145   1.018   0.479   9.605  3.1360 -1.5495 -0.7136
 2896SOL     OW20146   4.530   2.281  12.854 -0.4828  0.0038  0.1001
 2896SOL    HW120147   4.584   2.259  12.779 -2.8809  2.2173 -2.2860
 2896SOL    HW220148   4.547   2.207  12.912  0.0977 -0.4942 -0.7178
 2897SOL     OW20149   3.967   0.621  12.843 -0.1236  0.5188  0.0354
 2897SOL    HW120150   3.899   0.555  12.830  0.3376 -0.1078  0.7602
 2897SOL    HW220151   4.029   0.581  12.904  0.4553  0.2037 -0.7567
 2898SOL     OW20152   3.741   0.928  14.165  0.3003 -0.0530  0.6578
 2898SOL    HW120153   3.663   0.958  14.213  1.5904  1.3827  1.8436
 2898SOL    HW220154   3.804   0.989  14.203 -0.0364  0.7370 -0.0584
 2899SOL     OW20155   1.886   0.836   8.137 -0.2569 -0.1442  0.0801
 2899SOL    HW120156   1.888   0.931   8.147  1.5912 -0.1017 -0.6067
 2899SOL    HW220157   1.800   0.814   8.173  0.7918 -0.4468  2.4425
 2900SOL     OW20158   1.235   0.015   6.879 -0.0889  0.3461 -0.4582
 2900SOL    HW120159   1.213   4.670   6.817  1.3484 -0.7510  0.2582
 2900SOL    HW220160   1.296   0.070   6.830 -3.1675  4.0773 -0.0786
 2901SOL     OW20161   4.332   0.553   4.001  0.7287  0.7855 -0.2844
 2901SOL    HW120162   4.261   0.518   3.947  0.9981 -1.3062  0.7191
 2901SOL    HW220163   4.283   0.601   4.067  0.2128 -0.3924  0.1760
 2902SOL     OW20164   4.419   3.463   9.539 -0.3178  0.2689  0.5379
 2902SOL    HW120165   4.468   3.514   9.474  0.7805  0.6115  1.6465
 2902SOL    HW220166   4.490   3.414   9.580 -1.0919  0.6755  2.3702
 2903SOL     OW20167   0.233   3.672   8.325 -0.2779 -0.4098  0.2360
 2903SOL    HW120168   0.184   3.647   8.246 -1.3534 -0.6722  0.9875
 2903SOL    HW220169   0.316   3.700   8.287 -1.6268  0.5727 -2.0066
 2904SOL     OW20170   2.581   3.089   8.794  0.1452 -0.0172 -0.4966
 2904SOL    HW120171   2.557   3.012   8.744  1.5129 -1.0017  0.3645
 2904SOL    HW220172   2.674   3.071   8.810  0.0140  0.2804  0.6314
 2905SOL     OW20173   0.902   1.635   6.116 -0.9074 -0.1209 -0.0929
 2905SOL    HW120174   0.901   1.562   6.177  1.2817 -0.5680 -0.5938
 2905SOL    HW220175   0.923   1.701   6.182 -1.0858  0.2651 -0.4198
 2906SOL     OW20176   0.844   4.495   4.556 -0.1741  0.2172 -0.2552
 2906SOL    HW120177   0.789   4.535   4.488  1.5605  0.0197 -1.8078
 2906SOL    HW220178   0.784   4.470   4.626  1.9682  1.1145  1.9138
 2907SOL     OW20179   0.420   2.196   6.673 -0.0119  0.4553 -0.0421
 2907SOL    HW120180   0.441   2.270   6.730  0.4814  1.2718 -1.2751
 2907SOL    HW220181   0.440   2.123   6.732  1.2445  1.5730  0.9315
 2908SOL     OW20182   3.368   0.790  17.596 -0.3382  0.1780  0.1410
 2908SOL    HW120183   3.366   0.716  17.536  1.3057  2.7536 -3.0896
 2908SOL    HW220184   3.375   0.860  17.531  0.9461 -0.9740 -0.9424
 2909SOL     OW20185   4.429   1.627   0.020  0.6424 -0.0467 -0.2125
 2909SOL    HW120186   4.425   1.543  17.676  0.2883  0.2881 -0.8093
 2909SOL    HW220187   4.474   1.684  17.658 -0.4640  0.0423 -0.9109
 2910SOL     OW20188   0.533   1.625  14.577 -0.1284 -1.2032  0.6533
 2910SOL    HW120189   0.504   1.716  14.576  2.2697 -0.4598  0.2089
 2910SOL    HW220190   0.472   1.588  14.641  0.3381 -3.4717 -0.1994
 2911SOL     OW20191   3.288   1.626   8.874 -0.3955  0.2302  0.5296
 2911SOL    HW120192   3.195   1.642   8.861 -0.2840 -0.3946 -1.0335
 2911SOL    HW220193   3.293   1.652   8.966  3.3571 -1.8665  0.9431
 2912SOL     OW20194   2.610   0.734  10.382  0.0835  0.1066 -0.6799
 2912SOL    HW120195   2.521   0.715  10.411  0.3094 -1.3217 -0.8955
 2912SOL    HW220196   2.630   0.661  10.323 -0.2462  0.0069 -0.6692
 2913SOL     OW20197   4.029   1.520   6.032  0.0969  0.1598 -0.1389
 2913SOL    HW120198   4.065   1.466   5.962 -0.1444 -1.3739  0.9194
 2913SOL    HW220199   3.935   1.511   6.015 -0.0525 -0.1181  0.8251
 2914SOL     OW20200   1.485   2.351   6.800 -0.1553  0.3086 -0.4975
 2914SOL    HW120201   1.500   2.353   6.705 -0.4186 -0.1106 -0.5472
 2914SOL    HW220202   1.389   2.355   6.800 -0.1978 -0.7286 -0.6450
 2915SOL     OW20203   2.831   1.126   7.992 -0.4361  0.2304  0.1806
 2915SOL    HW120204   2.839   1.045   8.043  0.3471  0.4939  0.4880
 2915SOL    HW220205   2.895   1.099   7.926 -1.2903  2.4191 -1.5262
 2916SOL     OW20206   3.434   1.612   0.079  0.1432 -0.0484  0.1823
 2916SOL    HW120207   3.502   1.591   0.015  0.4389  1.7572 -0.0794
 2916SOL    HW220208   3.476   1.671   0.141  0.9431  1.2713 -1.6253
 2917SOL     OW20209   2.022   0.677   7.616  0.1139  0.2784 -0.0664
 2917SOL    HW120210   2.088   0.664   7.684  0.9825 -0.9234 -1.1386
 2917SOL    HW220211   1.943   0.644   7.658  0.6215 -0.1305  0.5712
 2918SOL     OW20212   3.405   3.543   5.288 -0.2656  0.0589 -0.4120
 2918SOL    HW120213   3.448   3.459   5.273 -0.1621  0.4627 -2.3371
 2918SOL    HW220214   3.352   3.516   5.363  0.4152 -1.3787 -0.4495
 2919SOL     OW20215   4.333   4.123   8.682 -0.3589 -0.7002  0.6614
 2919SOL    HW120216   4.323   4.102   8.589  0.0871 -0.2317  0.5053
 2919SOL    HW220217   4.345   4.033   8.713  1.9855 -0.5929  0.0826
 2920SOL     OW20218   2.979   2.460  13.805  0.5191  0.1407  0.2816
 2920SOL    HW120219   2.921   2.530  13.774  0.4894  0.9067  2.0960
 2920SOL    HW220220   3.052   2.481  13.748 -0.7879  2.9976 -0.3258
 2921SOL     OW20221   2.486   0.877  10.177  0.4157  0.1647  0.8911
 2921SOL    HW120222   2.484   0.961  10.223  0.7399 -0.1944  1.5579
 2921SOL    HW220223   2.453   0.821  10.247  0.6938  0.0891  0.9635
 2922SOL     OW20224   4.517   4.088   7.318 -0.0908 -0.4028  0.1286
 2922SOL    HW120225   4.545   4.118   7.231 -0.1525 -0.3230  0.1370
 2922SOL    HW220226   4.427   4.078   7.287 -0.4956  1.0132  0.8862
 2923SOL     OW20227   4.414   1.580  11.417 -0.2127  0.0432  0.4256
 2923SOL    HW120228   4.384   1.668  11.440  0.3870  0.2807  0.3067
 2923SOL    HW220229   4.380   1.596  11.329  2.4938  0.9494 -0.4448
 2924SOL     OW20230   3.580   4.369   7.440 -0.1623  0.6562  0.5899
 2924SOL    HW120231   3.582   4.461   7.469  2.1139  0.1932  1.8921
 2924SOL    HW220232   3.625   4.336   7.518  1.4508 -1.5891 -1.2937
 2925SOL     OW20233   1.762   0.686   8.704  0.6654  0.3832 -0.1267
 2925SOL    HW120234   1.708   0.751   8.659  0.1900  1.5293  2.0777
 2925SOL    HW220235   1.843   0.713   8.660  0.6797  0.4589 -0.0556
 2926SOL     OW20236   1.915   1.655  17.218 -0.2234 -0.0075  0.2540
 2926SOL    HW120237   1.888   1.571  17.181  0.8118 -1.5077  2.8974
 2926SOL    HW220238   2.005   1.660  17.186 -0.0729 -0.5231  0.6080
 2927SOL     OW20239   0.803   4.660   8.274 -0.2991  0.7403 -0.2303
 2927SOL    HW120240   0.742   0.002   8.305 -0.0541  0.6936  0.3544
 2927SOL    HW220241   0.775   4.588   8.330  0.4464 -0.6733 -1.6754
 2928SOL     OW20242   4.386   3.015   4.579  0.0260  0.1185 -0.0915
 2928SOL    HW120243   4.417   2.957   4.510 -1.2435  0.6001 -1.0642
 2928SOL    HW220244   4.461   3.012   4.638  0.5327 -0.8540 -0.7909
 2929SOL     OW20245   1.009   2.719  13.673 -0.1198 -0.7206  0.3497
 2929SOL    HW120246   1.068   2.663  13.723  1.5663 -0.0361 -0.8994
 2929SOL    HW220247   1.026   2.703  13.581  1.4000  1.5643  0.2423
 2930SOL     OW20248   1.754   2.279   5.830 -0.2424 -0.1892 -0.0996
 2930SOL    HW120249   1.723   2.295   5.740  0.7236 -2.1952 -0.7974
 2930SOL    HW220250   1.746   2.366   5.870 -0.0001  1.0516 -2.6821
 2931SOL     OW20251   4.498   3.310   7.116  0.3651  0.4475  0.3022
 2931SOL    HW120252   4.523   3.223   7.147  3.1066  0.9877 -0.3726
 2931SOL    HW220253   4.433   3.280   7.053 -0.6360  0.7916  1.1678
 2932SOL     OW20254   0.778   2.961   1.079  0.5558  0.5345  0.4784
 2932SOL    HW120255   0.754   3.027   1.014  0.0070  0.0653  0.1930
 2932SOL    HW220256   0.863   2.931   1.049 -0.2663 -0.1387 -1.1759
 2933SOL     OW20257   1.513   1.579   3.606  0.4015 -0.4447  0.4199
 2933SOL    HW120258   1.580   1.645   3.588 -2.4465  2.0583 -1.0649
 2933SOL    HW220259   1.571   1.506   3.625  0.2730 -0.5260  0.5028
 2934SOL     OW20260   0.630   4.169   8.351 -0.2117 -0.0720  0.5014
 2934SOL    HW120261   0.539   4.140   8.343 -0.5025  1.0814 -0.2700
 2934SOL    HW220262   0.666   4.102   8.409  0.9935  0.6320  0.5662
 2935SOL     OW20263   0.211   2.084   4.974 -0.1468  0.2982  0.2691
 2935SOL    HW120264   0.211   1.996   4.936  3.4290 -0.2250  1.4489
 2935SOL    HW220265   0.301   2.103   4.946 -0.1038 -0.8187 -0.3579
 2936SOL     OW20266   3.618   3.319  13.621  0.8002 -0.0289 -0.7502
 2936SOL    HW120267   3.634   3.228  13.594  0.4984  0.0230 -1.1032
 2936SOL    HW220268   3.651   3.369  13.546 -0.7441  0.7928 -0.8681
 2937SOL     OW20269   3.055   1.652   7.674  0.2677 -0.5989  0.6956
 2937SOL    HW120270   3.020   1.571   7.712  1.7405 -0.7794  1.6604
 2937SOL    HW220271   3.112   1.612   7.608  1.8909  0.2002  1.6236
 2938SOL     OW20272   2.453   1.848  15.162 -0.2577 -0.1373  0.0840
 2938SOL    HW120273   2.494   1.761  15.165 -0.7583 -0.4159 -0.9791
 2938SOL    HW220274   2.362   1.831  15.138 -0.3370  3.5718 -2.1888
 2939SOL     OW20275   2.619   3.342   3.202 -0.0516  0.2159  0.6462
 2939SOL    HW120276   2.641   3.380   3.116 -0.9573 -2.8755 -0.9556
 2939SOL    HW220277   2.680   3.387   3.260  0.4491  0.8993 -0.4149
 2940SOL     OW20278   3.777   4.269   6.717  0.2500 -0.3113 -0.0067
 2940SOL    HW120279   3.835   4.238   6.786  1.4550 -1.6758 -1.6363
 2940SOL    HW220280   3.777   4.190   6.663 -0.7418 -1.6964  2.0100
 2941SOL     OW20281   0.172   2.995  10.766  0.7867 -0.4903  0.0572
 2941SOL    HW120282   0.185   2.996  10.861  0.7460  1.4703  0.0441
 2941SOL    HW220283   0.258   3.028  10.740  1.0059  0.0762  1.5329
 2942SOL     OW20284   3.748   0.028   5.382 -0.1204  0.0030  0.3887
 2942SOL    HW120285   3.830   0.078   5.384 -1.9275  3.0174 -1.7524
 2942SOL    HW220286   3.727   0.030   5.289  1.1336  2.1789  0.1490
 2943SOL     OW20287   2.972   2.079   3.943  0.3174 -0.1314  0.2037
 2943SOL    HW120288   3.054   2.053   3.986 -1.1170 -0.9420  2.4344
 2943SOL    HW220289   2.996   2.099   3.852  0.2476 -0.2967  0.1494
 2944SOL     OW20290   3.511   3.769   5.111  0.0584  0.5083  0.1369
 2944SOL    HW120291   3.434   3.796   5.062  1.3192 -0.5651 -2.4314
 2944SOL    HW220292   3.477   3.704   5.172 -0.7661 -0.5231 -1.4325
 2945SOL     OW20293   0.358   1.414   1.381 -0.6012  0.8316 -0.5344
 2945SOL    HW120294   0.429   1.388   1.323 -0.4048  1.3243 -0.5109
 2945SOL    HW220295   0.321   1.332   1.415  1.6423  0.4871  1.0372
 2946SOL     OW20296   0.230   0.609   2.679  0.3992 -0.5487 -0.3778
 2946SOL    HW120297   0.255   0.684   2.625 -2.0011 -0.4245 -1.3288
 2946SOL    HW220298   0.276   0.626   2.762  0.3005 -0.7914 -0.2746
 2947SOL     OW20299   0.405   2.399  15.822 -0.1033  0.0634 -0.5558
 2947SOL    HW120300   0.361   2.431  15.743 -0.2100 -0.0381 -0.5390
 2947SOL    HW220301   0.331   2.393  15.882 -1.0426  4.2856 -1.3535
 2948SOL     OW20302   0.178   0.613  10.436  0.0725 -0.3349  0.3014
 2948SOL    HW120303   0.200   0.702  10.407  0.9970 -0.5477  0.3390
 2948SOL    HW220304   0.123   0.634  10.512 -1.8819  1.1698 -1.5241
 2949SOL     OW20305   0.383   3.807   3.206  0.3792 -0.5808  0.0588
 2949SOL    HW120306   0.370   3.901   3.191  2.4558 -0.1001  1.1627
 2949SOL    HW220307   0.376   3.766   3.120  0.1259 -0.6989  0.1369
 2950SOL     OW20308   0.214   3.036   2.148 -0.3235 -0.2319 -0.0466
 2950SOL    HW120309   0.241   3.121   2.183  0.9606 -1.9259  3.0582
 2950SOL    HW220310   0.248   2.977   2.215  2.5263  1.5361  0.0807
 2951SOL     OW20311   1.448   4.302   1.749 -0.0056 -0.3815  0.0111
 2951SOL    HW120312   1.358   4.276   1.733 -0.6240  0.6148  1.9718
 2951SOL    HW220313   1.460   4.339   1.836  0.8612 -0.4995 -0.0545
 2952SOL     OW20314   1.862   4.083   1.812 -0.1749 -0.0257  0.1018
 2952SOL    HW120315   1.945   4.036   1.801  0.1928  0.6509 -0.0704
 2952SOL    HW220316   1.878   4.172   1.780 -0.7060  1.0624  2.8308
 2953SOL     OW20317   3.523   2.731   5.016 -0.2511 -0.1120 -0.4818
 2953SOL    HW120318   3.484   2.812   5.048  4.3928  2.5401 -1.5488
 2953SOL    HW220319   3.604   2.724   5.067 -0.7562  0.2094  0.3600
 2954SOL     OW20320   3.504   4.698   6.229  0.2501  0.1372  0.2172
 2954SOL    HW120321   3.541   0.033   6.165  0.8090 -0.5311 -0.0827
 2954SOL    HW220322   3.412   4.709   6.203  1.1338 -1.6843 -3.6584
 2955SOL     OW20323   4.238   1.833   3.932 -0.4322 -0.0488 -0.4877
 2955SOL    HW120324   4.174   1.776   3.976 -1.0038  0.6753 -0.3846
 2955SOL    HW220325   4.180   1.877   3.870 -0.4384 -1.3592 -1.4169
 2956SOL     OW20326   0.866   2.648   4.886  0.5499  0.3683 -0.0318
 2956SOL    HW120327   0.947   2.700   4.887  0.3902  0.5411  2.6263
 2956SOL    HW220328   0.848   2.661   4.793 -2.5627  0.4915  0.6079
 2957SOL     OW20329   1.752   1.524   9.092  0.4298 -0.2058  0.3008
 2957SOL    HW120330   1.813   1.597   9.091 -1.7881  1.6633  0.1045
 2957SOL    HW220331   1.698   1.539   9.015 -0.9002  0.7597  1.4237
 2958SOL     OW20332   0.813   1.991  17.101  0.4760  0.4548  0.5075
 2958SOL    HW120333   0.758   2.058  17.060 -0.4538 -0.4241  0.3103
 2958SOL    HW220334   0.798   2.012  17.193 -1.2357  0.8530  0.1457
 2959SOL     OW20335   3.295   4.497   1.385 -0.4972  0.1400  0.3154
 2959SOL    HW120336   3.296   4.439   1.309 -0.2046  0.6921 -0.0963
 2959SOL    HW220337   3.211   4.540   1.373  0.2345  0.6884 -2.6523
 2960SOL     OW20338   3.384   4.628  16.188 -0.0159 -0.2153  0.4704
 2960SOL    HW120339   3.300   4.636  16.142 -0.2750 -0.4261  0.9112
 2960SOL    HW220340   3.447   4.613  16.117  0.6004  1.5577  0.6559
 2961SOL     OW20341   4.503   1.534   7.620 -0.8281 -0.2039 -0.0813
 2961SOL    HW120342   4.494   1.443   7.592  0.4225 -0.8314  1.5501
 2961SOL    HW220343   4.565   1.559   7.551 -0.3829  1.9553  1.1022
 2962SOL     OW20344   0.086   1.825   2.068 -0.3422  0.3115  0.2052
 2962SOL    HW120345   0.178   1.842   2.051 -0.8731  1.2886 -1.6916
 2962SOL    HW220346   0.106   1.755   2.130 -0.9691  0.6042  0.7327
 2963SOL     OW20347   0.373   3.804   5.889  0.5810 -0.2494  0.2779
 2963SOL    HW120348   0.353   3.897   5.903  1.2632 -0.1020  0.2752
 2963SOL    HW220349   0.309   3.756   5.941  0.0128  1.9115  1.5561
 2964SOL     OW20350   3.390   2.222   4.754  0.1665  0.1282  0.2658
 2964SOL    HW120351   3.430   2.175   4.827  1.0227 -1.1087 -1.0006
 2964SOL    HW220352   3.452   2.295   4.752  0.1293  0.1435 -0.5597
 2965SOL     OW20353   4.287   3.010   2.547 -0.2537  0.3144  0.8210
 2965SOL    HW120354   4.297   3.059   2.630  1.7092  0.7204  0.3457
 2965SOL    HW220355   4.379   3.005   2.523 -0.5480  1.1534 -0.5019
 2966SOL     OW20356   3.474   2.616   5.360 -0.1759 -0.1057  0.2339
 2966SOL    HW120357   3.416   2.692   5.356  0.6148  0.5164  0.7813
 2966SOL    HW220358   3.546   2.666   5.320 -1.1316  1.5967  0.6596
 2967SOL     OW20359   2.205   1.214   6.312 -0.6125 -0.3180  0.2159
 2967SOL    HW120360   2.157   1.297   6.308  0.4125  0.2502 -0.2878
 2967SOL    HW220361   2.222   1.205   6.406 -1.6856 -0.0503  0.4370
 2968SOL     OW20362   2.378   2.258   0.187  0.3067  0.6778  0.1196
 2968SOL    HW120363   2.448   2.276   0.250 -0.5153  0.0023  1.2306
 2968SOL    HW220364   2.339   2.346   0.184  0.4328  0.8665  3.8150
 2969SOL     OW20365   1.787   1.163  12.161 -0.5500 -0.0071  0.5270
 2969SOL    HW120366   1.861   1.115  12.124 -1.3895 -0.5667 -0.4256
 2969SOL    HW220367   1.744   1.099  12.219  0.7608 -0.9339  0.4638
 2970SOL     OW20368   3.720   2.090  13.117  0.0088 -0.0846 -0.1316
 2970SOL    HW120369   3.677   2.175  13.126 -3.0428 -1.7319  0.8978
 2970SOL    HW220370   3.675   2.028  13.174 -2.3765  1.0762 -0.7481
 2971SOL     OW20371   4.487   2.324   1.628 -0.0664  0.1107 -0.1227
 2971SOL    HW120372   4.477   2.243   1.679 -2.1444 -1.8397 -3.5839
 2971SOL    HW220373   4.443   2.388   1.683 -0.8266  0.1466 -0.7693
 2972SOL     OW20374   2.146   3.398   6.245  0.2351  0.4947  0.6062
 2972SOL    HW120375   2.057   3.364   6.235  0.5979  0.1704 -1.4961
 2972SOL    HW220376   2.143   3.449   6.164 -1.8261  0.4993  0.6938
 2973SOL     OW20377   4.499   0.825   3.553  0.3407 -0.2543 -0.0570
 2973SOL    HW120378   4.418   0.842   3.602 -0.3575 -2.3107 -0.5137
 2973SOL    HW220379   4.555   0.806   3.627  0.7460  2.1322  0.2659
 2974SOL     OW20380   0.638   4.176  10.404  0.4906 -0.5128  0.3729
 2974SOL    HW120381   0.623   4.257  10.357  0.5942  0.7848  2.5917
 2974SOL    HW220382   0.657   4.202  10.494 -0.9755  0.6938  0.3282
 2975SOL     OW20383   4.628   1.009   0.536 -0.4304  0.2397 -0.0750
 2975SOL    HW120384   4.568   1.047   0.600  0.6273  1.8111 -0.0245
 2975SOL    HW220385   4.598   1.054   0.456  0.8976  1.2237 -0.0045
 2976SOL     OW20386   4.699   3.558   6.107  0.5621  0.6361  0.0753
 2976SOL    HW120387   4.677   3.466   6.122 -0.2551  0.8453  0.1808
 2976SOL    HW220388   4.639   3.600   6.168 -0.8853  0.8986 -1.5271
 2977SOL     OW20389   1.275   0.054   5.729  1.0049  0.2681  0.3456
 2977SOL    HW120390   1.348   0.080   5.673 -0.1092  2.8803  0.1009
 2977SOL    HW220391   1.264   0.128   5.789  0.5046 -0.4193  1.1055
 2978SOL     OW20392   4.707   0.723   2.432  0.1566  0.5207 -0.3805
 2978SOL    HW120393   4.685   0.747   2.341 -1.2243  1.5369  0.2157
 2978SOL    HW220394   4.669   0.793   2.485  0.2168  0.5777 -0.4132
 2979SOL     OW20395   3.007   1.642   3.768  0.1726 -0.3059 -0.1726
 2979SOL    HW120396   2.970   1.571   3.715  0.3478 -1.2021  0.9136
 2979SOL    HW220397   2.971   1.622   3.854 -0.8387  2.0964 -0.0218
 2980SOL     OW20398   3.692   4.167   7.205 -0.4489  0.0254 -0.0980
 2980SOL    HW120399   3.620   4.228   7.192  0.0256  0.5367 -0.3177
 2980SOL    HW220400   3.737   4.198   7.283 -0.3541 -0.9419  0.2238
 2981SOL     OW20401   2.223   1.906   3.112  0.5206  0.5131  0.0070
 2981SOL    HW120402   2.147   1.929   3.058  0.9815 -1.4707 -1.4625
 2981SOL    HW220403   2.180   1.887   3.195  1.4463 -0.9122  0.1648
 2982SOL     OW20404   4.450   2.024   7.881  0.0551 -0.1473 -0.2742
 2982SOL    HW120405   4.540   2.050   7.903  0.8194 -1.4210 -1.9004
 2982SOL    HW220406   4.464   1.981   7.796  0.2383  0.0304 -0.3347
 2983SOL     OW20407   0.008   3.176  14.234 -0.9714 -0.0553  0.0576
 2983SOL    HW120408   4.701   3.173  14.324 -1.0505  0.1825  0.0390
 2983SOL    HW220409   0.097   3.144  14.241 -1.3171 -0.7384  1.2412
 2984SOL     OW20410   0.367   0.745   7.605  0.1561  0.1762 -0.1543
 2984SOL    HW120411   0.422   0.757   7.527  0.3344  0.2802 -0.0141
 2984SOL    HW220412   0.285   0.788   7.585 -0.3915 -0.4672  0.6707
 2985SOL     OW20413   3.102   3.549  10.891  0.0345 -0.1204  0.1111
 2985SOL    HW120414   3.121   3.620  10.953  0.8380  0.8139 -1.2130
 2985SOL    HW220415   3.135   3.576  10.806  1.0669 -0.9501  0.2519
 2986SOL     OW20416   1.020   2.228   7.654  0.2588 -0.1630 -0.4017
 2986SOL    HW120417   1.062   2.166   7.715  2.5351 -0.8511 -2.6747
 2986SOL    HW220418   0.971   2.172   7.594 -0.7833 -1.3021  1.4899
 2987SOL     OW20419   3.058   3.298   4.263  0.2036  0.3931  0.1636
 2987SOL    HW120420   3.150   3.273   4.272  0.7323  1.6169 -1.7144
 2987SOL    HW220421   3.039   3.263   4.176  0.6341 -0.7816  0.5545
 2988SOL     OW20422   0.389   1.749   7.879  0.0389  0.2238  0.5294
 2988SOL    HW120423   0.435   1.735   7.962  0.5308 -0.3160  0.1691
 2988SOL    HW220424   0.344   1.665   7.869 -0.2981  0.5390 -0.6532
 2989SOL     OW20425   3.591   4.699   7.204 -0.0025  0.4137  0.0200
 2989SOL    HW120426   3.575   0.045   7.142 -1.7210  2.1594  2.4712
 2989SOL    HW220427   3.648   4.642   7.152  2.5277  1.3344  1.7910
 2990SOL     OW20428   1.375   0.917  12.173 -0.5348 -0.0759  0.4184
 2990SOL    HW120429   1.433   0.841  12.161 -0.5174 -0.0466  0.3255
 2990SOL    HW220430   1.345   0.904  12.263 -1.5490  1.8057  0.3488
 2991SOL     OW20431   2.720   2.929   6.648  1.1526  0.0974 -0.2507
 2991SOL    HW120432   2.750   3.017   6.624 -1.1796  0.8518 -0.3392
 2991SOL    HW220433   2.687   2.908   6.561 -0.0119  0.1404  0.1835
 2992SOL     OW20434   1.138   1.314   2.210  0.6144 -0.0538  0.7538
 2992SOL    HW120435   1.147   1.393   2.262 -0.0105 -1.8136  3.5133
 2992SOL    HW220436   1.185   1.250   2.263 -0.2277 -0.8815  0.5210
 2993SOL     OW20437   4.516   2.971   4.222  0.1068 -0.3923 -0.0519
 2993SOL    HW120438   4.549   3.041   4.277  0.7096 -0.0802 -0.8037
 2993SOL    HW220439   4.572   2.897   4.246 -1.5599 -0.7936  2.5403
 2994SOL     OW20440   2.492   0.236   8.419  1.1804 -0.0251 -0.5391
 2994SOL    HW120441   2.437   0.239   8.341 -1.2643 -0.4077  1.1993
 2994SOL    HW220442   2.489   0.142   8.438 -2.9407 -0.1105 -1.6343
 2995SOL     OW20443   2.586   0.994  11.630 -0.3603  0.1830 -0.3029
 2995SOL    HW120444   2.643   1.009  11.555 -1.3419 -0.1788 -1.1268
 2995SOL    HW220445   2.623   0.921  11.678  1.3028  1.1480 -0.1001
 2996SOL     OW20446   0.875   1.023   6.339  0.0202 -0.1461 -0.3776
 2996SOL    HW120447   0.906   0.938   6.308  0.7285 -0.6437  1.7014
 2996SOL    HW220448   0.919   1.024   6.425  1.8295  0.7430 -1.3161
 2997SOL     OW20449   4.223   2.339   2.723  0.5161 -0.1251 -0.1521
 2997SOL    HW120450   4.318   2.335   2.720  0.5210 -0.1543  0.0018
 2997SOL    HW220451   4.188   2.255   2.754  0.1007 -0.5406 -1.7694
 2998SOL     OW20452   2.796   0.507   4.459  0.0565 -0.0398 -0.1460
 2998SOL    HW120453   2.774   0.415   4.446  1.4891 -0.7665  2.5579
 2998SOL    HW220454   2.892   0.503   4.462  0.0517  0.4466  0.8053
 2999SOL     OW20455   1.126   1.772   4.537 -0.7960 -0.2828  0.4568
 2999SOL    HW120456   1.173   1.765   4.454 -0.3075  4.3057  0.3369
 2999SOL    HW220457   1.054   1.713   4.515 -1.0224  0.2532 -0.2577
 3000SOL     OW20458   2.082   4.656  15.518  0.4321  0.1131 -0.0620
 3000SOL    HW120459   2.098   4.576  15.467 -1.4384  0.6158 -1.4247
 3000SOL    HW220460   2.163   4.697  15.487  0.1380  1.5029  1.0575
 3001SOL     OW20461   2.833   4.539   3.887 -0.1638  0.3733 -0.0971
 3001SOL    HW120462   2.771   4.604   3.919 -0.5342  1.0559 -2.1601
 3001SOL    HW220463   2.773   4.468   3.865  0.3768 -0.9734  2.8660
 3002SOL     OW20464   2.635   4.497   7.018  0.5411 -0.0706  0.4149
 3002SOL    HW120465   2.601   4.554   7.087  1.3534  1.6142 -0.5784
 3002SOL    HW220466   2.648   4.411   7.059 -2.5608 -0.2155  1.0988
 3003SOL     OW20467   0.279   4.161  11.574 -0.1018  0.2211 -0.7982
 3003SOL    HW120468   0.353   4.140  11.631 -1.1730 -1.3265  0.0114
 3003SOL    HW220469   0.250   4.245  11.609 -1.9315 -1.3065  1.3355
 3004SOL     OW20470   0.849   1.387  11.012  0.0205 -0.4094  0.6960
 3004SOL    HW120471   0.925   1.330  10.998  0.3901  0.2726 -0.0769
 3004SOL    HW220472   0.891   1.462  11.054 -2.2567 -1.0630  4.1058
 3005SOL     OW20473   3.788   1.117   7.801 -0.3910  0.3497 -0.3123
 3005SOL    HW120474   3.791   1.107   7.706 -1.3416  2.8319 -0.6168
 3005SOL    HW220475   3.862   1.175   7.819 -0.9418  0.4271  1.7323
 3006SOL     OW20476   3.914   2.151  15.169  0.2781 -0.2166 -0.4337
 3006SOL    HW120477   3.971   2.081  15.141  2.7023  0.4256  2.8447
 3006SOL    HW220478   3.842   2.099  15.206  1.1253 -0.7890  0.3914
 3007SOL     OW20479   0.725   0.955   4.907  0.1109  0.2683  0.5959
 3007SOL    HW120480   0.647   0.981   4.955 -0.9386  0.3222 -1.1621
 3007SOL    HW220481   0.718   0.863   4.881 -0.2445  0.6210 -0.5687
 3008SOL     OW20482   4.236   0.401  12.490  0.3319  0.0863  0.3211
 3008SOL    HW120483   4.228   0.327  12.550  0.9824 -1.6570 -1.7152
 3008SOL    HW220484   4.183   0.368  12.417  1.5749  0.3901 -0.6994
 3009SOL     OW20485   4.380   3.775   1.093 -0.0703 -0.1579  0.0188
 3009SOL    HW120486   4.457   3.831   1.105 -1.1445  0.7422  2.6709
 3009SOL    HW220487   4.370   3.738   1.180  1.8377  2.1910  1.2197
 3010SOL     OW20488   3.420   2.514   0.183 -0.3372 -0.4383  0.1487
 3010SOL    HW120489   3.458   2.530   0.269  1.6021 -0.0431 -0.7981
 3010SOL    HW220490   3.461   2.578   0.125  1.4452 -1.5235  0.2327
 3011SOL     OW20491   1.158   3.264  13.548 -0.4397 -0.4980 -0.5412
 3011SOL    HW120492   1.146   3.342  13.602 -0.5238 -0.2526 -0.9116
 3011SOL    HW220493   1.222   3.283  13.479  0.6378 -1.8489  0.0757
 3012SOL     OW20494   1.159   4.142  12.610  0.3274 -0.1657 -0.2812
 3012SOL    HW120495   1.132   4.088  12.536  1.7081  0.3053 -1.1411
 3012SOL    HW220496   1.145   4.089  12.688 -0.8113 -0.9751 -1.0424
 3013SOL     OW20497   3.584   3.921  17.612  0.5427  0.3424  0.3376
 3013SOL    HW120498   3.514   3.860  17.634 -0.6875  0.5986 -2.8649
 3013SOL    HW220499   3.654   3.897  17.674  2.0477  0.6576 -1.2440
 3014SOL     OW20500   1.155   1.367  16.984 -0.3696  0.2561  0.0140
 3014SOL    HW120501   1.108   1.304  17.039  0.7544 -0.1855  0.4588
 3014SOL    HW220502   1.098   1.443  16.976  0.6837  0.9816 -0.4990
 3015SOL     OW20503   1.267   1.429   7.331  0.0944 -0.5371  0.4008
 3015SOL    HW120504   1.212   1.504   7.310  1.2041  0.2998  0.5149
 3015SOL    HW220505   1.235   1.363   7.269 -0.8129  0.7229 -0.4675
 3016SOL     OW20506   0.015   4.683   2.482 -0.1701 -0.4566  0.1140
 3016SOL    HW120507   0.049   0.007   2.407  1.3753 -2.0799 -0.2393
 3016SOL    HW220508   0.046   0.011   2.555  1.1922 -2.6021  1.0880
 3017SOL     OW20509   1.293   0.213   3.552 -0.0545 -0.5905  0.3371
 3017SOL    HW120510   1.279   0.177   3.640 -0.8330 -1.4866 -0.1536
 3017SOL    HW220511   1.205   0.202   3.515  1.1924  1.1045 -3.1175
 3018SOL     OW20512   3.238   1.712   3.643  0.1402 -0.0881 -0.0030
 3018SOL    HW120513   3.272   1.623   3.634 -1.1970 -0.6624  0.7475
 3018SOL    HW220514   3.156   1.702   3.692 -1.0670  0.4039 -1.9406
 3019SOL     OW20515   1.475   3.476   8.383 -0.1637 -0.1861 -0.0968
 3019SOL    HW120516   1.394   3.493   8.335  0.5333 -0.5492 -1.4023
 3019SOL    HW220517   1.457   3.529   8.461 -0.7554  0.5979 -0.7661
 3020SOL     OW20518   0.433   3.280   9.298  0.0190 -0.7139  0.3559
 3020SOL    HW120519   0.404   3.236   9.218  0.6073 -0.2748 -0.0976
 3020SOL    HW220520   0.366   3.246   9.356 -0.5013 -0.1152  0.1114
 3021SOL     OW20521   0.467   4.428  10.474  0.2238 -0.1902  0.2049
 3021SOL    HW120522   0.555   4.433  10.513  0.2882  1.7062 -0.1383
 3021SOL    HW220523   0.465   4.514  10.431  1.8586 -0.6777 -0.8670
 3022SOL     OW20524   0.363   1.976   0.210  0.5198  0.3198  0.5545
 3022SOL    HW120525   0.459   1.974   0.206  0.5759  0.2286  2.1113
 3022SOL    HW220526   0.360   2.048   0.272  0.0305  0.5455  0.2656
 3023SOL     OW20527   4.097   0.072  16.914  0.2007 -0.5375  0.0497
 3023SOL    HW120528   4.009   0.062  16.878  0.4042 -1.0598 -0.3044
 3023SOL    HW220529   4.137   0.157  16.896  1.3378 -0.9714  0.4946
 3024SOL     OW20530   1.346   0.937   4.905 -0.1727 -0.3512 -0.2542
 3024SOL    HW120531   1.384   1.015   4.944  0.5508 -0.5073 -0.6441
 3024SOL    HW220532   1.274   0.915   4.964 -0.2586 -0.8768 -0.5476
 3025SOL     OW20533   1.159   4.086   4.576 -0.3326  0.2832 -0.4591
 3025SOL    HW120534   1.150   4.131   4.660 -1.7001 -2.0600  0.6589
 3025SOL    HW220535   1.179   3.995   4.597  0.4573  0.8852  1.4066
 3026SOL     OW20536   3.111   4.459  17.420  0.2125 -0.1751  0.3370
 3026SOL    HW120537   3.044   4.527  17.419  0.8045  0.4208  1.1872
 3026SOL    HW220538   3.142   4.455  17.510  1.1181  1.1771  0.0806
 3027SOL     OW20539   1.215   1.708   1.752  0.1449  0.2538 -0.2168
 3027SOL    HW120540   1.215   1.644   1.823 -0.0624 -1.0895 -1.4122
 3027SOL    HW220541   1.306   1.702   1.722 -0.0788  0.1323 -0.8900
 3028SOL     OW20542   4.419   1.950   9.282 -0.0597 -0.3200 -0.0418
 3028SOL    HW120543   4.440   2.000   9.361 -0.2937 -1.9042  1.0171
 3028SOL    HW220544   4.337   1.993   9.259 -1.4471 -1.4708  2.7049
 3029SOL     OW20545   0.009   4.079  11.646  0.1199  0.2449 -0.2477
 3029SOL    HW120546   0.091   4.030  11.640  0.6253  1.0352  0.1493
 3029SOL    HW220547   0.023   4.152  11.585 -1.0601  0.4900 -0.2231
 3030SOL     OW20548   3.986   3.282   5.917 -0.1162  0.0985  0.4031
 3030SOL    HW120549   3.986   3.372   5.884  2.1159 -0.5475 -1.3272
 3030SOL    HW220550   3.902   3.286   5.964 -0.5389  2.6745 -0.5522
 3031SOL     OW20551   1.846   3.816  12.120 -0.3817 -0.7766  0.7829
 3031SOL    HW120552   1.814   3.809  12.211 -1.9080 -0.4660  0.2823
 3031SOL    HW220553   1.924   3.871  12.130 -0.0087 -1.0762 -0.5286
 3032SOL     OW20554   1.249   2.939   7.788 -0.1520  0.2033  0.9144
 3032SOL    HW120555   1.165   2.954   7.746 -1.2297 -0.3752  2.8913
 3032SOL    HW220556   1.223   2.886   7.863  0.0049 -0.5273  0.4631
 3033SOL     OW20557   3.162   3.313  13.888  0.4652 -1.1334  0.0782
 3033SOL    HW120558   3.072   3.283  13.876 -0.1885  0.3697  1.1427
 3033SOL    HW220559   3.160   3.409  13.882  1.4068 -0.9188  3.0152
 3034SOL     OW20560   2.341   1.676   6.630 -0.3723 -0.2710 -0.6388
 3034SOL    HW120561   2.306   1.590   6.607 -1.6826  0.4651 -1.4053
 3034SOL    HW220562   2.416   1.641   6.679 -1.0705 -0.1411  0.5190
 3035SOL     OW20563   4.699   2.421   2.394 -0.1257  0.1021  0.0342
 3035SOL    HW120564   4.631   2.357   2.376  0.0952  0.5568 -2.4295
 3035SOL    HW220565   0.019   2.431   2.310 -1.0282 -1.0952 -0.5837
 3036SOL     OW20566   3.265   2.930   3.061  0.9790 -0.5376  0.1749
 3036SOL    HW120567   3.336   2.993   3.045  1.0687 -0.5079  0.6848
 3036SOL    HW220568   3.203   2.965   2.996  2.7637 -1.5123 -2.0764
 3037SOL     OW20569   0.108   2.416   7.075 -0.0091  0.0469 -0.0614
 3037SOL    HW120570   0.025   2.460   7.094  0.0981  0.1214  0.2334
 3037SOL    HW220571   0.164   2.488   7.044 -0.3369  1.2279  2.1449
 3038SOL     OW20572   2.076   0.085   8.718 -0.6313  0.4195 -0.3323
 3038SOL    HW120573   2.067   4.716   8.733  0.0925  0.7310  1.9181
 3038SOL    HW220574   2.022   0.117   8.791  1.8008  0.9119  1.2230
 3039SOL     OW20575   3.377   4.136   4.022 -0.2024 -0.7536 -0.5315
 3039SOL    HW120576   3.363   4.187   4.103 -0.4205 -0.0298 -1.0222
 3039SOL    HW220577   3.300   4.081   4.017  0.7509 -1.8715 -3.0063
 3040SOL     OW20578   1.722   0.395   8.971 -0.1059 -0.5403 -0.0124
 3040SOL    HW120579   1.649   0.412   9.031 -0.0557  2.6942 -0.8505
 3040SOL    HW220580   1.686   0.439   8.894 -1.5926  0.6683  1.3747
 3041SOL     OW20581   2.715   1.183   0.756 -0.2791  0.4208  0.4665
 3041SOL    HW120582   2.688   1.163   0.666 -2.4334  2.2991  0.7040
 3041SOL    HW220583   2.636   1.171   0.808  0.0405  1.0530  1.0846
 3042SOL     OW20584   2.231   2.348   4.348  0.5226 -0.1982 -0.1682
 3042SOL    HW120585   2.274   2.267   4.376 -1.1706 -1.5937 -1.5866
 3042SOL    HW220586   2.215   2.333   4.255 -1.6421 -1.0359  0.3554
 3043SOL     OW20587   1.972   2.819  11.678  0.3046 -0.0131 -0.6278
 3043SOL    HW120588   1.971   2.822  11.582  1.3263 -1.5856 -0.6797
 3043SOL    HW220589   1.883   2.795  11.701  0.6164 -1.7982 -1.3443
 3044SOL     OW20590   1.657   1.371  16.835 -0.3768  0.2598 -0.4517
 3044SOL    HW120591   1.567   1.359  16.864 -0.8196  3.0005 -0.6864
 3044SOL    HW220592   1.647   1.466  16.838 -0.9758  0.2547 -1.9717
 3045SOL     OW20593   0.539   3.084   6.498 -0.2134  0.3035 -0.1254
 3045SOL    HW120594   0.608   3.151   6.500 -0.8788  1.0637 -2.1256
 3045SOL    HW220595   0.594   3.012   6.466 -1.5689 -1.2804  1.1508
 3046SOL     OW20596   1.456   2.490   5.045  0.3968  0.1196 -1.0988
 3046SOL    HW120597   1.361   2.499   5.041  0.4240  0.8684  0.2869
 3046SOL    HW220598   1.477   2.437   5.122 -0.9012 -0.5030 -1.1817
 3047SOL     OW20599   0.642   2.407   8.408  0.5343 -0.0550 -0.4565
 3047SOL    HW120600   0.611   2.422   8.497  0.7711  0.1553 -0.4105
 3047SOL    HW220601   0.571   2.447   8.358 -0.7922  0.4637  1.8301
 3048SOL     OW20602   3.378   1.249   6.211  0.6474 -0.2183 -0.1807
 3048SOL    HW120603   3.443   1.198   6.163  0.1198 -0.1037 -1.0200
 3048SOL    HW220604   3.298   1.201   6.186  0.6964 -0.3057 -0.1702
 3049SOL     OW20605   1.653   4.360   7.641 -0.2525  0.2924 -0.2013
 3049SOL    HW120606   1.589   4.305   7.687 -0.6505 -0.4418 -1.6594
 3049SOL    HW220607   1.642   4.436   7.699  2.6947 -0.4591  1.3171
 3050SOL     OW20608   0.255   2.131  15.613 -0.3845 -0.0243 -0.3368
 3050SOL    HW120609   0.204   2.160  15.537  2.1703  1.8514 -1.3198
 3050SOL    HW220610   0.299   2.054  15.577  0.0887  0.2774 -0.4030
 3051SOL     OW20611   3.284   0.267   8.535 -0.0882  0.1410 -0.5467
 3051SOL    HW120612   3.329   0.227   8.609  0.9839  1.7984 -0.3198
 3051SOL    HW220613   3.221   0.196   8.519  1.1640 -1.1068  0.1307
 3052SOL     OW20614   0.056   3.097   7.527 -0.0366 -0.1098  0.1716
 3052SOL    HW120615   0.041   3.058   7.441 -0.9225 -1.5645  0.9848
 3052SOL    HW220616   4.724   3.043   7.583  0.0008 -0.1343  0.1859
 3053SOL     OW20617   3.830   1.631   3.500  0.6812 -0.3371  0.2662
 3053SOL    HW120618   3.756   1.570   3.492  1.4976 -1.3804  0.6561
 3053SOL    HW220619   3.808   1.704   3.442 -0.4025 -0.9809 -0.1376
 3054SOL     OW20620   1.077   2.772   7.501 -0.0478  0.5295 -0.2790
 3054SOL    HW120621   1.132   2.787   7.424  0.4253  2.7194  0.4743
 3054SOL    HW220622   1.069   2.862   7.532  0.7860  0.4434  0.1842
 3055SOL     OW20623   2.825   3.673   3.181 -0.0623  0.3976 -0.5904
 3055SOL    HW120624   2.825   3.682   3.086  3.0830  0.2443 -0.5897
 3055SOL    HW220625   2.731   3.690   3.181 -0.0931  0.2256 -0.7324
 3056SOL     OW20626   4.175   0.286   5.568  0.0413 -0.2399  0.2807
 3056SOL    HW120627   4.171   0.366   5.516 -0.8603 -0.3709  0.1484
 3056SOL    HW220628   4.235   0.322   5.633 -0.7922  0.6851  0.5388
 3057SOL     OW20629   4.697   3.326  10.845 -0.4642 -0.1617  0.6509
 3057SOL    HW120630   4.637   3.299  10.915 -0.6210 -2.3599 -0.3457
 3057SOL    HW220631   0.058   3.310  10.883  0.2285  2.4818  0.2166
 3058SOL     OW20632   1.384   0.870  11.547 -1.0048  0.1553 -0.6167
 3058SOL    HW120633   1.439   0.804  11.589 -0.5050  1.3993  0.7133
 3058SOL    HW220634   1.392   0.948  11.603 -0.0274 -1.4007  1.3861
 3059SOL     OW20635   3.466   3.819   5.649 -0.4666 -0.4016  0.0220
 3059SOL    HW120636   3.440   3.831   5.740  1.8856  1.8221  0.3984
 3059SOL    HW220637   3.421   3.737   5.628 -0.9691  0.1720 -1.1749
 3060SOL     OW20638   4.427   1.014  11.070  0.1150 -0.3442  0.1872
 3060SOL    HW120639   4.404   1.088  11.014  0.7750  0.9212  1.5700
 3060SOL    HW220640   4.403   1.052  11.155 -0.2347 -1.5221  0.6183
 3061SOL     OW20641   2.506   2.914   8.609 -0.2232  0.0161  0.2709
 3061SOL    HW120642   2.433   2.852   8.606  1.2458 -1.6581 -0.6429
 3061SOL    HW220643   2.559   2.883   8.535  1.4298  0.6887  1.1790
 3062SOL     OW20644   3.703   0.634  12.158 -0.0207 -0.5238 -0.5033
 3062SOL    HW120645   3.620   0.654  12.202 -0.5941 -1.0447 -1.3457
 3062SOL    HW220646   3.700   0.694  12.083 -0.0710  0.9078  0.6397
 3063SOL     OW20647   0.589   1.476  13.781 -0.2912 -0.2460  0.4648
 3063SOL    HW120648   0.560   1.396  13.738 -0.8688 -0.2619  0.8759
 3063SOL    HW220649   0.665   1.500  13.729 -0.6903 -0.8743 -0.4173
 3064SOL     OW20650   2.462   4.482   6.742  0.1538 -0.2189 -0.3415
 3064SOL    HW120651   2.405   4.424   6.692  1.4780 -0.2137 -1.8812
 3064SOL    HW220652   2.435   4.459   6.831 -1.7481  2.6964 -0.1613
 3065SOL     OW20653   1.900   1.144  11.763 -0.3482  0.1411  0.1058
 3065SOL    HW120654   1.954   1.172  11.836  0.9960 -1.2716 -0.3440
 3065SOL    HW220655   1.959   1.093  11.707  1.3430 -0.2370  2.2324
 3066SOL     OW20656   1.711   2.779   3.125 -0.2738 -0.0434 -0.1253
 3066SOL    HW120657   1.806   2.788   3.134 -0.3005 -2.4927  2.3835
 3066SOL    HW220658   1.698   2.710   3.061 -3.2966 -1.0297  1.5837
 3067SOL     OW20659   0.355   0.651  14.888 -0.1905  0.1404  0.1837
 3067SOL    HW120660   0.359   0.580  14.952  0.8002 -1.7131 -1.9269
 3067SOL    HW220661   0.306   0.615  14.814  0.4154  0.2390 -0.2639
 3068SOL     OW20662   2.204   4.221   3.279  0.2817 -0.8451 -0.0742
 3068SOL    HW120663   2.225   4.259   3.364  0.3864 -1.0680 -0.0012
 3068SOL    HW220664   2.266   4.250   3.212 -0.1086  2.0907  0.8367
 3069SOL     OW20665   4.008   0.994  16.668  0.2748 -0.5116 -0.4731
 3069SOL    HW120666   4.019   1.088  16.682  3.0261 -0.5405 -2.4658
 3069SOL    HW220667   4.061   0.974  16.591 -0.0358  1.7216 -1.2685
 3070SOL     OW20668   4.722   4.389  12.594  0.6513  0.2287 -0.2962
 3070SOL    HW120669   0.058   4.336  12.645 -0.4130 -1.0744 -0.3905
 3070SOL    HW220670   0.036   4.389  12.507  1.0232  2.1471 -0.1470
 3071SOL     OW20671   4.143   4.083   4.614  0.9615  0.4978 -0.4399
 3071SOL    HW120672   4.192   4.157   4.650  0.5892  0.9897 -0.9368
 3071SOL    HW220673   4.208   4.013   4.615  0.6514  0.2481  2.1988
 3072SOL     OW20674   0.770   1.880   9.875  0.3525  0.2472 -0.3865
 3072SOL    HW120675   0.858   1.845   9.887  0.5401  1.1205  0.8231
 3072SOL    HW220676   0.734   1.793   9.855 -0.6263  0.6237 -0.2889
 3073SOL     OW20677   2.316   2.794   0.689  0.0553 -0.5151 -0.4488
 3073SOL    HW120678   2.284   2.803   0.600 -0.5485 -0.8656 -0.2699
 3073SOL    HW220679   2.283   2.878   0.719 -0.4380 -0.9718  0.2946
 3074SOL     OW20680   1.081   4.009  12.379  0.4510 -0.3853 -0.4514
 3074SOL    HW120681   0.989   4.025  12.358  0.0639 -4.0274 -1.4884
 3074SOL    HW220682   1.118   4.043  12.298  0.2192  1.6924  0.3153
 3075SOL     OW20683   0.337   2.682   3.609 -0.1240 -0.1198  0.5314
 3075SOL    HW120684   0.376   2.729   3.683  1.4480 -0.6238  0.0217
 3075SOL    HW220685   0.397   2.608   3.598 -1.1471 -0.8709  0.0483
 3076SOL     OW20686   3.603   1.735   5.148  0.2580 -0.2528  0.2105
 3076SOL    HW120687   3.591   1.757   5.056  0.8719  1.1506  0.4699
 3076SOL    HW220688   3.537   1.668   5.167  1.8651 -2.4014 -1.7609
 3077SOL     OW20689   1.004   1.111  13.600  0.2888 -0.2337  0.1735
 3077SOL    HW120690   1.007   1.076  13.689  1.4716 -1.4920 -0.3679
 3077SOL    HW220691   0.926   1.071  13.563 -0.3557  0.6773  0.5369
 3078SOL     OW20692   1.099   0.361  15.152  0.0640 -0.0647  0.2489
 3078SOL    HW120693   1.027   0.319  15.105 -0.3745  0.4074  0.5085
 3078SOL    HW220694   1.161   0.368  15.080 -0.8296 -0.0934 -0.5191
 3079SOL     OW20695   0.970   4.499   4.223  0.7140  0.1701 -0.2077
 3079SOL    HW120696   0.946   4.592   4.228  0.7196  0.1617 -0.0382
 3079SOL    HW220697   0.964   4.483   4.317  1.2699  0.8171 -0.0654
 3080SOL     OW20698   2.592   2.186  17.540  0.0356  0.0230 -0.2633
 3080SOL    HW120699   2.620   2.252  17.477 -0.6210  0.8140  0.2596
 3080SOL    HW220700   2.668   2.129  17.544 -1.5264 -1.9486  1.5527
 3081SOL     OW20701   2.616   3.768  12.807 -0.0961  0.2711  0.2145
 3081SOL    HW120702   2.557   3.715  12.752  0.1021 -0.3370  0.5904
 3081SOL    HW220703   2.611   3.852  12.762  2.0265  0.1336 -0.2643
 3082SOL     OW20704   2.937   2.837   5.677 -0.1633 -0.5111  0.5068
 3082SOL    HW120705   3.010   2.848   5.738  1.1722 -1.6808 -0.8792
 3082SOL    HW220706   2.973   2.775   5.615 -1.3894 -0.1411 -0.5698
 3083SOL     OW20707   3.045   3.607   6.774 -0.1610  0.3096  0.2956
 3083SOL    HW120708   2.975   3.541   6.763  1.4345 -1.3384  0.0372
 3083SOL    HW220709   3.119   3.568   6.728  0.5527  0.4498  1.3405
 3084SOL     OW20710   3.430   3.199   4.059  0.4020  0.4603 -0.3191
 3084SOL    HW120711   3.392   3.175   3.975 -0.0856 -1.2669  0.3941
 3084SOL    HW220712   3.460   3.289   4.046  1.0980  0.3229  0.3280
 3085SOL     OW20713   3.680   3.706   9.844  0.1265 -0.4572  0.3389
 3085SOL    HW120714   3.640   3.792   9.833  1.2889  0.0231 -0.0914
 3085SOL    HW220715   3.609   3.651   9.879 -1.0041  0.4525 -0.5423
 3086SOL     OW20716   2.156   3.856   9.136 -0.1279  0.0845 -0.1339
 3086SOL    HW120717   2.190   3.820   9.218  1.6033  1.1810 -0.3762
 3086SOL    HW220718   2.175   3.949   9.143 -2.3547  0.6034 -1.0014
 3087SOL     OW20719   3.986   2.323  10.980 -0.0226 -0.1728  0.1311
 3087SOL    HW120720   3.946   2.251  11.029 -0.3736  1.4565  2.2319
 3087SOL    HW220721   3.910   2.373  10.949  0.8279  0.6781 -0.5588
 3088SOL     OW20722   4.031   2.202   9.733  0.1606  0.0026  0.1550
 3088SOL    HW120723   4.054   2.136   9.799  0.6917  1.3072  1.2713
 3088SOL    HW220724   4.122   2.228   9.717 -0.0335 -1.8744 -3.7676
 3089SOL     OW20725   4.666   1.673   6.170 -0.2220  0.1374 -0.1606
 3089SOL    HW120726   4.683   1.656   6.077 -0.5792  4.0520 -0.9118
 3089SOL    HW220727   4.572   1.689   6.172 -0.2750  0.1138 -2.9608
 3090SOL     OW20728   4.128   2.604   5.942  0.4295 -0.5172  0.3250
 3090SOL    HW120729   4.111   2.520   5.984 -0.8446 -1.5008 -2.1509
 3090SOL    HW220730   4.144   2.665   6.015  1.8764 -2.2345  1.4376
 3091SOL     OW20731   3.353   1.620   3.329 -0.6409 -0.8233 -0.3208
 3091SOL    HW120732   3.324   1.538   3.370 -1.5631  0.9360  2.5429
 3091SOL    HW220733   3.408   1.596   3.255 -0.8399 -3.7451  0.4737
 3092SOL     OW20734   2.591   2.071   7.443 -0.0341 -0.1910  0.4826
 3092SOL    HW120735   2.507   2.086   7.400 -0.6933 -2.2371  1.0457
 3092SOL    HW220736   2.589   1.977   7.461 -1.0670 -0.0762  0.9768
 3093SOL     OW20737   0.786   0.283   2.901 -0.3040 -0.3983  0.2127
 3093SOL    HW120738   0.783   0.280   2.805  0.2879  0.6515  0.1658
 3093SOL    HW220739   0.863   0.228   2.913  0.0795 -0.4402 -2.2987
 3094SOL     OW20740   3.275   2.437  13.912 -0.0516  0.4361 -0.4367
 3094SOL    HW120741   3.182   2.440  13.888 -0.7374  0.9630  2.2854
 3094SOL    HW220742   3.285   2.386  13.992  0.3389  0.6489 -0.3496
 3095SOL     OW20743   3.836   2.256   2.736  0.1695  0.4008  0.0918
 3095SOL    HW120744   3.749   2.295   2.744  0.9683  2.0074  0.8201
 3095SOL    HW220745   3.875   2.310   2.667 -2.3329  1.1473 -0.7372
 3096SOL     OW20746   4.604   3.217   6.723 -0.2840  0.1652 -0.4216
 3096SOL    HW120747   4.625   3.304   6.755  1.0013 -0.1220 -0.4992
 3096SOL    HW220748   4.674   3.197   6.660  1.1802  0.7838  1.0257
 3097SOL     OW20749   1.835   2.158   2.147 -0.4349 -0.8885  0.2743
 3097SOL    HW120750   1.920   2.203   2.155 -0.8981  0.4373 -2.4373
 3097SOL    HW220751   1.831   2.103   2.069 -0.6043  0.4920 -0.6897
 3098SOL     OW20752   2.470   0.350  14.801  0.2795  0.1320 -0.0025
 3098SOL    HW120753   2.407   0.385  14.863  0.1268  2.2527 -1.3496
 3098SOL    HW220754   2.553   0.375  14.841  0.6478  0.5528 -1.0187
 3099SOL     OW20755   4.424   3.181   8.790 -0.2406 -0.2934 -0.2304
 3099SOL    HW120756   4.489   3.210   8.854  0.2250 -1.5712 -0.1269
 3099SOL    HW220757   4.396   3.096   8.825 -2.1191  0.5471  0.2835
 3100SOL     OW20758   1.051   4.229   7.582 -0.2904 -0.3503 -0.3314
 3100SOL    HW120759   1.009   4.268   7.658  3.1744  0.1697  1.3461
 3100SOL    HW220760   1.100   4.160   7.626 -1.1713  0.1186  1.3871
 3101SOL     OW20761   0.082   1.580   3.644  0.2227  0.2576 -0.2071
 3101SOL    HW120762   0.082   1.606   3.736 -1.8405 -4.2562  1.0574
 3101SOL    HW220763   0.174   1.600   3.627  0.4878 -0.5997  0.2062
 3102SOL     OW20764   3.711   1.702   7.679 -0.6004  0.2830  0.4834
 3102SOL    HW120765   3.725   1.625   7.624 -0.4604  1.2550 -0.8320
 3102SOL    HW220766   3.645   1.669   7.740 -0.4587 -0.9636 -0.0290
 3103SOL     OW20767   2.966   4.360   8.422  0.1133 -0.1334 -0.6684
 3103SOL    HW120768   2.913   4.398   8.492 -0.2613 -1.1314 -0.4115
 3103SOL    HW220769   3.008   4.284   8.463 -0.6598 -0.4500 -0.4724
 3104SOL     OW20770   0.156   0.464   6.807 -0.0786 -0.5640  0.0881
 3104SOL    HW120771   0.185   0.398   6.869 -2.1514 -1.5829 -0.0261
 3104SOL    HW220772   0.133   0.533   6.869  0.0898  1.2228 -1.8075
 3105SOL     OW20773   0.830   2.126   6.911 -0.2647 -0.3851  0.2921
 3105SOL    HW120774   0.899   2.075   6.869  1.5444  0.6413  2.0005
 3105SOL    HW220775   0.823   2.094   7.002  1.6360 -1.7976 -0.0520
 3106SOL     OW20776   2.820   2.969   2.036 -0.4586  0.2305 -0.5723
 3106SOL    HW120777   2.749   2.978   1.973 -0.2844  0.8688 -0.6735
 3106SOL    HW220778   2.774   2.932   2.112  0.2414 -0.5569 -0.5208
 3107SOL     OW20779   2.065   1.253   2.180  0.5752  0.6390 -0.0662
 3107SOL    HW120780   2.038   1.202   2.103 -0.9907 -1.1648  1.6672
 3107SOL    HW220781   2.153   1.281   2.157  0.3658  1.8843  0.6742
 3108SOL     OW20782   3.850   3.039  15.984 -0.8366  0.4383 -0.1088
 3108SOL    HW120783   3.801   3.027  15.902 -0.8182 -0.1111 -0.0361
 3108SOL    HW220784   3.941   3.047  15.956 -1.1499  1.3507 -0.8814
 3109SOL     OW20785   4.153   0.076   4.732 -0.1568 -0.5254 -0.0793
 3109SOL    HW120786   4.087   0.024   4.778  0.4374 -0.5152  0.7905
 3109SOL    HW220787   4.115   0.094   4.646 -0.5108 -0.6360  0.0525
 3110SOL     OW20788   3.257   2.445   3.369 -0.0734 -0.1538  0.1847
 3110SOL    HW120789   3.253   2.479   3.458 -0.2961 -0.9178  0.4663
 3110SOL    HW220790   3.267   2.524   3.316  1.0994 -2.0798 -2.4526
 3111SOL     OW20791   0.799   0.579   6.015  0.7993  0.2235 -0.8177
 3111SOL    HW120792   0.769   0.494   5.984 -2.0256  0.8339  0.1970
 3111SOL    HW220793   0.723   0.635   5.999 -0.1848 -1.3842 -1.7675
 3112SOL     OW20794   2.387   1.188  12.130 -0.4662 -1.1046  0.0563
 3112SOL    HW120795   2.479   1.199  12.104  0.3854 -0.1009  3.4877
 3112SOL    HW220796   2.359   1.274  12.101 -0.0142 -0.6865  0.8685
 3113SOL     OW20797   3.506   3.230   7.382  0.2158  1.0500 -0.1081
 3113SOL    HW120798   3.580   3.240   7.442  0.4998 -1.0280 -0.1040
 3113SOL    HW220799   3.438   3.270   7.436  0.2977  0.6292  0.3090
 3114SOL     OW20800   0.077   2.912   4.352  0.3474 -0.4586 -0.7800
 3114SOL    HW120801   0.072   3.005   4.332  2.0137 -0.5482 -1.6336
 3114SOL    HW220802   0.138   2.912   4.427 -0.2057 -0.1264 -0.3321
 3115SOL     OW20803   1.521   0.106   5.565  0.2931  0.2009  0.0505
 3115SOL    HW120804   1.574   0.033   5.533  0.9424  0.4291  0.6255
 3115SOL    HW220805   1.569   0.184   5.538  0.2410  0.4281  0.6101
 3116SOL     OW20806   3.961   3.058   7.840  0.0509  0.0889 -0.7938
 3116SOL    HW120807   3.894   3.126   7.850 -0.4591 -0.4861 -0.2783
 3116SOL    HW220808   3.912   3.003   7.778  0.0429 -0.1946 -0.5329
 3117SOL     OW20809   2.861   4.246   3.998 -0.4622 -0.3675  0.5829
 3117SOL    HW120810   2.946   4.289   4.010 -0.4107 -0.5752  0.9643
 3117SOL    HW220811   2.883   4.190   3.924  4.4768 -0.6903  2.2186
 3118SOL     OW20812   2.937   1.877  14.018  0.1975  0.4958  0.6235
 3118SOL    HW120813   2.993   1.835  14.084  0.3996  0.4734  0.4368
 3118SOL    HW220814   2.872   1.916  14.077  0.2868 -1.9249  2.3104
 3119SOL     OW20815   2.977   2.373   8.941 -0.1442  0.2387 -0.1110
 3119SOL    HW120816   2.904   2.425   8.974 -0.9764 -0.5357 -0.7127
 3119SOL    HW220817   3.015   2.440   8.884  4.5194 -2.8380 -0.6743
 3120SOL     OW20818   3.630   3.204  12.057 -0.4162 -0.2541  0.2567
 3120SOL    HW120819   3.606   3.209  12.149 -2.5709  1.6536 -0.3834
 3120SOL    HW220820   3.574   3.128  12.042  0.4154 -0.9060  0.4787
 3121SOL     OW20821   0.039   0.265  11.528 -0.3219  0.4818 -0.4733
 3121SOL    HW120822   0.059   0.325  11.600  0.3517 -2.0343  1.4600
 3121SOL    HW220823   0.075   0.184  11.564 -0.5665 -0.2123 -1.8150
 3122SOL     OW20824   0.588   2.043  14.833 -0.6166  0.3307 -0.0129
 3122SOL    HW120825   0.552   2.041  14.744 -3.8817 -2.5040  1.3867
 3122SOL    HW220826   0.671   2.088  14.818 -0.2427  0.3108  2.0487
 3123SOL     OW20827   4.443   1.828   6.753 -0.1136  0.4348 -0.0731
 3123SOL    HW120828   4.363   1.793   6.715 -1.4960  2.0569  1.3834
 3123SOL    HW220829   4.514   1.790   6.701 -1.1602  0.0926 -1.2472
 3124SOL     OW20830   1.530   1.378   5.809  0.1416 -0.2056 -0.5279
 3124SOL    HW120831   1.489   1.301   5.848  0.5573 -0.8092 -1.2599
 3124SOL    HW220832   1.551   1.345   5.721 -1.2034 -0.0011 -0.9166
 3125SOL     OW20833   4.408   0.038   8.602 -0.3925  0.2260  0.1792
 3125SOL    HW120834   4.368   0.085   8.675  1.1906 -0.4308  1.4412
 3125SOL    HW220835   4.442   4.687   8.649 -2.5105 -1.0594 -0.3309
 3126SOL     OW20836   0.353   1.806   1.777 -0.2310  0.0414  0.2286
 3126SOL    HW120837   0.263   1.772   1.773  0.3823 -1.3995 -1.2656
 3126SOL    HW220838   0.400   1.725   1.757 -0.5012 -0.3649  1.2133
 3127SOL     OW20839   2.269   1.711  17.264  0.3134  0.1431  0.5157
 3127SOL    HW120840   2.284   1.704  17.169 -1.1870 -2.4885  0.4654
 3127SOL    HW220841   2.257   1.805  17.280  1.5210  0.2235  0.9961
 3128SOL     OW20842   1.679   2.286   0.894  0.2348 -0.0869  0.0543
 3128SOL    HW120843   1.612   2.250   0.836 -0.1884  0.2565  0.3220
 3128SOL    HW220844   1.748   2.252   0.838 -0.8794  1.0892 -2.0345
 3129SOL     OW20845   3.323   0.661   4.853 -0.1532  0.4411 -0.1480
 3129SOL    HW120846   3.364   0.677   4.768 -0.7362 -0.2497 -0.5547
 3129SOL    HW220847   3.245   0.714   4.840  0.5398  0.9950 -2.1406
 3130SOL     OW20848   4.258   1.762   5.008 -0.1975  0.3462 -0.0584
 3130SOL    HW120849   4.209   1.842   5.029 -0.7666  0.3792 -1.4880
 3130SOL    HW220850   4.193   1.703   5.046  0.4690 -0.6764 -0.5215
 3131SOL     OW20851   3.977   3.298  13.921  0.0326 -0.7649  0.3176
 3131SOL    HW120852   3.959   3.280  14.013  1.7138  0.0935  0.8218
 3131SOL    HW220853   4.068   3.268  13.915 -0.0717 -0.8863 -0.6602
 3132SOL     OW20854   2.726   2.337   8.137  0.5163  0.1388 -0.1308
 3132SOL    HW120855   2.743   2.250   8.101 -3.0268 -0.6995  0.1476
 3132SOL    HW220856   2.816   2.358   8.159  1.7523 -2.1638 -2.8618
 3133SOL     OW20857   3.822   0.838   3.223  0.1524 -0.4820 -0.6434
 3133SOL    HW120858   3.761   0.784   3.275  0.9848 -3.8406 -3.1300
 3133SOL    HW220859   3.760   0.884   3.166 -1.1197  0.6317  1.6382
 3134SOL     OW20860   2.213   0.676   6.475 -0.7253  0.3567 -0.3842
 3134SOL    HW120861   2.196   0.716   6.560  0.1500  1.5260 -0.7691
 3134SOL    HW220862   2.181   0.746   6.418 -1.5128  0.4944  0.2226
 3135SOL     OW20863   4.109   3.716  17.602  0.3313  0.2569 -0.0038
 3135SOL    HW120864   4.205   3.716  17.608  0.4363 -1.3461 -2.0253
 3135SOL    HW220865   4.103   3.630  17.560  4.3631 -0.1315  0.2062
 3136SOL     OW20866   1.585   3.871   2.599 -0.3121 -0.3273 -0.0483
 3136SOL    HW120867   1.627   3.787   2.618 -1.8733 -1.5625 -1.9098
 3136SOL    HW220868   1.522   3.863   2.671  1.9687 -1.3658  1.8469
 3137SOL     OW20869   0.860   4.114   6.275  0.3485 -0.4471 -0.3634
 3137SOL    HW120870   0.801   4.075   6.210 -0.9315  1.0078 -0.0926
 3137SOL    HW220871   0.946   4.102   6.235  0.6614 -1.5340  0.6338
 3138SOL     OW20872   1.293   0.821  10.812  0.1939  0.0701  0.4089
 3138SOL    HW120873   1.267   0.912  10.801  2.6395  0.8658  1.2276
 3138SOL    HW220874   1.326   0.822  10.902  2.0225  1.8092 -0.2834
 3139SOL     OW20875   3.101   0.173   0.415  0.4312 -0.3663 -1.0959
 3139SOL    HW120876   3.084   0.253   0.464  4.5998  1.3351 -2.4115
 3139SOL    HW220877   3.036   0.104   0.427 -0.4871  0.8207  0.6672
 3140SOL     OW20878   1.856   3.869   4.508  0.0226 -0.0550 -0.0879
 3140SOL    HW120879   1.810   3.930   4.567  0.4952 -1.5792  1.8506
 3140SOL    HW220880   1.796   3.795   4.509  0.3338 -0.3036 -0.0921
 3141SOL     OW20881   1.334   1.542   4.583  1.0073 -0.3159  0.5383
 3141SOL    HW120882   1.286   1.553   4.665 -0.0362  0.5342 -0.1909
 3141SOL    HW220883   1.408   1.602   4.592  0.7659  0.0804 -0.1125
 3142SOL     OW20884   2.221   4.502   5.617 -0.3567  0.2283  0.2814
 3142SOL    HW120885   2.314   4.497   5.638 -0.6852  0.1165  1.7190
 3142SOL    HW220886   2.216   4.527   5.525  2.1037 -1.8798 -0.4224
 3143SOL     OW20887   1.790   4.220  14.088 -0.5510  0.1207  0.1198
 3143SOL    HW120888   1.749   4.241  14.172 -2.3771  0.4993 -0.8537
 3143SOL    HW220889   1.738   4.279  14.032 -0.3175  0.3949  0.1898
 3144SOL     OW20890   3.739   3.878   6.095 -0.3071 -0.0813 -0.1074
 3144SOL    HW120891   3.776   3.857   6.181  0.9179  0.1686 -0.5675
 3144SOL    HW220892   3.690   3.797   6.079 -0.4703 -0.0854  0.4226
 3145SOL     OW20893   4.167   3.876   3.195 -0.0346 -0.5199 -0.2798
 3145SOL    HW120894   4.109   3.826   3.138  0.5677  0.7952 -2.0151
 3145SOL    HW220895   4.202   3.808   3.254  0.9749  0.9611  0.8408
 3146SOL     OW20896   2.801   1.901  10.544 -0.6268  0.5058 -0.5283
 3146SOL    HW120897   2.720   1.861  10.577  0.3779 -0.3303  0.9256
 3146SOL    HW220898   2.839   1.931  10.627 -1.8290 -0.6892  0.4713
 3147SOL     OW20899   0.337   3.540   7.589 -0.8609 -0.4301 -0.1626
 3147SOL    HW120900   0.308   3.455   7.621  1.4819 -0.5500  1.6303
 3147SOL    HW220901   0.315   3.525   7.497 -1.0291 -3.5791  0.3937
 3148SOL     OW20902   1.806   0.224   7.641 -0.2226 -0.0389  0.8310
 3148SOL    HW120903   1.735   0.162   7.656 -1.2764  0.9158 -0.1335
 3148SOL    HW220904   1.829   0.253   7.729  2.9687 -0.8885  0.2937
 3149SOL     OW20905   1.765   3.456  12.771 -0.5443  0.1910 -0.0699
 3149SOL    HW120906   1.820   3.495  12.840  0.0885  0.3100 -0.6456
 3149SOL    HW220907   1.708   3.395  12.818 -0.2924 -0.2020 -0.2771
 3150SOL     OW20908   2.303   3.718   0.568 -0.0829 -0.1294  0.6204
 3150SOL    HW120909   2.246   3.674   0.631 -0.8086  0.5009  0.3997
 3150SOL    HW220910   2.380   3.660   0.572 -0.0684 -0.1406  0.2044
 3151SOL     OW20911   3.657   3.670  13.792  0.0302 -0.0856 -0.4750
 3151SOL    HW120912   3.685   3.719  13.869  1.5873  0.7449 -1.5492
 3151SOL    HW220913   3.714   3.593  13.793 -0.1252 -0.2272 -2.6254
 3152SOL     OW20914   1.323   4.476   7.853  0.1268 -0.3170  0.5025
 3152SOL    HW120915   1.231   4.499   7.868  0.8432  1.8108  1.6670
 3152SOL    HW220916   1.371   4.555   7.878  1.4203  0.2361 -3.6977
 3153SOL     OW20917   2.375   4.199   4.052  0.0338  0.5833 -0.0113
 3153SOL    HW120918   2.382   4.137   4.124 -2.4082 -1.0518 -1.1740
 3153SOL    HW220919   2.319   4.149   3.991  1.3414  0.4688 -1.1257
 3154SOL     OW20920   3.403   2.403   7.229 -0.4018 -0.3585  0.1348
 3154SOL    HW120921   3.438   2.488   7.202 -1.9846  0.2696  0.0725
 3154SOL    HW220922   3.478   2.345   7.217 -0.9888 -1.2681  0.8642
 3155SOL     OW20923   4.430   3.497  16.476 -0.5471 -0.1638 -0.4600
 3155SOL    HW120924   4.474   3.578  16.448  0.6693 -0.7199 -0.1552
 3155SOL    HW220925   4.346   3.543  16.486 -0.3462  0.0116  0.4696
 3156SOL     OW20926   1.636   2.718   1.989 -0.0576  0.1618 -0.0488
 3156SOL    HW120927   1.575   2.733   2.061 -1.4949  0.9800 -1.4316
 3156SOL    HW220928   1.645   2.624   1.999 -0.0456  0.0865 -0.7421
 3157SOL     OW20929   0.362   2.164   3.329  0.2880 -0.3211 -0.4678
 3157SOL    HW120930   0.419   2.093   3.358 -2.0469 -1.1672  2.0546
 3157SOL    HW220931   0.274   2.140   3.360 -1.0707  2.3996 -2.2811
 3158SOL     OW20932   2.908   1.123   8.539 -0.0130  0.4000 -0.0907
 3158SOL    HW120933   2.854   1.046   8.559 -2.9463  2.6643  0.6873
 3158SOL    HW220934   2.950   1.099   8.456  1.1786  0.3937  0.5108
 3159SOL     OW20935   3.261   0.212   4.768 -0.0038 -0.1665 -0.2902
 3159SOL    HW120936   3.328   0.270   4.804  0.9562 -1.6930  0.4025
 3159SOL    HW220937   3.184   0.240   4.818 -0.5514 -1.7948 -0.2182
 3160SOL     OW20938   1.099   2.813  14.066 -0.7819 -0.6543  0.0042
 3160SOL    HW120939   1.074   2.787  14.154 -1.2901  3.3546  1.0534
 3160SOL    HW220940   1.026   2.871  14.042 -0.0874 -0.8267 -2.5227
 3161SOL     OW20941   3.326   3.892   9.369 -0.0351 -0.3086 -0.0411
 3161SOL    HW120942   3.295   3.961   9.427  2.6556  0.3324  0.6464
 3161SOL    HW220943   3.418   3.902   9.394 -0.6459 -0.8116  2.4211
 3162SOL     OW20944   3.029   0.765  10.018 -0.4183  0.1291 -0.0264
 3162SOL    HW120945   2.970   0.718  10.078  0.3009  1.2024  1.5242
 3162SOL    HW220946   3.085   0.821  10.073  1.2704 -0.5871 -1.0438
 3163SOL     OW20947   3.610   0.253   9.524 -0.0673 -0.2118 -0.0719
 3163SOL    HW120948   3.532   0.305   9.504 -0.3672 -0.5440  0.2376
 3163SOL    HW220949   3.674   0.320   9.498  0.9699 -1.7648 -1.4960
 3164SOL     OW20950   0.389   2.299   4.397 -0.4939 -0.1778  0.4876
 3164SOL    HW120951   0.461   2.361   4.407 -1.3947  1.1422 -1.2817
 3164SOL    HW220952   0.324   2.367   4.383  0.7052  0.7962 -0.3602
 3165SOL     OW20953   1.587   0.039  12.013 -0.1034 -0.3809  0.5019
 3165SOL    HW120954   1.660   0.097  11.992  0.2534 -1.4194 -1.0957
 3165SOL    HW220955   1.629   4.685  11.980 -0.6277  0.0471 -1.1841
 3166SOL     OW20956   0.406   4.072  16.855  0.1290 -0.4708 -0.2026
 3166SOL    HW120957   0.344   4.101  16.788 -0.3495  3.7628  2.0816
 3166SOL    HW220958   0.475   4.137  16.846  0.2346 -0.9532 -2.8882
 3167SOL     OW20959   0.980   0.672   1.820  0.7757  0.0816  0.5942
 3167SOL    HW120960   1.012   0.585   1.799 -0.5128 -0.2035 -0.1286
 3167SOL    HW220961   0.958   0.709   1.735 -1.1585 -4.0935 -0.6736
 3168SOL     OW20962   1.197   1.616   0.389 -0.0408 -0.4027  0.2782
 3168SOL    HW120963   1.117   1.640   0.343 -0.2750 -0.5064  0.6288
 3168SOL    HW220964   1.238   1.699   0.413 -0.7083 -0.4703  1.6375
 3169SOL     OW20965   1.191   3.461   5.848 -0.0704  0.1775 -0.1177
 3169SOL    HW120966   1.142   3.527   5.898  0.5130  0.5794 -0.0750
 3169SOL    HW220967   1.277   3.472   5.889 -0.6471  0.0167  1.1396
 3170SOL     OW20968   2.653   3.390   5.129  0.0179  0.0155  0.6788
 3170SOL    HW120969   2.705   3.310   5.144 -0.4294 -0.4492 -0.2532
 3170SOL    HW220970   2.717   3.446   5.086  0.1324  0.4475  1.4219
 3171SOL     OW20971   3.748   0.927   6.309  0.6751  0.1550  0.3071
 3171SOL    HW120972   3.737   0.912   6.215 -1.0189 -1.4334  0.7432
 3171SOL    HW220973   3.842   0.926   6.322  0.7771 -1.6887 -0.4877
 3172SOL     OW20974   3.991   2.576   6.200  0.0007  0.2441  0.4449
 3172SOL    HW120975   4.030   2.609   6.281 -1.5106  3.0730  0.0160
 3172SOL    HW220976   3.906   2.550   6.237  0.4159 -1.1258  0.4538
 3173SOL     OW20977   3.894   3.027  16.286 -0.3489  0.0015 -0.4838
 3173SOL    HW120978   3.856   3.017  16.199 -1.3055  2.5379 -0.3594
 3173SOL    HW220979   3.912   2.936  16.308 -0.6532 -0.0987 -0.6517
 3174SOL     OW20980   4.578   0.668   5.198 -0.8829  0.5443 -0.0247
 3174SOL    HW120981   4.658   0.701   5.239 -1.3876  1.5794  0.1310
 3174SOL    HW220982   4.607   0.658   5.107 -0.7897 -0.5483  0.1295
 3175SOL     OW20983   2.953   1.507   4.004  0.0750 -0.1071 -0.8887
 3175SOL    HW120984   2.918   1.468   4.085 -0.8357  1.3555 -0.5859
 3175SOL    HW220985   2.972   1.433   3.946 -0.9647 -0.6785 -0.5063
 3176SOL     OW20986   4.447   2.998  10.141 -0.3648  0.2157 -0.5703
 3176SOL    HW120987   4.404   2.923  10.183 -1.8176  1.3494 -0.0688
 3176SOL    HW220988   4.467   2.965  10.053  1.5794 -0.4822  0.1307
 3177SOL     OW20989   3.850   2.882   4.026  0.1179  0.8593 -0.0540
 3177SOL    HW120990   3.844   2.788   4.008  0.0891  1.4422 -3.0140
 3177SOL    HW220991   3.783   2.916   3.967 -0.1249  0.9061  0.2522
 3178SOL     OW20992   3.944   1.980  14.031 -0.4700  0.1693 -0.0953
 3178SOL    HW120993   4.031   2.019  14.021  0.5436 -1.4854  2.1970
 3178SOL    HW220994   3.933   1.979  14.126  1.6132 -2.6243  0.1134
 3179SOL     OW20995   4.052   2.021   3.576  0.4656 -0.0647  0.0170
 3179SOL    HW120996   4.140   1.984   3.578  0.8070  0.8636  2.3127
 3179SOL    HW220997   4.007   1.981   3.651 -0.0196  0.1621 -0.1508
 3180SOL     OW20998   2.681   2.741   4.730  0.3549  0.2321  0.1588
 3180SOL    HW120999   2.703   2.792   4.808 -0.1726  1.3811 -0.4539
 3180SOL    HW221000   2.712   2.804   4.664 -1.4199 -1.7446 -2.5318
 3181SOL     OW21001   0.149   2.470   3.527  0.3680  0.3756 -0.1521
 3181SOL    HW121002   0.110   2.455   3.440 -0.7099 -1.3981  0.6261
 3181SOL    HW221003   0.153   2.563   3.547 -3.7080  0.7517 -1.1445
 3182SOL     OW21004   3.829   1.257   7.073 -0.2645 -0.0289 -0.6538
 3182SOL    HW121005   3.806   1.269   7.166  0.3048 -0.3590 -0.4702
 3182SOL    HW221006   3.810   1.170   7.038 -2.6496  0.1850  0.0423
 3183SOL     OW21007   0.081   2.959   4.761 -0.4273 -0.1896 -0.5250
 3183SOL    HW121008   0.140   2.997   4.696  2.4991 -1.1703  1.5633
 3183SOL    HW221009   0.005   2.939   4.706  0.8030 -2.3032 -1.4530
 3184SOL     OW21010   1.977   0.873  16.173 -0.3994 -0.3293 -0.3245
 3184SOL    HW121011   1.963   0.810  16.102 -1.7783 -1.1640  0.6921
 3184SOL    HW221012   1.978   0.820  16.253 -1.6618  3.7828  2.4270
 3185SOL     OW21013   1.158   2.887   3.375 -0.1164 -0.1562  0.0983
 3185SOL    HW121014   1.168   2.937   3.294 -0.9003  1.2836  0.8825
 3185SOL    HW221015   1.134   2.953   3.440 -2.2280 -0.2514 -0.5871
 3186SOL     OW21016   2.111   4.675   0.171  0.4491  0.3112 -0.4187
 3186SOL    HW121017   2.066   4.712   0.247  1.1685  0.8148 -0.2359
 3186SOL    HW221018   2.058   4.716   0.103  0.3640 -1.0545 -1.1642
 3187SOL     OW21019   0.197   3.889   3.987  0.2424 -0.3452  0.0600
 3187SOL    HW121020   0.102   3.903   3.989 -0.3141 -4.3382  1.4823
 3187SOL    HW221021   0.226   3.902   3.897 -0.6103  2.6685  0.2451
 3188SOL     OW21022   0.644   2.766  15.114  0.1715  0.2175  0.0070
 3188SOL    HW121023   0.566   2.721  15.147 -2.5311  2.9326 -2.6084
 3188SOL    HW221024   0.702   2.722  15.176 -0.0759  0.4871  0.4376
 3189SOL     OW21025   2.717   3.852   4.710  0.4017 -0.6503  0.2700
 3189SOL    HW121026   2.756   3.856   4.798  3.0012  1.7490 -0.9701
 3189SOL    HW221027   2.651   3.783   4.718 -0.7232  0.2165 -1.6950
 3190SOL     OW21028   0.185   3.944  13.527  0.3010 -0.3189  0.5522
 3190SOL    HW121029   0.170   3.952  13.432 -0.5760  0.8460  0.7853
 3190SOL    HW221030   0.097   3.966  13.556  0.5149  0.0282  0.9385
 3191SOL     OW21031   1.714   2.132   4.707 -0.7716 -0.0889  0.6862
 3191SOL    HW121032   1.651   2.171   4.768 -1.5159 -2.6610  1.5686
 3191SOL    HW221033   1.671   2.154   4.624  0.2669  0.5362  0.3106
 3192SOL     OW21034   3.617   0.450  11.753  0.5457  0.1532 -0.4442
 3192SOL    HW121035   3.556   0.452  11.679 -0.4255 -0.6964  0.3279
 3192SOL    HW221036   3.560   0.416  11.822 -0.0368 -1.9929 -1.9653
 3193SOL     OW21037   4.541   2.177  11.772 -0.1030 -0.5543  0.4716
 3193SOL    HW121038   4.633   2.152  11.779  0.8489  2.2423 -2.0494
 3193SOL    HW221039   4.511   2.187  11.863  0.8319 -0.3652  0.7588
 3194SOL     OW21040   3.374   1.583  14.931 -0.1334  0.2934 -0.3792
 3194SOL    HW121041   3.379   1.500  14.884 -1.6277 -0.3076  0.5305
 3194SOL    HW221042   3.467   1.604  14.945  0.2830 -0.8845 -1.4064
 3195SOL     OW21043   0.425   1.577   6.460 -0.1090  0.0168 -0.0536
 3195SOL    HW121044   0.425   1.489   6.496 -4.3947  0.9459  2.2169
 3195SOL    HW221045   0.362   1.571   6.388 -0.6536 -1.1332  0.5158
 3196SOL     OW21046   4.058   1.846   8.269  0.0442  0.8364 -0.6598
 3196SOL    HW121047   3.998   1.834   8.343  1.9707  1.2939  1.0024
 3196SOL    HW221048   4.106   1.763   8.275  0.6315  1.3800  2.4450
 3197SOL     OW21049   0.967   4.713   0.002  0.1899  0.2992  0.3804
 3197SOL    HW121050   0.911   4.676   0.070  2.3181 -0.7906  1.5333
 3197SOL    HW221051   0.919   4.688  17.625 -2.1046 -0.7662  2.1058
 3198SOL     OW21052   2.839   0.680  16.366 -0.2185  0.1034  0.3716
 3198SOL    HW121053   2.891   0.758  16.382  0.6820 -0.4629  0.1959
 3198SOL    HW221054   2.784   0.718  16.298 -2.4323 -0.6997  1.7125
 3199SOL     OW21055   1.032   3.205   5.758  0.4559  0.1046  0.5287
 3199SOL    HW121056   0.998   3.124   5.718  1.7076 -0.0209 -0.2818
 3199SOL    HW221057   0.962   3.237   5.815  0.5867  1.0070  0.1812
 3200SOL     OW21058   3.643   1.283  14.432 -0.1897  0.0001  0.5678
 3200SOL    HW121059   3.625   1.196  14.396  1.6398 -0.6945  1.3121
 3200SOL    HW221060   3.738   1.273  14.435 -0.0042  0.9481 -2.0494
 3201SOL     OW21061   2.381   0.724   7.329  0.2869  0.1540  0.0823
 3201SOL    HW121062   2.458   0.778   7.309 -0.3409  1.2887  0.7468
 3201SOL    HW221063   2.408   0.703   7.418  0.1882  1.3858  0.3997
 3202SOL     OW21064   4.256   2.628   4.392  0.1616  0.2647  0.0561
 3202SOL    HW121065   4.310   2.591   4.323  0.4539 -0.6713  0.7821
 3202SOL    HW221066   4.242   2.555   4.453  2.1172 -0.7115 -0.6713
 3203SOL     OW21067   1.336   3.770   7.656  0.1684 -0.1348 -0.4168
 3203SOL    HW121068   1.298   3.858   7.652 -0.7236 -0.5025  0.1704
 3203SOL    HW221069   1.407   3.791   7.717 -0.5142  2.7098 -0.5928
 3204SOL     OW21070   1.902   1.940   2.602  0.3226  0.0150  0.4861
 3204SOL    HW121071   1.923   1.917   2.512 -1.1090 -1.4563  0.5241
 3204SOL    HW221072   1.983   1.910   2.644 -0.2333 -1.7323  0.3347
 3205SOL     OW21073   0.622   2.790   0.581 -0.2399  0.4009  0.1464
 3205SOL    HW121074   0.643   2.751   0.666  2.9791  0.5966 -0.5405
 3205SOL    HW221075   0.597   2.879   0.604 -2.2150 -0.5716  1.7596
 3206SOL     OW21076   0.718   4.199   5.292 -0.3116  0.5443  0.1943
 3206SOL    HW121077   0.800   4.185   5.341  0.4256  1.3038 -0.8192
 3206SOL    HW221078   0.744   4.153   5.212 -1.1040  0.4412  0.0050
 3207SOL     OW21079   4.034   3.211   6.857  0.7037  0.5466 -0.1336
 3207SOL    HW121080   3.998   3.172   6.936 -1.5101  0.0828 -1.3463
 3207SOL    HW221081   4.099   3.275   6.886  0.9554  0.3825 -0.3358
 3208SOL     OW21082   1.573   0.264   3.515  0.0233  0.0810  0.0611
 3208SOL    HW121083   1.483   0.235   3.535 -0.2503  0.6685 -0.3435
 3208SOL    HW221084   1.562   0.345   3.466  2.1928 -0.2094 -0.9030
 3209SOL     OW21085   0.600   0.572   2.166 -0.2237  0.2447 -0.0706
 3209SOL    HW121086   0.590   0.477   2.157 -1.1091  0.4247 -0.9521
 3209SOL    HW221087   0.520   0.587   2.215 -0.3722  0.5733 -0.4083
 3210SOL     OW21088   3.195   1.403  15.305 -0.5179 -0.1781 -0.2642
 3210SOL    HW121089   3.216   1.488  15.344 -0.1477  0.1137 -1.1064
 3210SOL    HW221090   3.104   1.403  15.335 -0.4874 -1.1716 -0.1544
 3211SOL     OW21091   1.747   3.469   4.210  0.1046  0.1395 -0.2585
 3211SOL    HW121092   1.673   3.526   4.232 -0.0456  0.8610 -2.5480
 3211SOL    HW221093   1.761   3.494   4.118 -0.2517  1.4229  0.0251
 3212SOL     OW21094   2.665   1.719  15.588  0.2330  0.1303  0.1609
 3212SOL    HW121095   2.629   1.806  15.603 -0.4088 -0.0934 -0.1133
 3212SOL    HW221096   2.658   1.664  15.667 -2.0650  1.8906  1.1786
 3213SOL     OW21097   3.079   4.724   3.052 -0.3929 -0.1139 -0.3785
 3213SOL    HW121098   3.000   4.682   3.020 -0.8367 -0.0275  0.6060
 3213SOL    HW221099   3.047   0.082   3.087  0.0776 -1.0109  2.1792
 3214SOL     OW21100   0.707   3.924   4.733 -0.1691 -0.2621  0.1315
 3214SOL    HW121101   0.758   3.923   4.652 -0.2588 -3.9377  0.1177
 3214SOL    HW221102   0.614   3.909   4.714  0.0467  1.3963 -2.2300
 3215SOL     OW21103   1.818   1.289   5.131 -0.4644 -0.2348 -0.0365
 3215SOL    HW121104   1.823   1.225   5.060  1.8481  0.4861 -0.5204
 3215SOL    HW221105   1.860   1.248   5.206  1.4296 -0.7576 -1.3652
 3216SOL     OW21106   3.867   1.069   1.186  0.0235  1.1695 -0.0183
 3216SOL    HW121107   3.957   1.062   1.218 -0.0276 -3.6830 -0.8842
 3216SOL    HW221108   3.823   1.080   1.271  0.4505 -1.4808  0.5621
 3217SOL     OW21109   4.372   1.407  14.380 -0.5079 -0.2112  0.1393
 3217SOL    HW121110   4.385   1.407  14.475  0.2714 -1.0969  0.0363
 3217SOL    HW221111   4.278   1.388  14.380 -0.4976 -0.2593 -0.3898
 3218SOL     OW21112   0.474   2.818   4.492 -0.8313 -0.1524 -0.6850
 3218SOL    HW121113   0.452   2.788   4.404 -1.5699  2.4455 -1.3564
 3218SOL    HW221114   0.557   2.854   4.462  0.1205 -2.8720 -1.3762
 3219SOL     OW21115   0.221   3.748   7.776 -0.1697 -0.3790  0.2376
 3219SOL    HW121116   0.228   3.705   7.861 -0.9923  0.2972  0.6425
 3219SOL    HW221117   0.280   3.693   7.724 -0.0068  1.0481 -1.0595
 3220SOL     OW21118   0.646   1.588  14.330 -0.6402  0.1553 -0.6443
 3220SOL    HW121119   0.567   1.551  14.290 -2.0561  0.3687  1.9685
 3220SOL    HW221120   0.616   1.618  14.416  1.4689 -3.0602  1.2184
 3221SOL     OW21121   2.800   1.710   6.359  0.5887  0.3532 -0.0491
 3221SOL    HW121122   2.806   1.617   6.378  2.0000  0.4571  0.0292
 3221SOL    HW221123   2.886   1.745   6.384  0.5096 -0.2012  1.0157
 3222SOL     OW21124   4.686   4.350  13.902  0.1192  0.2162  0.6866
 3222SOL    HW121125   0.016   4.285  13.946 -3.3991 -3.2061  0.0558
 3222SOL    HW221126   4.607   4.296  13.896  1.6052 -1.9203  0.2162
 3223SOL     OW21127   0.623   4.200   8.790  0.0025 -0.3108  0.6280
 3223SOL    HW121128   0.636   4.222   8.697 -1.8888 -0.4106  0.3402
 3223SOL    HW221129   0.706   4.228   8.827  0.4851 -0.1665 -0.5731
 3224SOL     OW21130   1.826   3.280   7.251 -0.1642  0.4725  0.1268
 3224SOL    HW121131   1.818   3.268   7.156  1.0469 -1.6478  0.3135
 3224SOL    HW221132   1.737   3.309   7.269 -0.1007 -0.7270  2.2824
 3225SOL     OW21133   4.036   3.045   0.462 -0.2065 -0.2919  0.0476
 3225SOL    HW121134   4.026   2.950   0.453 -1.8020  0.0131 -1.2761
 3225SOL    HW221135   4.039   3.046   0.558  1.5555 -3.4957  0.0421
 3226SOL     OW21136   2.986   4.636   2.165  0.0261  0.2910 -0.1458
 3226SOL    HW121137   3.024   4.594   2.088 -2.9482  1.2752 -2.1732
 3226SOL    HW221138   2.924   4.564   2.177  2.4012 -1.7249 -0.1379
 3227SOL     OW21139   3.113   0.655   3.391 -0.3067  0.3605  0.0675
 3227SOL    HW121140   3.100   0.654   3.296  4.1704 -1.3738 -0.4873
 3227SOL    HW221141   3.190   0.707   3.410 -0.1438 -0.3808  1.4699
 3228SOL     OW21142   0.284   1.028  17.374 -0.0400  0.0727  0.0844
 3228SOL    HW121143   0.304   1.078  17.453 -1.7423 -1.0927  1.2465
 3228SOL    HW221144   0.339   0.952  17.393 -0.3042 -0.6462 -2.0590
 3229SOL     OW21145   4.186   1.174   3.188 -0.1870 -0.0060  0.4241
 3229SOL    HW121146   4.238   1.134   3.257  1.4544  1.0372 -0.2051
 3229SOL    HW221147   4.221   1.135   3.108  0.3227  1.4204 -0.0463
 3230SOL     OW21148   4.533   3.991   5.076  0.0473  0.5565  0.2134
 3230SOL    HW121149   4.509   3.919   5.135 -1.8584 -1.0603 -2.5485
 3230SOL    HW221150   4.456   4.048   5.084 -0.2516  0.1339  0.3451
 3231SOL     OW21151   2.701   3.387   5.971 -0.5182 -0.7664  0.5027
 3231SOL    HW121152   2.720   3.355   5.883 -3.1929  1.4797 -0.9114
 3231SOL    HW221153   2.605   3.392   5.971 -0.4927 -0.2947 -0.7896
 3232SOL     OW21154   1.604   1.739  17.201 -0.4917  0.5346  0.1600
 3232SOL    HW121155   1.636   1.810  17.147 -2.2608  0.9507 -0.3297
 3232SOL    HW221156   1.587   1.665  17.143 -0.5210  0.1262  0.6813
 3233SOL     OW21157   4.067   1.415   0.227  0.5282  0.0755 -0.5343
 3233SOL    HW121158   4.015   1.491   0.199 -0.0842 -0.7536 -1.6116
 3233SOL    HW221159   4.013   1.380   0.298 -0.8412  0.9129 -1.1627
 3234SOL     OW21160   3.531   0.210  17.001  0.2186 -0.6421 -0.4744
 3234SOL    HW121161   3.588   0.154  17.053  1.0913 -0.1256 -0.8777
 3234SOL    HW221162   3.595   0.219  16.930  0.0086 -0.8437 -0.6911
 3235SOL     OW21163   3.582   1.507   3.515  0.2408 -0.4028 -0.2648
 3235SOL    HW121164   3.537   1.528   3.597 -1.9183 -1.6063 -1.1625
 3235SOL    HW221165   3.526   1.550   3.451  0.0583 -0.9241 -0.4553
 3236SOL     OW21166   1.923   3.357   6.446 -0.0043  0.3046 -0.2010
 3236SOL    HW121167   1.994   3.397   6.497  0.3492  1.1458 -1.3431
 3236SOL    HW221168   1.953   3.273   6.411  1.2945  0.2880  0.9643
 3237SOL     OW21169   1.466   2.715   1.704  0.1611 -0.1512 -0.1429
 3237SOL    HW121170   1.416   2.660   1.765  0.8990 -1.5012 -0.7528
 3237SOL    HW221171   1.458   2.660   1.626 -2.1170 -0.0055 -0.0009
 3238SOL     OW21172   4.504   3.882   3.833  0.2958 -0.2150  0.0637
 3238SOL    HW121173   4.522   3.892   3.926  1.1630  1.1575 -0.2513
 3238SOL    HW221174   4.414   3.848   3.832  0.2669 -0.1065 -2.2514
 3239SOL     OW21175   1.239   0.640   9.279 -0.0154  0.4450  0.1265
 3239SOL    HW121176   1.218   0.547   9.289  0.0443  0.1674 -2.3904
 3239SOL    HW221177   1.173   0.679   9.337 -0.5048 -2.1723  1.3356
 3240SOL     OW21178   1.408   4.672   7.440 -0.0858 -0.4697 -0.2281
 3240SOL    HW121179   1.387   4.590   7.395  1.3498 -0.6692 -0.5379
 3240SOL    HW221180   1.332   4.676   7.499  0.7150 -1.0698  0.8488
 3241SOL     OW21181   2.373   0.123   0.966 -0.0374  0.2303  0.0067
 3241SOL    HW121182   2.361   0.203   0.914  0.8590  1.6973  2.0457
 3241SOL    HW221183   2.297   0.136   1.023  0.5877  0.2377  0.8329
 3242SOL     OW21184   4.190   4.086  12.115 -0.1019 -0.1041  0.0532
 3242SOL    HW121185   4.202   4.169  12.068 -0.8926 -0.2990 -0.4907
 3242SOL    HW221186   4.273   4.090  12.162 -1.8224  1.9869  2.9746
 3243SOL     OW21187   4.043   0.291   3.670 -0.1691 -0.4013 -0.1113
 3243SOL    HW121188   4.072   0.330   3.588  1.9080  1.4889  1.5232
 3243SOL    HW221189   3.992   0.215   3.643  0.0118 -0.8319  0.7627
 3244SOL     OW21190   4.463   2.084   8.894 -0.5743  0.3245  0.4317
 3244SOL    HW121191   4.469   2.057   8.803 -1.2888  1.6213  0.0091
 3244SOL    HW221192   4.543   2.135   8.903  0.2676 -0.9718  0.3216
 3245SOL     OW21193   0.912   0.386   8.963 -0.0427  0.4775 -0.5637
 3245SOL    HW121194   0.958   0.314   9.005 -1.1768  0.5892  0.8705
 3245SOL    HW221195   0.981   0.414   8.904 -0.3741  0.6355 -0.8797
 3246SOL     OW21196   2.613   4.340   2.400  0.1766 -0.2335 -0.0014
 3246SOL    HW121197   2.546   4.306   2.341 -0.2264 -1.1845  1.0164
 3246SOL    HW221198   2.600   4.275   2.469  2.2292 -1.1362 -0.4368
 3247SOL     OW21199   0.821   3.481   3.606  0.5808  0.2572 -0.2751
 3247SOL    HW121200   0.749   3.543   3.623 -0.2435 -1.1104  1.2448
 3247SOL    HW221201   0.777   3.396   3.613 -1.1710  1.1211 -0.8361
 3248SOL     OW21202   3.763   4.125   6.324  0.5921  0.0517 -0.4201
 3248SOL    HW121203   3.830   4.069   6.283  0.1120 -0.8646  0.0417
 3248SOL    HW221204   3.788   4.112   6.416  0.2910  1.7876 -0.1025
 3249SOL     OW21205   3.987   0.221  14.280  0.4084 -0.2668 -0.3170
 3249SOL    HW121206   3.996   0.211  14.185 -1.7404 -1.4608 -0.4112
 3249SOL    HW221207   4.046   0.293  14.300  0.2011 -0.0757 -0.3884
 3250SOL     OW21208   2.373   3.969   7.609 -0.2823 -0.0522  0.4847
 3250SOL    HW121209   2.343   4.050   7.568 -0.2473  0.4431  1.4499
 3250SOL    HW221210   2.414   3.930   7.532  0.5407 -0.2561  1.0279
 3251SOL     OW21211   4.127   4.684   1.828 -0.5516  0.0608 -0.1360
 3251SOL    HW121212   4.114   0.051   1.850  0.6185  0.1125  0.3226
 3251SOL    HW221213   4.035   4.658   1.821 -0.8422  0.2210  2.9897
 3252SOL     OW21214   2.128   3.949   8.516  0.3845 -0.0026  0.0553
 3252SOL    HW121215   2.211   3.902   8.525  0.3054  0.3069  2.2739
 3252SOL    HW221216   2.086   3.898   8.447  1.0744  0.1654 -0.4973
 3253SOL     OW21217   0.713   0.602   7.184  0.0354 -0.0167 -0.4732
 3253SOL    HW121218   0.758   0.680   7.150  2.2039 -0.7311  0.7506
 3253SOL    HW221219   0.624   0.637   7.189  0.2719  0.6413 -0.8856
 3254SOL     OW21220   1.400   0.864   6.737 -0.5096  0.1997 -0.6441
 3254SOL    HW121221   1.331   0.816   6.690 -2.8148 -0.0335  3.0098
 3254SOL    HW221222   1.454   0.790   6.767  0.2276  1.1996  0.4917
 3255SOL     OW21223   2.301   4.455   1.136 -0.5216  0.2898  0.1555
 3255SOL    HW121224   2.275   4.373   1.179  1.6309 -0.6686 -0.3904
 3255SOL    HW221225   2.225   4.467   1.080  1.2488  1.0502 -2.0645
 3256SOL     OW21226   4.590   2.361   5.821  0.5320  0.0581 -0.1601
 3256SOL    HW121227   4.616   2.428   5.758 -1.9407  1.6331  0.5097
 3256SOL    HW221228   4.590   2.398   5.909 -2.3549 -1.5826  0.5394
 3257SOL     OW21229   3.184   0.183   9.340 -0.2115  0.2214 -0.0392
 3257SOL    HW121230   3.211   0.266   9.301  0.5307  0.3902  0.8495
 3257SOL    HW221231   3.219   0.193   9.428 -0.1810  1.7109 -0.2150
 3258SOL     OW21232   2.871   0.061   5.407 -0.3034 -0.0139  0.0523
 3258SOL    HW121233   2.956   0.037   5.444 -1.4711 -1.8834  1.4914
 3258SOL    HW221234   2.891   0.145   5.366  1.3792 -1.1704 -1.4475
 3259SOL     OW21235   2.561   1.791  10.624 -0.3301 -0.3940 -0.5913
 3259SOL    HW121236   2.516   1.772  10.706  1.5782 -1.6725  0.1567
 3259SOL    HW221237   2.484   1.813  10.571 -1.7849 -2.1020  0.8183
 3260SOL     OW21238   0.109   4.585   2.016  0.1305  0.0970  0.2000
 3260SOL    HW121239   0.161   4.664   2.004  1.3147 -0.6302  0.5408
 3260SOL    HW221240   0.169   4.536   2.072 -0.1225 -0.1766  0.2347
 3261SOL     OW21241   2.593   1.257  16.371  0.0529  0.3945 -0.1637
 3261SOL    HW121242   2.506   1.285  16.342  0.2384  1.3929  0.2301
 3261SOL    HW221243   2.591   1.286  16.462 -0.5223  0.0878 -0.0767
 3262SOL     OW21244   0.621   1.582   9.268  0.0465 -0.4545  0.1889
 3262SOL    HW121245   0.621   1.671   9.304  0.6558 -0.4908  0.2819
 3262SOL    HW221246   0.713   1.564   9.288  0.5531  1.3110 -0.5981
 3263SOL     OW21247   4.414   2.400   7.860  0.3415  0.0744 -0.0044
 3263SOL    HW121248   4.380   2.484   7.892  1.3640 -0.3522  2.1879
 3263SOL    HW221249   4.369   2.338   7.917  1.8349  0.2041  1.2932
 3264SOL     OW21250   0.490   1.888   4.110  0.4330  0.1593 -0.4043
 3264SOL    HW121251   0.489   1.981   4.133  0.1790 -0.4246  1.9146
 3264SOL    HW221252   0.579   1.858   4.091  0.9564  0.4185  1.7212
 3265SOL     OW21253   4.202   4.625   7.037 -0.1299  0.3899 -0.0662
 3265SOL    HW121254   4.254   4.695   6.999  0.8301  0.9498  2.2622
 3265SOL    HW221255   4.170   4.588   6.955  1.2296 -2.5656  0.7387
 3266SOL     OW21256   2.324   4.477  13.176  0.0416  0.7034 -0.1763
 3266SOL    HW121257   2.351   4.403  13.121 -0.5343  0.7172 -0.4696
 3266SOL    HW221258   2.337   4.551  13.118 -3.0340  1.1508 -0.2697
 3267SOL     OW21259   1.267   3.837  12.472 -0.3971 -0.1994 -0.6614
 3267SOL    HW121260   1.327   3.878  12.411  1.5529 -3.1071 -0.6886
 3267SOL    HW221261   1.186   3.883  12.450  0.0512  0.8422 -0.1789
 3268SOL     OW21262   0.844   1.066  15.694 -0.5300 -0.5156 -0.2789
 3268SOL    HW121263   0.843   0.970  15.691 -0.1541 -0.4345 -3.1283
 3268SOL    HW221264   0.760   1.081  15.649 -0.5028 -0.3532 -0.2755
 3269SOL     OW21265   2.840   1.377   1.774  0.9027  0.2062 -0.1327
 3269SOL    HW121266   2.851   1.460   1.729  1.2440  0.9409  1.2894
 3269SOL    HW221267   2.745   1.376   1.785  0.9489 -0.0680  0.2493
 3270SOL     OW21268   1.060   1.785   7.730 -0.1593  0.0734  0.0507
 3270SOL    HW121269   0.980   1.758   7.687 -0.3184  1.1566 -0.3355
 3270SOL    HW221270   1.064   1.875   7.698 -1.3720 -0.1961 -0.8363
 3271SOL     OW21271   2.226   4.591   5.348  0.0493 -0.2104  0.3843
 3271SOL    HW121272   2.270   4.520   5.301  0.7216 -0.8877  2.0040
 3271SOL    HW221273   2.270   4.670   5.316 -1.8952  0.0645 -1.5821
 3272SOL     OW21274   0.319   2.002   7.793 -0.6979  0.0203  0.3047
 3272SOL    HW121275   0.225   2.002   7.774 -0.2863  0.8834 -1.7421
 3272SOL    HW221276   0.324   1.918   7.839  1.8004 -1.2434 -2.3217
 3273SOL     OW21277   0.929   0.652  17.089 -0.0928 -0.2373 -0.2224
 3273SOL    HW121278   0.860   0.687  17.032  0.9778  1.0892 -0.7088
 3273SOL    HW221279   0.960   0.733  17.131 -1.6738  0.8171 -1.0951
 3274SOL     OW21280   0.778   2.259   4.753  0.1476 -0.1495 -0.3998
 3274SOL    HW121281   0.690   2.289   4.773  0.4343 -0.1206  0.8197
 3274SOL    HW221282   0.761   2.165   4.755 -0.4162 -0.0157  0.7343
 3275SOL     OW21283   1.200   0.428  13.248 -0.5494 -0.0377  0.5875
 3275SOL    HW121284   1.107   0.448  13.255 -0.6219 -0.7475  1.7108
 3275SOL    HW221285   1.193   0.351  13.191 -1.4284 -0.4498  1.2421
 3276SOL     OW21286   4.300   3.876   8.774  0.3776 -0.1033 -0.1084
 3276SOL    HW121287   4.207   3.854   8.770 -0.5386  3.7802 -0.3749
 3276SOL    HW221288   4.314   3.847   8.864 -2.9465 -1.2514  0.0263
 3277SOL     OW21289   2.988   1.116   7.708  0.6836  0.4151 -0.9264
 3277SOL    HW121290   3.033   1.051   7.654  1.1403  0.4682 -0.6065
 3277SOL    HW221291   2.897   1.086   7.716  0.9648 -0.3873 -0.7088
 3278SOL     OW21292   2.992   2.603   8.629  0.0781 -0.1354 -0.9812
 3278SOL    HW121293   2.978   2.637   8.541  1.2140  1.6736 -0.4751
 3278SOL    HW221294   2.919   2.634   8.683  1.8928  0.4241  1.1581
 3279SOL     OW21295   0.194   2.143  13.465 -0.1492 -0.6982 -0.3384
 3279SOL    HW121296   0.202   2.049  13.448 -0.4434 -0.6114 -0.9240
 3279SOL    HW221297   0.138   2.142  13.543  0.3321  1.0061  0.0294
 3280SOL     OW21298   4.461   1.270   8.766 -0.0936  0.2245 -0.4722
 3280SOL    HW121299   4.492   1.181   8.748  2.6213  0.9737  0.6267
 3280SOL    HW221300   4.542   1.318   8.782  0.4226 -0.6819 -0.3476
 3281SOL     OW21301   3.713   0.466  10.781 -0.4261  0.1538 -0.6579
 3281SOL    HW121302   3.728   0.540  10.839 -0.2952 -1.0048  0.7845
 3281SOL    HW221303   3.737   0.503  10.697  0.9767 -0.3995 -0.4913
 3282SOL     OW21304   1.775   1.037   1.913  0.0157  0.2974 -0.5633
 3282SOL    HW121305   1.759   0.950   1.876  0.6864  0.2238 -0.6873
 3282SOL    HW221306   1.688   1.063   1.941  0.0609 -1.6438  1.3447
 3283SOL     OW21307   3.888   0.204   5.028 -0.2325 -0.0730  0.5873
 3283SOL    HW121308   3.928   0.234   5.110 -0.3923  0.5794  0.4207
 3283SOL    HW221309   3.816   0.151   5.062  1.5635 -4.1834 -1.8709
 3284SOL     OW21310   0.715   0.165   9.524 -0.3490  0.2931  0.1742
 3284SOL    HW121311   0.630   0.194   9.558 -0.6358 -0.2239 -0.1007
 3284SOL    HW221312   0.702   0.071   9.510 -1.8379  0.2020  2.2206
 3285SOL     OW21313   3.288   0.047   7.566 -0.0750 -0.1735  0.6159
 3285SOL    HW121314   3.309   4.713   7.494  0.4072  0.3891  0.3017
 3285SOL    HW221315   3.224   0.001   7.621 -1.3410 -1.9360 -2.3378
 3286SOL     OW21316   2.697   3.363   0.660  0.1161 -0.1274 -0.4645
 3286SOL    HW121317   2.746   3.288   0.624  1.5534  0.3289  0.5476
 3286SOL    HW221318   2.714   3.366   0.754  0.9216  0.3202 -0.6251
 3287SOL     OW21319   3.863   2.237   6.176  0.0411 -0.3895  0.1176
 3287SOL    HW121320   3.956   2.259   6.176  0.1183 -0.7279  0.6366
 3287SOL    HW221321   3.855   2.197   6.089  0.1016 -0.0740 -0.0350
 3288SOL     OW21322   3.640   3.520   8.257  0.4220  0.4666 -0.1004
 3288SOL    HW121323   3.732   3.510   8.280  0.8440  2.8094 -0.8326
 3288SOL    HW221324   3.640   3.523   8.162 -0.5531 -2.0605 -0.1725
 3289SOL     OW21325   2.477   4.136   3.130  0.3755  0.6750 -0.1004
 3289SOL    HW121326   2.508   4.209   3.183  1.0868 -1.2764  2.1905
 3289SOL    HW221327   2.554   4.103   3.084  1.3102  1.4632  0.9248
 3290SOL     OW21328   3.825   2.690   4.644 -0.1184 -0.4863 -0.2815
 3290SOL    HW121329   3.818   2.780   4.613 -0.7051  0.0696  1.4490
 3290SOL    HW221330   3.920   2.686   4.657 -0.3009  0.2211  1.3712
 3291SOL     OW21331   3.414   4.243  15.380  0.0081 -0.0126 -0.9031
 3291SOL    HW121332   3.449   4.159  15.408  1.6674  0.3960 -1.7339
 3291SOL    HW221333   3.322   4.219  15.372 -0.1706  0.3638  0.0455
 3292SOL     OW21334   0.463   1.404   2.003 -0.2863  0.3602  0.0576
 3292SOL    HW121335   0.522   1.329   2.013 -2.0414 -1.3716 -2.4682
 3292SOL    HW221336   0.374   1.372   2.021  0.0645 -0.5642  0.1675
 3293SOL     OW21337   4.660   3.684  11.998  0.2181  0.0825 -0.3611
 3293SOL    HW121338   4.631   3.640  12.077 -1.3535 -0.5050 -1.2852
 3293SOL    HW221339   4.592   3.751  11.992  0.7825  0.8724  2.1031
 3294SOL     OW21340   3.463   0.612  15.960 -0.3571  0.1333 -0.9743
 3294SOL    HW121341   3.412   0.629  15.882 -1.9726 -0.8566 -0.1252
 3294SOL    HW221342   3.549   0.646  15.934 -1.1511  1.6352 -1.6088
 3295SOL     OW21343   3.013   1.542   8.632 -0.0795  0.5262 -0.5151
 3295SOL    HW121344   3.054   1.515   8.550 -0.6871 -1.2875 -0.2451
 3295SOL    HW221345   2.947   1.475   8.654  0.3869  0.7687  1.6009
 3296SOL     OW21346   4.316   2.993  10.587  0.7987  0.0979 -0.5600
 3296SOL    HW121347   4.329   3.020  10.496  3.3733  0.1276 -0.1817
 3296SOL    HW221348   4.403   3.000  10.626  0.0871 -3.6730  1.7470
 3297SOL     OW21349   2.781   3.232   7.569  0.2576 -0.5997  0.2142
 3297SOL    HW121350   2.790   3.268   7.481  0.8199  1.3342  1.0530
 3297SOL    HW221351   2.688   3.211   7.577  0.2953 -0.7107  0.3589
 3298SOL     OW21352   2.667   0.962   9.313  0.2831 -0.0978  0.0199
 3298SOL    HW121353   2.587   0.940   9.267  0.2600  1.5176 -0.7273
 3298SOL    HW221354   2.734   0.903   9.279 -1.0144 -1.2369 -0.5439
 3299SOL     OW21355   4.170   3.538   6.398  0.1354 -0.3820  0.5679
 3299SOL    HW121356   4.088   3.540   6.447  0.6083 -0.8591  1.3828
 3299SOL    HW221357   4.228   3.578   6.463  0.2764  0.2027  0.0860
 3300SOL     OW21358   1.229   4.645   4.205 -0.2560 -0.2601 -0.9563
 3300SOL    HW121359   1.324   4.638   4.216 -0.5053 -0.5531  0.9741
 3300SOL    HW221360   1.204   4.568   4.256  0.6332 -0.5631 -0.9762
 3301SOL     OW21361   3.063   1.380  17.599 -0.0522  0.0865  0.7455
 3301SOL    HW121362   3.114   1.344  17.672  0.7086 -1.0360 -0.3431
 3301SOL    HW221363   3.031   1.456  17.648 -1.6190  1.9012 -3.0885
 3302SOL     OW21364   3.970   1.623   2.786  0.0957 -0.5522  0.0125
 3302SOL    HW121365   3.896   1.602   2.729 -0.9192  2.1719  0.3430
 3302SOL    HW221366   3.931   1.700   2.826 -3.1749 -3.0019  1.5362
 3303SOL     OW21367   4.705   1.450   1.720  0.1802  0.0926  0.0453
 3303SOL    HW121368   0.070   1.425   1.700 -0.3355 -2.9012  1.5544
 3303SOL    HW221369   4.716   1.545   1.730 -1.2066  0.1807  0.8112
 3304SOL     OW21370   2.965   2.383   0.043 -0.5840  0.4151 -0.4192
 3304SOL    HW121371   3.051   2.382   0.086 -0.9109  2.8097  0.2944
 3304SOL    HW221372   2.979   2.443  17.671 -1.8695  1.8551  0.5083
 3305SOL     OW21373   1.763   2.680  10.100 -0.5788 -0.4152  0.3116
 3305SOL    HW121374   1.704   2.687  10.175  0.6387 -0.8815  1.3078
 3305SOL    HW221375   1.725   2.603  10.057  2.3902 -2.7874  1.9348
 3306SOL     OW21376   1.642   0.965   5.509  0.2900 -1.0852  0.0421
 3306SOL    HW121377   1.711   0.902   5.489  1.4749  0.2415 -0.0494
 3306SOL    HW221378   1.639   1.013   5.426  0.1390  3.8988  2.9227
 3307SOL     OW21379   2.684   1.313   5.271 -0.0203 -0.4395  0.0912
 3307SOL    HW121380   2.705   1.369   5.197  1.3341  0.2505  1.0254
 3307SOL    HW221381   2.629   1.375   5.320  0.5967  0.3524 -0.2270
 3308SOL     OW21382   0.049   2.135   1.468  0.5509  0.0320 -0.2051
 3308SOL    HW121383   0.006   2.108   1.548  1.0138 -2.1029 -0.6750
 3308SOL    HW221384   4.698   2.138   1.409  1.6180  0.4965 -1.5742
 3309SOL     OW21385   4.725   2.222   8.464  0.3153 -0.2814 -0.4051
 3309SOL    HW121386   0.053   2.148   8.433  1.8439  0.4633  0.4545
 3309SOL    HW221387   0.002   2.281   8.389  0.4851  1.6513  1.1226
 3310SOL     OW21388   1.159   2.587   7.754  0.0662  0.9250  0.7111
 3310SOL    HW121389   1.198   2.654   7.698 -1.3067  0.9543 -0.2290
 3310SOL    HW221390   1.162   2.631   7.839 -1.3147 -1.1265  1.8353
 3311SOL     OW21391   1.343   1.317   9.117  0.0445 -0.6068 -0.0756
 3311SOL    HW121392   1.347   1.364   9.034  4.0008  0.5852  0.8026
 3311SOL    HW221393   1.416   1.261   9.093  0.3496 -1.3806  2.6666
 3312SOL     OW21394   0.224   2.734  16.689  0.3202  0.1976 -0.0934
 3312SOL    HW121395   0.260   2.762  16.773  3.0037  0.7699 -1.4325
 3312SOL    HW221396   0.276   2.654  16.677 -0.7903 -0.3115 -1.5405
 3313SOL     OW21397   4.222   2.884   5.518  0.0184  0.1118 -0.0648
 3313SOL    HW121398   4.145   2.938   5.538  0.5136  0.3619  1.1752
 3313SOL    HW221399   4.250   2.845   5.601 -0.3767 -1.6172 -0.7497
 3314SOL     OW21400   3.795   2.664   7.553 -0.2072  0.1295  0.4841
 3314SOL    HW121401   3.850   2.618   7.616  0.4879 -0.7786 -0.7691
 3314SOL    HW221402   3.747   2.587   7.521 -1.8729  2.0909 -1.8006
 3315SOL     OW21403   0.296   2.736  16.956  0.0046 -0.4850  0.0422
 3315SOL    HW121404   0.354   2.811  16.967 -0.7283  0.1368 -0.3505
 3315SOL    HW221405   0.355   2.661  16.964  1.2545  0.5633  0.5657
 3316SOL     OW21406   3.288   4.411   4.759  0.3317  0.1705 -0.1898
 3316SOL    HW121407   3.373   4.374   4.738  0.4866  0.3239  0.1684
 3316SOL    HW221408   3.315   4.489   4.807 -1.0988 -0.2846  1.3587
 3317SOL     OW21409   3.533   1.673   9.844  0.2298  0.5824  0.5516
 3317SOL    HW121410   3.498   1.666   9.933  0.7538  3.8455  1.0088
 3317SOL    HW221411   3.563   1.587   9.814 -0.1840  0.2657  1.0567
 3318SOL     OW21412   0.210   1.810  13.462  0.2817  0.3318 -0.8701
 3318SOL    HW121413   0.285   1.768  13.504 -0.4576  2.2760  2.4009
 3318SOL    HW221414   0.225   1.777  13.374  0.8961  1.7642 -1.3098
 3319SOL     OW21415   2.919   4.425   4.520  0.4192 -0.3631 -0.0858
 3319SOL    HW121416   2.977   4.399   4.591  1.1064 -0.3654 -0.6470
 3319SOL    HW221417   2.852   4.471   4.572 -0.0718 -0.5778 -0.5340
 3320SOL     OW21418   2.741   1.224   7.588 -0.5060  0.2732 -0.1260
 3320SOL    HW121419   2.666   1.200   7.642 -1.1483 -0.1070 -1.1957
 3320SOL    HW221420   2.763   1.312   7.620  0.1913 -0.3548  1.1440
 3321SOL     OW21421   4.531   3.459  10.545 -0.4223 -0.4292  0.2836
 3321SOL    HW121422   4.493   3.420  10.623 -1.0707  1.6289  0.9966
 3321SOL    HW221423   4.500   3.549  10.556  0.4503 -0.2373  1.2380
 3322SOL     OW21424   4.344   3.516   6.177  0.1130  0.6007  0.2906
 3322SOL    HW121425   4.375   3.426   6.167  0.7197  0.9953 -1.3654
 3322SOL    HW221426   4.269   3.503   6.234 -0.2296 -1.0942 -0.5229
 3323SOL     OW21427   3.650   1.436   6.751  0.0963 -0.1034 -0.0452
 3323SOL    HW121428   3.691   1.399   6.672  0.1922  1.0265 -0.5167
 3323SOL    HW221429   3.563   1.415   6.718 -0.9026  2.4778  1.0225
 3324SOL     OW21430   4.545   3.975   3.314 -0.2072 -0.4344  0.3458
 3324SOL    HW121431   4.579   4.014   3.234  1.2420  1.0020  1.6614
 3324SOL    HW221432   4.612   3.920   3.355 -1.7428 -1.2557  1.7548
 3325SOL     OW21433   3.583   2.430   2.768  0.1748  0.6541 -0.1928
 3325SOL    HW121434   3.535   2.463   2.692  0.0715 -1.8359 -1.1746
 3325SOL    HW221435   3.518   2.376   2.813 -0.0561 -0.0108 -1.3327
 3326SOL     OW21436   0.314   1.186   7.296 -0.0950 -0.2637  0.5286
 3326SOL    HW121437   0.354   1.257   7.247 -0.3396  0.5680  1.5512
 3326SOL    HW221438   0.256   1.153   7.227 -0.4703  1.5402 -0.0056
 3327SOL     OW21439   3.377   3.105  10.150 -0.5709  0.3305 -0.0477
 3327SOL    HW121440   3.452   3.076  10.097 -1.0164 -0.1480 -0.4165
 3327SOL    HW221441   3.320   3.116  10.074  1.2934  1.8978 -1.2482
 3328SOL     OW21442   1.732   3.446   5.024 -0.1188  0.5713 -0.9403
 3328SOL    HW121443   1.686   3.431   5.107  1.0659 -0.4291 -0.4747
 3328SOL    HW221444   1.764   3.363   4.990  0.8410  1.4037 -2.0438
 3329SOL     OW21445   3.383   1.394   7.420  0.3092 -0.5953  0.5589
 3329SOL    HW121446   3.360   1.343   7.498 -0.6474  0.3042  0.8743
 3329SOL    HW221447   3.431   1.329   7.370 -1.0987  0.0828 -1.6779
 3330SOL     OW21448   3.482   2.821   7.467 -0.0935 -0.2595 -0.5188
 3330SOL    HW121449   3.399   2.856   7.498 -0.1337  1.0794 -2.1650
 3330SOL    HW221450   3.522   2.823   7.554 -1.6238 -1.3786  0.2060
 3331SOL     OW21451   0.046   1.329   7.462  0.3802 -0.5911 -0.6085
 3331SOL    HW121452   0.023   1.419   7.482  0.7043 -0.5961 -0.2181
 3331SOL    HW221453   0.091   1.348   7.380 -4.3329  0.7771 -2.8803
 3332SOL     OW21454   4.083   4.330   7.965  0.4160  0.0957 -0.0573
 3332SOL    HW121455   4.135   4.408   7.946  1.5703 -0.6778 -0.0796
 3332SOL    HW221456   4.048   4.302   7.881 -0.8087  0.5776  0.2788
 3333SOL     OW21457   0.690   3.023  15.104 -0.5460  0.1695  0.8916
 3333SOL    HW121458   0.661   2.932  15.100 -0.0478  0.0456  0.1429
 3333SOL    HW221459   0.674   3.050  15.014  1.1841  2.1946  1.1893
 3334SOL     OW21460   0.782   2.164  12.150  0.4187  0.2134  0.5424
 3334SOL    HW121461   0.693   2.184  12.120  0.5033 -0.5096 -0.1615
 3334SOL    HW221462   0.755   2.125  12.233  0.2176  0.8507  0.7797
 3335SOL     OW21463   3.084   1.756   2.176  0.4268 -0.0452  0.6661
 3335SOL    HW121464   3.151   1.825   2.175 -0.0504  0.4021 -0.7144
 3335SOL    HW221465   3.078   1.725   2.266 -1.3223 -2.7198 -0.3795
 3336SOL     OW21466   1.335   3.792  10.789  0.6586 -0.1585 -0.2503
 3336SOL    HW121467   1.339   3.778  10.695 -0.4459 -0.5398 -0.2424
 3336SOL    HW221468   1.291   3.877  10.797  1.2468  0.1811 -0.6135
 3337SOL     OW21469   1.817   2.686   1.750  0.4810  0.1411 -0.2071
 3337SOL    HW121470   1.850   2.651   1.667  0.0224 -1.4670  0.2908
 3337SOL    HW221471   1.899   2.704   1.796 -1.4323  2.1216  2.3959
 3338SOL     OW21472   4.634   4.539   2.869 -0.2466 -0.4818 -0.2211
 3338SOL    HW121473   4.558   4.494   2.906 -1.0290  0.7515 -0.3353
 3338SOL    HW221474   4.705   4.484   2.903  0.4310  0.9455  0.6729
 3339SOL     OW21475   1.427   4.355   6.730 -0.2912 -0.0361  0.0293
 3339SOL    HW121476   1.344   4.345   6.776 -0.8517  0.1215 -0.9469
 3339SOL    HW221477   1.462   4.430   6.777 -0.0702  0.0828 -0.3268
 3340SOL     OW21478   2.214   0.822   7.761  0.1989 -0.2248  0.5240
 3340SOL    HW121479   2.145   0.863   7.814 -1.7102  0.6081 -2.6301
 3340SOL    HW221480   2.175   0.848   7.678  0.1564  2.0421  1.2674
 3341SOL     OW21481   3.124   0.903   7.577 -0.3499 -0.0822 -0.1513
 3341SOL    HW121482   3.120   0.840   7.648 -0.5330  0.1446  0.0394
 3341SOL    HW221483   3.069   0.863   7.510 -1.0479 -2.0467  1.6057
 3342SOL     OW21484   0.611   4.721  15.773 -0.6130 -0.3416 -0.4336
 3342SOL    HW121485   0.648   0.071  15.727 -1.4155  0.7377  0.7032
 3342SOL    HW221486   0.650   4.659  15.711  1.4094 -0.1466  0.6238
 3343SOL     OW21487   1.080   0.866   1.961  0.2020 -0.2433 -0.1160
 3343SOL    HW121488   1.045   0.788   1.917 -0.4326 -0.1619  0.2480
 3343SOL    HW221489   1.005   0.890   2.016 -0.1649 -1.5990 -0.0148
 3344SOL     OW21490   1.601   2.538   7.727  0.7873 -0.6814  0.0309
 3344SOL    HW121491   1.549   2.463   7.755 -3.1688  1.8151 -0.7854
 3344SOL    HW221492   1.590   2.590   7.807  0.4246 -1.6127  0.5815
 3345SOL     OW21493   2.909   1.184   7.395  0.0150  0.0999 -0.0913
 3345SOL    HW121494   2.845   1.210   7.461  0.4026 -2.1641  1.1826
 3345SOL    HW221495   2.950   1.261   7.356  1.6187 -1.0145 -0.6114
 3346SOL     OW21496   0.384   2.271   5.413  0.8198 -0.2504  0.7686
 3346SOL    HW121497   0.453   2.222   5.457  1.0598 -1.0260 -0.4737
 3346SOL    HW221498   0.310   2.210   5.403 -1.9377  2.9316  1.6431
 3347SOL     OW21499   4.389   2.483   0.557  0.1806 -0.4356  0.1426
 3347SOL    HW121500   4.321   2.419   0.536 -0.6509  0.3481  0.4486
 3347SOL    HW221501   4.335   2.559   0.577  0.8383  0.0071  0.2374
 3348SOL     OW21502   3.146   0.383  12.502  0.6105 -0.3435  0.0261
 3348SOL    HW121503   3.117   0.463  12.457 -1.5269 -0.2394  1.6104
 3348SOL    HW221504   3.083   0.377  12.573  0.1823  1.0522 -0.2312
 3349SOL     OW21505   4.381   1.872   7.313 -0.1981  0.2102 -0.6846
 3349SOL    HW121506   4.371   1.787   7.272  0.7680 -1.3073  2.2032
 3349SOL    HW221507   4.452   1.903   7.257  0.4297  1.0399  0.5673
 3350SOL     OW21508   0.777   2.409   5.527 -0.0265  0.0838 -0.3443
 3350SOL    HW121509   0.696   2.430   5.481 -1.6810 -0.1330  2.4591
 3350SOL    HW221510   0.804   2.499   5.545  2.4358 -0.6665 -0.2666
 3351SOL     OW21511   0.770   0.967   1.728 -0.1138 -0.2990  0.1253
 3351SOL    HW121512   0.802   0.899   1.669 -0.4034 -1.2378  1.0439
 3351SOL    HW221513   0.809   1.044   1.686  3.5313 -0.2795  3.5516
 3352SOL     OW21514   0.535   4.450   3.689 -0.0410  0.1663 -0.2254
 3352SOL    HW121515   0.476   4.504   3.742  0.9180  0.3870  0.5978
 3352SOL    HW221516   0.606   4.507   3.660  1.0792 -0.5700  1.0844
 3353SOL     OW21517   1.475   1.823   6.399  0.2044 -0.0557 -0.3611
 3353SOL    HW121518   1.513   1.848   6.483 -0.7025  0.0755  0.0148
 3353SOL    HW221519   1.496   1.732   6.378  0.6531  0.3677 -1.7505
 3354SOL     OW21520   2.089   3.866   5.420 -0.1995 -0.2792  0.0799
 3354SOL    HW121521   2.049   3.892   5.337  0.2331 -1.4642 -0.5097
 3354SOL    HW221522   2.183   3.857   5.401  0.6168  2.5110  2.8548
 3355SOL     OW21523   0.432   2.569  10.321  0.7447 -0.1241  0.4538
 3355SOL    HW121524   0.367   2.511  10.280  1.1277  0.0558 -0.4140
 3355SOL    HW221525   0.488   2.591  10.246 -0.1250  1.5609  0.2911
 3356SOL     OW21526   1.798   0.530   7.780  0.1595  0.2111  0.4812
 3356SOL    HW121527   1.715   0.552   7.739  0.5715  1.7607  0.4481
 3356SOL    HW221528   1.786   0.574   7.865 -1.0046  0.4864  0.1731
 3357SOL     OW21529   1.949   1.832   7.595  0.4040 -0.0589  0.1857
 3357SOL    HW121530   2.034   1.867   7.569  0.3708 -0.6391 -0.7108
 3357SOL    HW221531   1.976   1.789   7.676  1.1366 -1.2052 -0.6776
 3358SOL     OW21532   1.889   4.600   3.769  0.7370  0.3269  0.0139
 3358SOL    HW121533   1.923   4.607   3.680 -1.0346  0.6039 -0.6534
 3358SOL    HW221534   1.955   4.552   3.818 -0.5974 -2.5987 -1.0226
 3359SOL     OW21535   4.235   0.853   6.583 -0.3701 -0.1441  0.1215
 3359SOL    HW121536   4.245   0.758   6.592 -1.3398 -0.0542  2.0271
 3359SOL    HW221537   4.263   0.881   6.670  0.3679  1.5809 -0.6762
 3360SOL     OW21538   0.763   1.616  10.525  0.1482  0.1992 -0.5533
 3360SOL    HW121539   0.843   1.667  10.540  0.0136  0.0547  0.6534
 3360SOL    HW221540   0.778   1.548  10.591  2.1849  0.9474 -0.2319
 3361SOL     OW21541   1.296   1.769   8.155  0.4755 -0.3818 -0.1674
 3361SOL    HW121542   1.313   1.861   8.134  1.3765 -0.3079  0.8672
 3361SOL    HW221543   1.285   1.736   8.066 -0.5802 -0.2463 -0.0924
 3362SOL     OW21544   3.589   3.147   3.432  0.4627 -0.2419 -0.1692
 3362SOL    HW121545   3.578   3.056   3.404 -0.6073 -0.0204 -0.4746
 3362SOL    HW221546   3.596   3.136   3.527  0.9530 -1.0142 -0.2969
 3363SOL     OW21547   1.509   2.514   8.745 -0.5283  0.2773  0.4993
 3363SOL    HW121548   1.440   2.462   8.704 -1.3553  2.2697 -0.5998
 3363SOL    HW221549   1.477   2.601   8.722 -2.0212 -0.8298 -1.5635
 3364SOL     OW21550   3.198   0.421   3.555  0.3501 -0.2363  0.2858
 3364SOL    HW121551   3.165   0.488   3.494  1.8399  0.6690  0.4726
 3364SOL    HW221552   3.270   0.390   3.500 -1.2605 -0.7622 -1.4927
 3365SOL     OW21553   4.256   0.473   5.078 -0.1230  0.0020 -0.1840
 3365SOL    HW121554   4.209   0.536   5.133  1.1530  1.8909 -1.2390
 3365SOL    HW221555   4.244   0.514   4.992  0.5959  0.0339 -0.2704
 3366SOL     OW21556   3.590   4.457  15.444  0.1534 -0.5858  0.4688
 3366SOL    HW121557   3.543   4.533  15.479 -0.0285  0.6537 -2.5279
 3366SOL    HW221558   3.519   4.392  15.447 -0.9101  0.6120  1.2793
 3367SOL     OW21559   0.267   3.299   7.023 -0.4715 -0.1040 -0.2023
 3367SOL    HW121560   0.355   3.293   6.984  1.3905  0.7611  3.8464
 3367SOL    HW221561   0.282   3.393   7.037  3.0496 -0.5467 -0.8883
 3368SOL     OW21562   1.942   0.016   5.017  0.5452 -0.0433 -0.7123
 3368SOL    HW121563   1.965   0.006   5.109 -1.3982 -1.3301 -0.3631
 3368SOL    HW221564   1.996   4.671   4.979 -0.8345 -1.1877 -0.5622
 3369SOL     OW21565   1.783   2.555  10.994  0.5626  0.5372 -0.1155
 3369SOL    HW121566   1.792   2.648  11.015 -1.9319  0.6981  0.1304
 3369SOL    HW221567   1.876   2.532  10.999 -0.3509 -2.6546  1.4493
 3370SOL     OW21568   3.475   2.859   3.450  0.1630 -0.3774 -0.3556
 3370SOL    HW121569   3.383   2.887   3.447 -0.6277 -2.6009  2.3855
 3370SOL    HW221570   3.474   2.776   3.403 -1.2926 -0.8988  0.5852
 3371SOL     OW21571   1.283   2.084  17.661  0.1290 -0.2039  0.1109
 3371SOL    HW121572   1.224   2.144  17.616 -1.1594 -2.1377 -0.7649
 3371SOL    HW221573   1.367   2.130  17.667 -1.3920  2.6564 -0.5638
 3372SOL     OW21574   0.684   4.666   2.824 -0.2730  0.3939 -0.5675
 3372SOL    HW121575   0.611   4.627   2.776 -0.7501  0.9275 -0.2715
 3372SOL    HW221576   0.724   0.011   2.773  0.3887  0.4682  0.0486
 3373SOL     OW21577   0.310   4.602   2.867  0.6247 -0.0251  0.2748
 3373SOL    HW121578   0.225   4.561   2.853  1.1203 -0.8413 -0.3434
 3373SOL    HW221579   0.371   4.543   2.822  0.0702 -0.0006 -0.5104
 3374SOL     OW21580   0.272   0.440   4.163  0.3667  0.5697  0.1772
 3374SOL    HW121581   0.197   0.437   4.223  0.8372 -1.3249  0.6445
 3374SOL    HW221582   0.236   0.371   4.108 -0.1050  1.9440 -1.2417
 3375SOL     OW21583   1.051   2.389   5.883  0.3214  0.0561  0.0284
 3375SOL    HW121584   0.991   2.334   5.832  1.2854  0.1033 -1.1679
 3375SOL    HW221585   1.092   2.326   5.942  3.7107  0.9549 -1.3825
 3376SOL     OW21586   4.550   0.582   0.073 -0.1782 -0.3827  0.2959
 3376SOL    HW121587   4.610   0.632   0.128 -2.4559  1.5280  1.0474
 3376SOL    HW221588   4.474   0.639   0.063 -0.5256 -1.2041 -1.8501
 3377SOL     OW21589   0.604   1.586  17.295 -0.0867  0.1343  0.1217
 3377SOL    HW121590   0.586   1.494  17.277  0.6806 -0.3498  1.8438
 3377SOL    HW221591   0.690   1.587  17.337 -0.4575 -2.3271  0.9650
 3378SOL     OW21592   0.887   1.151  16.446  0.1711 -0.4620 -0.1747
 3378SOL    HW121593   0.807   1.108  16.476 -0.6625  0.4364 -1.1091
 3378SOL    HW221594   0.871   1.240  16.476 -0.4643 -0.4939 -0.4108
 3379SOL     OW21595   1.089   3.498   0.997 -1.3398 -0.1693  0.1052
 3379SOL    HW121596   1.111   3.407   1.015 -1.3957 -0.7272 -2.7094
 3379SOL    HW221597   1.028   3.483   0.925 -0.8346 -0.3904 -0.2744
 3380SOL     OW21598   4.488   4.335   6.703  0.0456  0.2646 -0.1336
 3380SOL    HW121599   4.471   4.429   6.705  3.1314  0.8521 -1.1317
 3380SOL    HW221600   4.486   4.312   6.610  1.5903  1.7048 -0.5341
 3381SOL     OW21601   2.930   3.309   9.484  0.2183 -0.5282 -0.2717
 3381SOL    HW121602   2.869   3.249   9.441 -0.0058  0.1010 -0.8238
 3381SOL    HW221603   2.933   3.382   9.422  1.3898  0.8842  1.4304
 3382SOL     OW21604   4.555   3.732   7.275 -0.0453 -0.4223  0.1873
 3382SOL    HW121605   4.559   3.780   7.357  1.7067 -0.5671  0.1799
 3382SOL    HW221606   4.616   3.662   7.300 -1.7483 -2.0696 -0.2271
 3383SOL     OW21607   2.981   3.020   2.976  0.1298 -0.0915  0.1105
 3383SOL    HW121608   2.911   3.020   2.910  1.4395  1.7222 -1.2680
 3383SOL    HW221609   2.980   3.114   2.990 -1.5662  0.0118 -0.7788
 3384SOL     OW21610   0.447   2.224  13.694 -0.6958  0.4050 -0.5659
 3384SOL    HW121611   0.446   2.318  13.674 -0.8767  0.6591  0.6004
 3384SOL    HW221612   0.375   2.216  13.757  0.7490 -2.4881  0.6847
 3385SOL     OW21613   2.813   3.572   4.476  0.3083  0.0027 -0.3118
 3385SOL    HW121614   2.749   3.617   4.420 -0.2515 -0.6213 -0.1813
 3385SOL    HW221615   2.755   3.525   4.535  0.8166  0.9673  0.9465
 3386SOL     OW21616   3.542   0.083  14.576  0.2504  0.0880 -0.1255
 3386SOL    HW121617   3.611   0.090  14.510  0.5393 -1.7168 -0.0174
 3386SOL    HW221618   3.554   4.718  14.608  2.1913  0.5283  0.3667
 3387SOL     OW21619   1.697   3.214   4.804 -0.2180  0.3104 -1.0812
 3387SOL    HW121620   1.645   3.178   4.876  1.2476 -0.6905 -0.5266
 3387SOL    HW221621   1.747   3.141   4.768 -1.1134  0.1983 -2.0910
 3388SOL     OW21622   3.636   1.670  11.704  0.4935 -0.3362 -0.5093
 3388SOL    HW121623   3.594   1.756  11.702  2.4620  0.6767  0.7840
 3388SOL    HW221624   3.667   1.661  11.614  1.0727 -1.9185 -0.1486
 3389SOL     OW21625   0.515   1.988   9.557 -0.2214 -0.0588 -0.3421
 3389SOL    HW121626   0.445   1.988   9.622 -0.5052 -2.0101 -0.6335
 3389SOL    HW221627   0.473   2.038   9.487  0.6070  1.1087  0.0088
 3390SOL     OW21628   3.345   2.025   3.935  0.3580  0.1412  0.1381
 3390SOL    HW121629   3.382   2.023   4.024  0.2265 -1.4867  0.1446
 3390SOL    HW221630   3.342   2.119   3.915  1.9597  0.3307  0.8054
 3391SOL     OW21631   0.806   1.909   9.112 -0.6349 -0.2889  0.4393
 3391SOL    HW121632   0.731   1.879   9.061 -0.6381 -1.2085  0.9877
 3391SOL    HW221633   0.771   1.995   9.132 -1.3762 -1.1247  2.6771
 3392SOL     OW21634   3.760   0.511   2.416 -0.0618  0.8372  0.3773
 3392SOL    HW121635   3.799   0.525   2.330  1.3055 -0.6315  0.7508
 3392SOL    HW221636   3.786   0.422   2.442 -2.2931 -0.4247 -1.6804
 3393SOL     OW21637   2.206   1.034   8.193 -0.1191 -0.3455 -0.1356
 3393SOL    HW121638   2.231   1.061   8.282 -0.3923  1.7532 -0.7107
 3393SOL    HW221639   2.112   1.020   8.200 -0.3808  1.8094  0.4724
 3394SOL     OW21640   3.922   3.105   2.279  0.1226 -0.8956 -0.5165
 3394SOL    HW121641   3.951   3.059   2.200  2.1108  0.8871 -0.8350
 3394SOL    HW221642   3.873   3.179   2.242  1.2321 -0.4578 -1.1101
 3395SOL     OW21643   2.707   0.384  14.960 -0.0561 -0.4752 -0.1254
 3395SOL    HW121644   2.794   0.352  14.985  0.4581  0.4031 -0.8241
 3395SOL    HW221645   2.721   0.476  14.939  0.7699 -0.1723  1.7421
 3396SOL     OW21646   2.042   2.078   1.071  0.0714  0.4108 -0.0958
 3396SOL    HW121647   2.054   2.049   1.161  0.7395 -0.5061 -0.4734
 3396SOL    HW221648   1.969   2.138   1.079  0.5960  0.8103  1.6711
 3397SOL     OW21649   3.708   1.817   7.385  0.6216  0.8674 -0.1904
 3397SOL    HW121650   3.795   1.778   7.382 -0.2594 -1.1481  1.2063
 3397SOL    HW221651   3.696   1.824   7.479  2.0074  1.6180 -0.0699
 3398SOL     OW21652   1.512   3.293   5.361 -0.3036 -0.5001 -0.0919
 3398SOL    HW121653   1.470   3.261   5.441  0.5466 -0.6148  0.3116
 3398SOL    HW221654   1.565   3.219   5.333  0.6628 -0.3284  1.2512
 3399SOL     OW21655   0.601   1.082  15.559  0.5272 -0.2452  0.0277
 3399SOL    HW121656   0.646   1.026  15.496  1.3856  0.9808 -0.4615
 3399SOL    HW221657   0.575   1.164  15.517 -0.5246 -0.4078  0.3677
 3400SOL     OW21658   2.969   2.445   4.234 -0.2778  0.1302  0.4718
 3400SOL    HW121659   2.937   2.429   4.323 -0.4899 -1.3672  0.1344
 3400SOL    HW221660   2.887   2.471   4.193 -1.2043  0.1051  2.3164
 3401SOL     OW21661   2.954   0.711   6.600  0.4394 -0.0672 -0.6486
 3401SOL    HW121662   2.912   0.773   6.540 -0.7295 -0.9312 -0.7029
 3401SOL    HW221663   3.035   0.755   6.627 -0.9262  1.9741  0.1521
 3402SOL     OW21664   1.604   1.652  16.869  0.0623  0.1337 -0.0529
 3402SOL    HW121665   1.534   1.618  16.925  1.2920  0.4223  1.6559
 3402SOL    HW221666   1.576   1.739  16.842  0.4616  0.2185 -0.1910
 3403SOL     OW21667   1.833   4.166   4.677  0.2716  0.4339 -0.4571
 3403SOL    HW121668   1.893   4.239   4.692 -0.2913  0.9154 -0.5462
 3403SOL    HW221669   1.870   4.103   4.739 -0.4035  0.3578 -0.1306
 3404SOL     OW21670   2.043   1.482   7.704 -0.1902  0.6284 -0.1203
 3404SOL    HW121671   1.992   1.401   7.702  0.2948  0.3691 -1.7710
 3404SOL    HW221672   2.057   1.495   7.610  0.3294 -0.8797 -0.2589
 3405SOL     OW21673   3.747   0.664   1.083  0.0313 -0.7130 -0.7779
 3405SOL    HW121674   3.663   0.709   1.095  1.2703  1.5211 -0.4308
 3405SOL    HW221675   3.778   0.717   1.010 -0.6862  0.2137 -0.4286
 3406SOL     OW21676   2.733   3.022   5.855  0.3634 -0.2594 -0.4510
 3406SOL    HW121677   2.724   2.939   5.808 -1.4098  0.3736 -1.2214
 3406SOL    HW221678   2.792   3.073   5.799  1.8704 -0.0719  1.3166
 3407SOL     OW21679   2.142   2.941   2.947  0.7823 -0.5835  0.3409
 3407SOL    HW121680   2.173   3.012   2.890 -0.7681  0.1042  0.3423
 3407SOL    HW221681   2.164   2.983   3.030 -1.0163  0.8717  0.0688
 3408SOL     OW21682   3.507   3.950   9.820 -0.4806 -0.2520 -0.1342
 3408SOL    HW121683   3.556   3.969   9.741 -1.8872  1.2374 -0.6515
 3408SOL    HW221684   3.519   4.030   9.871  0.0505 -0.0521 -0.5819
 3409SOL     OW21685   3.052   3.067  17.218 -0.3952 -0.1706  0.1383
 3409SOL    HW121686   3.077   2.979  17.246  0.5359 -0.2807 -1.0489
 3409SOL    HW221687   2.960   3.070  17.242  0.0893  0.5789  1.9336
 3410SOL     OW21688   4.491   4.073   0.787 -0.0270  0.1096  0.3006
 3410SOL    HW121689   4.531   4.160   0.787  1.8090 -0.7207 -2.7623
 3410SOL    HW221690   4.492   4.050   0.880 -0.1751  1.4948  0.6479
 3411SOL     OW21691   1.608   2.657   8.462  0.0356  0.3874 -0.0801
 3411SOL    HW121692   1.693   2.693   8.489  0.0424 -0.0500  0.4737
 3411SOL    HW221693   1.547   2.703   8.519 -0.4931 -0.4192 -0.0040
 3412SOL     OW21694   1.605   2.016  11.971  0.0144  0.1610  0.1485
 3412SOL    HW121695   1.559   2.053  12.047 -0.2940  0.3794 -0.1412
 3412SOL    HW221696   1.622   1.926  11.998 -0.2393  0.0037 -0.2097
 3413SOL     OW21697   3.948   4.043   7.087 -0.1225  0.1925 -0.1662
 3413SOL    HW121698   3.987   3.958   7.104  0.7014  0.5151 -0.4529
 3413SOL    HW221699   3.883   4.064   7.154  0.4699  3.2592 -0.5361
 3414SOL     OW21700   4.463   3.296   9.766  0.2140 -0.1973  0.0835
 3414SOL    HW121701   4.465   3.213   9.719 -2.1162  0.3400 -0.9096
 3414SOL    HW221702   4.546   3.294   9.815  1.0238  0.4882 -1.2793
 3415SOL     OW21703   0.246   4.282   5.628  0.4330  0.6235 -0.3034
 3415SOL    HW121704   0.175   4.218   5.638 -0.6828  1.7307 -0.9853
 3415SOL    HW221705   0.201   4.332   5.559  1.0744 -0.0765 -1.2322
 3416SOL     OW21706   2.608   0.422   3.617  0.3993  1.0497 -0.2220
 3416SOL    HW121707   2.701   0.436   3.598  0.3889  0.5170 -0.6636
 3416SOL    HW221708   2.574   0.379   3.539  0.8102 -0.7054  0.5577
 3417SOL     OW21709   4.633   3.857   4.475  0.3837  0.4316  0.0833
 3417SOL    HW121710   4.574   3.782   4.482 -0.3974  1.0143 -0.2193
 3417SOL    HW221711   4.680   3.835   4.395  1.6917  0.8698  0.7286
 3418SOL     OW21712   4.270   4.327   7.054 -0.1283  0.3921  0.7822
 3418SOL    HW121713   4.255   4.412   7.095  1.0926  0.2519  1.4930
 3418SOL    HW221714   4.251   4.337   6.960  1.6273  1.1807  0.5141
 3419SOL     OW21715   3.066   0.164   1.643 -0.2286 -0.5988  0.0609
 3419SOL    HW121716   3.150   0.142   1.604 -0.5615 -0.6832 -0.5970
 3419SOL    HW221717   3.008   0.096   1.609  0.1923 -2.3569  2.8251
 3420SOL     OW21718   2.570   2.816   1.669  0.0740 -0.3072  0.4539
 3420SOL    HW121719   2.608   2.877   1.732  0.8397  0.4120 -0.7215
 3420SOL    HW221720   2.645   2.784   1.619 -2.2566 -3.2024 -1.2107
 3421SOL     OW21721   2.178   3.467   5.198 -0.2349  0.6319 -0.3824
 3421SOL    HW121722   2.230   3.442   5.121  0.4333  1.3461 -0.1659
 3421SOL    HW221723   2.123   3.535   5.161 -0.0631  0.9491 -0.0445
 3422SOL     OW21724   3.543   3.764  14.657 -1.0692 -0.6557 -0.3063
 3422SOL    HW121725   3.491   3.685  14.643 -2.1322 -0.1017  0.5068
 3422SOL    HW221726   3.612   3.754  14.592 -0.1964 -0.9413  0.6533
 3423SOL     OW21727   0.080   0.935   8.453  0.5987  1.3314 -0.1271
 3423SOL    HW121728   0.106   0.954   8.363  1.4063 -2.6893 -0.7521
 3423SOL    HW221729   4.711   0.921   8.443  0.9153  0.3738 -1.7036
 3424SOL     OW21730   4.179   1.085   7.948  0.0806  0.3584 -0.6217
 3424SOL    HW121731   4.117   1.025   7.989 -1.0800  0.9937 -1.4336
 3424SOL    HW221732   4.156   1.171   7.983 -0.5146 -0.2141  0.3720
 3425SOL     OW21733   2.910   3.645   7.472 -0.5397 -0.3261 -0.2174
 3425SOL    HW121734   2.985   3.666   7.416 -1.4479 -2.5003 -2.2769
 3425SOL    HW221735   2.845   3.708   7.441  0.0847 -0.6074 -2.1187
 3426SOL     OW21736   4.218   0.124   3.284  0.0111 -0.0798 -0.1095
 3426SOL    HW121737   4.195   0.144   3.193 -2.4858  1.5740  0.8901
 3426SOL    HW221738   4.202   0.030   3.282 -0.5798 -0.0649  3.5391
 3427SOL     OW21739   4.077   0.324   5.211 -0.4487 -0.2264 -0.4901
 3427SOL    HW121740   4.047   0.415   5.211  1.6549  0.4765  2.0974
 3427SOL    HW221741   4.158   0.337   5.162  1.6745 -0.7474  2.9064
 3428SOL     OW21742   3.337   2.926   2.486 -0.0403  0.2898 -0.8800
 3428SOL    HW121743   3.317   2.867   2.414  1.3600 -2.4896  1.0092
 3428SOL    HW221744   3.255   2.925   2.537 -0.7256 -1.9726 -2.0049
 3429SOL     OW21745   2.622   0.994   3.424 -0.0732 -0.3071  0.0655
 3429SOL    HW121746   2.584   0.998   3.512  1.9607  1.8616  0.8482
 3429SOL    HW221747   2.691   0.929   3.438  0.3715  0.0224 -0.6314
 3430SOL     OW21748   0.459   3.761   6.192 -0.1162 -0.0571 -0.5610
 3430SOL    HW121749   0.444   3.830   6.257  0.5958 -1.2306  0.8753
 3430SOL    HW221750   0.376   3.713   6.188 -0.2990 -0.1685  3.6178
 3431SOL     OW21751   2.590   3.756   2.403 -0.5349 -0.3422 -0.6380
 3431SOL    HW121752   2.598   3.703   2.324  3.5310 -1.9968  0.8894
 3431SOL    HW221753   2.614   3.704   2.479  1.6392  1.3643 -0.1472
 3432SOL     OW21754   0.112   2.642   6.641 -0.1785 -0.2488  0.6184
 3432SOL    HW121755   0.095   2.735   6.628 -0.7636 -0.3241  0.8139
 3432SOL    HW221756   0.182   2.624   6.579 -0.0335  1.3078  0.3275
 3433SOL     OW21757   3.545   0.473   7.376  0.4747 -0.2350  0.7009
 3433SOL    HW121758   3.547   0.510   7.464 -0.0812 -0.7535  0.9297
 3433SOL    HW221759   3.458   0.492   7.342  0.9010 -1.3042 -0.9876
 3434SOL     OW21760   0.959   1.969   9.569 -0.1482 -0.4841 -0.2433
 3434SOL    HW121761   0.876   1.999   9.605  0.8748 -0.3996  2.0557
 3434SOL    HW221762   0.989   2.046   9.520  1.9866 -1.2221 -0.0852
 3435SOL     OW21763   0.263   0.122   4.912 -0.0276  0.7882 -0.0283
 3435SOL    HW121764   0.260   0.027   4.920  1.6316  0.6111 -1.6305
 3435SOL    HW221765   0.358   0.115   4.914 -0.1178 -0.1389  1.0265
 3436SOL     OW21766   2.135   3.123   0.444 -0.2352  0.2876 -0.1120
 3436SOL    HW121767   2.045   3.132   0.475  0.4153 -1.0267  2.1094
 3436SOL    HW221768   2.124   3.057   0.376  1.2014 -1.2667  1.1736
 3437SOL     OW21769   0.709   1.940  16.769  0.3446 -0.0044 -0.0543
 3437SOL    HW121770   0.748   2.026  16.787 -2.2292  1.2405 -0.4400
 3437SOL    HW221771   0.752   1.877  16.827 -1.5226  0.4183  1.8230
 3438SOL     OW21772   3.887   3.893   9.994  0.4466 -0.2200 -0.2247
 3438SOL    HW121773   3.832   3.963  10.028 -0.2857 -1.0643  0.3216
 3438SOL    HW221774   3.848   3.821  10.043  3.5326 -1.8246 -0.0758
 3439SOL     OW21775   2.280   2.712  16.086  0.4278 -0.1687 -0.0744
 3439SOL    HW121776   2.334   2.673  16.155  1.9817  1.0208 -0.6184
 3439SOL    HW221777   2.202   2.659  16.069  1.4444 -2.1051  1.3292
 3440SOL     OW21778   3.529   4.591   5.841 -0.2047 -0.2337 -0.3805
 3440SOL    HW121779   3.545   4.567   5.749 -0.0520 -0.1098 -0.3859
 3440SOL    HW221780   3.616   4.609   5.875  0.5923 -2.1805 -1.3768
 3441SOL     OW21781   3.026   1.553   0.108 -0.2056 -0.0250  0.2413
 3441SOL    HW121782   2.946   1.605   0.116 -0.0659  0.2019  0.1581
 3441SOL    HW221783   3.042   1.524   0.198 -1.4437  1.0480  0.8153
 3442SOL     OW21784   1.147   1.698   7.453  0.1621 -0.6297 -0.3784
 3442SOL    HW121785   1.081   1.765   7.436 -1.0987 -2.0269 -1.0189
 3442SOL    HW221786   1.093   1.638   7.504 -0.7477 -0.4523 -1.1036
 3443SOL     OW21787   2.962   3.866  15.353 -1.0435  0.2546 -0.0006
 3443SOL    HW121788   2.935   3.957  15.355 -0.2284  0.4651  1.9029
 3443SOL    HW221789   3.014   3.878  15.433 -0.3431 -1.1846 -0.2339
 3444SOL     OW21790   1.389   2.689   2.739 -0.3687 -0.0567  0.1831
 3444SOL    HW121791   1.441   2.697   2.659  1.5999  0.8811  1.5418
 3444SOL    HW221792   1.456   2.708   2.805 -0.0478 -2.2495  0.4783
 3445SOL     OW21793   1.978   1.945  17.062 -0.8008 -0.1023  0.6915
 3445SOL    HW121794   1.882   1.943  17.056 -0.6455 -3.2374 -0.7911
 3445SOL    HW221795   1.989   2.009  17.132 -1.9512 -0.6852  1.4097
 3446SOL     OW21796   2.448   1.210   5.857 -0.6174 -0.3163  0.9003
 3446SOL    HW121797   2.441   1.135   5.916  1.3804 -1.1721  0.0790
 3446SOL    HW221798   2.514   1.258   5.908 -0.1869 -0.8563  0.8510
 3447SOL     OW21799   0.687   1.146   5.482  0.2881 -0.6169 -0.2900
 3447SOL    HW121800   0.761   1.145   5.421 -0.7334 -0.7104 -1.5423
 3447SOL    HW221801   0.617   1.189   5.433  1.5053 -0.5679 -1.9852
 3448SOL     OW21802   3.781   3.397   3.222 -0.1060  0.0462  0.3047
 3448SOL    HW121803   3.869   3.366   3.244 -0.3811 -0.7601  0.2956
 3448SOL    HW221804   3.793   3.485   3.186  0.4925  0.9728  2.8156
 3449SOL     OW21805   1.202   4.535   6.677 -0.0221  0.1538 -0.3858
 3449SOL    HW121806   1.253   4.571   6.604 -1.5672  0.7491 -1.1631
 3449SOL    HW221807   1.166   4.451   6.647 -0.8374  0.7531 -1.0890
 3450SOL     OW21808   2.178   4.384   4.228 -0.0017  0.1904 -0.5859
 3450SOL    HW121809   2.270   4.390   4.251  0.1697  1.8753 -1.6448
 3450SOL    HW221810   2.169   4.418   4.139 -0.1943  3.2523  0.6007
 3451SOL     OW21811   1.874   3.106   3.264  0.2957 -0.0643 -0.2356
 3451SOL    HW121812   1.825   3.045   3.319  0.0646  1.3157  1.1068
 3451SOL    HW221813   1.963   3.092   3.297  0.9793 -0.4045 -2.2176
 3452SOL     OW21814   2.660   4.182   6.061 -0.2273 -0.0205  0.4685
 3452SOL    HW121815   2.616   4.256   6.019  2.0699  0.8818 -0.3342
 3452SOL    HW221816   2.603   4.112   6.027  1.1494 -0.6382 -0.5833
 3453SOL     OW21817   0.392   0.529   4.852 -0.1084 -0.8087  0.0522
 3453SOL    HW121818   0.354   0.459   4.798 -0.8117  0.6653 -1.3616
 3453SOL    HW221819   0.349   0.607   4.816 -2.0154 -1.8561  0.0563
 3454SOL     OW21820   2.626   0.812   7.265  0.1664  0.7625  0.3080
 3454SOL    HW121821   2.654   0.783   7.178 -1.0304 -1.5027  0.6873
 3454SOL    HW221822   2.701   0.788   7.320 -0.5406 -1.4269  0.3229
 3455SOL     OW21823   0.993   1.731   9.692  0.2383 -0.3657  0.1699
 3455SOL    HW121824   1.002   1.805   9.632 -2.1600 -1.0071 -1.0141
 3455SOL    HW221825   0.903   1.742   9.720  0.0918 -1.4330  0.1185
 3456SOL     OW21826   0.495   1.567   1.780  0.0745 -0.3321  0.4122
 3456SOL    HW121827   0.586   1.595   1.789 -0.0576  0.1606  0.2359
 3456SOL    HW221828   0.493   1.517   1.862 -1.5139 -0.1084  0.5085
 3457SOL     OW21829   4.523   4.353   3.346 -0.8184  0.5125  0.0128
 3457SOL    HW121830   4.442   4.356   3.398  0.2995  1.7574  1.7075
 3457SOL    HW221831   4.545   4.260   3.341 -0.7249  0.5903 -0.8616
 3458SOL     OW21832   1.183   1.614  12.686 -0.4441  0.4692  0.3535
 3458SOL    HW121833   1.134   1.692  12.710 -0.2866 -0.0279  2.2663
 3458SOL    HW221834   1.130   1.537  12.708  0.8328 -0.9802 -1.5675
 3459SOL     OW21835   3.489   3.815  16.190 -0.6630 -0.1823 -0.0763
 3459SOL    HW121836   3.536   3.850  16.265 -1.0412  0.1130  0.0142
 3459SOL    HW221837   3.510   3.722  16.200 -1.4648 -0.1241  1.9681
 3460SOL     OW21838   4.052   0.949   6.116 -0.4703  0.2869 -0.2788
 3460SOL    HW121839   4.075   0.917   6.029 -0.2511 -0.2274 -0.0321
 3460SOL    HW221840   4.046   0.871   6.170 -0.0183  1.4121  1.4176
 3461SOL     OW21841   3.744   0.434   9.223  0.4306  0.1423  0.4721
 3461SOL    HW121842   3.778   0.404   9.307 -0.3387 -0.5115  0.5539
 3461SOL    HW221843   3.804   0.508   9.216 -0.1102  0.3791 -1.7204
 3462SOL     OW21844   3.475   2.165   4.412 -0.0809 -0.0090  0.1783
 3462SOL    HW121845   3.459   2.104   4.484 -1.3362 -1.2277 -1.1270
 3462SOL    HW221846   3.543   2.222   4.448 -1.7191  1.8986  0.2225
 3463SOL     OW21847   3.195   1.352  13.040  0.0179  0.5337  0.2536
 3463SOL    HW121848   3.114   1.353  12.989 -0.0876 -1.2853  0.3608
 3463SOL    HW221849   3.168   1.320  13.126  0.2656 -0.1916  0.0658
 3464SOL     OW21850   1.216   0.600   2.490  0.3441  0.4045  0.3036
 3464SOL    HW121851   1.255   0.512   2.489 -0.5657  0.0133 -0.3754
 3464SOL    HW221852   1.219   0.615   2.396 -1.4273 -0.2875  0.1324
 3465SOL     OW21853   4.451   4.218   6.367 -0.5378 -0.2834  0.0091
 3465SOL    HW121854   4.545   4.206   6.380 -0.6766 -0.2772  0.9861
 3465SOL    HW221855   4.442   4.259   6.281 -0.0470  2.8174  1.4307
 3466SOL     OW21856   0.543   3.463   3.863  0.1255 -0.6952 -0.7196
 3466SOL    HW121857   0.629   3.444   3.900 -0.8934 -1.5939  1.1273
 3466SOL    HW221858   0.525   3.372   3.839  1.5582 -1.1115 -0.2146
 3467SOL     OW21859   0.289   4.133   2.516 -0.0493  0.1166  0.1146
 3467SOL    HW121860   0.379   4.128   2.483 -0.0622 -3.1924  0.5821
 3467SOL    HW221861   0.269   4.216   2.473 -0.1539  0.4896  0.8773
 3468SOL     OW21862   4.698   2.837   7.058  0.1005 -0.0500 -0.1766
 3468SOL    HW121863   4.637   2.801   6.994  1.7284 -0.3843 -1.5360
 3468SOL    HW221864   0.006   2.910   7.006 -1.4009 -0.3658 -1.5703
 3469SOL     OW21865   1.679   0.581   1.236 -0.2411  0.5192 -0.4937
 3469SOL    HW121866   1.603   0.626   1.273  0.0697  0.5158  0.1447
 3469SOL    HW221867   1.642   0.501   1.198  0.6218 -1.7496  3.3920
 3470SOL     OW21868   2.311   2.772   2.371 -0.1218 -0.4790  0.2499
 3470SOL    HW121869   2.234   2.759   2.317  0.7972  3.0781 -1.9400
 3470SOL    HW221870   2.274   2.771   2.459  1.4286  0.5460  0.9164
 3471SOL     OW21871   1.658   3.080   5.257 -0.0190 -0.2178 -0.6327
 3471SOL    HW121872   1.721   3.149   5.274  0.4416 -0.7155 -0.3169
 3471SOL    HW221873   1.671   3.015   5.326  0.6424  0.4089 -0.1783
 3472SOL     OW21874   1.176   3.413   7.455 -0.2423  0.4390 -0.1442
 3472SOL    HW121875   1.269   3.429   7.476 -0.6798  1.8388  0.7569
 3472SOL    HW221876   1.139   3.499   7.475 -0.8857 -0.4080  2.3262
 3473SOL     OW21877   2.795   1.510   4.516  0.4976  0.6404 -0.0387
 3473SOL    HW121878   2.837   1.596   4.511 -0.0595  0.7810 -2.4837
 3473SOL    HW221879   2.821   1.504   4.608 -0.1370 -2.4079 -0.0554
 3474SOL     OW21880   4.275   2.208   7.192 -0.0390  0.2915  0.0325
 3474SOL    HW121881   4.312   2.230   7.277 -2.6173  1.2882  0.8936
 3474SOL    HW221882   4.218   2.284   7.182 -0.6817 -0.1479  0.4342
 3475SOL     OW21883   4.400   3.280   8.242  0.2691 -0.2236 -0.2866
 3475SOL    HW121884   4.489   3.307   8.219  0.0638  1.6365  1.1339
 3475SOL    HW221885   4.360   3.362   8.270  2.0324  0.0345  1.4723
 3476SOL     OW21886   0.593   1.485   0.958  0.6358  0.0029  0.5769
 3476SOL    HW121887   0.537   1.478   0.881  2.2638 -0.8957 -0.5266
 3476SOL    HW221888   0.613   1.578   0.969 -0.8044  0.4777 -0.8999
 3477SOL     OW21889   2.291   4.558   2.006 -0.2274 -0.4899 -0.4383
 3477SOL    HW121890   2.294   4.619   1.932 -0.2138 -1.1545 -0.9825
 3477SOL    HW221891   2.382   4.527   2.012 -0.3556 -0.7431  0.1438
 3478SOL     OW21892   0.109   2.691   0.580  0.5402  0.1194 -0.4916
 3478SOL    HW121893   0.059   2.622   0.624 -1.8353  1.4880 -1.0490
 3478SOL    HW221894   0.194   2.697   0.624 -0.1699  1.1298  0.7594
 3479SOL     OW21895   4.356   1.598   2.928 -0.4534  0.5630  0.1351
 3479SOL    HW121896   4.437   1.558   2.897 -0.9042 -1.1045  1.1162
 3479SOL    HW221897   4.399   1.662   2.984 -0.9958  0.5437  0.5837
 3480SOL     OW21898   4.694   0.460   2.609 -0.6558 -0.0771 -0.4420
 3480SOL    HW121899   4.707   0.489   2.700 -1.4276  1.2830 -0.7661
 3480SOL    HW221900   4.717   0.542   2.566 -0.1435  0.3532  0.6301
 3481SOL     OW21901   4.152   2.512  16.380 -0.6697 -0.2845 -0.6053
 3481SOL    HW121902   4.068   2.472  16.401 -0.4825 -1.1204 -1.4511
 3481SOL    HW221903   4.156   2.582  16.445 -2.3506 -0.0040 -0.7973
 3482SOL     OW21904   3.316   3.089   5.540 -0.4513  0.6047 -0.5301
 3482SOL    HW121905   3.387   3.120   5.484  0.3218 -1.0498 -0.4494
 3482SOL    HW221906   3.332   3.140   5.619 -2.0682  4.2286 -2.5292
 3483SOL     OW21907   0.676   2.203  16.980  0.8605  0.4180  0.1492
 3483SOL    HW121908   0.592   2.158  16.969  0.6563  0.7582  0.3297
 3483SOL    HW221909   0.653   2.279  17.033 -2.7254  2.2937 -4.1875
 3484SOL     OW21910   0.661   2.295  14.545 -0.1037  0.1017 -0.3558
 3484SOL    HW121911   0.654   2.293  14.450 -0.2214  1.1928 -0.3665
 3484SOL    HW221912   0.744   2.248  14.557  0.1014  0.1779 -1.4576
 3485SOL     OW21913   2.332   4.415   6.122  0.1899 -0.3175  0.5347
 3485SOL    HW121914   2.371   4.347   6.067  0.4766 -0.0197  0.3792
 3485SOL    HW221915   2.288   4.369   6.195 -0.3977  2.0310  1.6731
 3486SOL     OW21916   2.279   3.806   2.601  0.5513  0.3589 -0.1297
 3486SOL    HW121917   2.337   3.732   2.583  1.4180  1.2669 -1.0410
 3486SOL    HW221918   2.317   3.877   2.550  1.5079 -0.7512 -0.9437
 3487SOL     OW21919   0.877   2.140  16.633  0.1531  0.0271 -0.0072
 3487SOL    HW121920   0.800   2.192  16.611 -0.0518  1.9539  5.1133
 3487SOL    HW221921   0.873   2.082  16.558  0.0826 -1.8709  1.4744
 3488SOL     OW21922   0.673   1.699   3.470  0.1517  0.7916 -0.2598
 3488SOL    HW121923   0.711   1.777   3.510  1.6430 -0.4016  0.6604
 3488SOL    HW221924   0.734   1.694   3.397  1.0530  0.6017  0.5067
 3489SOL     OW21925   2.521   3.681  14.243  0.3519  0.1262 -0.0521
 3489SOL    HW121926   2.465   3.756  14.265 -1.1770 -1.1087  0.2578
 3489SOL    HW221927   2.587   3.691  14.311 -0.9400 -0.3191  1.2562
 3490SOL     OW21928   3.058   2.861   1.961  0.2807 -0.3204  0.5483
 3490SOL    HW121929   3.062   2.823   2.049  2.3001  0.9054  0.9705
 3490SOL    HW221930   2.974   2.906   1.973  0.3478 -0.2226  0.6496
 3491SOL     OW21931   4.458   3.166  14.479 -0.3295 -0.7286 -0.4611
 3491SOL    HW121932   4.553   3.178  14.478 -0.4135  0.2348  1.1706
 3491SOL    HW221933   4.419   3.253  14.487 -1.4326 -1.4020  1.4488
 3492SOL     OW21934   0.474   2.589   3.027 -0.3022 -0.4499 -0.4569
 3492SOL    HW121935   0.389   2.552   3.005 -0.9190  0.2794  0.6834
 3492SOL    HW221936   0.464   2.670   2.977 -1.1597  1.0618  2.1532
 3493SOL     OW21937   0.216   2.899  14.382  0.0761  0.1495  0.4480
 3493SOL    HW121938   0.136   2.862  14.347  0.9594 -1.2163 -0.1365
 3493SOL    HW221939   0.223   2.975  14.325 -1.0233  0.5407  0.8312
 3494SOL     OW21940   1.724   1.402   8.494 -0.3114  0.4674 -0.4997
 3494SOL    HW121941   1.633   1.398   8.525  0.6526  1.6198  2.4725
 3494SOL    HW221942   1.721   1.475   8.433 -1.1780 -0.8251 -2.0253
 3495SOL     OW21943   3.678   2.384  10.506 -0.3502 -0.1125  0.5675
 3495SOL    HW121944   3.606   2.410  10.449  1.5755  0.3990 -1.5956
 3495SOL    HW221945   3.743   2.365  10.439 -1.1826 -2.4352  0.4064
 3496SOL     OW21946   3.152   2.343   7.185  0.1535  0.5123  0.1161
 3496SOL    HW121947   3.184   2.272   7.241 -1.2739 -0.9195 -0.8701
 3496SOL    HW221948   3.236   2.387   7.170 -0.4946  2.0131  0.9203
 3497SOL     OW21949   3.997   2.665  14.376 -0.0680  0.5499  0.1478
 3497SOL    HW121950   4.056   2.705  14.439  0.3534 -0.3356  0.3092
 3497SOL    HW221951   3.938   2.741  14.373  1.1893  1.6050  2.2191
 3498SOL     OW21952   2.653   4.373   1.948  0.3756 -0.3776 -0.6644
 3498SOL    HW121953   2.729   4.335   1.905 -0.2937  1.1800 -3.1982
 3498SOL    HW221954   2.589   4.312   1.912  1.3084 -0.9473 -1.3416
 3499SOL     OW21955   3.550   1.399   1.980 -0.3966 -0.2271 -0.0593
 3499SOL    HW121956   3.622   1.462   1.974 -0.6374 -0.0665 -1.2877
 3499SOL    HW221957   3.483   1.444   1.929  1.5636  0.8804 -1.6475
 3500SOL     OW21958   2.556   3.559  12.466 -0.1788  0.0212 -0.3742
 3500SOL    HW121959   2.642   3.594  12.443 -0.4409  0.0932 -1.2192
 3500SOL    HW221960   2.517   3.578  12.381 -1.2320  0.8781  0.3032
 3501SOL     OW21961   3.286   3.159   4.298  0.1894 -0.3410 -0.2584
 3501SOL    HW121962   3.310   3.076   4.339  3.0081  1.9509  2.7171
 3501SOL    HW221963   3.359   3.163   4.236 -1.1475 -1.3184 -1.8909
 3502SOL     OW21964   3.303   1.972   3.573 -0.1651  0.3349  0.1325
 3502SOL    HW121965   3.277   1.881   3.561  2.0058 -0.2113 -0.5307
 3502SOL    HW221966   3.219   2.016   3.562  1.0365  2.2177 -1.5125
 3503SOL     OW21967   0.076   0.036   4.686 -0.5478 -0.6353  0.2028
 3503SOL    HW121968   0.058   4.674   4.721 -0.4325  0.5725  3.2626
 3503SOL    HW221969   0.047   0.105   4.745 -1.9538 -0.7895 -0.3026
 3504SOL     OW21970   4.283   0.278   1.144 -0.3232  0.0674 -0.1876
 3504SOL    HW121971   4.270   0.372   1.135  1.2055  0.3998  1.0359
 3504SOL    HW221972   4.256   0.279   1.236 -3.0871 -0.9392 -0.9709
 3505SOL     OW21973   2.378   0.912  11.826  0.3919  0.2207  0.0741
 3505SOL    HW121974   2.466   0.899  11.863  0.6265  1.1179 -0.1629
 3505SOL    HW221975   2.389   0.987  11.768 -0.2171  2.8875  3.3596
 3506SOL     OW21976   1.890   4.217   7.223 -0.0218 -0.0205 -0.1080
 3506SOL    HW121977   1.851   4.289   7.272  2.6598 -0.8753  3.3358
 3506SOL    HW221978   1.952   4.171   7.280 -1.8081 -0.6019  1.3775
 3507SOL     OW21979   3.967   3.381   7.258  0.7676 -0.5327  0.0567
 3507SOL    HW121980   3.937   3.291   7.254 -4.3804  1.0667  2.5621
 3507SOL    HW221981   4.061   3.365   7.246  1.0910  1.7242 -0.5154
 3508SOL     OW21982   4.589   2.422   0.147 -0.3751 -0.3027  0.0660
 3508SOL    HW121983   4.600   2.329   0.124  0.4231 -0.0697 -0.4805
 3508SOL    HW221984   4.620   2.456   0.063  0.7489  1.3069  1.1269
 3509SOL     OW21985   4.576   1.987  16.133 -0.7783 -0.0821  0.0871
 3509SOL    HW121986   4.653   1.938  16.107 -0.5789  0.4736 -0.3917
 3509SOL    HW221987   4.551   2.022  16.047  0.7304  1.3853  0.2416
 3510SOL     OW21988   0.631   2.696   5.807 -0.0010  0.1915  0.0721
 3510SOL    HW121989   0.633   2.648   5.890  1.0958  0.5338  0.2552
 3510SOL    HW221990   0.722   2.726   5.795  1.5492 -3.8396  1.8174
 3511SOL     OW21991   1.096   2.770   3.075  0.2719 -0.2510 -0.8033
 3511SOL    HW121992   1.102   2.804   2.986  0.4089  2.2994  0.1963
 3511SOL    HW221993   1.183   2.795   3.107  0.0132  0.1375 -0.3964
 3512SOL     OW21994   3.271   1.700   9.765  0.2768 -0.1277 -0.2017
 3512SOL    HW121995   3.257   1.775   9.708 -2.1761 -1.6578 -1.6029
 3512SOL    HW221996   3.353   1.720   9.810  0.3003  1.5107 -0.9599
 3513SOL     OW21997   2.263   0.261  15.717 -0.5174  0.1382 -0.2541
 3513SOL    HW121998   2.270   0.355  15.698 -1.4214  0.1943 -0.2907
 3513SOL    HW221999   2.346   0.230  15.681 -1.4329 -1.1482 -1.2749
 3514SOL     OW22000   4.003   0.374   8.193  0.3250 -0.5250 -0.1852
 3514SOL    HW122001   3.983   0.284   8.221  0.1251 -0.5303 -0.3461
 3514SOL    HW222002   4.049   0.364   8.110  0.0923 -1.7745 -0.1645
 3515SOL     OW22003   1.424   4.279   3.689  0.0122  0.0822  0.1223
 3515SOL    HW122004   1.382   4.193   3.695 -0.1498  0.2412  1.2704
 3515SOL    HW222005   1.472   4.277   3.771 -1.0939  1.3186  0.7894
 3516SOL     OW22006   2.202   0.332   0.247 -0.3130 -0.0549 -0.0335
 3516SOL    HW122007   2.121   0.325   0.197 -0.4318  0.8275  0.0377
 3516SOL    HW222008   2.173   0.268   0.313  0.6021 -1.5034 -1.0403
 3517SOL     OW22009   0.004   2.483   3.269 -0.3048 -0.3410 -0.1172
 3517SOL    HW122010   0.030   2.416   3.205 -2.8117 -1.2228 -0.2248
 3517SOL    HW222011   0.032   2.559   3.218  0.9018 -0.7936 -0.1449
 3518SOL     OW22012   2.181   1.316   8.140 -0.0217 -0.1928 -0.5203
 3518SOL    HW122013   2.214   1.367   8.213 -1.0267  0.4597 -0.5126
 3518SOL    HW222014   2.170   1.228   8.175  1.0489 -0.3120 -0.4984
 3519SOL     OW22015   3.104   0.653   5.283 -0.6789  0.3505 -0.1398
 3519SOL    HW122016   3.066   0.713   5.347  0.0405  0.0676  0.5519
 3519SOL    HW222017   3.139   0.586   5.342 -2.3157 -1.4338 -1.1735
 3520SOL     OW22018   0.813   3.610   5.681  0.0235  0.2602 -0.2060
 3520SOL    HW122019   0.729   3.654   5.665  0.5842  1.0282 -1.0152
 3520SOL    HW222020   0.826   3.560   5.600 -0.7224  1.4122 -1.0421
 3521SOL     OW22021   3.256   1.851  16.922 -0.1699  0.2425  0.6365
 3521SOL    HW122022   3.249   1.855  17.017  1.5268 -1.2093  0.8063
 3521SOL    HW222023   3.341   1.893  16.910  0.4281 -0.9495  0.6875
 3522SOL     OW22024   0.999   3.360   1.510  0.5558  0.0697  0.5378
 3522SOL    HW122025   1.016   3.437   1.456 -0.7516  1.2004  1.7133
 3522SOL    HW222026   0.962   3.303   1.443 -0.0730 -1.7163  2.4170
 3523SOL     OW22027   0.969   3.141  15.047  0.2590  0.1048  0.3370
 3523SOL    HW122028   0.920   3.058  15.050 -1.2246  0.9314 -0.9112
 3523SOL    HW222029   0.909   3.199  15.000 -1.6799 -0.0421  2.5837
 3524SOL     OW22030   2.940   1.758  15.591  0.0691  0.5193 -0.1007
 3524SOL    HW122031   2.953   1.820  15.663 -3.1622  0.6133  0.4021
 3524SOL    HW222032   2.846   1.741  15.598  0.4951 -1.8641 -0.1072
 3525SOL     OW22033   1.676   2.161   8.960  0.2522  0.2049  0.2559
 3525SOL    HW122034   1.629   2.244   8.953  0.0348  0.0814  0.2650
 3525SOL    HW222035   1.692   2.147   8.867 -1.2830  1.0365 -0.1279
 3526SOL     OW22036   1.501   1.587   3.096  0.2255  0.0923  0.0331
 3526SOL    HW122037   1.483   1.543   3.013  1.6509 -0.2055 -0.1152
 3526SOL    HW222038   1.456   1.670   3.079 -0.8094 -0.1877  1.4616
 3527SOL     OW22039   4.300   4.655  14.696  0.1030  0.0211 -0.1918
 3527SOL    HW122040   4.339   4.669  14.610 -1.8393  1.4053 -0.8493
 3527SOL    HW222041   4.245   4.580  14.671  1.1182 -0.7397 -0.1184
 3528SOL     OW22042   2.419   0.648   5.540  0.3077  1.0845  0.2491
 3528SOL    HW122043   2.456   0.568   5.504 -1.5646  0.6518 -0.7256
 3528SOL    HW222044   2.329   0.630   5.566  0.6593 -0.8034  0.1281
 3529SOL     OW22045   3.348   0.318  14.527 -0.2580 -0.0085 -0.0778
 3529SOL    HW122046   3.425   0.269  14.557 -1.0391 -0.8946  0.4519
 3529SOL    HW222047   3.366   0.335  14.435 -2.1366 -0.4944 -0.5248
 3530SOL     OW22048   1.939   1.718   9.165  0.9782 -0.0741  0.1433
 3530SOL    HW122049   2.014   1.660   9.157 -0.4129 -1.2975 -4.0967
 3530SOL    HW222050   1.971   1.797   9.121 -0.2918  0.1038 -0.4579
 3531SOL     OW22051   1.302   3.664  13.806  0.3321 -0.7424 -0.3077
 3531SOL    HW122052   1.225   3.609  13.794  1.0827 -2.1408  1.2563
 3531SOL    HW222053   1.354   3.634  13.732  0.1818 -2.0711  0.1191
 3532SOL     OW22054   1.328   1.368  13.331  0.1489 -0.0430 -0.5593
 3532SOL    HW122055   1.362   1.363  13.242  1.3820 -1.8054  0.0138
 3532SOL    HW222056   1.290   1.456  13.332  1.1100  0.3693  0.0191
 3533SOL     OW22057   3.301   2.958  17.367 -0.4266  0.0128 -0.2223
 3533SOL    HW122058   3.271   2.873  17.397 -1.2765  0.5776  0.5347
 3533SOL    HW222059   3.339   2.934  17.282 -0.3909  2.3905 -0.8971
 3534SOL     OW22060   0.675   3.241   8.400  0.4504  0.4046 -0.2301
 3534SOL    HW122061   0.731   3.319   8.400  0.3016  0.4888  3.2404
 3534SOL    HW222062   0.746   3.182   8.425  1.0607  0.2446 -2.3177
 3535SOL     OW22063   0.606   4.178   5.921  0.5489 -0.0440  0.1140
 3535SOL    HW122064   0.623   4.115   5.991  1.3477 -2.2564 -2.1193
 3535SOL    HW222065   0.631   4.133   5.841 -1.1954  0.3360 -0.6552
 3536SOL     OW22066   1.274   4.471   2.333  0.5192 -0.1989  0.4036
 3536SOL    HW122067   1.328   4.499   2.406  2.4002  0.1279 -1.1105
 3536SOL    HW222068   1.332   4.425   2.272  0.4633  0.9461 -0.5209
 3537SOL     OW22069   1.311   2.477   6.310 -0.4519 -0.5835 -0.2509
 3537SOL    HW122070   1.369   2.438   6.244 -2.9793 -3.6048 -0.7038
 3537SOL    HW222071   1.227   2.482   6.264 -0.6999  1.6955  0.4564
 3538SOL     OW22072   0.854   1.702   4.543 -0.3523 -0.3058 -0.2016
 3538SOL    HW122073   0.767   1.740   4.554 -0.6938 -0.3127 -2.8462
 3538SOL    HW222074   0.842   1.608   4.532  1.3787 -0.4453 -0.8831
 3539SOL     OW22075   3.057   4.016   4.080  0.0846 -0.0221  0.3885
 3539SOL    HW122076   3.085   3.963   4.006  0.0156 -1.4712  1.3891
 3539SOL    HW222077   2.972   4.054   4.059 -1.3389 -2.5646  1.4924
 3540SOL     OW22078   3.508   1.665   8.232 -0.4510  1.1824  0.7008
 3540SOL    HW122079   3.486   1.716   8.154  2.3154 -0.0477 -0.8954
 3540SOL    HW222080   3.441   1.597   8.231 -0.2919  1.0643 -2.1847
 3541SOL     OW22081   1.565   0.784   3.220 -0.7083 -0.1842 -0.6600
 3541SOL    HW122082   1.576   0.702   3.172 -3.2203 -1.6261  1.1776
 3541SOL    HW222083   1.536   0.754   3.307  1.0340  1.3265  0.4371
 3542SOL     OW22084   2.525   1.329   7.338 -0.1485  0.1674 -0.3902
 3542SOL    HW122085   2.514   1.237   7.362  1.9099 -0.3497 -1.4509
 3542SOL    HW222086   2.472   1.330   7.258 -2.1851 -1.1880  0.9502
 3543SOL     OW22087   1.403   3.556   4.531  0.0334 -0.5734 -0.1303
 3543SOL    HW122088   1.482   3.529   4.578 -0.4085 -1.4699  0.0904
 3543SOL    HW222089   1.395   3.488   4.464  0.0873  0.9141 -1.6551
 3544SOL     OW22090   1.839   1.911   3.713  0.2140 -0.1154 -0.3445
 3544SOL    HW122091   1.797   1.910   3.799  0.8332  0.2671 -0.0335
 3544SOL    HW222092   1.928   1.895   3.745  1.0170  2.6115 -1.1498
 3545SOL     OW22093   0.950   0.259   0.643 -0.4373 -0.0260 -0.1510
 3545SOL    HW122094   0.914   0.231   0.727  1.2869 -2.3249 -0.1429
 3545SOL    HW222095   1.038   0.221   0.649  0.1197  1.1286 -0.9244
 3546SOL     OW22096   2.518   3.292   6.961 -0.1183 -0.9516  0.0343
 3546SOL    HW122097   2.558   3.207   6.977 -1.1389 -1.2719  0.9574
 3546SOL    HW222098   2.528   3.338   7.045  0.4071  0.0443 -0.5755
 3547SOL     OW22099   0.335   4.364   8.175  0.1377 -0.0022 -0.1613
 3547SOL    HW122100   0.398   4.397   8.111  2.4987 -4.6182 -0.2151
 3547SOL    HW222101   0.267   4.432   8.180 -1.0950 -1.2031 -0.6250
 3548SOL     OW22102   0.182   1.768   2.571 -0.3595 -0.1409  0.3706
 3548SOL    HW122103   0.164   1.718   2.650  0.3441  0.5597  0.9745
 3548SOL    HW222104   0.268   1.734   2.547 -1.3285 -1.7091 -0.8559
 3549SOL     OW22105   2.122   1.662   4.417  0.0408  0.0959 -0.6203
 3549SOL    HW122106   2.111   1.615   4.335 -0.2802 -1.0004  0.0497
 3549SOL    HW222107   2.086   1.598   4.478  0.6308  0.1319 -0.2337
 3550SOL     OW22108   3.900   0.332  12.976 -0.0496 -0.1628  0.0556
 3550SOL    HW122109   3.950   0.342  13.057  0.1684  0.6734 -0.1798
 3550SOL    HW222110   3.943   0.254  12.940  2.1962  2.0327 -2.0488
 3551SOL     OW22111   4.513   0.227   3.643  0.1351 -0.4071 -0.1100
 3551SOL    HW122112   4.607   0.232   3.625  0.2420  2.0010  1.1711
 3551SOL    HW222113   4.481   0.182   3.564 -0.8643 -2.3869  1.4280
 3552SOL     OW22114   3.752   0.122   7.776 -0.0590  0.0653 -0.4255
 3552SOL    HW122115   3.661   0.135   7.753 -1.1809 -0.1349  3.9715
 3552SOL    HW222116   3.803   0.155   7.702 -0.2850 -0.7980 -0.9659
 3553SOL     OW22117   2.089   2.602   3.603  0.3422  0.5454  0.3280
 3553SOL    HW122118   2.096   2.669   3.535  1.9902  0.1029  0.0638
 3553SOL    HW222119   2.064   2.521   3.558 -1.6310  1.8940 -0.9647
 3554SOL     OW22120   0.522   4.220   1.870 -0.2807  0.0370 -0.1993
 3554SOL    HW122121   0.445   4.178   1.908 -0.3353 -1.4727 -1.9952
 3554SOL    HW222122   0.572   4.220   1.952  0.7118  0.9172 -0.8118
 3555SOL     OW22123   1.862   2.610   2.831 -0.1457 -0.0667  0.4800
 3555SOL    HW122124   1.909   2.569   2.758  0.7723 -0.7344  1.4623
 3555SOL    HW222125   1.865   2.701   2.801 -0.3003 -0.8846 -2.0834
 3556SOL     OW22126   4.039   3.311   3.291 -0.0335  0.0123 -0.5728
 3556SOL    HW122127   4.085   3.320   3.208  0.9373  2.6902  0.2715
 3556SOL    HW222128   4.095   3.370   3.342 -0.6781  0.2701 -0.1620
 3557SOL     OW22129   4.445   0.098   0.933  0.8421  0.2686  0.0336
 3557SOL    HW122130   4.452   0.101   1.028  0.8649  1.2155  0.0018
 3557SOL    HW222131   4.419   0.189   0.920 -0.5541 -0.1383  0.0558
 3558SOL     OW22132   2.220   2.277   4.087  0.5758 -0.0432 -0.7550
 3558SOL    HW122133   2.162   2.304   4.016  0.8245 -0.7302 -1.2243
 3558SOL    HW222134   2.306   2.277   4.045  1.8886  1.0447  1.9496
 3559SOL     OW22135   3.729   4.466   7.054 -0.3664  0.0424 -0.6340
 3559SOL    HW122136   3.662   4.411   7.095 -0.7027  1.0665  0.1856
 3559SOL    HW222137   3.681   4.510   6.985 -2.8160 -0.0577  1.0253
 3560SOL     OW22138   0.995   2.672  14.694 -0.8074  0.2846  0.2878
 3560SOL    HW122139   1.043   2.594  14.720  0.1478  0.3885 -1.2134
 3560SOL    HW222140   0.907   2.637  14.678 -0.7036 -0.6471  1.7208
 3561SOL     OW22141   2.821   0.264  12.396 -0.3183  0.2439  0.2546
 3561SOL    HW122142   2.813   0.228  12.484 -1.0904  1.6181  0.7433
 3561SOL    HW222143   2.845   0.179  12.359 -1.3446  0.1138 -0.1017
 3562SOL     OW22144   2.962   1.404  15.453 -0.1057 -0.3907  0.0085
 3562SOL    HW122145   2.878   1.419  15.411  0.6629  1.1805 -0.9816
 3562SOL    HW222146   2.988   1.487  15.494 -2.7542  0.3516  0.1640
 3563SOL     OW22147   4.557   2.797  10.524  0.6011  0.2915  0.3009
 3563SOL    HW122148   4.501   2.745  10.582  0.0599  0.0283 -0.4511
 3563SOL    HW222149   4.645   2.773  10.553  0.6491  0.9868  0.7269
 3564SOL     OW22150   2.691   4.505   2.605 -0.3485  0.3479  0.2442
 3564SOL    HW122151   2.785   4.493   2.588  0.5189  1.1382  4.3479
 3564SOL    HW222152   2.651   4.472   2.525  2.3165  0.0287 -0.9836
 3565SOL     OW22153   1.429   0.602   6.566 -0.4270 -0.0989  0.6833
 3565SOL    HW122154   1.334   0.595   6.580 -0.6976  0.1417 -1.0847
 3565SOL    HW222155   1.439   0.516   6.524  0.5468  0.5514 -0.3903
 3566SOL     OW22156   1.496   4.564  17.129 -0.3748  0.3371 -0.0375
 3566SOL    HW122157   1.497   4.546  17.035  1.0945 -0.2203  0.0946
 3566SOL    HW222158   1.416   4.516  17.150  0.4167 -0.2385  1.6204
 3567SOL     OW22159   0.713   3.797  13.848 -0.1449  0.2893  0.1223
 3567SOL    HW122160   0.788   3.775  13.903  0.3495  0.3514 -0.5387
 3567SOL    HW222161   0.647   3.742  13.891 -1.3048  1.8127  0.3151
 3568SOL     OW22162   3.571   3.223   9.875 -0.3792 -0.2244 -0.2214
 3568SOL    HW122163   3.589   3.255   9.787 -1.1393 -0.0978 -0.3250
 3568SOL    HW222164   3.656   3.181   9.890 -0.9844 -0.8270  1.6012
 3569SOL     OW22165   0.543   2.417   7.244  0.2875 -0.0418  0.5710
 3569SOL    HW122166   0.597   2.413   7.166  1.7430  1.7710  1.4889
 3569SOL    HW222167   0.481   2.348   7.221  2.2864 -1.4993 -0.4431
 3570SOL     OW22168   4.451   4.346  16.074  0.2158 -0.2494  0.0620
 3570SOL    HW122169   4.436   4.415  16.010  1.4232  1.4073  1.5504
 3570SOL    HW222170   4.535   4.362  16.117 -0.6320 -1.3370  2.1319
 3571SOL     OW22171   1.900   4.437   2.983  0.2857 -0.2412  0.9231
 3571SOL    HW122172   1.926   4.427   2.892  0.4193 -1.0723  1.0441
 3571SOL    HW222173   1.942   4.359   3.021  1.5042 -1.1166 -2.2164
 3572SOL     OW22174   4.416   1.385  10.189  0.4016 -0.1465 -0.0503
 3572SOL    HW122175   4.472   1.313  10.160  0.7737  1.6023 -3.6096
 3572SOL    HW222176   4.459   1.412  10.271  0.9574  0.2389 -0.4729
 3573SOL     OW22177   2.327   0.861  16.752  0.0930  0.0714 -0.4811
 3573SOL    HW122178   2.318   0.776  16.711 -1.6962  0.7632 -1.5064
 3573SOL    HW222179   2.241   0.895  16.728 -1.0985 -3.5128 -1.1945
 3574SOL     OW22180   2.729   0.209   4.459  0.3297 -0.2940  0.1455
 3574SOL    HW122181   2.710   0.232   4.368  0.1159 -2.6688 -0.4152
 3574SOL    HW222182   2.824   0.206   4.471  0.3471 -0.5989 -0.0579
 3575SOL     OW22183   4.288   4.170   3.687  0.3208  0.4969 -0.2880
 3575SOL    HW122184   4.204   4.126   3.699 -0.8156  2.4389 -1.1366
 3575SOL    HW222185   4.340   4.094   3.663 -0.5254 -0.3491  0.5485
 3576SOL     OW22186   0.042   0.250  14.731 -0.5347  0.1668  0.2390
 3576SOL    HW122187   0.085   0.180  14.779 -1.8028 -0.6439  0.1926
 3576SOL    HW222188   4.698   0.280  14.790 -1.0341 -0.8250  0.1563
 3577SOL     OW22189   4.434   3.774  16.915  0.7041 -0.0217 -0.2000
 3577SOL    HW122190   4.429   3.685  16.948  0.5111  0.7957  2.0006
 3577SOL    HW222191   4.357   3.777  16.858 -0.6579  0.6049  1.6851
 3578SOL     OW22192   0.867   3.847   6.480 -0.1126 -0.0526  0.5069
 3578SOL    HW122193   0.905   3.847   6.392  0.1193  2.7109  0.6065
 3578SOL    HW222194   0.943   3.814   6.530  0.7054  1.6499  0.3756
 3579SOL     OW22195   2.715   4.145   4.204 -0.0780 -0.1771 -0.3940
 3579SOL    HW122196   2.761   4.186   4.131  0.2204 -0.1141 -0.1694
 3579SOL    HW222197   2.673   4.066   4.170 -0.1855  0.3852 -1.5435
 3580SOL     OW22198   2.236   4.610   6.995  0.4721  0.4263  0.2811
 3580SOL    HW122199   2.243   4.706   6.994  2.1412  0.3057 -0.7335
 3580SOL    HW222200   2.144   4.596   7.017  0.6148  1.5900  1.6192
 3581SOL     OW22201   2.298   1.208  16.287 -0.3277  0.5172  0.1682
 3581SOL    HW122202   2.272   1.117  16.303  0.4705  0.3384  0.4422
 3581SOL    HW222203   2.230   1.252  16.338  0.3135  1.2538  0.3845
 3582SOL     OW22204   0.658   1.644   5.411  0.3468 -0.2979  0.4926
 3582SOL    HW122205   0.620   1.599   5.487 -1.2796 -1.1137 -0.7773
 3582SOL    HW222206   0.706   1.715   5.453 -0.1299 -1.0426  2.2982
 3583SOL     OW22207   3.085   0.788   4.809  0.4629 -0.4836  0.3814
 3583SOL    HW122208   2.992   0.767   4.797  0.8605 -2.2526  0.3541
 3583SOL    HW222209   3.108   0.846   4.737  0.4498 -1.5892 -0.5221
 3584SOL     OW22210   0.956   2.650   0.858 -0.5961 -0.0275  0.6230
 3584SOL    HW122211   0.987   2.565   0.826  0.4743  0.4505  0.3791
 3584SOL    HW222212   0.862   2.647   0.847 -0.8180 -2.2498  2.9577
 3585SOL     OW22213   1.015   4.370   2.409  0.0884  0.2224 -0.1602
 3585SOL    HW122214   1.078   4.431   2.373 -1.7030  3.6954  2.6044
 3585SOL    HW222215   1.052   4.362   2.497  1.3117 -0.8024 -0.7755
 3586SOL     OW22216   4.386   2.206   5.713  0.5329 -0.6218 -0.1324
 3586SOL    HW122217   4.425   2.157   5.641  1.0982 -0.6184  0.1729
 3586SOL    HW222218   4.458   2.229   5.771  0.2655 -2.0148  0.7398
 3587SOL     OW22219   2.406   1.790   5.525  0.3703  0.0014 -0.1771
 3587SOL    HW122220   2.334   1.747   5.478  0.0399 -1.2222  1.4287
 3587SOL    HW222221   2.414   1.728   5.597 -0.0692  0.3438  0.1685
 3588SOL     OW22222   3.948   4.048   8.145  0.3891  0.1716  0.6402
 3588SOL    HW122223   3.866   4.033   8.193 -0.1074  0.6505 -0.0520
 3588SOL    HW222224   3.937   4.142   8.132 -0.4242 -0.0352 -0.2248
 3589SOL     OW22225   2.326   2.413  13.820 -0.5782  0.1502 -0.3344
 3589SOL    HW122226   2.295   2.361  13.894 -1.2030 -1.6786 -1.8675
 3589SOL    HW222227   2.249   2.411  13.763 -2.1184  2.1615  1.6866
 3590SOL     OW22228   2.999   1.566   2.832 -0.9779  0.0012 -0.2448
 3590SOL    HW122229   3.075   1.552   2.889 -0.6259 -0.5078 -0.8528
 3590SOL    HW222230   3.040   1.637   2.784 -0.0028 -1.2151 -1.1943
 3591SOL     OW22231   2.816   2.450   9.830  0.6796  0.8567 -0.3005
 3591SOL    HW122232   2.843   2.508   9.759 -1.8883  2.1370 -0.2247
 3591SOL    HW222233   2.760   2.395   9.776  1.8349 -0.2151 -0.4082
 3592SOL     OW22234   3.013   3.808   9.449  0.3370 -0.1778  0.1266
 3592SOL    HW122235   2.932   3.770   9.416 -1.0684  1.4675  1.7390
 3592SOL    HW222236   3.048   3.859   9.376  1.1908 -0.2058  0.5073
 3593SOL     OW22237   4.292   3.122   3.141  0.2760 -0.3934 -0.2058
 3593SOL    HW122238   4.320   3.056   3.078  0.5840  0.8779 -1.4035
 3593SOL    HW222239   4.202   3.132   3.110 -1.0662 -2.9127  2.8192
 3594SOL     OW22240   1.231   2.489   4.604  0.3936 -0.7710 -0.7691
 3594SOL    HW122241   1.234   2.419   4.669  1.5574 -1.6392 -1.7533
 3594SOL    HW222242   1.139   2.483   4.580 -0.3371  2.5957  1.1024
 3595SOL     OW22243   0.950   1.306  15.232  0.8057 -0.1368  0.3536
 3595SOL    HW122244   0.962   1.283  15.324 -0.5970 -2.0468  0.0465
 3595SOL    HW222245   0.881   1.245  15.206  1.8614 -0.7933 -0.9394
 3596SOL     OW22246   1.891   2.456   7.427  0.1801 -0.0771 -0.3178
 3596SOL    HW122247   1.976   2.487   7.458 -0.1590  1.8541 -1.3799
 3596SOL    HW222248   1.900   2.467   7.332 -0.7212 -0.5981 -0.4688
 3597SOL     OW22249   0.894   0.572   9.148  0.1650  0.0430  0.1190
 3597SOL    HW122250   0.891   0.494   9.092  1.1745  0.3650 -0.4005
 3597SOL    HW222251   0.810   0.550   9.186  0.4024 -0.8763  0.1097
 3598SOL     OW22252   4.635   1.962  16.701  0.0758 -0.2241  0.3566
 3598SOL    HW122253   4.677   1.882  16.734  1.3384  0.8181  1.2864
 3598SOL    HW222254   4.591   1.990  16.782 -1.3076 -1.1936 -0.0572
 3599SOL     OW22255   1.109   1.545   3.230 -0.0993  0.9045 -0.1025
 3599SOL    HW122256   1.122   1.531   3.136  1.5279 -1.5143  0.4550
 3599SOL    HW222257   1.197   1.573   3.255 -0.1967  1.4808 -0.4141
 3600SOL     OW22258   1.697   1.236   4.087 -0.0011 -0.1453  0.6198
 3600SOL    HW122259   1.747   1.159   4.116  0.2708 -0.4958 -0.7989
 3600SOL    HW222260   1.679   1.226   3.994 -1.5131  2.2479  0.6585
 3601SOL     OW22261   0.224   2.052   8.335 -0.5086 -0.2675  0.5302
 3601SOL    HW122262   0.285   2.119   8.305  0.0467 -1.8635 -1.8632
 3601SOL    HW222263   0.266   1.974   8.298  0.3401 -0.0983  1.1252
 3602SOL     OW22264   2.921   2.910   9.913 -0.3102 -0.1979 -0.2194
 3602SOL    HW122265   2.972   2.884   9.990 -0.3357 -2.1453 -0.8604
 3602SOL    HW222266   2.972   2.987   9.886 -1.2707  1.3242  2.3735
 3603SOL     OW22267   3.750   2.594   9.899  0.3866 -0.1163 -0.0100
 3603SOL    HW122268   3.663   2.563   9.872 -0.3178  0.3540  1.7573
 3603SOL    HW222269   3.732   2.598   9.993 -0.1733 -2.7275  0.0076
 3604SOL     OW22270   2.485   3.492   5.332 -0.2377  0.2593  0.3961
 3604SOL    HW122271   2.552   3.458   5.272  0.1083  0.8566  0.4404
 3604SOL    HW222272   2.423   3.423   5.355 -0.3571  0.2825  0.1385
 3605SOL     OW22273   0.022   3.063   2.995  0.1256 -0.4502 -0.1786
 3605SOL    HW122274   0.066   3.040   2.913  0.2445  0.3101 -0.3233
 3605SOL    HW222275   0.097   3.051   3.053  0.4065  0.2267 -0.4008
 3606SOL     OW22276   2.975   1.868   3.122  0.0190  0.1849  0.3069
 3606SOL    HW122277   2.887   1.846   3.150  0.3918 -0.3754  1.0310
 3606SOL    HW222278   3.031   1.858   3.199 -0.1728  0.7344  0.5136
 3607SOL     OW22279   1.504   3.676   7.988 -0.1274 -0.2396 -0.3464
 3607SOL    HW122280   1.468   3.693   8.075 -0.5858  2.8460 -1.1416
 3607SOL    HW222281   1.549   3.594   8.007 -1.4366 -1.3069 -1.8700
 3608SOL     OW22282   3.775   3.969   8.689  0.1529 -0.0730 -0.2386
 3608SOL    HW122283   3.773   3.927   8.775  0.0209  1.3263  0.4425
 3608SOL    HW222284   3.682   3.983   8.671  0.5829  3.0315 -0.1002
 3609SOL     OW22285   3.453   1.512   5.206 -0.9634  0.2684 -0.1966
 3609SOL    HW122286   3.505   1.446   5.252 -3.6765 -0.6895  1.4906
 3609SOL    HW222287   3.415   1.474   5.127  0.0108 -3.2883  1.0215
 3610SOL     OW22288   3.009   0.309  16.343  0.1189 -0.0561 -0.1478
 3610SOL    HW122289   2.916   0.315  16.321  0.3540  3.1668 -0.2343
 3610SOL    HW222290   3.042   0.292  16.254 -0.9994  0.3584 -0.6445
 3611SOL     OW22291   1.670   1.642   3.904  0.1173  0.2876  0.2608
 3611SOL    HW122292   1.575   1.634   3.903  0.2233 -0.9545  0.4354
 3611SOL    HW222293   1.671   1.734   3.930 -1.8915  0.6010 -0.8319
 3612SOL     OW22294   1.630   0.020  11.331 -0.2257  0.4692 -0.1627
 3612SOL    HW122295   1.589   0.057  11.253 -0.9970  0.6963  0.3471
 3612SOL    HW222296   1.621   4.655  11.299  0.9272 -0.0629  1.0105
 3613SOL     OW22297   3.005   3.185   3.711 -0.2226 -0.1283 -0.4343
 3613SOL    HW122298   3.031   3.273   3.684 -2.0176  0.4059 -0.4507
 3613SOL    HW222299   2.970   3.208   3.797 -0.7563 -0.5187 -0.5450
 3614SOL     OW22300   0.153   1.304   8.094  0.0620 -0.4577 -0.4070
 3614SOL    HW122301   0.082   1.273   8.038 -1.4102 -0.2118  1.3128
 3614SOL    HW222302   0.117   1.271   8.176 -2.0066  0.0683 -1.1098
 3615SOL     OW22303   4.283   2.381   6.332 -0.2400 -0.3235  0.4770
 3615SOL    HW122304   4.224   2.343   6.397 -1.6469  1.8698  0.4897
 3615SOL    HW222305   4.275   2.310   6.268  1.1776 -0.3022  0.2897
 3616SOL     OW22306   1.202   0.472  13.536  0.0723 -0.0181 -0.0230
 3616SOL    HW122307   1.223   0.449  13.445  1.1295 -1.8891  0.6887
 3616SOL    HW222308   1.107   0.465  13.531 -0.0666  2.1810 -0.3904
 3617SOL     OW22309   0.433   1.364   8.119  0.1984 -0.2045 -0.4251
 3617SOL    HW122310   0.441   1.354   8.024 -1.9842 -0.0696 -0.6120
 3617SOL    HW222311   0.343   1.338   8.134  0.3555 -0.5021 -0.0182
 3618SOL     OW22312   3.213   1.961   5.201  0.0751 -0.2881 -0.2087
 3618SOL    HW122313   3.248   1.888   5.151 -0.3000 -1.2011  0.8741
 3618SOL    HW222314   3.175   2.016   5.132  0.5082  0.3098  0.0267
 3619SOL     OW22315   2.734   3.735   7.885 -0.8598  0.0898 -0.2112
 3619SOL    HW122316   2.749   3.803   7.819 -1.2857 -0.1616 -0.5613
 3619SOL    HW222317   2.814   3.756   7.933 -0.6538  0.7806 -0.8542
 3620SOL     OW22318   3.825   1.765   4.198 -0.2301 -0.2529 -0.0045
 3620SOL    HW122319   3.832   1.829   4.127 -1.8230 -0.3056 -0.2199
 3620SOL    HW222320   3.733   1.739   4.200  0.1098 -1.3606  1.1666
 3621SOL     OW22321   4.196   0.767   7.833 -0.5441  0.2426  0.6639
 3621SOL    HW122322   4.179   0.707   7.906  2.6328 -1.7795 -0.2421
 3621SOL    HW222323   4.119   0.747   7.780  0.8716 -0.1918 -1.2483
 3622SOL     OW22324   1.822   4.231  12.971  0.7210 -0.4140 -0.2768
 3622SOL    HW122325   1.861   4.316  12.992 -0.3125  0.1627 -0.7027
 3622SOL    HW222326   1.886   4.171  13.010  1.0524  0.9824  1.2925
 3623SOL     OW22327   0.727   2.844   4.401 -0.1094  0.5485  0.4312
 3623SOL    HW122328   0.784   2.803   4.467 -0.9131 -2.4727 -0.7512
 3623SOL    HW222329   0.782   2.838   4.323  0.3027 -2.0802  0.9027
 3624SOL     OW22330   4.261   2.504  10.982  0.0411  0.1443  0.2334
 3624SOL    HW122331   4.353   2.531  10.980 -0.1526  0.8396  0.5404
 3624SOL    HW222332   4.256   2.467  11.070 -3.0774  1.4485  0.5978
 3625SOL     OW22333   1.217   0.712   5.527  0.1554 -0.0088 -0.2512
 3625SOL    HW122334   1.271   0.730   5.604  0.5901  0.3403 -0.6386
 3625SOL    HW222335   1.193   0.798   5.493  0.9125  0.6239  0.8131
 3626SOL     OW22336   1.648   4.509   0.641 -0.5587  0.4334  0.6334
 3626SOL    HW122337   1.592   4.478   0.713 -0.5812 -2.0221 -0.4273
 3626SOL    HW222338   1.609   4.465   0.564  1.0519  0.9556 -0.4701
 3627SOL     OW22339   4.120   0.996   8.975  0.2884 -0.3419  0.0741
 3627SOL    HW122340   4.187   0.933   9.002  1.6952  0.0626 -2.4481
 3627SOL    HW222341   4.163   1.081   8.965 -0.7395  0.2608  0.8130
 3628SOL     OW22342   1.459   0.450   6.301 -0.0882 -0.5617  0.3180
 3628SOL    HW122343   1.493   0.431   6.214 -0.5460  1.0562 -0.2068
 3628SOL    HW222344   1.454   0.364   6.344 -0.2881  0.1360  1.7141
 3629SOL     OW22345   3.679   2.325  11.864 -0.5422 -0.0495  0.2123
 3629SOL    HW122346   3.696   2.234  11.888 -1.7240 -0.3768 -0.2259
 3629SOL    HW222347   3.700   2.378  11.942  1.6802 -0.2802 -0.2143
 3630SOL     OW22348   2.347   3.615   4.923  0.6633  0.0401  0.3385
 3630SOL    HW122349   2.369   3.545   4.985  1.7304 -0.2158 -0.3267
 3630SOL    HW222350   2.253   3.609   4.907  1.0116 -1.3869 -1.1845
 3631SOL     OW22351   0.467   0.503  13.568  0.4458 -0.2237 -0.4862
 3631SOL    HW122352   0.479   0.553  13.488  0.6394  2.1681  1.0514
 3631SOL    HW222353   0.553   0.460  13.573  1.2481  1.0145 -3.5829
 3632SOL     OW22354   4.394   3.632   6.597 -0.2479  0.1546 -0.4286
 3632SOL    HW122355   4.407   3.675   6.513 -3.9252 -1.4215 -1.7890
 3632SOL    HW222356   4.449   3.554   6.589 -0.0336  0.1330  1.3073
 3633SOL     OW22357   4.462   4.641   4.031 -0.0435  0.2372  0.2857
 3633SOL    HW122358   4.533   4.602   4.083 -0.7179 -1.6663 -0.2242
 3633SOL    HW222359   4.390   4.604   4.083  0.7909  1.8963  2.6355
 3634SOL     OW22360   2.460   0.835  13.925 -0.6128  0.2406  0.0159
 3634SOL    HW122361   2.427   0.746  13.913 -0.5886  0.0508  1.2933
 3634SOL    HW222362   2.437   0.873  13.840 -0.8050 -0.4128 -0.2215
 3635SOL     OW22363   3.853   2.719  13.482 -0.1990 -0.2613 -0.1209
 3635SOL    HW122364   3.888   2.701  13.570  1.2149  1.5882 -0.2980
 3635SOL    HW222365   3.881   2.809  13.464  0.4988 -0.0760  1.8301
 3636SOL     OW22366   1.715   0.820   6.217 -0.0362 -0.7763 -0.1341
 3636SOL    HW122367   1.668   0.814   6.300 -1.3051 -2.7574 -1.0058
 3636SOL    HW222368   1.756   0.734   6.211 -0.3782 -1.0326  1.2219
 3637SOL     OW22369   4.447   2.258   2.359 -0.1247 -0.3249  0.6989
 3637SOL    HW122370   4.415   2.237   2.271 -0.8197 -3.3991  1.6870
 3637SOL    HW222371   4.379   2.317   2.390 -0.4374  0.3748 -1.3070
 3638SOL     OW22372   0.267   1.676   1.485 -0.5423 -0.0391  0.0955
 3638SOL    HW122373   0.351   1.719   1.499 -0.0695 -1.1463  0.6017
 3638SOL    HW222374   0.287   1.601   1.429  0.3733  0.7769 -0.6697
 3639SOL     OW22375   2.444   0.573  15.898 -0.3751  0.5249  0.1454
 3639SOL    HW122376   2.395   0.645  15.936  1.1165  0.9408  1.2383
 3639SOL    HW222377   2.488   0.534  15.973 -0.9190  2.5864  1.5163
 3640SOL     OW22378   1.588   1.644   5.310  0.1526  0.2996 -0.1901
 3640SOL    HW122379   1.586   1.731   5.271 -1.2199  0.0252 -0.7362
 3640SOL    HW222380   1.606   1.601   5.227  1.3636 -0.5131  0.4821
 3641SOL     OW22381   2.109   0.416   6.534  0.1420 -0.4170 -0.5347
 3641SOL    HW122382   2.082   0.502   6.501 -1.0187  0.2694  2.2211
 3641SOL    HW222383   2.117   0.362   6.455  1.5552 -0.8597 -0.0882
 3642SOL     OW22384   0.283   1.807  13.202  0.0349  0.3672  0.4871
 3642SOL    HW122385   0.334   1.791  13.122  0.7901  3.9103  0.2845
 3642SOL    HW222386   0.220   1.872  13.172  1.1799  1.7439  1.0965
 3643SOL     OW22387   3.328   4.678   4.910 -0.2079 -0.0758 -0.4946
 3643SOL    HW122388   3.285   4.652   4.992 -1.4413  0.0311 -1.1092
 3643SOL    HW222389   3.258   0.002   4.867 -2.5105 -0.4328  2.7717
 3644SOL     OW22390   3.186   0.323  12.219  0.3423  0.1086 -0.2510
 3644SOL    HW122391   3.168   0.235  12.187  0.0608  0.3089 -0.6390
 3644SOL    HW222392   3.157   0.308  12.309 -0.1416  0.1313 -0.4022
 3645SOL     OW22393   1.953   3.121   8.048  0.1918  0.1589  0.1845
 3645SOL    HW122394   2.031   3.084   8.007  0.1875 -1.0646  1.2577
 3645SOL    HW222395   1.992   3.187   8.104 -1.1559 -0.1160  1.4450
 3646SOL     OW22396   3.631   1.758  15.872  0.4647  0.4198 -0.6571
 3646SOL    HW122397   3.716   1.725  15.845 -1.0523 -2.6257 -1.7511
 3646SOL    HW222398   3.590   1.735  15.788  0.7234 -4.3443  0.5473
 3647SOL     OW22399   0.273   1.802   4.897  0.4620 -0.1140 -0.4263
 3647SOL    HW122400   0.324   1.835   4.823  0.4068  0.7508 -0.0806
 3647SOL    HW222401   0.318   1.717   4.897  1.0952  0.2203 -0.4734
 3648SOL     OW22402   3.363   0.943  14.045 -0.1748  0.8118  0.4048
 3648SOL    HW122403   3.368   0.909  14.134 -0.8833  2.8949  1.2418
 3648SOL    HW222404   3.329   1.031  14.064 -2.0184  0.2683 -0.3651
 3649SOL     OW22405   3.900   1.168   2.189  0.1736  0.3079 -0.4725
 3649SOL    HW122406   3.828   1.127   2.141 -0.3729 -0.7082  1.2093
 3649SOL    HW222407   3.897   1.254   2.147  0.4893  1.9069  2.7349
 3650SOL     OW22408   0.957   2.267   2.894  0.2407 -0.2704  0.4854
 3650SOL    HW122409   0.940   2.349   2.941  0.5805  0.7882 -1.2126
 3650SOL    HW222410   0.950   2.297   2.803 -2.9713  1.8686  1.4161
 3651SOL     OW22411   4.350   1.053   3.367 -0.1348  0.7398 -0.0258
 3651SOL    HW122412   4.328   0.960   3.381 -0.8271  0.5292 -2.5897
 3651SOL    HW222413   4.430   1.044   3.419 -1.5259 -0.5465  1.8834
 3652SOL     OW22414   2.285   2.523   0.217 -0.5101  0.1141 -0.0718
 3652SOL    HW122415   2.309   2.512   0.309  0.5065  0.4970 -0.2842
 3652SOL    HW222416   2.193   2.550   0.211 -0.3419  0.6036 -0.4857
 3653SOL     OW22417   1.588   2.932   4.161 -0.3443  0.5836 -0.4712
 3653SOL    HW122418   1.647   3.001   4.191  1.2578 -0.2866 -1.6113
 3653SOL    HW222419   1.505   2.980   4.160  0.1608  1.4597 -0.1937
 3654SOL     OW22420   1.993   1.437   0.730  0.5638  0.0655 -0.1998
 3654SOL    HW122421   1.993   1.366   0.666 -0.2142 -0.7304  0.6792
 3654SOL    HW222422   2.009   1.381   0.806 -0.4877 -0.5055 -0.3905
 3655SOL     OW22423   4.384   1.675   5.572 -0.7584 -0.2158  0.0126
 3655SOL    HW122424   4.303   1.628   5.554 -0.5438  0.1547 -1.9214
 3655SOL    HW222425   4.394   1.711   5.483 -1.8317 -1.5129 -0.6308
 3656SOL     OW22426   0.039   0.652  11.027  0.4065 -0.5466  1.2784
 3656SOL    HW122427   0.097   0.718  11.065  1.0902  0.6103 -1.8658
 3656SOL    HW222428   0.105   0.593  10.990 -0.6606 -0.0614 -1.3655
 3657SOL     OW22429   1.194   3.146   6.164  0.1524  0.0701  0.3195
 3657SOL    HW122430   1.104   3.179   6.161  0.4622  0.8525 -0.5017
 3657SOL    HW222431   1.224   3.151   6.073 -1.2928 -0.5649 -0.1893
 3658SOL     OW22432   4.146   1.005   0.297  0.3478 -0.5120  0.4776
 3658SOL    HW122433   4.231   0.962   0.294  0.2370 -0.6749 -0.1921
 3658SOL    HW222434   4.126   0.999   0.204 -4.2866  1.9146  1.2889
 3659SOL     OW22435   2.417   3.114   4.980 -0.5577 -0.1096 -0.7461
 3659SOL    HW122436   2.358   3.106   4.904 -0.1286  1.5283 -1.2617
 3659SOL    HW222437   2.371   3.063   5.046 -0.1635 -0.9690 -1.1468
 3660SOL     OW22438   1.307   0.856  13.851  0.5747  0.0961  0.2179
 3660SOL    HW122439   1.387   0.834  13.804  1.3936 -0.4049  1.8244
 3660SOL    HW222440   1.313   0.798  13.928 -0.8420 -0.0129  0.2437
 3661SOL     OW22441   2.475   1.431   6.367 -0.1729 -0.3300  0.1223
 3661SOL    HW122442   2.395   1.438   6.419  0.6491  1.6845  1.1580
 3661SOL    HW222443   2.447   1.379   6.292  0.1162  0.3054 -0.4312
 3662SOL     OW22444   3.770   3.385  10.113 -0.7841 -0.4752 -0.2515
 3662SOL    HW122445   3.684   3.370  10.074 -0.8332 -1.4663  0.2418
 3662SOL    HW222446   3.745   3.469  10.153  1.3453  0.0041  0.0537
 3663SOL     OW22447   0.205   2.041   3.118 -0.2812 -0.0148 -0.4435
 3663SOL    HW122448   0.291   2.051   3.158 -1.1750 -1.1882  1.7493
 3663SOL    HW222449   0.161   2.013   3.198 -2.0039  0.9623 -1.0590
 3664SOL     OW22450   2.755   0.122   3.753 -0.0419  0.2400  0.1258
 3664SOL    HW122451   2.826   0.161   3.701  0.6819  0.1228  1.0152
 3664SOL    HW222452   2.711   0.066   3.688 -0.2122  1.0600 -0.4670
 3665SOL     OW22453   1.383   1.263   4.651  0.3477  0.1016 -0.0629
 3665SOL    HW122454   1.474   1.268   4.623  0.0067  0.8333 -1.0404
 3665SOL    HW222455   1.356   1.351   4.624  1.0207  0.9007  1.8103
 3666SOL     OW22456   1.269   2.528   5.585 -0.2694  0.3843 -0.0192
 3666SOL    HW122457   1.316   2.548   5.505 -2.4783 -0.7697 -1.6107
 3666SOL    HW222458   1.252   2.435   5.569  0.0633  0.3663 -0.2632
 3667SOL     OW22459   3.350   4.435   7.610 -0.2837 -0.4576 -0.0048
 3667SOL    HW122460   3.269   4.438   7.559 -0.8698  1.2111  1.0383
 3667SOL    HW222461   3.408   4.394   7.545 -0.7100 -0.5486 -0.3261
 3668SOL     OW22462   0.276   2.867  17.287 -0.0187  0.2043  0.2593
 3668SOL    HW122463   0.322   2.853  17.370 -1.4081  0.9861  1.1612
 3668SOL    HW222464   0.268   2.779  17.250  3.4090 -0.1658  0.4140
 3669SOL     OW22465   1.571   3.334  10.802  0.0678  0.1864  0.2850
 3669SOL    HW122466   1.584   3.360  10.894  1.9254 -0.8483  0.3120
 3669SOL    HW222467   1.477   3.338  10.784 -0.0613  1.8396  1.3181
 3670SOL     OW22468   1.042   4.245   3.868 -0.2144 -0.4525 -0.5497
 3670SOL    HW122469   1.074   4.240   3.958 -0.4770  0.1040 -0.4219
 3670SOL    HW222470   1.050   4.340   3.858 -0.3447 -0.8033 -4.0227
 3671SOL     OW22471   0.920   2.604  15.443  0.4313  0.2906  0.6211
 3671SOL    HW122472   0.996   2.662  15.446 -0.0097  1.0347 -2.1063
 3671SOL    HW222473   0.956   2.524  15.480 -1.0397 -0.4224  0.5089
 3672SOL     OW22474   3.281   2.040   1.663  0.0786 -0.4047 -0.3266
 3672SOL    HW122475   3.204   2.092   1.640  1.0127  0.5197 -1.3088
 3672SOL    HW222476   3.291   1.986   1.584  0.7360 -1.0533  0.2079
 3673SOL     OW22477   2.916   0.306   3.359  0.0110 -0.1907  0.1421
 3673SOL    HW122478   2.933   0.258   3.440 -0.7854  1.1190  1.0913
 3673SOL    HW222479   2.839   0.261   3.326 -2.4578  1.6656  3.3303
 3674SOL     OW22480   3.603   1.267   8.114 -0.0448 -0.4398 -0.4607
 3674SOL    HW122481   3.680   1.295   8.064 -0.2322 -0.2701 -0.6553
 3674SOL    HW222482   3.637   1.185   8.150 -1.4492  0.3106  2.6200
 3675SOL     OW22483   2.074   1.503   2.931  0.5370  0.1075 -0.5159
 3675SOL    HW122484   2.025   1.463   3.003  1.7341 -1.0906 -0.3510
 3675SOL    HW222485   2.075   1.436   2.863  0.3912 -1.4132  0.9850
 3676SOL     OW22486   0.006   0.906  17.660 -0.4240  0.6286  0.1828
 3676SOL    HW122487   4.708   0.848   0.031  1.1786  0.3390  0.4526
 3676SOL    HW222488   0.084   0.950  17.694  1.1368 -2.6500  0.8107
 3677SOL     OW22489   0.807   0.134  13.508 -0.4640  0.0658  0.6960
 3677SOL    HW122490   0.759   0.058  13.540  0.1194  0.1114  1.6913
 3677SOL    HW222491   0.842   0.165  13.592  0.5385 -1.8542  0.9896
 3678SOL     OW22492   1.835   2.763  13.178  0.5770 -0.0638  0.0011
 3678SOL    HW122493   1.789   2.847  13.182 -2.1332 -1.6066  0.9348
 3678SOL    HW222494   1.899   2.782  13.109  1.0449 -0.0418  0.4468
 3679SOL     OW22495   4.051   3.153   2.520 -0.0731 -0.3370  0.1045
 3679SOL    HW122496   4.007   3.138   2.436 -0.1401  1.6608 -0.2177
 3679SOL    HW222497   4.115   3.082   2.508 -0.4604 -0.8786  1.1961
 3680SOL     OW22498   1.202   1.227   3.210 -0.7969  0.2287 -0.2572
 3680SOL    HW122499   1.112   1.248   3.184 -0.6893  0.9497 -0.0678
 3680SOL    HW222500   1.219   1.136   3.188 -0.7610  0.7724 -2.4908
 3681SOL     OW22501   0.380   3.298   1.906 -0.0367  0.1710  0.1559
 3681SOL    HW122502   0.443   3.230   1.927  1.4504  1.8035  1.0132
 3681SOL    HW222503   0.313   3.265   1.846  0.0071  2.1119 -0.9857
 3682SOL     OW22504   0.413   1.081   4.808  0.2137  0.7762 -0.0672
 3682SOL    HW122505   0.413   0.986   4.807 -2.3518  0.7842 -2.5819
 3682SOL    HW222506   0.434   1.095   4.900 -4.6449 -3.8890  1.7568
 3683SOL     OW22507   3.682   1.407  17.685 -0.0298 -0.3881 -0.0999
 3683SOL    HW122508   3.711   1.464  17.613  0.9195 -1.0912 -0.2658
 3683SOL    HW222509   3.596   1.372  17.664 -0.0749 -0.6842  0.5896
 3684SOL     OW22510   2.828   2.888   1.557 -0.2070  0.2994 -0.2467
 3684SOL    HW122511   2.901   2.853   1.608  0.2160  1.9742  0.3093
 3684SOL    HW222512   2.875   2.919   1.480  1.8456 -0.7333  0.5823
 3685SOL     OW22513   3.103   4.352   5.217 -0.3090 -0.6997 -0.0333
 3685SOL    HW122514   3.152   4.281   5.177 -0.5699 -0.4402 -0.8083
 3685SOL    HW222515   3.082   4.306   5.298 -1.6555 -0.0512 -0.0249
 3686SOL     OW22516   2.356   1.501   2.475 -0.1391  0.1063  0.7986
 3686SOL    HW122517   2.300   1.442   2.525 -1.8885  0.3514 -0.8413
 3686SOL    HW222518   2.297   1.576   2.468 -1.8589 -1.1302  2.0604
 3687SOL     OW22519   2.841   3.476  16.626  0.9098  0.2717  0.4522
 3687SOL    HW122520   2.781   3.550  16.624  0.5788 -0.0145 -0.0560
 3687SOL    HW222521   2.783   3.402  16.644  0.5886  0.1946 -0.9258
 3688SOL     OW22522   3.325   1.186   5.831  0.0189  0.2592  0.2993
 3688SOL    HW122523   3.365   1.253   5.776 -0.0124 -0.3595 -0.4704
 3688SOL    HW222524   3.393   1.158   5.894 -1.0415  0.8426  1.6956
 3689SOL     OW22525   0.903   2.211   5.691  0.2560  0.1697  0.3998
 3689SOL    HW122526   0.885   2.168   5.607  1.1853 -0.5868  0.5782
 3689SOL    HW222527   0.878   2.300   5.667  1.3030 -0.0796 -1.5897
 3690SOL     OW22528   0.710   3.160   5.432 -0.0676  0.0894 -0.4536
 3690SOL    HW122529   0.676   3.115   5.354 -0.9249 -1.6644  0.9191
 3690SOL    HW222530   0.697   3.099   5.505 -1.7005 -0.5062 -1.2397
 3691SOL     OW22531   3.076   2.566  15.515  0.0646  0.7260 -0.4461
 3691SOL    HW122532   3.052   2.534  15.428  1.3293 -2.4658  0.4082
 3691SOL    HW222533   3.014   2.637  15.532  0.4611  0.3247  2.6326
 3692SOL     OW22534   3.416   2.404  10.379 -0.0315  0.5900 -0.1099
 3692SOL    HW122535   3.460   2.356  10.308 -0.3798 -0.9978  0.7596
 3692SOL    HW222536   3.346   2.340  10.390 -0.0655  0.2143 -2.5365
 3693SOL     OW22537   2.614   3.486   2.962  0.1242  0.1020  0.1697
 3693SOL    HW122538   2.549   3.554   2.946 -0.3227 -0.2841  0.3251
 3693SOL    HW222539   2.657   3.477   2.878 -2.1072 -2.4878 -0.7110
 3694SOL     OW22540   0.164   4.556   6.388  0.2692  0.1618 -0.0505
 3694SOL    HW122541   0.251   4.527   6.361  0.2469 -1.6066  1.7965
 3694SOL    HW222542   0.103   4.497   6.345  0.7940  0.3504 -1.0684
 3695SOL     OW22543   0.775   0.233   0.436  0.2010  0.7413 -0.4247
 3695SOL    HW122544   0.851   0.222   0.494 -1.4521 -1.6111  1.2719
 3695SOL    HW222545   0.743   0.320   0.459 -0.0579  0.4462  0.3302
 3696SOL     OW22546   1.236   4.064   7.976  0.1716  0.0542  0.0275
 3696SOL    HW122547   1.176   3.990   7.988 -0.2318  0.1413 -1.5099
 3696SOL    HW222548   1.234   4.103   8.064  0.3092  1.1679 -0.4615
 3697SOL     OW22549   0.419   0.103   4.525 -0.8261  0.9871  0.1015
 3697SOL    HW122550   0.388   0.180   4.476  0.3246  1.2573 -0.2137
 3697SOL    HW222551   0.509   0.089   4.496 -0.7235  1.5347  0.1479
 3698SOL     OW22552   4.696   1.546   2.403  0.0829  0.4518 -0.6144
 3698SOL    HW122553   4.609   1.507   2.399 -0.2453  1.3535 -2.1645
 3698SOL    HW222554   4.672   1.638   2.405  0.1679  0.4881 -1.2411
 3699SOL     OW22555   1.410   2.211  12.103  0.1389  0.2845 -0.3611
 3699SOL    HW122556   1.373   2.125  12.123  4.2359 -0.9218  2.1432
 3699SOL    HW222557   1.364   2.235  12.022 -1.3559  0.4868  0.5532
 3700SOL     OW22558   2.396   2.459   5.299 -0.4347 -0.4038 -0.2903
 3700SOL    HW122559   2.477   2.510   5.301 -0.3157 -0.5741 -1.0967
 3700SOL    HW222560   2.393   2.435   5.207  1.4950  1.5079 -0.8502
 3701SOL     OW22561   3.350   1.659   7.508  0.3415  0.3495 -0.3434
 3701SOL    HW122562   3.349   1.569   7.475 -0.6114 -0.0466  0.7554
 3701SOL    HW222563   3.445   1.668   7.521  0.3281 -1.1935  0.8265
 3702SOL     OW22564   3.498   0.484   9.405  0.4327 -0.4598 -0.0444
 3702SOL    HW122565   3.538   0.497   9.319 -0.6668  0.2074 -0.4436
 3702SOL    HW222566   3.405   0.483   9.384  0.6193  2.9458 -1.0546
 3703SOL     OW22567   2.443   1.857   4.919  0.0692 -0.0959 -0.2851
 3703SOL    HW122568   2.362   1.905   4.935  1.1034  1.4935  0.1436
 3703SOL    HW222569   2.478   1.846   5.007  0.4664 -2.3228 -0.7254
 3704SOL     OW22570   3.340   2.944   9.906  0.5488 -0.0200 -0.1784
 3704SOL    HW122571   3.398   2.984   9.841  1.6984 -0.7348  0.4034
 3704SOL    HW222572   3.256   2.987   9.888  1.7666  1.2512 -2.9136
 3705SOL     OW22573   4.599   0.750   0.391  0.2683 -0.1079 -0.7237
 3705SOL    HW122574   4.610   0.816   0.460  1.0587 -2.2146  1.1344
 3705SOL    HW222575   4.646   0.670   0.413  1.7583  0.5453 -1.4765
 3706SOL     OW22576   3.438   0.692   3.415  0.1725 -0.0837 -0.2297
 3706SOL    HW122577   3.485   0.758   3.363 -0.7911 -0.7881 -2.0034
 3706SOL    HW222578   3.510   0.629   3.420  0.1582 -0.1433 -0.7697
 3707SOL     OW22579   2.090   0.547   4.613  0.3086 -0.0060  0.3476
 3707SOL    HW122580   2.089   0.589   4.527 -0.0080 -0.9292 -0.1124
 3707SOL    HW222581   2.024   0.600   4.657 -1.5026 -2.3305  0.4689
 3708SOL     OW22582   1.677   3.503   8.765 -0.2244 -0.1949 -0.0152
 3708SOL    HW122583   1.647   3.412   8.757 -0.0200 -0.3957  1.6476
 3708SOL    HW222584   1.760   3.491   8.718 -0.2659  0.0000 -0.1376
 3709SOL     OW22585   3.341   4.234   8.957 -0.2282 -0.1030 -0.0528
 3709SOL    HW122586   3.249   4.221   8.934 -0.2751  0.2229 -0.0577
 3709SOL    HW222587   3.375   4.294   8.890 -3.1450  1.3870 -0.2208
 3710SOL     OW22588   0.999   1.582   3.701  0.2170  0.1269 -0.2256
 3710SOL    HW122589   1.005   1.527   3.623  2.7215 -0.7004  0.5225
 3710SOL    HW222590   1.011   1.669   3.663 -0.3208  1.0558  1.7153
 3711SOL     OW22591   3.774   0.370   1.490  0.3961  0.0858  0.0053
 3711SOL    HW122592   3.858   0.376   1.536  0.4495  0.6744 -0.1732
 3711SOL    HW222593   3.713   0.397   1.559 -0.2241 -2.1314  0.3399
 3712SOL     OW22594   0.841   0.463  14.403 -0.2574  0.0854 -0.6443
 3712SOL    HW122595   0.788   0.385  14.420 -1.6497  1.0309 -0.6422
 3712SOL    HW222596   0.831   0.466  14.308 -0.6486 -1.2486 -0.6369
 3713SOL     OW22597   3.442   2.292   2.306 -0.1584 -0.3645 -0.3961
 3713SOL    HW122598   3.400   2.243   2.377  0.8125  1.2463  1.2873
 3713SOL    HW222599   3.374   2.309   2.240 -0.0494  1.7360  0.0425
 3714SOL     OW22600   1.508   0.189   3.798 -0.6766 -0.1217  0.5409
 3714SOL    HW122601   1.530   0.270   3.751  0.4342  0.2152  1.6421
 3714SOL    HW222602   1.567   0.123   3.762 -0.4123  0.4840 -0.1447
 3715SOL     OW22603   3.320   3.222   3.258 -0.1595 -0.1566  0.3514
 3715SOL    HW122604   3.300   3.224   3.352 -2.8234  0.3404 -0.2162
 3715SOL    HW222605   3.402   3.173   3.266  0.7993  1.2860 -0.6878
 3716SOL     OW22606   2.334   2.558  16.290 -0.4331 -0.3144  0.4743
 3716SOL    HW122607   2.279   2.611  16.347 -1.5395 -2.6295  1.6027
 3716SOL    HW222608   2.390   2.519  16.358  0.0824 -2.5035 -1.1809
 3717SOL     OW22609   3.784   0.266   1.962  0.7047  0.5592 -0.3051
 3717SOL    HW122610   3.763   0.332   2.029  0.2472 -0.3177  0.4116
 3717SOL    HW222611   3.750   0.187   2.003 -2.3458  2.3224  0.5697
 3718SOL     OW22612   2.114   1.691  16.984  0.5936  0.2183  0.0326
 3718SOL    HW122613   2.092   1.780  17.009 -0.9970 -0.7159  1.9552
 3718SOL    HW222614   2.032   1.655  16.953 -1.0429  0.7263  3.7639
 3719SOL     OW22615   0.335   2.555   7.837  0.4527  0.2992 -0.0948
 3719SOL    HW122616   0.339   2.459   7.831 -1.1915  0.3429 -1.8125
 3719SOL    HW222617   0.340   2.572   7.743 -1.4294  0.6604 -0.1327
 3720SOL     OW22618   0.406   4.162   6.940  0.5299  0.1867  0.2366
 3720SOL    HW122619   0.329   4.130   6.892 -0.2458  3.2061 -0.5745
 3720SOL    HW222620   0.419   4.075   6.978  0.3611  0.8536  1.8073
 3721SOL     OW22621   0.640   3.477   5.905 -0.2282 -0.8646 -0.2358
 3721SOL    HW122622   0.692   3.518   5.836  1.7454 -1.1250  1.1140
 3721SOL    HW222623   0.567   3.450   5.849 -0.4367 -0.2544 -0.2628
 3722SOL     OW22624   4.549   1.901   7.075 -0.6418 -0.1450  0.0755
 3722SOL    HW122625   4.487   1.972   7.063 -2.5986 -1.6695  1.0726
 3722SOL    HW222626   4.569   1.873   6.986  1.5380  1.3638  0.0899
 3723SOL     OW22627   4.065   0.998   4.927 -0.4384 -0.1911 -0.1363
 3723SOL    HW122628   4.127   1.069   4.912  0.8607 -1.3447 -0.2742
 3723SOL    HW222629   4.069   0.949   4.844  0.3087 -0.3063 -0.0346
 3724SOL     OW22630   4.268   3.569   4.953 -0.2101  0.0326  0.1551
 3724SOL    HW122631   4.184   3.562   5.000 -0.7892 -0.0531 -0.9032
 3724SOL    HW222632   4.280   3.661   4.978  0.2752  0.1420 -0.4866
 3725SOL     OW22633   4.119   2.134   5.382  0.3423 -0.0888 -0.0624
 3725SOL    HW122634   4.101   2.206   5.442  0.2504  0.8698 -1.2299
 3725SOL    HW222635   4.206   2.158   5.350  1.1218 -1.3169  1.1565
 3726SOL     OW22636   0.292   2.272   1.202 -0.0050 -0.1899 -0.1328
 3726SOL    HW122637   0.212   2.235   1.165  0.3275  0.7003 -1.7312
 3726SOL    HW222638   0.358   2.210   1.172 -1.1777  0.4793 -4.1535
 3727SOL     OW22639   4.572   2.617  14.617 -0.0334  0.2518  0.4197
 3727SOL    HW122640   4.502   2.614  14.683  1.0967 -1.8023  1.5169
 3727SOL    HW222641   4.643   2.628  14.681  1.6469 -1.8274 -1.0936
 3728SOL     OW22642   4.663   2.891  14.499  0.3014  0.0091  0.0370
 3728SOL    HW122643   4.677   2.857  14.411  1.3609  2.0313 -0.5601
 3728SOL    HW222644   4.568   2.890  14.510  0.6274  1.9443  3.0368
 3729SOL     OW22645   2.750   2.522   5.534  0.3500 -0.1048  0.3320
 3729SOL    HW122646   2.710   2.439   5.560  0.1862 -0.7606 -1.9879
 3729SOL    HW222647   2.844   2.503   5.527  0.7343  1.3635  1.5854
 3730SOL     OW22648   3.963   3.100  13.104  0.1802  0.6072  0.6948
 3730SOL    HW122649   4.043   3.138  13.141  1.0286 -0.5257  0.0197
 3730SOL    HW222650   3.937   3.032  13.166 -0.0544 -0.3791 -0.5044
 3731SOL     OW22651   1.526   2.426   5.725 -0.2120 -0.2516  0.3463
 3731SOL    HW122652   1.471   2.491   5.768 -0.4585 -1.3188  1.6579
 3731SOL    HW222653   1.461   2.356   5.723 -1.4218  0.8448  0.9740
 3732SOL     OW22654   3.601   3.712   1.321 -0.5458 -0.4304 -0.0235
 3732SOL    HW122655   3.655   3.784   1.352 -0.1136 -0.3337 -1.0067
 3732SOL    HW222656   3.567   3.741   1.236  2.4358  0.1189 -1.0378
 3733SOL     OW22657   3.214   3.462   8.251  0.4674  0.0553  0.5475
 3733SOL    HW122658   3.170   3.385   8.215  0.5603  0.7148 -0.9639
 3733SOL    HW222659   3.170   3.534   8.205 -1.1051  0.4248  2.5974
 3734SOL     OW22660   2.078   4.186   3.616  0.3419  0.1183  0.4702
 3734SOL    HW122661   1.995   4.139   3.609  1.4667 -2.0588  1.8931
 3734SOL    HW222662   2.130   4.110   3.642 -0.0485 -0.0750  0.6675
 3735SOL     OW22663   2.189   4.239   1.243 -0.0451  0.3864 -0.0122
 3735SOL    HW122664   2.104   4.203   1.219 -0.5366  1.7225 -0.2525
 3735SOL    HW222665   2.238   4.172   1.195  0.1208  1.5563 -1.4543
 3736SOL     OW22666   2.326   4.254   4.770  0.0368 -0.5618 -0.2663
 3736SOL    HW122667   2.321   4.258   4.674  0.7070 -0.3569 -0.2958
 3736SOL    HW222668   2.403   4.198   4.779  0.3434 -0.0583  0.2802
 3737SOL     OW22669   3.709   4.722   9.207  0.3380  0.3000 -0.0152
 3737SOL    HW122670   3.798   4.722   9.173 -0.0726  0.9135 -1.0691
 3737SOL    HW222671   3.666   0.063   9.154 -1.0910  0.3594  1.2002
 3738SOL     OW22672   3.756   1.559   2.390  0.1761  0.4317 -0.2408
 3738SOL    HW122673   3.694   1.504   2.342 -1.4850  1.5686  0.6027
 3738SOL    HW222674   3.794   1.612   2.320  0.0380  0.0821 -0.5789
 3739SOL     OW22675   4.142   0.772   2.122  0.3820  0.4995  0.5436
 3739SOL    HW122676   4.063   0.818   2.152 -0.7441 -1.6473  0.9221
 3739SOL    HW222677   4.189   0.845   2.081 -0.3967  0.0782 -1.0997
 3740SOL     OW22678   3.303   0.993   7.890  0.0522  0.3213 -0.2014
 3740SOL    HW122679   3.253   0.989   7.809 -0.0501  0.8273 -0.1654
 3740SOL    HW222680   3.249   1.043   7.952  2.6646  1.6078  1.0438
 3741SOL     OW22681   1.562   3.696   3.404 -0.0494 -0.4533  0.1720
 3741SOL    HW122682   1.611   3.668   3.326  0.2863 -1.2353  0.6694
 3741SOL    HW222683   1.531   3.616   3.445  0.5395 -1.7546 -1.9315
 3742SOL     OW22684   3.517   1.757  12.724 -0.5295  0.1382  0.0529
 3742SOL    HW122685   3.456   1.822  12.759  1.7499  3.2804 -1.8726
 3742SOL    HW222686   3.465   1.688  12.683 -0.3360  1.1854 -1.9422
 3743SOL     OW22687   0.929   0.009   6.524 -0.3860 -0.0783 -0.0310
 3743SOL    HW122688   0.960   4.698   6.607  2.2345  0.0827 -0.9208
 3743SOL    HW222689   0.850   4.681   6.517 -0.0355 -0.4115 -1.3228
 3744SOL     OW22690   2.112   0.148  15.903  0.0048 -0.3945  0.2095
 3744SOL    HW122691   2.191   0.105  15.936  1.1672  1.4506 -0.2016
 3744SOL    HW222692   2.155   0.196  15.832 -1.4933  0.0461 -0.3982
 3745SOL     OW22693   0.738   1.941   1.505  0.1396  0.2307  0.1814
 3745SOL    HW122694   0.755   1.972   1.415 -0.0503 -2.0000 -0.6308
 3745SOL    HW222695   0.769   2.005   1.568 -0.0812  2.0172 -1.5226
 3746SOL     OW22696   0.710   3.619   0.374  0.1813  0.3259  0.5965
 3746SOL    HW122697   0.805   3.625   0.371  0.0774  1.1941 -0.8596
 3746SOL    HW222698   0.692   3.705   0.413 -0.1924 -0.5572  2.4091
 3747SOL     OW22699   2.589   1.574  12.043  0.8126 -0.0907  0.0943
 3747SOL    HW122700   2.535   1.506  12.082  0.8770  0.9028  1.9222
 3747SOL    HW222701   2.588   1.537  11.955 -0.8284  1.9878 -0.7654
 3748SOL     OW22702   1.562   0.308   8.623 -0.5857 -0.2464  0.5382
 3748SOL    HW122703   1.528   0.381   8.674 -1.3315  0.0411 -0.3923
 3748SOL    HW222704   1.561   0.362   8.544  1.5509 -2.6211 -1.1114
 3749SOL     OW22705   1.061   1.566   8.675 -0.3071 -0.8734  0.4025
 3749SOL    HW122706   1.016   1.531   8.598 -0.1727  0.9788 -0.5138
 3749SOL    HW222707   0.997   1.549   8.744 -1.5630  4.2110  0.5017
 3750SOL     OW22708   2.389   2.352   8.660 -0.5650  0.1409  0.5740
 3750SOL    HW122709   2.449   2.367   8.588  2.2346 -4.6340  1.9421
 3750SOL    HW222710   2.306   2.380   8.621 -0.3860 -1.4007 -0.9113
 3751SOL     OW22711   0.844   0.082   8.603  0.2688  0.5822  1.1126
 3751SOL    HW122712   0.757   0.070   8.566  0.1691 -0.0398  1.5618
 3751SOL    HW222713   0.896   0.105   8.525 -0.8509 -0.1781  0.1493
 3752SOL     OW22714   2.613   3.099  13.777 -0.1449  0.0394  0.3833
 3752SOL    HW122715   2.623   3.029  13.713  0.3061  1.4221 -1.0678
 3752SOL    HW222716   2.705   3.121  13.795  0.9839 -3.4093 -1.2590
 3753SOL     OW22717   0.952   1.960  16.441 -0.1112 -0.4263 -0.1828
 3753SOL    HW122718   1.016   2.009  16.390  0.2755 -1.7946 -1.0260
 3753SOL    HW222719   0.997   1.966  16.525  3.2007 -3.3453 -1.7151
 3754SOL     OW22720   2.102   1.534   1.767  0.4102 -0.4169  0.3662
 3754SOL    HW122721   2.026   1.522   1.709  2.4633 -2.2091 -1.9247
 3754SOL    HW222722   2.058   1.585   1.835 -0.3332 -0.4640 -0.0791
 3755SOL     OW22723   2.816   3.957   6.182  0.2129 -0.3852  0.4587
 3755SOL    HW122724   2.817   3.925   6.273 -1.3899  0.8971  0.9254
 3755SOL    HW222725   2.768   4.040   6.187  1.0948  0.1169  0.7110
 3756SOL     OW22726   1.400   3.371   2.540  0.1329  0.5700  0.0285
 3756SOL    HW122727   1.310   3.393   2.514 -0.5006 -4.7707 -2.2946
 3756SOL    HW222728   1.385   3.328   2.623 -2.3302  1.8915  0.2800
 3757SOL     OW22729   4.329   3.782   4.053 -0.7503 -0.0689 -0.7947
 3757SOL    HW122730   4.325   3.833   4.134  0.1448 -0.2308 -0.6478
 3757SOL    HW222731   4.323   3.692   4.084 -0.2146  0.2714  0.2823
 3758SOL     OW22732   1.899   3.683   5.551 -0.4179  1.2291  0.5099
 3758SOL    HW122733   1.866   3.635   5.475  2.3567  0.9305 -0.5367
 3758SOL    HW222734   1.963   3.737   5.504 -0.4949  0.8361 -0.0531
 3759SOL     OW22735   1.601   1.950  11.690  0.3467 -0.2802  0.1808
 3759SOL    HW122736   1.562   1.863  11.695  0.7537 -0.4188  0.9444
 3759SOL    HW222737   1.651   1.956  11.771  0.6591 -0.7734  0.0267
 3760SOL     OW22738   0.001   1.129   8.636  0.2119  0.3956  0.1262
 3760SOL    HW122739   0.053   1.056   8.602 -0.3847 -0.0223  0.1048
 3760SOL    HW222740   4.723   1.118   8.731  0.8227 -0.0994  0.0923
 3761SOL     OW22741   1.257   0.529  10.777 -0.3502  0.4060  0.5056
 3761SOL    HW122742   1.179   0.572  10.811  1.5715  2.3553  2.4236
 3761SOL    HW222743   1.292   0.607  10.734  0.4509 -0.0018  0.4288
 3762SOL     OW22744   2.505   1.261   3.787  0.3462 -0.0371 -0.0972
 3762SOL    HW122745   2.454   1.316   3.728  2.4483  0.3797 -1.5071
 3762SOL    HW222746   2.490   1.310   3.868 -1.2802  0.0856 -0.4796
 3763SOL     OW22747   1.090   2.571  11.720  0.0344  0.1952 -0.1275
 3763SOL    HW122748   1.026   2.589  11.789  0.1584 -0.3635  0.1327
 3763SOL    HW222749   1.088   2.642  11.657 -0.9862 -0.8046 -1.2289
 3764SOL     OW22750   0.753   3.561  15.345 -0.1770 -0.3113  0.0980
 3764SOL    HW122751   0.810   3.499  15.300 -0.9981  1.1064 -2.9789
 3764SOL    HW222752   0.808   3.592  15.417  0.2873  1.4042 -0.9916
 3765SOL     OW22753   1.716   2.845   5.744  0.1791  0.0639  0.1146
 3765SOL    HW122754   1.632   2.812   5.776  0.6139 -1.3637 -0.2151
 3765SOL    HW222755   1.724   2.926   5.793  0.0363 -1.1093  2.0818
 3766SOL     OW22756   4.484   0.631   6.291  0.0825 -0.4650  0.8054
 3766SOL    HW122757   4.531   0.681   6.357 -0.0663  0.7755 -0.0297
 3766SOL    HW222758   4.394   0.630   6.323  0.1236  0.4043  0.9296
 3767SOL     OW22759   4.110   2.806   3.167 -0.2033  0.0866 -0.2816
 3767SOL    HW122760   4.108   2.788   3.073 -0.2686 -2.1581  0.1434
 3767SOL    HW222761   4.139   2.722   3.203 -0.9480 -0.1353 -0.2008
 3768SOL     OW22762   1.135   1.187  13.364  0.2643 -0.0562  0.5835
 3768SOL    HW122763   1.127   1.138  13.446  1.5290 -2.4202 -0.6967
 3768SOL    HW222764   1.199   1.256  13.382  0.1430  0.5546 -1.2968
 3769SOL     OW22765   1.392   4.270   5.253  0.1148  0.5826 -0.7865
 3769SOL    HW122766   1.359   4.349   5.210 -1.3179  0.7673  0.6599
 3769SOL    HW222767   1.409   4.302   5.341 -1.1132 -2.3045  0.5010
 3770SOL     OW22768   3.359   1.401   5.674  0.1184 -0.4103  0.1760
 3770SOL    HW122769   3.389   1.491   5.687 -0.7142 -0.4678  2.5889
 3770SOL    HW222770   3.301   1.425   5.602 -0.2505  1.4604  1.1088
 3771SOL     OW22771   1.129   1.672   5.951  0.2577  0.3038 -0.1035
 3771SOL    HW122772   1.187   1.647   6.023  0.8820 -0.4874 -0.8819
 3771SOL    HW222773   1.041   1.661   5.986  0.0947 -0.7346 -0.8297
 3772SOL     OW22774   3.373   0.399   8.906  0.1119 -0.1164 -0.0673
 3772SOL    HW122775   3.464   0.370   8.900  0.3280  0.3951  0.7030
 3772SOL    HW222776   3.386   0.467   8.972  0.3541  0.9457 -1.1985
 3773SOL     OW22777   0.659   1.298  13.986 -0.6054  0.4005  0.1474
 3773SOL    HW122778   0.653   1.223  13.926  0.0198 -1.5566  2.5010
 3773SOL    HW222779   0.643   1.377  13.936 -1.0963 -0.9556 -1.8339
 3774SOL     OW22780   0.636   0.883  14.016  0.0598 -0.6546 -0.1781
 3774SOL    HW122781   0.550   0.842  14.023 -0.0770 -0.4560 -0.7496
 3774SOL    HW222782   0.667   0.916  14.101 -0.0613  0.0511 -0.4124
 3775SOL     OW22783   4.301   4.248   4.771 -0.3037 -0.3328 -0.1508
 3775SOL    HW122784   4.376   4.227   4.827 -0.8899  1.6998  1.4007
 3775SOL    HW222785   4.259   4.308   4.832 -0.0296 -1.1709  0.8560
 3776SOL     OW22786   2.309   3.521   2.825 -0.2733 -0.4803 -0.3288
 3776SOL    HW122787   2.301   3.454   2.893  0.4278  1.5352  1.7300
 3776SOL    HW222788   2.225   3.498   2.785 -0.1810 -2.3650  0.5441
 3777SOL     OW22789   2.237   2.764   7.923 -0.3602 -0.5353  0.2647
 3777SOL    HW122790   2.230   2.827   7.995  2.2522 -0.0052  0.0480
 3777SOL    HW222791   2.147   2.731   7.923 -1.2045  1.7598  1.8031
 3778SOL     OW22792   3.936   0.966  12.981 -0.0164 -1.0221 -0.0440
 3778SOL    HW122793   4.000   0.903  13.012 -0.2616 -1.1673  0.1626
 3778SOL    HW222794   3.867   0.947  13.045  1.5432  1.0239  2.2645
 3779SOL     OW22795   0.123   2.900   3.347 -0.1591  0.0190 -0.0899
 3779SOL    HW122796   0.045   2.858   3.384 -0.7833  0.9054 -0.3855
 3779SOL    HW222797   0.077   2.983   3.338  0.5043  0.5170  1.1382
 3780SOL     OW22798   4.063   0.690   6.991  0.4357  0.0476  0.1287
 3780SOL    HW122799   4.058   0.596   7.004 -1.6731  0.2932  1.0490
 3780SOL    HW222800   4.157   0.702   7.009  0.2316  0.9564  0.6229
 3781SOL     OW22801   0.437   2.745   2.571  0.6199 -0.6466 -0.0183
 3781SOL    HW122802   0.442   2.659   2.530  1.6005 -1.7397  2.3733
 3781SOL    HW222803   0.531   2.764   2.574  0.4773  0.0412  0.1258
 3782SOL     OW22804   0.691   1.935  10.260 -0.5305 -0.1611  0.1236
 3782SOL    HW122805   0.644   1.875  10.318  1.7130 -0.1547  1.9128
 3782SOL    HW222806   0.621   1.985  10.218  1.4338 -0.3223 -3.3211
 3783SOL     OW22807   4.124   4.411   7.456  0.3593 -0.3794 -0.1698
 3783SOL    HW122808   4.037   4.446   7.441  0.5573  0.8222  1.4743
 3783SOL    HW222809   4.101   4.321   7.434  0.6462 -0.2682 -0.9310
 3784SOL     OW22810   0.432   3.239  14.680  1.0813  0.3530  0.4876
 3784SOL    HW122811   0.362   3.229  14.744  0.3331 -0.8599 -0.5289
 3784SOL    HW222812   0.380   3.282  14.612  1.8473  1.2102  0.4374
 3785SOL     OW22813   3.384   3.577  14.589 -0.2781 -0.1733 -0.0413
 3785SOL    HW122814   3.411   3.523  14.663  0.4670  0.7530  0.3545
 3785SOL    HW222815   3.347   3.513  14.529 -2.0006 -0.5412  1.4212
 3786SOL     OW22816   2.640   2.433   3.192 -0.1653  0.1451  0.0653
 3786SOL    HW122817   2.705   2.426   3.122  1.2243  3.4864  1.0368
 3786SOL    HW222818   2.613   2.341   3.200 -2.4937  0.8408  0.3277
 3787SOL     OW22819   2.529   4.394   5.921 -0.0125 -0.2454 -0.5215
 3787SOL    HW122820   2.497   4.422   5.835 -0.3278 -1.3636 -0.7694
 3787SOL    HW222821   2.550   4.481   5.955 -0.7429 -0.9259  1.6993
 3788SOL     OW22822   4.301   3.102  10.346 -0.5467 -0.1147 -0.3587
 3788SOL    HW122823   4.389   3.078  10.316 -0.5150 -1.2376  0.6249
 3788SOL    HW222824   4.260   3.088  10.261 -0.8845 -1.7108  0.0700
 3789SOL     OW22825   1.337   3.595   8.599  0.6522 -0.2213  0.2676
 3789SOL    HW122826   1.254   3.549   8.606  0.1891  0.6643  0.6290
 3789SOL    HW222827   1.351   3.607   8.693 -0.3619 -0.1561  0.4106
 3790SOL     OW22828   0.974   3.284  13.334  0.3835  0.4533 -0.3519
 3790SOL    HW122829   0.965   3.368  13.379  0.3096 -0.1799  0.8204
 3790SOL    HW222830   0.957   3.311  13.244  0.6779 -0.8380 -0.7918
 3791SOL     OW22831   0.410   4.064   8.505 -0.0001  0.1506  0.2702
 3791SOL    HW122832   0.442   3.983   8.544 -0.9102 -1.3010 -1.9788
 3791SOL    HW222833   0.341   4.032   8.447  0.8220 -0.4964 -0.3547
 3792SOL     OW22834   3.963   3.265   2.757  0.0195 -1.2222 -0.5649
 3792SOL    HW122835   3.994   3.218   2.679 -0.9609 -2.1421 -0.3999
 3792SOL    HW222836   3.918   3.193   2.800  2.9269 -2.8256 -0.2431
 3793SOL     OW22837   1.735   1.325  17.612 -0.5773 -0.3162 -0.3876
 3793SOL    HW122838   1.704   1.381  17.683 -0.6111 -1.8638  0.8410
 3793SOL    HW222839   1.752   1.379  17.536 -2.2365 -0.2524 -0.7153
 3794SOL     OW22840   1.018   4.418   2.724 -0.3887  0.5646 -0.2639
 3794SOL    HW122841   1.032   4.415   2.819 -0.4967 -2.0797 -0.3238
 3794SOL    HW222842   1.005   4.325   2.705 -2.7542  0.3743  2.3321
 3795SOL     OW22843   1.774   0.139   5.764 -0.2420  0.7528  0.9803
 3795SOL    HW122844   1.687   0.161   5.800 -0.2249 -2.5445  3.0090
 3795SOL    HW222845   1.812   0.092   5.837 -0.8847  1.2265  1.6203
 3796SOL     OW22846   0.228   0.467   7.403 -0.4424  0.0665  0.0900
 3796SOL    HW122847   0.308   0.428   7.440 -0.8072  0.8338  1.6893
 3796SOL    HW222848   0.183   0.488   7.485 -0.0996 -0.4882  0.4299
 3797SOL     OW22849   3.631   2.956   5.689 -0.2345  0.2730 -0.3333
 3797SOL    HW122850   3.589   3.026   5.740 -1.2178 -0.1475 -0.5521
 3797SOL    HW222851   3.676   2.998   5.615  0.5366 -1.1323 -0.6536
 3798SOL     OW22852   3.854   0.160  14.013  0.3143 -0.2545  0.2079
 3798SOL    HW122853   3.904   0.236  13.983 -0.1796  0.2637  0.7039
 3798SOL    HW222854   3.883   0.087  13.958 -1.6210 -0.2615 -0.8180
 3799SOL     OW22855   2.989   2.388   3.953 -0.0309  0.2538  0.2976
 3799SOL    HW122856   2.895   2.370   3.943  0.0172  0.4032 -0.3902
 3799SOL    HW222857   2.985   2.386   4.049  0.1702 -0.1897  0.2978
 3800SOL     OW22858   1.600   2.215  14.990 -0.1827 -0.2597  0.1717
 3800SOL    HW122859   1.586   2.310  14.989  0.0931 -0.2382 -3.0129
 3800SOL    HW222860   1.511   2.181  14.977  0.4403 -1.3695 -1.1440
 3801SOL     OW22861   3.800   1.628   3.786 -0.6987  0.0296  0.4907
 3801SOL    HW122862   3.722   1.574   3.799 -0.3366 -0.2030  1.7381
 3801SOL    HW222863   3.802   1.623   3.691  0.7555 -0.8459  0.5685
 3802SOL     OW22864   1.125   1.169   7.925  0.0763  0.0478  0.5991
 3802SOL    HW122865   1.219   1.163   7.943  0.3443  0.0616 -0.8235
 3802SOL    HW222866   1.107   1.081   7.957  2.8505 -0.3542  1.0582
 3803SOL     OW22867   4.274   1.465   5.867 -0.1383  0.3469 -0.3455
 3803SOL    HW122868   4.260   1.471   5.772  1.0950  0.0306 -0.5468
 3803SOL    HW222869   4.318   1.546   5.890 -0.2551 -0.1409  1.6323
 3804SOL     OW22870   0.412   1.646   2.531  0.2263  0.6353 -0.1409
 3804SOL    HW122871   0.445   1.614   2.615  1.2393 -0.6660 -1.0428
 3804SOL    HW222872   0.439   1.580   2.467 -1.3641 -1.6864  1.5871
 3805SOL     OW22873   2.727   0.747   2.161 -0.7181 -0.4605  0.0155
 3805SOL    HW122874   2.654   0.809   2.174 -0.0189  0.2770  0.4608
 3805SOL    HW222875   2.686   0.685   2.222 -3.1976  0.6006 -0.5389
 3806SOL     OW22876   0.603   0.097   6.439 -0.9213 -0.4243  0.4978
 3806SOL    HW122877   0.651   0.130   6.363 -0.3952 -1.3473  0.4343
 3806SOL    HW222878   0.628   0.005   6.433 -3.7116 -1.0467 -1.9215
 3807SOL     OW22879   2.698   2.511   5.853  0.0143 -0.1188 -0.4875
 3807SOL    HW122880   2.618   2.509   5.905 -0.0879 -0.6906 -0.6612
 3807SOL    HW222881   2.692   2.432   5.798 -1.4758  0.8060 -1.6366
 3808SOL     OW22882   0.859   1.731   2.608 -0.3206 -0.6551  0.7924
 3808SOL    HW122883   0.814   1.709   2.526 -1.2253 -0.2576  1.1789
 3808SOL    HW222884   0.935   1.778   2.573 -0.1841 -0.0978  1.8501
 3809SOL     OW22885   1.076   3.902   2.268  0.0609 -0.2673  0.7673
 3809SOL    HW122886   1.001   3.857   2.228  1.8496 -1.6859 -0.9262
 3809SOL    HW222887   1.128   3.822   2.273  0.7963  0.1656  0.0833
 3810SOL     OW22888   1.943   2.463   4.543 -0.5169  0.0732 -0.2768
 3810SOL    HW122889   1.943   2.368   4.552 -3.1339  0.0938 -0.0817
 3810SOL    HW222890   1.890   2.497   4.615  1.4915  1.6629  0.4331
 3811SOL     OW22891   3.320   2.225   5.529 -0.4789  0.3613  0.2321
 3811SOL    HW122892   3.395   2.246   5.473 -0.2009  1.4768  1.0214
 3811SOL    HW222893   3.354   2.254   5.614 -1.8851 -0.4073  1.0634
 3812SOL     OW22894   2.149   2.377   5.728 -0.2730 -0.2371  0.0434
 3812SOL    HW122895   2.197   2.436   5.670 -1.4399  0.5672 -0.0904
 3812SOL    HW222896   2.104   2.316   5.669  1.4433 -0.6784 -0.7969
 3813SOL     OW22897   2.448   0.063   9.032  0.2086  0.4323 -0.2944
 3813SOL    HW122898   2.384   0.074   8.961 -1.5018  4.4818  1.9042
 3813SOL    HW222899   2.422   0.121   9.103 -1.1613 -0.6022  0.0665
 3814SOL     OW22900   2.944   0.995   9.121 -0.3324 -0.0947 -0.0759
 3814SOL    HW122901   2.893   1.073   9.101 -0.2070 -0.2011 -0.8303
 3814SOL    HW222902   2.882   0.927   9.093  1.6186 -2.6965  1.9088
 3815SOL     OW22903   4.162   3.418  16.977 -0.1107  0.3385 -0.2716
 3815SOL    HW122904   4.139   3.469  16.899 -0.4006 -1.1512 -1.1588
 3815SOL    HW222905   4.241   3.458  17.014  0.1433  0.6437 -1.1308
 3816SOL     OW22906   2.982   4.406   2.032 -0.5301 -0.4024 -0.4429
 3816SOL    HW122907   3.048   4.437   1.970  0.5960 -1.1283  0.3773
 3816SOL    HW222908   2.924   4.371   1.965 -0.8828 -1.0747  0.2201
 3817SOL     OW22909   0.935   1.568   8.971 -0.3862 -0.4164 -0.1957
 3817SOL    HW122910   1.011   1.553   9.028 -1.0372  0.3571  0.8690
 3817SOL    HW222911   0.934   1.660   8.994 -0.2975 -0.4187 -0.1825
 3818SOL     OW22912   3.449   0.327  11.918  0.6375 -0.7256  0.1458
 3818SOL    HW122913   3.360   0.311  11.889 -0.1464  0.1790  2.0915
 3818SOL    HW222914   3.444   0.266  11.992 -0.6546  0.1773  0.7904
 3819SOL     OW22915   3.904   3.153   3.484  0.4696  0.5254 -0.9097
 3819SOL    HW122916   3.809   3.161   3.487  0.3616 -1.7638  1.2655
 3819SOL    HW222917   3.934   3.234   3.441  2.3786  0.9478  1.2182
 3820SOL     OW22918   1.618   4.200   4.485  0.0772 -0.3761  0.1161
 3820SOL    HW122919   1.562   4.213   4.561 -0.8904 -2.0670 -0.3054
 3820SOL    HW222920   1.698   4.187   4.536 -0.1226  0.7367  0.7137
 3821SOL     OW22921   1.116   3.715   4.984 -0.0214 -0.0995 -0.5745
 3821SOL    HW122922   1.037   3.766   5.000  1.0159  1.9811 -2.0996
 3821SOL    HW222923   1.099   3.642   5.044 -1.5304 -0.7640 -1.8243
 3822SOL     OW22924   1.896   3.615  12.969  0.3054  0.0398  0.2453
 3822SOL    HW122925   1.981   3.643  13.002  0.8126 -0.1121 -0.9140
 3822SOL    HW222926   1.865   3.705  12.961 -0.2094 -0.2834 -1.4870
 3823SOL     OW22927   2.233   0.411   8.749 -0.1903 -0.2114 -0.1608
 3823SOL    HW122928   2.172   0.475   8.785 -0.2305  0.3553 -1.2487
 3823SOL    HW222929   2.310   0.464   8.728 -1.2939 -0.0367 -3.7523
 3824SOL     OW22930   3.410   2.713   4.057  0.0081 -0.3268  0.2756
 3824SOL    HW122931   3.327   2.722   4.102 -0.6398 -1.2043 -0.7631
 3824SOL    HW222932   3.414   2.624   4.024 -0.6178 -0.3229  0.1951
 3825SOL     OW22933   1.593   0.021   6.983 -0.0015 -0.0453 -0.6444
 3825SOL    HW122934   1.544   4.680   7.031 -0.9501  1.9635  1.1680
 3825SOL    HW222935   1.627   0.065   7.061  0.9904 -1.4685 -0.2937
 3826SOL     OW22936   2.735   4.491   4.247 -0.0452 -0.3058 -0.1024
 3826SOL    HW122937   2.787   4.499   4.167 -1.8482  1.0882 -1.1302
 3826SOL    HW222938   2.791   4.521   4.318 -1.1199  2.4909 -0.4251
 3827SOL     OW22939   4.437   4.180   5.723 -0.4910  0.9501 -0.1910
 3827SOL    HW122940   4.502   4.245   5.697  1.0112  0.8298  3.2189
 3827SOL    HW222941   4.395   4.223   5.798  2.5404 -0.3154  2.2533
 3828SOL     OW22942   0.576   3.169   7.517 -0.3096 -0.4925  0.6244
 3828SOL    HW122943   0.488   3.132   7.516 -0.3725 -0.2994 -0.2709
 3828SOL    HW222944   0.585   3.197   7.609  1.4393  1.9534 -0.3059
 3829SOL     OW22945   2.490   0.823   6.846 -0.1137  0.0930  0.3911
 3829SOL    HW122946   2.435   0.837   6.769  1.8889 -1.3441 -1.3082
 3829SOL    HW222947   2.447   0.746   6.884  1.5457 -2.1356 -2.1938
 3830SOL     OW22948   0.338   1.321   8.579  0.2912  0.2715 -0.0240
 3830SOL    HW122949   0.278   1.355   8.646 -2.6709 -1.0021 -1.9996
 3830SOL    HW222950   0.318   1.361   8.495  2.6122  0.7913 -0.3071
 3831SOL     OW22951   4.273   4.497   5.265 -0.1263  0.1926  0.1649
 3831SOL    HW122952   4.257   4.408   5.233 -1.0716 -0.2975  1.9898
 3831SOL    HW222953   4.183   4.528   5.259 -1.3712 -3.2292  1.2081
 3832SOL     OW22954   1.708   0.325  16.610 -0.2266 -0.2247 -0.0975
 3832SOL    HW122955   1.637   0.321  16.674 -0.0307 -0.4867  0.1002
 3832SOL    HW222956   1.777   0.272  16.650  1.3816  0.6556 -1.6986
 3833SOL     OW22957   0.632   0.994  16.205  0.1862 -0.2663  0.1917
 3833SOL    HW122958   0.699   1.044  16.158 -1.1386  0.2325 -1.2161
 3833SOL    HW222959   0.585   0.951  16.133  1.9522  1.6626 -2.1171
 3834SOL     OW22960   2.104   3.909   6.744  0.1944 -0.5547  0.2339
 3834SOL    HW122961   2.016   3.879   6.722  0.0434  0.3325 -0.3929
 3834SOL    HW222962   2.140   3.825   6.771 -1.4603 -0.8061  1.5851
 3835SOL     OW22963   4.104   1.602  14.584 -0.5873 -0.2219  0.3604
 3835SOL    HW122964   4.194   1.632  14.594 -0.8319  0.7919 -0.5168
 3835SOL    HW222965   4.115   1.518  14.538 -1.4444 -0.4036  0.4720
 3836SOL     OW22966   1.582   0.535   8.380  0.0621  0.1555 -0.4924
 3836SOL    HW122967   1.656   0.490   8.340 -0.2988 -1.5316  0.7110
 3836SOL    HW222968   1.505   0.505   8.332  0.3591 -2.7113  0.7706
 3837SOL     OW22969   0.461   2.645  16.556  0.3680 -0.4494  0.1034
 3837SOL    HW122970   0.439   2.556  16.527  2.2866 -1.0737  0.5377
 3837SOL    HW222971   0.505   2.628  16.640 -0.0136 -0.6734  0.2591
 3838SOL     OW22972   2.333   1.083   9.860  0.3675 -0.2020 -0.4997
 3838SOL    HW122973   2.347   1.074   9.765 -1.1907  0.2731 -0.7750
 3838SOL    HW222974   2.417   1.045   9.885  0.0110 -2.0206 -2.0120
 3839SOL     OW22975   3.995   2.593   5.647  0.1891  0.1329 -0.3635
 3839SOL    HW122976   3.922   2.651   5.666 -0.0182  0.3766 -1.9101
 3839SOL    HW222977   4.037   2.588   5.733  1.9224 -0.1665 -1.2262
 3840SOL     OW22978   4.598   1.182   3.970 -0.1508 -0.1567  0.1005
 3840SOL    HW122979   4.647   1.122   3.913  0.3271 -0.4784  0.8468
 3840SOL    HW222980   4.554   1.235   3.904 -2.3452 -0.1646  1.5778
 3841SOL     OW22981   2.641   2.777   7.619 -0.6569  0.2053 -0.3976
 3841SOL    HW122982   2.716   2.744   7.570  0.1547  0.2219  0.8333
 3841SOL    HW222983   2.614   2.692   7.653 -0.9785  1.2056  1.8460
 3842SOL     OW22984   1.990   2.674   9.797  0.0601  0.3886  0.3563
 3842SOL    HW122985   2.081   2.701   9.788  0.3570  0.6559  4.2209
 3842SOL    HW222986   1.980   2.604   9.733  1.6118  0.3391  0.1704
 3843SOL     OW22987   2.153   2.868   9.328  0.2485  0.0899 -0.4096
 3843SOL    HW122988   2.168   2.951   9.373 -0.8766  0.3571 -0.5353
 3843SOL    HW222989   2.157   2.909   9.242 -0.2227 -1.4917 -1.1825
 3844SOL     OW22990   1.311   3.905  16.090  0.2307 -0.3774  0.5884
 3844SOL    HW122991   1.328   3.812  16.105  0.9548 -0.6524 -1.8800
 3844SOL    HW222992   1.319   3.907  15.994 -0.5158  0.6057  0.5493
 3845SOL     OW22993   3.456   3.741   8.061  0.3823  0.4103 -0.1806
 3845SOL    HW122994   3.438   3.834   8.077  0.7645  0.0581  2.2941
 3845SOL    HW222995   3.386   3.708   8.117 -0.7559  1.5971 -0.8979
 3846SOL     OW22996   4.596   2.137   4.941  0.1711  0.2133 -0.0232
 3846SOL    HW122997   4.524   2.173   4.994  0.5037 -0.2554  0.7479
 3846SOL    HW222998   4.668   2.200   4.953  0.6901 -0.2756 -0.6386
 3847SOL     OW22999   1.753   3.891  14.787  0.3200 -0.3466  0.1324
 3847SOL    HW123000   1.838   3.912  14.827  0.6100 -3.5551  1.2248
 3847SOL    HW223001   1.767   3.805  14.746  0.7018  0.0938 -0.6613
 3848SOL     OW23002   3.231   3.575   6.099 -0.7082  1.1068 -0.6272
 3848SOL    HW123003   3.151   3.612   6.136 -1.3158 -0.5146 -0.3155
 3848SOL    HW223004   3.233   3.494   6.151  1.3170  0.8312 -1.1446
 3849SOL     OW23005   0.288   4.441   4.617  0.2656  0.1066  0.4057
 3849SOL    HW123006   0.350   4.510   4.642  1.2191 -0.5201 -0.2200
 3849SOL    HW223007   0.335   4.366   4.654 -1.6237 -0.3767  1.7980
 3850SOL     OW23008   4.105   4.263   2.054  0.0812 -0.2246 -0.4348
 3850SOL    HW123009   4.081   4.348   2.091 -1.6993 -1.1041  0.3780
 3850SOL    HW223010   4.138   4.289   1.967 -2.9208 -1.6930 -1.9934
 3851SOL     OW23011   2.573   3.950   5.438 -0.2434  0.2986 -0.9199
 3851SOL    HW123012   2.533   3.891   5.501 -2.5538  0.7509 -1.9875
 3851SOL    HW223013   2.666   3.928   5.444 -0.0084  1.6089  0.3515
 3852SOL     OW23014   4.295   1.365   7.786  0.5127  0.1047  0.1168
 3852SOL    HW123015   4.268   1.431   7.722  2.6354 -0.9698 -1.9143
 3852SOL    HW223016   4.321   1.295   7.726 -1.0751 -1.0374  0.7892
 3853SOL     OW23017   4.623   3.655   5.706  0.0527  0.3467  0.1090
 3853SOL    HW123018   4.647   3.563   5.700 -1.3966 -0.0573  0.4921
 3853SOL    HW223019   4.709   3.688   5.732  0.6276 -0.8954 -0.2197
 3854SOL     OW23020   3.079   3.871   6.453 -0.4802 -0.1150  0.0824
 3854SOL    HW123021   2.986   3.880   6.474 -0.3489 -0.5962  0.8755
 3854SOL    HW223022   3.134   3.910   6.521 -0.0297  1.0150 -0.9248
 3855SOL     OW23023   2.648   3.920  12.463 -0.7123 -0.0293  0.8178
 3855SOL    HW123024   2.696   3.840  12.441 -1.9918 -1.1910  2.2512
 3855SOL    HW223025   2.599   3.929  12.381 -2.5714  1.6318  2.1200
 3856SOL     OW23026   3.570   3.691  15.004  0.2425 -0.5988 -0.3919
 3856SOL    HW123027   3.479   3.711  15.028  0.4483 -0.9725  0.6592
 3856SOL    HW223028   3.562   3.620  14.940 -0.8797 -0.3377 -0.5478
 3857SOL     OW23029   1.511   4.496   7.114  0.5422  0.2125 -0.0895
 3857SOL    HW123030   1.439   4.559   7.112 -0.3916 -0.8563  0.6710
 3857SOL    HW223031   1.493   4.461   7.201 -1.6928 -0.8818 -0.9856
 3858SOL     OW23032   0.073   4.323   5.411  0.2959  0.0624  0.7714
 3858SOL    HW123033   4.723   4.278   5.371 -0.2080  1.5081  0.0785
 3858SOL    HW223034   0.142   4.261   5.389 -0.2537 -0.3756  0.2739
 3859SOL     OW23035   3.567   3.356   7.102  0.6676 -0.1802 -0.4375
 3859SOL    HW123036   3.596   3.344   7.193 -0.2210 -3.0193 -0.5487
 3859SOL    HW223037   3.636   3.316   7.049 -0.3732  0.2076 -2.0737
 3860SOL     OW23038   0.302   1.301  15.572 -0.8804  0.9859 -0.3006
 3860SOL    HW123039   0.331   1.377  15.522 -2.3848  0.5239 -1.8448
 3860SOL    HW223040   0.369   1.312  15.640 -2.4409  1.5362  1.1589
 3861SOL     OW23041   0.250   4.011  10.858  0.2555 -0.2632 -0.7200
 3861SOL    HW123042   0.226   4.070  10.787 -1.2482  0.9611  0.7993
 3861SOL    HW223043   0.232   3.923  10.825 -0.6345 -0.0911 -0.6997
 3862SOL     OW23044   3.908   1.835   1.678  0.3093  0.0905  0.1096
 3862SOL    HW123045   3.815   1.824   1.699  0.2180 -0.1528 -0.4351
 3862SOL    HW223046   3.917   1.863   1.587 -0.4947 -0.5375 -0.1554
 3863SOL     OW23047   4.364   0.354   0.859 -0.1963  0.9505 -0.0663
 3863SOL    HW123048   4.402   0.441   0.871  0.3239  0.4637  1.8181
 3863SOL    HW223049   4.304   0.345   0.933  1.8799 -1.1660  1.3662
 3864SOL     OW23050   0.447   3.435   7.915  0.1549 -0.0486 -0.3250
 3864SOL    HW123051   0.484   3.420   8.002 -0.6835  0.9143  0.1898
 3864SOL    HW223052   0.522   3.443   7.855 -0.7482 -0.9499 -1.5708
 3865SOL     OW23053   3.378   2.088   2.902 -0.2048 -0.2189  0.2555
 3865SOL    HW123054   3.396   2.125   2.989  1.4022 -2.7015  0.9711
 3865SOL    HW223055   3.345   2.161   2.850  1.8592  1.6948  1.6387
 3866SOL     OW23056   0.883   1.019   1.081  1.2744  0.6681  0.6864
 3866SOL    HW123057   0.813   0.955   1.094  0.0238  1.9774  0.3860
 3866SOL    HW223058   0.836   1.101   1.069 -1.2721 -1.0669 -1.4430
 3867SOL     OW23059   2.607   4.657   1.904  0.4447  0.3222 -0.4176
 3867SOL    HW123060   2.610   4.562   1.910 -0.1760  0.2673 -0.9684
 3867SOL    HW223061   2.700   4.669   1.885  0.0158  2.2426 -1.3451
 3868SOL     OW23062   1.615   3.477   4.733 -0.5704  0.1091 -0.6803
 3868SOL    HW123063   1.663   3.542   4.783 -1.4656  0.2812 -0.0514
 3868SOL    HW223064   1.631   3.392   4.775 -1.2626 -0.7599 -2.1496
 3869SOL     OW23065   0.955   2.638   2.771  0.0674 -0.3682 -0.4425
 3869SOL    HW123066   0.990   2.626   2.683  1.2037  1.0115 -0.1801
 3869SOL    HW223067   0.926   2.730   2.768  0.8423 -0.1583 -1.3744
 3870SOL     OW23068   0.147   3.648   4.892  0.5305 -0.1669 -0.1688
 3870SOL    HW123069   0.102   3.573   4.930  0.3463  0.0902  0.1197
 3870SOL    HW223070   0.121   3.720   4.949 -1.4174  0.3628 -1.7078
 3871SOL     OW23071   4.478   3.185   4.030  0.4980 -0.2025 -0.0920
 3871SOL    HW123072   4.497   3.144   4.115  2.4541  0.6698 -0.0874
 3871SOL    HW223073   4.392   3.224   4.042  1.0839  0.8000  0.9328
 3872SOL     OW23074   4.627   2.459  12.104  0.1547 -0.0228  0.2388
 3872SOL    HW123075   4.696   2.444  12.168  1.4727 -0.9551 -1.3944
 3872SOL    HW223076   4.559   2.407  12.146 -1.4471  0.5770 -1.6136
 3873SOL     OW23077   0.094   3.863   8.098  0.5105  0.0065  0.3659
 3873SOL    HW123078   0.088   3.769   8.115  1.2704 -0.6281 -2.9690
 3873SOL    HW223079   0.004   3.884   8.071  1.4703 -0.4577 -3.1449
 3874SOL     OW23080   3.476   1.633   7.809  0.3554 -0.7997 -0.0679
 3874SOL    HW123081   3.494   1.551   7.763  0.6921 -1.2384  0.8466
 3874SOL    HW223082   3.381   1.625   7.811  0.2667  0.3551  0.2086
 3875SOL     OW23083   2.429   4.572   7.201  0.4156 -0.1528 -0.5200
 3875SOL    HW123084   2.426   4.665   7.180  0.4525  0.1765  0.9458
 3875SOL    HW223085   2.378   4.546   7.124 -0.8788  0.9894 -0.0585
 3876SOL     OW23086   0.892   2.291   7.343  0.0181 -0.3690  0.7832
 3876SOL    HW123087   0.898   2.355   7.413 -1.8276 -0.2792  0.8507
 3876SOL    HW223088   0.877   2.208   7.388  1.5341 -2.3700 -2.3918
 3877SOL     OW23089   3.228   1.580   2.942  0.1648  0.5340 -0.4221
 3877SOL    HW123090   3.298   1.545   2.887 -0.1008 -0.3475 -0.2025
 3877SOL    HW223091   3.249   1.673   2.941  0.9582  0.3579 -0.3835
 3878SOL     OW23092   3.489   4.209   6.302  0.0854  0.4252  0.7298
 3878SOL    HW123093   3.470   4.208   6.208 -0.9006 -0.2310  0.9411
 3878SOL    HW223094   3.580   4.182   6.311  0.3300  0.4709 -1.6766
 3879SOL     OW23095   1.683   4.221   5.578 -0.0559  0.9301  0.8022
 3879SOL    HW123096   1.770   4.252   5.555 -0.2739  1.0066  0.0781
 3879SOL    HW223097   1.696   4.207   5.671  1.6552  1.0915  0.5887
 3880SOL     OW23098   0.582   3.472  14.599 -0.0040  0.0214 -0.2682
 3880SOL    HW123099   0.572   3.456  14.505  0.7776  1.2041 -0.5594
 3880SOL    HW223100   0.576   3.383  14.633 -0.5221 -0.1173 -0.7207
 3881SOL     OW23101   1.437   2.439   4.413  0.0942 -1.1265 -0.6003
 3881SOL    HW123102   1.381   2.470   4.484  2.4183 -0.0112  0.7695
 3881SOL    HW223103   1.470   2.523   4.380  0.7960 -2.0556 -2.2510
 3882SOL     OW23104   1.789   3.187  12.644  0.3373 -0.1597 -0.1189
 3882SOL    HW123105   1.854   3.131  12.687  0.1141  0.1350  0.6051
 3882SOL    HW223106   1.825   3.270  12.675 -0.0628  0.5616 -1.5905
 3883SOL     OW23107   2.000   2.161   5.632 -0.4807  0.0251  0.1264
 3883SOL    HW123108   1.937   2.221   5.592 -1.0700 -0.1831  0.7523
 3883SOL    HW223109   1.945   2.087   5.658  0.8704 -0.5528  1.3557
 3884SOL     OW23110   3.092   4.009   7.988 -0.6663 -0.5301  0.0895
 3884SOL    HW123111   3.113   4.095   8.024  0.5051 -0.9824  0.4622
 3884SOL    HW223112   3.088   4.030   7.894  1.3953 -0.9864 -0.0905
 3885SOL     OW23113   2.593   1.625   2.479  0.3246 -0.2047 -0.3085
 3885SOL    HW123114   2.627   1.589   2.561  0.8683 -0.7750 -0.7834
 3885SOL    HW223115   2.508   1.582   2.482 -0.6687  1.6526 -1.8878
 3886SOL     OW23116   4.090   2.698  16.133 -0.2332  0.2395  0.1083
 3886SOL    HW123117   4.015   2.722  16.187 -0.5762 -1.4290  0.3614
 3886SOL    HW223118   4.133   2.644  16.199 -0.8815 -1.3326 -0.7480
 3887SOL     OW23119   2.996   1.951   3.525 -0.3574 -0.4708 -0.0534
 3887SOL    HW123120   3.019   1.885   3.459  1.5960  0.7369 -0.5841
 3887SOL    HW223121   2.931   1.911   3.582 -0.7123  0.3382  0.1114
 3888SOL     OW23122   3.731   3.943   9.651  0.2505  0.1524  0.0851
 3888SOL    HW123123   3.757   4.033   9.629 -1.0215  0.6444  0.6295
 3888SOL    HW223124   3.819   3.906   9.663  0.0378 -0.3276  0.1662
 3889SOL     OW23125   0.808   3.413  12.693  0.2233  0.0649 -0.0508
 3889SOL    HW123126   0.886   3.358  12.693 -0.3297 -0.7144 -1.1061
 3889SOL    HW223127   0.816   3.480  12.760 -2.3451  0.9659 -0.6704
 3890SOL     OW23128   3.011   1.841  14.649 -0.2013 -0.1856 -0.3150
 3890SOL    HW123129   3.006   1.884  14.735  1.3821 -1.2725  0.3120
 3890SOL    HW223130   3.098   1.803  14.660 -0.3272 -0.5220 -0.4917
 3891SOL     OW23131   1.009   1.260  14.257 -0.0224 -0.0811 -0.3546
 3891SOL    HW123132   1.049   1.182  14.296 -0.8151 -1.6894 -2.8225
 3891SOL    HW223133   0.981   1.222  14.174  0.8760  0.6546 -0.9939
 3892SOL     OW23134   2.899   0.150   7.102 -0.0057 -0.1227  0.3495
 3892SOL    HW123135   2.948   0.198   7.169  3.1820 -0.0100 -2.0725
 3892SOL    HW223136   2.888   0.222   7.040 -2.1111  1.5304  2.6043
 3893SOL     OW23137   1.315   1.738   9.483  0.2395 -0.8462 -0.1777
 3893SOL    HW123138   1.367   1.757   9.405  1.9232  0.8725  1.3371
 3893SOL    HW223139   1.364   1.791   9.546  1.3831 -0.0620 -1.7102
 3894SOL     OW23140   3.574   3.829   1.694  0.2952  0.0088  0.7391
 3894SOL    HW123141   3.647   3.823   1.631  1.8196 -0.9672  2.5948
 3894SOL    HW223142   3.564   3.924   1.693 -1.1979 -0.1623 -1.4325
 3895SOL     OW23143   0.483   4.652   5.022 -0.0501  0.0205 -0.4453
 3895SOL    HW123144   0.513   4.687   5.106 -3.3676  2.7266 -0.3399
 3895SOL    HW223145   0.483   4.557   5.028  1.9142  0.1158  0.9485
 3896SOL     OW23146   2.247   3.151   8.595 -0.0429 -0.2170  0.0806
 3896SOL    HW123147   2.188   3.197   8.655 -0.6836 -0.2592 -0.5101
 3896SOL    HW223148   2.218   3.065   8.626  2.9433 -1.2628 -0.0689
 3897SOL     OW23149   3.164   0.344   2.383 -0.2760  0.0458  0.1598
 3897SOL    HW123150   3.168   0.358   2.289  1.3879 -1.6630 -0.0009
 3897SOL    HW223151   3.161   0.436   2.412  0.1762  0.2136 -0.3265
 3898SOL     OW23152   2.888   1.022  12.844  0.6709  0.1434 -0.6291
 3898SOL    HW123153   2.930   0.950  12.796 -0.2370 -0.4942 -0.4650
 3898SOL    HW223154   2.875   1.084  12.772 -3.0439 -0.7840 -0.7941
 3899SOL     OW23155   3.162   3.407   7.033 -0.1841  0.4972  0.8181
 3899SOL    HW123156   3.105   3.335   7.057  2.4399 -1.3984  1.3520
 3899SOL    HW223157   3.237   3.364   6.993 -2.4728 -0.8444 -2.0170
 3900SOL     OW23158   0.690   1.635   5.137  0.0567 -0.4872 -0.2162
 3900SOL    HW123159   0.682   1.638   5.232 -4.2473 -0.2732 -0.5687
 3900SOL    HW223160   0.643   1.554   5.118  1.9626 -2.0330  1.7163
 3901SOL     OW23161   3.299   3.883   4.935  0.0473 -0.0426 -0.8138
 3901SOL    HW123162   3.318   3.812   4.873 -0.8277 -0.2446 -0.8610
 3901SOL    HW223163   3.322   3.961   4.886  0.5703 -0.3421 -1.0390
 3902SOL     OW23164   4.593   2.912   7.970 -0.1085 -0.0773 -0.4823
 3902SOL    HW123165   4.630   2.928   8.057 -1.6412  0.4933  0.0498
 3902SOL    HW223166   4.505   2.884   7.992 -0.4030  1.4032  0.2499
 3903SOL     OW23167   2.137   4.136   7.782  0.0935 -0.3235 -0.0143
 3903SOL    HW123168   2.061   4.193   7.795  0.3606 -0.7832  3.4879
 3903SOL    HW223169   2.089   4.065   7.739 -0.5330 -0.4435  0.9084
 3904SOL     OW23170   4.573   0.282  12.417  0.2773  0.0296  0.5679
 3904SOL    HW123171   4.568   0.186  12.413  1.1727  0.0861 -2.5077
 3904SOL    HW223172   4.537   0.300  12.504  0.1277  0.3565  0.4383
 3905SOL     OW23173   3.162   1.496   9.139  0.1507  0.3991 -0.0548
 3905SOL    HW123174   3.219   1.568   9.111  2.4947 -0.8684  1.5446
 3905SOL    HW223175   3.079   1.520   9.097  0.7120 -0.6155 -1.7492
 3906SOL     OW23176   2.646   2.457   8.517 -0.5318 -0.0276  0.0956
 3906SOL    HW123177   2.637   2.385   8.455 -2.6932 -0.0807  0.4653
 3906SOL    HW223178   2.679   2.404   8.590  2.0354 -0.2039 -1.2309
 3907SOL     OW23179   2.022   0.805   1.840  0.5811 -0.4640 -0.2204
 3907SOL    HW123180   2.000   0.897   1.853  1.0223 -0.4668  0.5877
 3907SOL    HW223181   1.979   0.772   1.920 -1.9120  1.0619 -0.9382
 3908SOL     OW23182   4.173   0.279   6.694 -0.5394  0.4533  0.3834
 3908SOL    HW123183   4.158   0.185   6.709 -0.7160  0.7258  1.9345
 3908SOL    HW223184   4.113   0.299   6.622  1.0144  0.5301 -0.9023
 3909SOL     OW23185   2.094   2.372   4.881  0.1463  0.4404 -0.1065
 3909SOL    HW123186   2.015   2.426   4.892 -0.6485 -0.6855 -0.2729
 3909SOL    HW223187   2.068   2.288   4.843 -0.7926  0.4699  0.4705
 3910SOL     OW23188   3.815   4.339  16.738  0.1954  0.0430  0.1825
 3910SOL    HW123189   3.765   4.316  16.660 -0.2745  0.3771  0.3850
 3910SOL    HW223190   3.736   4.347  16.791 -0.0797  1.5145 -0.4613
 3911SOL     OW23191   3.705   0.369   5.403 -0.1667 -0.1807  0.2746
 3911SOL    HW123192   3.770   0.301   5.422  0.3415 -0.2014 -1.4738
 3911SOL    HW223193   3.641   0.311   5.361 -1.5772  0.6525  1.2379
 3912SOL     OW23194   0.545   3.821   1.279 -0.0328  0.5778 -0.2257
 3912SOL    HW123195   0.485   3.881   1.324 -1.5879 -1.0970 -0.1019
 3912SOL    HW223196   0.594   3.787   1.353  1.5033  0.9588 -1.0614
 3913SOL     OW23197   4.481   1.581   0.679 -0.2851  0.2164  0.0275
 3913SOL    HW123198   4.420   1.654   0.670 -0.6714 -0.1826 -0.5927
 3913SOL    HW223199   4.535   1.589   0.600  2.5232 -0.1840  1.9335
 3914SOL     OW23200   3.548   3.660  12.805 -0.2835  0.1003  0.0286
 3914SOL    HW123201   3.474   3.600  12.817 -0.2140  0.1298  0.6212
 3914SOL    HW223202   3.513   3.715  12.735  1.4259  1.3752  0.1775
 3915SOL     OW23203   3.522   1.184   4.165  0.2386 -0.0560  0.4843
 3915SOL    HW123204   3.503   1.261   4.218  1.6161  1.2587 -0.9175
 3915SOL    HW223205   3.438   1.139   4.174 -0.6372  1.2134 -1.3955
 3916SOL     OW23206   3.536   1.587   4.429 -0.0454  0.2338 -0.4441
 3916SOL    HW123207   3.508   1.497   4.412  1.8571 -0.6503  1.0543
 3916SOL    HW223208   3.541   1.624   4.341  1.1243  0.2623 -0.3588
 3917SOL     OW23209   0.009   0.939  11.277  0.1401  0.4579  0.1405
 3917SOL    HW123210   0.097   0.933  11.240 -1.2702 -2.3194 -2.7478
 3917SOL    HW223211   0.016   1.016  11.334 -1.8133  0.3356  0.5578
 3918SOL     OW23212   3.412   3.184   5.781  0.1310 -0.7653  0.1339
 3918SOL    HW123213   3.423   3.150   5.870  0.7511  2.3970  1.2806
 3918SOL    HW223214   3.414   3.275   5.810  0.0089 -0.5813 -0.4509
 3919SOL     OW23215   3.780   4.398  12.175  0.0201 -0.0447  0.1165
 3919SOL    HW123216   3.744   4.323  12.126  1.8421 -1.2036  0.5761
 3919SOL    HW223217   3.865   4.365  12.202  0.5842  0.3723 -1.1790
 3920SOL     OW23218   0.230   1.058   1.996  0.6269  0.5240  0.3318
 3920SOL    HW123219   0.175   1.136   1.987 -0.1742 -0.2751 -1.8074
 3920SOL    HW223220   0.164   0.990   2.013 -1.1692  2.4143  0.9689
 3921SOL     OW23221   2.764   3.259   0.914 -0.1224 -0.6124  0.2325
 3921SOL    HW123222   2.678   3.219   0.925  0.3037 -1.4585  0.4837
 3921SOL    HW223223   2.818   3.181   0.924  2.2484  0.8836 -0.7579
 3922SOL     OW23224   2.288   1.390   0.592  0.3443 -0.3444 -0.1252
 3922SOL    HW123225   2.265   1.377   0.500 -1.8166 -0.2024  0.3823
 3922SOL    HW223226   2.206   1.425   0.628 -2.0899 -3.4086 -2.6533
 3923SOL     OW23227   3.470   1.441  11.038 -0.7205 -0.3250  0.2666
 3923SOL    HW123228   3.506   1.527  11.061 -0.3858 -1.2362  3.1590
 3923SOL    HW223229   3.380   1.459  11.011 -0.2516  0.3793 -0.7990
 3924SOL     OW23230   3.562   4.625   5.535 -0.0711  0.8643 -0.1103
 3924SOL    HW123231   3.542   4.545   5.486 -0.5124  0.7140  0.3133
 3924SOL    HW223232   3.637   4.667   5.494  0.3896 -1.1947 -1.3387
 3925SOL     OW23233   4.053   3.013   4.149 -0.4967 -0.0432 -0.1827
 3925SOL    HW123234   4.012   3.089   4.191 -1.1113 -0.6059  0.2340
 3925SOL    HW223235   3.979   2.971   4.105  0.0160  1.1282 -2.1605
 3926SOL     OW23236   2.800   2.331  11.126 -0.0614  0.9999  0.7327
 3926SOL    HW123237   2.736   2.301  11.190  0.3176  0.5530  0.9002
 3926SOL    HW223238   2.850   2.403  11.166 -0.2098  2.1310 -1.0928
 3927SOL     OW23239   2.657   0.261   2.898 -0.5423  0.1769  0.4955
 3927SOL    HW123240   2.570   0.230   2.925 -0.7210  0.0364 -0.2383
 3927SOL    HW223241   2.680   0.225   2.812  0.1953 -1.3182  1.3312
 3928SOL     OW23242   2.290   0.957   9.334 -0.3338 -0.3072 -0.4888
 3928SOL    HW123243   2.294   0.922   9.245  0.8428  0.1900 -0.6398
 3928SOL    HW223244   2.227   1.028   9.325 -0.6890  0.0474  4.9203
 3929SOL     OW23245   0.274   0.398  17.287 -0.1049 -0.3030  0.2094
 3929SOL    HW123246   0.237   0.326  17.338  2.7487 -1.8402  0.0935
 3929SOL    HW223247   0.247   0.470  17.344 -0.9993 -1.0648  0.7509
 3930SOL     OW23248   3.257   3.621  12.265  0.5030 -0.0067  0.3382
 3930SOL    HW123249   3.320   3.668  12.211 -0.7939  1.3037 -0.0494
 3930SOL    HW223250   3.290   3.532  12.251 -0.5011 -0.6342  1.9613
 3931SOL     OW23251   1.231   3.549  12.287 -0.1110  0.1734  0.1485
 3931SOL    HW123252   1.275   3.560  12.371  1.1838  0.9557 -0.6360
 3931SOL    HW223253   1.306   3.541  12.228 -0.4251  0.6735 -0.3238
 3932SOL     OW23254   3.000   0.915  13.661  0.4392  0.3404  0.7328
 3932SOL    HW123255   2.906   0.926  13.647  0.5462 -0.9757 -0.8851
 3932SOL    HW223256   3.007   0.890  13.753 -0.9403 -3.4711 -0.2013
 3933SOL     OW23257   1.633   3.640   6.274  0.1492  0.8857 -0.0772
 3933SOL    HW123258   1.571   3.667   6.206 -1.4748 -0.5323  0.8233
 3933SOL    HW223259   1.641   3.724   6.320 -0.3448 -0.1195  1.8358
 3934SOL     OW23260   3.321   3.185  15.220 -0.5198  0.0712 -0.0587
 3934SOL    HW123261   3.383   3.166  15.149 -0.7381  2.2248 -0.8148
 3934SOL    HW223262   3.252   3.224  15.167 -1.8448 -0.4884  1.2742
 3935SOL     OW23263   2.016   2.138  11.486 -0.6957 -0.1169 -0.2037
 3935SOL    HW123264   2.050   2.173  11.568 -0.3575  0.2814 -0.5134
 3935SOL    HW223265   1.925   2.126  11.512 -0.7817  1.5090  0.2301
 3936SOL     OW23266   1.904   4.483   6.679 -0.5702 -0.4806 -0.0252
 3936SOL    HW123267   1.985   4.532   6.696  0.3281 -1.7952 -0.5179
 3936SOL    HW223268   1.839   4.547   6.709  0.6527  0.5710  0.4327
 3937SOL     OW23269   3.790   4.650   5.951 -0.2610  0.2039  0.1420
 3937SOL    HW123270   3.849   4.575   5.944 -0.2379  0.1512  0.9058
 3937SOL    HW223271   3.825   4.718   6.007  0.9272  1.0944 -1.6842
 3938SOL     OW23272   2.851   1.673   7.876 -0.7950 -0.7791  0.0359
 3938SOL    HW123273   2.879   1.748   7.824 -0.3795  0.5775  2.2115
 3938SOL    HW223274   2.818   1.713   7.956  0.5882 -0.6503  0.5299
 3939SOL     OW23275   0.970   3.225   3.736  0.1575  0.9270  0.0375
 3939SOL    HW123276   0.906   3.291   3.762  1.2232  1.7438  0.6090
 3939SOL    HW223277   1.048   3.255   3.783  0.6855 -0.0724 -0.2010
 3940SOL     OW23278   0.181   0.652   0.533  1.3388 -0.2082 -0.0309
 3940SOL    HW123279   0.197   0.737   0.492 -0.2479 -0.1486 -0.5088
 3940SOL    HW223280   0.239   0.595   0.483 -1.4294 -2.4722 -0.6764
 3941SOL     OW23281   3.764   0.783   6.055 -0.0892 -0.0683 -0.3904
 3941SOL    HW123282   3.835   0.748   6.109  1.4117  1.0835 -1.6164
 3941SOL    HW223283   3.733   0.703   6.012 -0.1420 -0.7999  1.0143
 3942SOL     OW23284   1.914   4.404   6.261  0.3054 -0.0481  0.1942
 3942SOL    HW123285   1.875   4.363   6.184  1.1517  0.6805 -0.6250
 3942SOL    HW223286   2.006   4.380   6.253 -0.3682 -2.6742  0.5036
 3943SOL     OW23287   0.759   4.112   6.544  0.9101 -0.1776 -0.3675
 3943SOL    HW123288   0.805   4.122   6.461  1.3406  1.4880  0.0636
 3943SOL    HW223289   0.755   4.017   6.535  1.5229  0.0343 -2.8483
 3944SOL     OW23290   1.601   4.147   6.822  0.4144 -0.3990  0.1935
 3944SOL    HW123291   1.540   4.209   6.783  1.2297 -0.4470 -1.1572
 3944SOL    HW223292   1.644   4.215   6.874  0.6180 -2.6760  2.9886
 3945SOL     OW23293   2.366   1.716   8.325  0.3499 -0.8700 -0.3273
 3945SOL    HW123294   2.273   1.719   8.349  0.5323  1.2524  0.1125
 3945SOL    HW223295   2.371   1.621   8.318  0.1102 -0.8940 -0.1798
 3946SOL     OW23296   1.329   0.602   9.623 -0.3307 -0.5201  0.4499
 3946SOL    HW123297   1.239   0.587   9.653 -0.9589 -0.5610 -1.4543
 3946SOL    HW223298   1.363   0.677   9.673 -1.9113 -0.5833  1.6458
 3947SOL     OW23299   1.998   2.980   7.705 -0.0840  0.0682  0.3229
 3947SOL    HW123300   2.064   3.027   7.755  1.7813 -2.0374 -0.1916
 3947SOL    HW223301   1.985   3.051   7.642 -1.1757  0.1740  0.6650
 3948SOL     OW23302   0.408   1.525   5.359  0.1141  0.3191 -0.2977
 3948SOL    HW123303   0.501   1.499   5.361  0.7643  2.7670  0.9167
 3948SOL    HW223304   0.426   1.611   5.321  0.6888  1.2826  2.1744
 3949SOL     OW23305   2.242   0.086   7.648  0.1682 -0.0826 -0.1086
 3949SOL    HW123306   2.187   0.023   7.695 -0.2056  0.8227  0.6854
 3949SOL    HW223307   2.319   0.030   7.652 -0.4643 -0.8877  0.6651
 3950SOL     OW23308   0.886   2.354   1.309  0.0983  0.0154 -0.3961
 3950SOL    HW123309   0.839   2.388   1.385 -2.0446 -0.8224 -1.3257
 3950SOL    HW223310   0.859   2.419   1.244 -1.1064 -1.9114 -1.8518
 3951SOL     OW23311   4.205   3.103   1.513 -0.1048 -0.0181 -0.1468
 3951SOL    HW123312   4.169   3.152   1.439  2.2378  1.7724 -0.1162
 3951SOL    HW223313   4.136   3.050   1.553 -0.5825 -1.2192 -2.5745
 3952SOL     OW23314   4.444   1.018   6.149 -0.0046  0.2790  0.8521
 3952SOL    HW123315   4.415   0.987   6.235 -2.0941  1.1732  0.4671
 3952SOL    HW223316   4.487   0.938   6.119 -2.9884 -0.5049 -1.1865
 3953SOL     OW23317   3.509   0.049  16.578  0.1294  0.3261 -0.0495
 3953SOL    HW123318   3.439   0.093  16.625 -0.3257 -1.2015  0.7056
 3953SOL    HW223319   3.509   4.693  16.629 -2.5967 -0.1794 -0.8591
 3954SOL     OW23320   0.162   4.003  11.368 -0.2335 -0.6996  0.3109
 3954SOL    HW123321   0.214   4.060  11.424 -0.3179  0.8204 -1.1929
 3954SOL    HW223322   0.165   4.055  11.288  0.3508 -0.2292  0.6416
 3955SOL     OW23323   4.120   2.843   1.151 -0.5584 -0.1198  0.1149
 3955SOL    HW123324   4.184   2.781   1.184 -0.3973  0.5574  1.0662
 3955SOL    HW223325   4.173   2.922   1.143 -0.4362 -0.0341  1.8738
 3956SOL     OW23326   3.329   1.761   6.829 -0.2058 -0.1870 -0.4870
 3956SOL    HW123327   3.344   1.706   6.905  0.4381 -1.1066 -1.2927
 3956SOL    HW223328   3.353   1.698   6.761 -1.1584 -0.3811 -0.6395
 3957SOL     OW23329   3.940   2.974   0.181 -0.7431 -0.4550  0.2856
 3957SOL    HW123330   3.919   3.062   0.212  0.7092 -0.1040  0.2913
 3957SOL    HW223331   3.979   2.932   0.258  2.7270  1.2908 -0.5549
 3958SOL     OW23332   0.875   1.430   4.760 -0.0133 -0.0424 -0.4355
 3958SOL    HW123333   0.893   1.339   4.784  1.8619 -0.0789 -2.0625
 3958SOL    HW223334   0.908   1.428   4.671 -0.0383 -0.2642 -0.4413
 3959SOL     OW23335   4.205   2.305   0.500  0.1685 -0.1156  0.1085
 3959SOL    HW123336   4.110   2.315   0.491  0.0944 -0.0597  0.9517
 3959SOL    HW223337   4.226   2.235   0.439 -0.5400 -1.2404  1.1779
 3960SOL     OW23338   1.849   4.018  16.873  0.2638  0.1048 -0.1144
 3960SOL    HW123339   1.816   3.954  16.810  1.7758 -1.5008  0.7150
 3960SOL    HW223340   1.778   4.061  16.920  0.3727  0.1018  0.0535
 3961SOL     OW23341   3.881   0.055   2.885 -0.1153  0.0627 -0.5373
 3961SOL    HW123342   3.877   4.689   2.914  1.4113 -0.7936 -2.9880
 3961SOL    HW223343   3.788   0.081   2.887 -0.2795 -0.6311  0.7448
 3962SOL     OW23344   0.718   3.845   5.415  0.4286  0.0125 -0.5167
 3962SOL    HW123345   0.812   3.829   5.420  0.6515  0.9070 -2.0089
 3962SOL    HW223346   0.688   3.783   5.349  0.3488 -0.2345 -0.2508
 3963SOL     OW23347   3.375   2.327   5.783 -0.2790  0.0806 -0.1768
 3963SOL    HW123348   3.443   2.392   5.799  0.5741 -1.0920  0.9138
 3963SOL    HW223349   3.383   2.257   5.847  4.0238  0.3579 -0.4317
 3964SOL     OW23350   3.002   4.124  12.648  0.6216  0.3366 -0.0413
 3964SOL    HW123351   3.005   4.060  12.720 -1.1161 -0.2776 -0.4990
 3964SOL    HW223352   2.921   4.168  12.675 -1.2524 -2.4695 -1.0786
 3965SOL     OW23353   3.778   2.608   3.945 -0.1929 -0.2599 -0.3519
 3965SOL    HW123354   3.752   2.538   4.004 -0.2657  0.5065  0.5148
 3965SOL    HW223355   3.719   2.591   3.871 -2.0976  2.0244  0.6574
 3966SOL     OW23356   3.714   4.240   5.885  0.1209 -0.2435 -0.5143
 3966SOL    HW123357   3.770   4.279   5.818  0.4767 -1.0359 -0.6907
 3966SOL    HW223358   3.782   4.246   5.952 -1.0591 -1.3742  0.7773
 3967SOL     OW23359   4.709   2.565   3.777 -0.0380 -0.4353  0.0729
 3967SOL    HW123360   0.049   2.572   3.847 -2.1010 -1.2073  2.0719
 3967SOL    HW223361   4.650   2.637   3.797  1.0530  0.1401  1.2355
 3968SOL     OW23362   3.856   1.837   2.904  0.1858  0.5967  0.4897
 3968SOL    HW123363   3.774   1.866   2.944 -0.0482  0.8726 -0.1796
 3968SOL    HW223364   3.916   1.854   2.977  0.1921  1.1941  0.3434
 3969SOL     OW23365   0.334   4.092   3.164  0.3297 -0.5446 -0.3608
 3969SOL    HW123366   0.381   4.115   3.083  0.1221  0.3114 -0.2419
 3969SOL    HW223367   0.398   4.135   3.221 -0.4198 -0.2912  0.2826
 3970SOL     OW23368   3.716   1.720  17.222  0.9412 -0.2649  0.2631
 3970SOL    HW123369   3.668   1.716  17.305  0.6845 -1.5000  0.0461
 3970SOL    HW223370   3.648   1.685  17.164 -0.9125  0.8366  1.7768
 3971SOL     OW23371   1.180   2.589  13.924 -0.0487  0.0446 -1.1381
 3971SOL    HW123372   1.147   2.664  13.973  1.5616  0.5223 -0.8015
 3971SOL    HW223373   1.269   2.620  13.909 -0.1175  0.9764  0.4710
 3972SOL     OW23374   2.650   3.122   5.326 -0.1226 -0.1209  0.3719
 3972SOL    HW123375   2.700   3.056   5.373  0.8546  0.8681  0.7084
 3972SOL    HW223376   2.560   3.090   5.331  0.2148 -1.1551 -0.1586
 3973SOL     OW23377   3.174   2.426   9.156 -0.1569  0.1388 -0.2401
 3973SOL    HW123378   3.125   2.500   9.119 -0.9122  0.8473  2.2195
 3973SOL    HW223379   3.263   2.457   9.170 -0.4504  0.7823  0.2007
 3974SOL     OW23380   3.764   0.033   8.222 -0.5146 -0.2281  0.0781
 3974SOL    HW123381   3.711   4.724   8.150  0.8639 -0.0456 -1.0195
 3974SOL    HW223382   3.705   0.050   8.296  0.1597  1.3343  0.2545
 3975SOL     OW23383   3.002   0.540   9.223  0.1686 -0.0709  0.5391
 3975SOL    HW123384   2.932   0.475   9.235 -2.8929  3.0627 -0.6581
 3975SOL    HW223385   3.043   0.540   9.137 -0.3993  1.6766  0.2725
 3976SOL     OW23386   0.920   4.487   6.954 -0.2074  0.1824 -0.2290
 3976SOL    HW123387   0.917   4.534   6.870 -0.6714 -2.2504 -1.5715
 3976SOL    HW223388   0.851   4.421   6.944 -1.4046  1.3128  0.6042
 3977SOL     OW23389   2.231   0.066   2.518 -0.5780 -0.0417 -0.1297
 3977SOL    HW123390   2.275   4.721   2.470  2.0366  0.9159  0.8585
 3977SOL    HW223391   2.258   0.144   2.470  1.5026 -0.6196  0.0768
 3978SOL     OW23392   2.914   2.677   8.384 -0.3208 -0.6701 -0.2848
 3978SOL    HW123393   2.823   2.709   8.385  0.6553  1.9952  2.4699
 3978SOL    HW223394   2.915   2.631   8.300 -2.2541 -0.0315 -0.6529
 3979SOL     OW23395   2.132   2.362   3.462 -0.1406  0.2148  0.8251
 3979SOL    HW123396   2.167   2.392   3.378 -2.1891 -1.5353 -0.6532
 3979SOL    HW223397   2.123   2.269   3.446  3.5136  0.5205 -2.8970
 3980SOL     OW23398   1.013   3.495   5.104 -0.3507  0.0136 -0.4924
 3980SOL    HW123399   0.970   3.425   5.153  0.6562  0.8104  1.5730
 3980SOL    HW223400   1.070   3.453   5.041  0.8079 -0.8814  1.1488
 3981SOL     OW23401   0.860   3.335  13.087 -0.4725  0.4559  0.3160
 3981SOL    HW123402   0.779   3.376  13.117  0.4385  2.7774 -0.3586
 3981SOL    HW223403   0.830   3.280  13.015  1.3863  2.7066 -2.1752
 3982SOL     OW23404   0.837   1.695  15.748 -0.1291 -0.0497  0.6318
 3982SOL    HW123405   0.807   1.784  15.766  1.0115  0.2687  0.9250
 3982SOL    HW223406   0.931   1.699  15.767 -0.2744  2.2196  0.8464
 3983SOL     OW23407   3.103   4.467   2.847  0.5764  0.3088 -0.1624
 3983SOL    HW123408   3.106   4.562   2.863  1.6782  0.5078 -1.4970
 3983SOL    HW223409   3.156   4.454   2.769  1.7965 -1.5220  0.9844
 3984SOL     OW23410   1.552   1.197   7.323  0.4116 -0.2196  0.2827
 3984SOL    HW123411   1.501   1.241   7.390 -0.0946 -0.1392 -0.1586
 3984SOL    HW223412   1.487   1.135   7.289  2.0828 -1.4769 -0.6666
 3985SOL     OW23413   0.589   1.302   6.060  0.3313 -0.2782 -0.0763
 3985SOL    HW123414   0.497   1.280   6.076  0.6232  0.4656  2.7310
 3985SOL    HW223415   0.607   1.225   6.006  0.7841 -1.0749  1.1899
 3986SOL     OW23416   2.416   3.411  10.144 -0.1518  0.4986 -0.0696
 3986SOL    HW123417   2.356   3.459  10.087 -0.6063  0.5185  0.4217
 3986SOL    HW223418   2.488   3.473  10.147 -0.4822  0.8502  0.5253
 3987SOL     OW23419   1.932   3.061  11.247 -0.3023 -0.0743  0.3665
 3987SOL    HW123420   1.896   3.146  11.273 -0.7958 -0.4697  0.9765
 3987SOL    HW223421   1.994   3.098  11.184 -0.6839 -0.7890 -0.4180
 3988SOL     OW23422   2.386   0.985  14.136 -0.5912 -0.1792 -0.0817
 3988SOL    HW123423   2.460   1.031  14.097 -1.5856 -0.7998 -2.7295
 3988SOL    HW223424   2.378   0.909  14.078 -0.3206  1.5530 -2.4021
 3989SOL     OW23425   4.106   0.927  17.328  0.0659  0.1248  0.0200
 3989SOL    HW123426   4.071   0.939  17.416 -2.0740 -0.4495 -0.7769
 3989SOL    HW223427   4.081   0.840  17.297  1.4030 -0.6390  1.0885
 3990SOL     OW23428   4.463   0.969   5.852 -0.5654 -0.6580 -0.1335
 3990SOL    HW123429   4.508   1.045   5.888  1.2158 -2.0532  0.6161
 3990SOL    HW223430   4.387   1.017   5.821 -0.8771 -0.6267  0.6731
 3991SOL     OW23431   2.372   2.990   2.221 -0.1150 -0.0996 -0.9510
 3991SOL    HW123432   2.296   3.046   2.239 -1.3283 -1.5769 -1.5024
 3991SOL    HW223433   2.341   2.916   2.273 -0.0772  0.4482 -0.1484
 3992SOL     OW23434   2.918   1.957   7.703  0.2324 -0.6025  0.1627
 3992SOL    HW123435   2.917   1.921   7.614 -2.4185  0.3765 -0.2147
 3992SOL    HW223436   2.835   2.004   7.708  0.2058 -0.7076  0.7070
 3993SOL     OW23437   2.673   2.379   5.067 -0.3188 -0.2714  0.9368
 3993SOL    HW123438   2.610   2.437   5.024  1.0980  1.7524  1.5969
 3993SOL    HW223439   2.622   2.298   5.067  1.2449 -1.2460 -0.4302
 3994SOL     OW23440   2.785   3.143   3.251 -0.4629 -0.3260  0.4246
 3994SOL    HW123441   2.726   3.203   3.206 -0.3856 -0.6906 -0.1599
 3994SOL    HW223442   2.773   3.052   3.225  0.8215 -0.1157 -0.8760
 3995SOL     OW23443   3.585   0.881   3.636 -0.0182 -0.3708 -0.4403
 3995SOL    HW123444   3.619   0.803   3.681  2.8350  1.1411  0.0411
 3995SOL    HW223445   3.508   0.912   3.684 -0.2007 -1.5102  0.0021
 3996SOL     OW23446   0.371   0.825  12.257  0.4260 -0.6192 -0.2682
 3996SOL    HW123447   0.362   0.755  12.321 -3.4629 -0.0632 -0.1866
 3996SOL    HW223448   0.337   0.788  12.176 -1.0288  0.7310 -0.2814
 3997SOL     OW23449   2.759   1.152   2.700  0.2373 -0.4193 -0.3790
 3997SOL    HW123450   2.727   1.213   2.633  0.0699 -0.4278 -0.3072
 3997SOL    HW223451   2.801   1.212   2.761 -1.5097  0.7291 -0.3106
 3998SOL     OW23452   2.961   1.337   2.011  0.2536  0.0536 -0.5453
 3998SOL    HW123453   2.916   1.333   1.926 -1.0057  2.6261  0.0095
 3998SOL    HW223454   2.900   1.309   2.079  1.5630 -0.4609  0.4037
 3999SOL     OW23455   1.110   2.836   8.239 -0.0254  0.1313  0.1605
 3999SOL    HW123456   1.015   2.834   8.249  0.0622  0.4222  1.0376
 3999SOL    HW223457   1.131   2.814   8.329 -0.2892 -0.1372  0.1571
 4000SOL     OW23458   2.694   0.287   5.976  0.2340  0.5808 -0.0414
 4000SOL    HW123459   2.642   0.206   5.970  1.2401 -0.3760  4.4007
 4000SOL    HW223460   2.782   0.256   5.998 -0.2434 -1.5991 -1.1729
 4001SOL     OW23461   1.350   1.647   3.985  0.0148  0.6402 -0.3116
 4001SOL    HW123462   1.300   1.707   4.041  0.0609  1.3340 -1.0148
 4001SOL    HW223463   1.283   1.584   3.959  1.4747 -1.3076  0.6349
 4002SOL     OW23464   3.866   0.495   3.711 -0.1846 -0.2909 -0.6081
 4002SOL    HW123465   3.881   0.501   3.617  1.6204 -0.5320 -0.3322
 4002SOL    HW223466   3.925   0.424   3.735  0.7752  1.0485  0.9793
 4003SOL     OW23467   1.778   0.584   6.326 -0.0287  0.3898 -0.9138
 4003SOL    HW123468   1.692   0.580   6.367  0.0820 -1.8224 -0.9358
 4003SOL    HW223469   1.828   0.617   6.401  1.1703 -0.6267 -1.2626
 4004SOL     OW23470   1.115   0.335   0.350  0.2471 -0.2511 -0.2259
 4004SOL    HW123471   1.187   0.282   0.317  0.0893 -0.0887 -0.8443
 4004SOL    HW223472   1.090   0.384   0.271 -0.0940  1.2936  0.8439
 4005SOL     OW23473   4.060   1.894   2.281  0.0457 -0.2015  0.5421
 4005SOL    HW123474   4.109   1.883   2.199 -3.2802 -0.1774 -1.4737
 4005SOL    HW223475   4.050   1.988   2.296  1.2868 -0.4347  2.8172
 4006SOL     OW23476   2.503   1.001   3.663  0.1752  0.0672  0.0018
 4006SOL    HW123477   2.449   0.925   3.684  4.4937 -2.2611  2.8516
 4006SOL    HW223478   2.489   1.057   3.739  3.4115  0.3309  0.4091
 4007SOL     OW23479   2.858   2.683   9.223  0.3341  0.2893  0.1770
 4007SOL    HW123480   2.858   2.696   9.318  1.9813 -0.4743  0.2835
 4007SOL    HW223481   2.874   2.770   9.187  0.9999 -0.7258 -1.9942
 4008SOL     OW23482   1.224   0.746  13.544  1.0112  0.5810  0.2277
 4008SOL    HW123483   1.226   0.650  13.542  0.7502  0.6101 -2.4168
 4008SOL    HW223484   1.141   0.755  13.590 -0.2025 -0.6537 -1.7188
 4009SOL     OW23485   2.600   1.598   8.107  0.8903 -0.3291 -0.0067
 4009SOL    HW123486   2.509   1.625   8.092  0.3626 -2.2370 -0.2055
 4009SOL    HW223487   2.605   1.516   8.059  1.9915 -0.0340 -0.3988
 4010SOL     OW23488   0.351   1.795  15.160 -0.1052 -0.1819  0.0382
 4010SOL    HW123489   0.365   1.703  15.139  2.2290 -0.2067  1.8285
 4010SOL    HW223490   0.383   1.825  15.075 -0.4792 -1.2760 -0.4944
 4011SOL     OW23491   2.967   0.910   2.146  0.1021  0.1698 -0.5201
 4011SOL    HW123492   2.890   0.856   2.160  0.9316 -0.6148  1.0591
 4011SOL    HW223493   2.924   0.992   2.168  0.7172 -0.0327  1.4776
 4012SOL     OW23494   2.563   3.865   8.382  0.6298 -0.1636  0.1577
 4012SOL    HW123495   2.541   3.908   8.299 -0.5163  0.7137  0.9132
 4012SOL    HW223496   2.626   3.797   8.358  0.3036 -0.4714  0.1719
 4013SOL     OW23497   3.689   3.297   2.563 -0.1126 -0.2982 -0.1870
 4013SOL    HW123498   3.640   3.277   2.483 -0.8050 -1.6413  0.5754
 4013SOL    HW223499   3.728   3.211   2.578  1.6914  0.3860 -0.8879
 4014SOL     OW23500   3.500   1.938   9.064  0.6810  0.2478  0.1336
 4014SOL    HW123501   3.579   1.972   9.104  0.0957  1.9372 -0.1322
 4014SOL    HW223502   3.471   1.860   9.112  1.1130 -0.6011 -0.9973
 4015SOL     OW23503   1.898   1.109  11.379 -0.6323 -0.7532 -0.2368
 4015SOL    HW123504   1.930   1.085  11.467 -1.1317 -1.4541 -0.2520
 4015SOL    HW223505   1.870   1.030  11.334  1.1795 -0.6959 -1.4767
 4016SOL     OW23506   2.707   4.305  11.512  0.4258  0.4651 -0.1319
 4016SOL    HW123507   2.657   4.247  11.454  1.7336 -0.6267 -0.1675
 4016SOL    HW223508   2.639   4.369  11.533  0.6636  0.9829 -0.9624
 4017SOL     OW23509   1.431   1.331   9.704 -0.3101  0.2476  0.4624
 4017SOL    HW123510   1.355   1.340   9.646  0.7595 -2.4097 -1.3540
 4017SOL    HW223511   1.445   1.423   9.727  0.9230  0.1242  0.1818
 4018SOL     OW23512   4.455   4.614  14.927 -0.5957  0.1616  0.1158
 4018SOL    HW123513   4.370   4.603  14.968 -1.4301 -2.0597 -2.2136
 4018SOL    HW223514   4.444   4.686  14.864  0.5484  0.9707  0.8326
 4019SOL     OW23515   3.737   3.573  10.910 -0.0977 -0.0430  0.0141
 4019SOL    HW123516   3.821   3.610  10.884  1.4590 -2.4376  1.6124
 4019SOL    HW223517   3.766   3.483  10.924 -0.4222 -0.1377  0.0793
 4020SOL     OW23518   3.021   2.802   2.278 -0.5129  0.2806 -0.1102
 4020SOL    HW123519   3.001   2.875   2.337 -0.8970  0.0736  0.0150
 4020SOL    HW223520   3.051   2.740   2.345  0.2583 -0.3176 -1.0182
 4021SOL     OW23521   3.392   2.538  15.213  0.2900 -0.1203 -0.0570
 4021SOL    HW123522   3.342   2.531  15.295 -2.5971 -1.0702 -1.9286
 4021SOL    HW223523   3.346   2.472  15.162  1.1362  0.3791 -1.4707
 4022SOL     OW23524   0.460   2.066   1.740 -0.7172 -0.5005  0.1899
 4022SOL    HW123525   0.441   2.061   1.647  2.6762  2.9473 -0.6658
 4022SOL    HW223526   0.431   1.980   1.769  1.2233 -0.6177  1.7479
 4023SOL     OW23527   1.337   0.798   8.131 -0.2928  0.6444  0.2977
 4023SOL    HW123528   1.290   0.726   8.173  1.2647 -0.8473 -0.5276
 4023SOL    HW223529   1.265   0.846   8.091 -0.5830  0.0944  0.1585
 4024SOL     OW23530   3.064   3.144   4.780 -0.3460  0.0830 -0.0434
 4024SOL    HW123531   3.134   3.183   4.726 -1.0317 -0.0971 -1.0638
 4024SOL    HW223532   3.039   3.063   4.737 -2.4450 -0.8459  2.9419
 4025SOL     OW23533   2.279   3.277   2.942  0.5106  0.1228 -0.2205
 4025SOL    HW123534   2.294   3.257   3.034 -2.1965  0.2113  0.2514
 4025SOL    HW223535   2.369   3.259   2.917 -0.6295 -2.4671 -2.5251
 4026SOL     OW23536   1.783   1.774   1.769  0.1044 -0.4767 -0.1545
 4026SOL    HW123537   1.790   1.697   1.711  1.9375  0.7339 -1.5549
 4026SOL    HW223538   1.836   1.761   1.847 -0.7639 -0.1612  0.4827
 4027SOL     OW23539   2.804   0.575   6.771  0.5375  0.0940  0.1467
 4027SOL    HW123540   2.851   0.635   6.712 -0.5098  2.2255  1.4666
 4027SOL    HW223541   2.713   0.577   6.740  0.5290  1.4591  0.2250
 4028SOL     OW23542   3.352   1.008   8.309  0.3181  0.4283  0.0438
 4028SOL    HW123543   3.364   1.071   8.380 -0.1408  2.6369 -1.8708
 4028SOL    HW223544   3.443   0.983   8.296  0.9108  2.1943  0.8841
 4029SOL     OW23545   3.284   0.871   8.567 -0.2982 -0.0682 -0.3326
 4029SOL    HW123546   3.203   0.850   8.521  0.1522 -0.3865 -0.9917
 4029SOL    HW223547   3.296   0.965   8.551  1.0673 -0.3152 -0.7293
 4030SOL     OW23548   0.433   3.148   9.533  0.2334 -0.2949 -0.5138
 4030SOL    HW123549   0.340   3.130   9.549  0.0104 -0.3305 -1.8693
 4030SOL    HW223550   0.471   3.084   9.593  0.6706 -0.2322 -0.7262
 4031SOL     OW23551   0.448   4.360   4.973 -0.1464  0.3860  0.0985
 4031SOL    HW123552   0.465   4.353   5.067 -0.9410 -2.1804  0.0591
 4031SOL    HW223553   0.523   4.307   4.944 -0.8896 -0.7999  0.3455
 4032SOL     OW23554   0.282   3.509   7.320 -0.1963  0.7978  0.1750
 4032SOL    HW123555   0.295   3.414   7.324  1.2444  1.0126  0.6362
 4032SOL    HW223556   0.188   3.505   7.301 -0.5044  0.7216  1.7110
 4033SOL     OW23557   0.635   1.190   2.015  0.7870  0.0032  0.2810
 4033SOL    HW123558   0.699   1.208   2.085  1.6166 -1.5522 -0.0811
 4033SOL    HW223559   0.674   1.219   1.933  0.5633 -3.1142 -0.9390
 4034SOL     OW23560   0.961   4.298  11.422  0.1799 -0.1911  0.1626
 4034SOL    HW123561   0.878   4.337  11.451 -1.3967 -2.4446 -1.3145
 4034SOL    HW223562   1.011   4.379  11.419  0.5494 -0.4079  0.5473
 4035SOL     OW23563   1.214   0.082   3.773  0.3142  0.3899 -0.2240
 4035SOL    HW123564   1.269   0.008   3.800  0.7202  0.8495  0.1872
 4035SOL    HW223565   1.155   0.071   3.848 -1.0512 -0.5134 -1.4170
 4036SOL     OW23566   0.098   1.622  15.056 -0.1621  0.3691 -0.1637
 4036SOL    HW123567   0.148   1.541  15.065 -1.5507 -0.2063  2.4055
 4036SOL    HW223568   0.087   1.628  14.961 -0.6218  0.7893 -0.0853
 4037SOL     OW23569   3.033   0.703  10.643 -0.4839 -0.2421  0.1751
 4037SOL    HW123570   2.948   0.681  10.604  0.6106 -1.6642 -1.4411
 4037SOL    HW223571   3.018   0.778  10.700  1.9655  1.6607 -1.6504
 4038SOL     OW23572   3.236   2.998   7.538 -0.0882  0.0826 -0.4377
 4038SOL    HW123573   3.146   3.029   7.526 -0.2562 -0.0049  0.5485
 4038SOL    HW223574   3.255   3.066   7.602 -0.4794 -1.1254  0.9855
 4039SOL     OW23575   0.230   0.381   8.351  0.4310  0.1867  0.2522
 4039SOL    HW123576   0.286   0.454   8.377  0.3565  0.9111 -1.5543
 4039SOL    HW223577   0.176   0.354   8.425  1.9850  0.0672  1.3279
 4040SOL     OW23578   2.544   3.583   9.454 -0.3134  0.7606  0.5360
 4040SOL    HW123579   2.586   3.539   9.527 -0.9735 -0.4080  0.2220
 4040SOL    HW223580   2.481   3.631   9.509 -0.8047 -0.8655  1.4028
 4041SOL     OW23581   0.443   1.505  11.058 -0.1868  0.6954 -0.3590
 4041SOL    HW123582   0.458   1.444  11.129 -0.7345  2.0351  0.9227
 4041SOL    HW223583   0.464   1.584  11.109 -0.7200  0.4581  0.2245
 4042SOL     OW23584   0.912   0.798   0.721  0.8406 -0.5265  0.2288
 4042SOL    HW123585   0.985   0.827   0.777  0.5722  1.7179 -0.5838
 4042SOL    HW223586   0.954   0.821   0.638 -1.7560  0.8149 -0.6973
 4043SOL     OW23587   1.279   0.088   5.325 -0.1421  0.0574  0.7216
 4043SOL    HW123588   1.250   0.163   5.378 -0.4269  0.2087  0.3574
 4043SOL    HW223589   1.242   0.015   5.374 -3.0228  1.9716  1.4303
 4044SOL     OW23590   2.903   1.991   9.421  0.3597  0.5916  0.5428
 4044SOL    HW123591   2.913   2.027   9.510 -2.5753 -0.2378  1.2026
 4044SOL    HW223592   2.997   1.992   9.403  0.1716 -1.9417 -0.5437
 4045SOL     OW23593   2.778   0.837  12.055 -0.4430  0.0968 -0.6982
 4045SOL    HW123594   2.834   0.878  12.120 -0.5762  0.6072 -0.9068
 4045SOL    HW223595   2.689   0.854  12.088 -0.4962 -0.3971 -0.5849
 4046SOL     OW23596   0.857   0.707   6.608  0.1565  0.6347 -0.2255
 4046SOL    HW123597   0.816   0.671   6.686  0.5073 -1.0733 -0.8393
 4046SOL    HW223598   0.899   0.629   6.572 -2.2790 -0.7208 -0.0645
 4047SOL     OW23599   1.707   1.052  11.599 -0.2355 -0.4244 -0.1323
 4047SOL    HW123600   1.754   1.000  11.534  1.3974 -1.1782  1.6447
 4047SOL    HW223601   1.783   1.090  11.643 -1.1649  2.4188 -1.0407
 4048SOL     OW23602   0.618   3.188   1.507 -0.1740 -0.0883  0.0839
 4048SOL    HW123603   0.702   3.142   1.521 -0.7959 -1.3529 -0.3249
 4048SOL    HW223604   0.575   3.117   1.459  0.7043 -0.6014  0.0376
 4049SOL     OW23605   0.343   2.244   8.182 -0.0301  0.1695  0.3198
 4049SOL    HW123606   0.351   2.328   8.228  2.9447 -0.2213  0.4988
 4049SOL    HW223607   0.411   2.253   8.114  1.3136 -0.4317  1.5845
 4050SOL     OW23608   3.902   2.669   2.975  0.3688 -0.0816 -1.0095
 4050SOL    HW123609   3.820   2.666   2.925  0.0713  1.8194 -0.6297
 4050SOL    HW223610   3.950   2.607   2.920  2.5448  1.8662 -1.3064
 4051SOL     OW23611   1.676   3.013   7.148  0.4841  0.1885  0.5607
 4051SOL    HW123612   1.707   2.938   7.098 -1.8139 -0.6310  0.4076
 4051SOL    HW223613   1.725   3.003   7.230 -1.6976 -2.7741  1.4876
 4052SOL     OW23614   3.279   0.798  13.826  0.0415 -0.1779 -0.0113
 4052SOL    HW123615   3.191   0.801  13.864 -0.0564  0.8554 -0.3133
 4052SOL    HW223616   3.322   0.847  13.897 -1.3020 -1.5973  1.8044
 4053SOL     OW23617   4.128   0.981   4.439 -0.5732 -0.3617  0.6257
 4053SOL    HW123618   4.148   0.892   4.412 -2.6439 -0.9569  1.0626
 4053SOL    HW223619   4.094   1.014   4.356  0.2010 -0.3253  0.3244
 4054SOL     OW23620   4.402   1.848   0.660 -0.2565  0.0358 -0.3583
 4054SOL    HW123621   4.356   1.827   0.578 -3.3044  4.0055  0.2837
 4054SOL    HW223622   4.372   1.937   0.679 -0.6698  0.0776 -1.1828
 4055SOL     OW23623   3.173   3.900   4.290  0.0485 -0.1884  0.4341
 4055SOL    HW123624   3.126   3.952   4.225  0.4120  0.5811  0.7737
 4055SOL    HW223625   3.123   3.905   4.372  0.1393 -0.8401  0.5275
 4056SOL     OW23626   2.353   0.397   8.185 -0.0497  0.3255  0.1262
 4056SOL    HW123627   2.408   0.452   8.128  1.4824  0.0154  1.2873
 4056SOL    HW223628   2.344   0.456   8.260  1.6300 -1.4807  1.7250
 4057SOL     OW23629   4.350   4.009  11.791 -0.1748  0.3926 -0.7095
 4057SOL    HW123630   4.418   4.069  11.821  1.1324  0.4005 -3.6537
 4057SOL    HW223631   4.273   4.054  11.825  0.4342 -0.4319  1.7676
 4058SOL     OW23632   1.188   2.524   5.040  0.3240 -0.5359  0.5978
 4058SOL    HW123633   1.099   2.494   5.020  0.2424 -3.1581  4.8232
 4058SOL    HW223634   1.192   2.594   4.975  1.4610 -0.4284  0.7927
 4059SOL     OW23635   0.539   4.068   5.468 -0.4113 -0.3669  0.4871
 4059SOL    HW123636   0.599   4.097   5.399 -0.7080  0.5419  0.6235
 4059SOL    HW223637   0.577   3.980   5.471 -0.8938 -0.6053 -0.2653
 4060SOL     OW23638   0.321   1.609  12.076 -0.1791 -0.0930 -0.0920
 4060SOL    HW123639   0.332   1.641  11.987  0.1242 -0.7948 -0.3072
 4060SOL    HW223640   0.407   1.568  12.087  0.0937 -0.1650 -2.5775
 4061SOL     OW23641   3.012   2.177   8.395 -0.1059 -0.3118 -1.2344
 4061SOL    HW123642   3.013   2.232   8.474 -0.2793  0.7488 -1.9596
 4061SOL    HW223643   3.100   2.144   8.412  0.1600  1.0004 -0.0769
 4062SOL     OW23644   1.083   3.974  13.427  0.2221 -0.1448 -0.2471
 4062SOL    HW123645   1.125   3.930  13.501  0.0340 -1.5648 -0.9721
 4062SOL    HW223646   1.103   3.922  13.349 -0.6990 -0.1474 -0.4827
 4063SOL     OW23647   3.815   0.609   8.521  0.2309  0.3997 -0.5957
 4063SOL    HW123648   3.864   0.528   8.535  0.8213  1.0669  1.2048
 4063SOL    HW223649   3.723   0.583   8.518  0.0155  1.2408 -1.0768
 4064SOL     OW23650   1.532   1.904   8.824 -0.0435 -0.6481 -0.4716
 4064SOL    HW123651   1.604   1.904   8.887 -1.3210 -0.2813  0.9871
 4064SOL    HW223652   1.490   1.823   8.855 -0.8832 -0.5027 -1.2412
 4065SOL     OW23653   2.802   2.292   8.716 -0.4295  0.4877  0.1561
 4065SOL    HW123654   2.823   2.199   8.719  1.2305  0.9148  1.6630
 4065SOL    HW223655   2.889   2.321   8.689  0.9637 -1.4493  2.6467
 4066SOL     OW23656   1.523   4.331   8.145  0.6755  0.7253 -0.1534
 4066SOL    HW123657   1.446   4.387   8.141 -0.1369 -0.5653 -2.4269
 4066SOL    HW223658   1.513   4.309   8.238  0.9488 -1.7533 -0.7168
 4067SOL     OW23659   3.424   3.135   6.801 -0.2288 -0.2898  0.2755
 4067SOL    HW123660   3.448   3.224   6.826  1.2342 -0.5068 -0.4260
 4067SOL    HW223661   3.471   3.124   6.719 -0.1861  1.8295  0.0263
 4068SOL     OW23662   0.060   4.016   3.139 -0.4327  0.2037 -0.1751
 4068SOL    HW123663   0.144   4.061   3.146 -1.3951  1.6189  2.4071
 4068SOL    HW223664   0.087   3.934   3.098 -0.2154  0.6114 -0.8508
 4069SOL     OW23665   2.338   3.174  13.780  0.3614  0.4150  0.6602
 4069SOL    HW123666   2.427   3.151  13.806  0.8948 -0.0059 -1.5877
 4069SOL    HW223667   2.334   3.118  13.703  0.0015  0.4609  0.6476
 4070SOL     OW23668   0.124   0.215  17.464 -0.3196  0.6161 -0.1220
 4070SOL    HW123669   0.041   0.169  17.454  0.2524  0.0857 -2.2741
 4070SOL    HW223670   0.091   0.302  17.486  0.1804  0.5084  1.0877
 4071SOL     OW23671   1.788   2.911   0.354  0.1785 -0.4449  0.2188
 4071SOL    HW123672   1.822   2.985   0.404 -0.1214 -0.2323  0.1112
 4071SOL    HW223673   1.775   2.960   0.273 -0.6648 -0.0387  0.5992
 4072SOL     OW23674   0.933   3.684  14.016  0.0612 -0.2788 -0.8560
 4072SOL    HW123675   1.023   3.673  14.047  0.0481  2.1277  0.0631
 4072SOL    HW223676   0.898   3.761  14.062  0.3434  0.7628 -2.3588
 4073SOL     OW23677   3.565   3.792   0.796 -0.1707 -0.2307 -0.3426
 4073SOL    HW123678   3.604   3.849   0.730  2.1907 -1.4118  0.0428
 4073SOL    HW223679   3.472   3.803   0.775 -0.2790 -0.7285 -0.1270
 4074SOL     OW23680   4.380   2.636  10.669 -0.2624 -0.8507  0.4987
 4074SOL    HW123681   4.296   2.672  10.638  0.4735  0.4589  0.0292
 4074SOL    HW223682   4.369   2.544  10.647 -2.0555 -0.3423 -0.8343
 4075SOL     OW23683   1.327   0.357  10.588  0.0808  1.1221  0.5961
 4075SOL    HW123684   1.232   0.357  10.581  0.1961 -0.3442 -0.8877
 4075SOL    HW223685   1.334   0.426  10.654  1.1159  1.0310  0.5899
 4076SOL     OW23686   4.387   0.148   8.341 -0.2415 -0.5520  0.2435
 4076SOL    HW123687   4.344   0.231   8.359  0.7723  0.1877 -0.6958
 4076SOL    HW223688   4.402   0.126   8.433  0.5446  0.9895  0.4820
 4077SOL     OW23689   0.276   0.342   4.698 -0.2936  0.5780  0.4385
 4077SOL    HW123690   0.270   0.351   4.603  1.1327  0.6608  0.3661
 4077SOL    HW223691   0.293   0.248   4.708  1.8314  0.6805 -2.2052
 4078SOL     OW23692   3.927   4.016  11.395 -0.3539 -0.4960  0.1872
 4078SOL    HW123693   3.993   4.047  11.457 -0.9707  3.0839 -0.9361
 4078SOL    HW223694   3.888   3.944  11.446 -1.7336  0.2733  0.2343
 4079SOL     OW23695   3.200   4.343   9.710  0.5180  0.1141  0.2303
 4079SOL    HW123696   3.109   4.373   9.706  0.0500 -1.7864 -3.3216
 4079SOL    HW223697   3.241   4.398   9.643  2.2319 -0.1697  1.0510
 4080SOL     OW23698   1.540   4.399   2.433  0.1422 -0.2775 -0.0472
 4080SOL    HW123699   1.584   4.478   2.402  2.9659 -2.5010 -1.6242
 4080SOL    HW223700   1.576   4.339   2.368  0.9665  0.1071  0.0589
 4081SOL     OW23701   2.235   2.637   3.842 -0.2587 -0.2028 -0.0749
 4081SOL    HW123702   2.171   2.639   3.771 -0.4221 -1.5083  0.0392
 4081SOL    HW223703   2.235   2.544   3.866 -1.2696  0.2946  1.8379
 4082SOL     OW23704   0.392   0.564   9.638 -0.0051  0.0784  0.4737
 4082SOL    HW123705   0.311   0.516   9.656  0.3907 -0.5343  0.6491
 4082SOL    HW223706   0.448   0.490   9.616 -0.1306  0.0463  0.2579
 4083SOL     OW23707   0.084   1.303   5.971  0.1701 -0.2388 -0.2799
 4083SOL    HW123708   0.091   1.207   5.970  1.1258 -0.1549 -1.5011
 4083SOL    HW223709   0.050   1.311   6.060  1.4544 -1.3204  0.3199
 4084SOL     OW23710   3.975   3.184  12.108 -0.0224  0.2965 -0.3364
 4084SOL    HW123711   3.940   3.100  12.138  0.4041 -0.4825 -2.0524
 4084SOL    HW223712   4.058   3.163  12.065  0.1604 -0.2587  0.2819
 4085SOL     OW23713   3.521   4.634  15.921 -0.4354 -0.7360  0.6328
 4085SOL    HW123714   3.600   4.678  15.888  1.2218 -2.6991  1.9922
 4085SOL    HW223715   3.448   4.679  15.879 -0.5652 -1.5513 -0.0122
 4086SOL     OW23716   0.559   3.467   8.176 -0.3602  0.3722  0.3122
 4086SOL    HW123717   0.545   3.558   8.204  1.0077  0.6557  0.0928
 4086SOL    HW223718   0.623   3.445   8.243 -0.3768  0.0487  0.2187
 4087SOL     OW23719   0.108   4.716   8.779  0.2007  0.0524 -0.1008
 4087SOL    HW123720   0.149   4.631   8.795 -0.1217 -0.3863 -1.5349
 4087SOL    HW223721   0.159   0.015   8.702 -2.0304  0.5792 -1.4313
 4088SOL     OW23722   0.521   3.244   6.918 -0.6503  0.1225 -0.3612
 4088SOL    HW123723   0.570   3.306   6.864  1.7990 -1.0660  0.5021
 4088SOL    HW223724   0.565   3.161   6.896  0.1700  0.5534 -0.3441
 4089SOL     OW23725   2.701   0.284   8.728  0.0789 -0.2775  0.6965
 4089SOL    HW123726   2.670   0.208   8.778 -0.1500 -1.0176 -0.5661
 4089SOL    HW223727   2.749   0.345   8.784  0.6135 -0.8896  0.8930
 4090SOL     OW23728   2.150   2.530   6.935  0.4643 -0.1466  0.0505
 4090SOL    HW123729   2.243   2.518   6.918  0.1180 -0.4764 -1.5490
 4090SOL    HW223730   2.115   2.459   6.882  0.9635 -0.6848  0.4484
 4091SOL     OW23731   1.653   4.602   8.983 -0.1903 -0.2817  0.2406
 4091SOL    HW123732   1.622   4.662   8.916 -0.1143 -1.6596 -1.0342
 4091SOL    HW223733   1.687   4.661   9.050  1.7773  0.8886 -1.7748
 4092SOL     OW23734   4.216   3.550  10.236 -0.0707  0.1546 -0.1128
 4092SOL    HW123735   4.299   3.590  10.211  0.6847  0.0728  2.2513
 4092SOL    HW223736   4.185   3.520  10.151 -1.4985  0.2897  0.3546
 4093SOL     OW23737   3.463   2.092  16.949 -0.0143 -0.1674 -0.5151
 4093SOL    HW123738   3.535   2.043  16.909  0.2032 -0.1670 -0.1259
 4093SOL    HW223739   3.444   2.151  16.876 -0.1630 -0.1287 -0.4464
 4094SOL     OW23740   3.207   0.802   7.076 -0.4028 -0.3099  0.0584
 4094SOL    HW123741   3.271   0.750   7.027  0.8357 -1.4736  2.8874
 4094SOL    HW223742   3.263   0.829   7.148  1.0010 -0.5728 -0.9430
 4095SOL     OW23743   1.151   2.560   7.050 -0.3092 -0.4449  0.2667
 4095SOL    HW123744   1.211   2.494   7.085  2.7785  2.4463  0.4644
 4095SOL    HW223745   1.066   2.518   7.065 -0.7976 -0.3704 -2.1844
 4096SOL     OW23746   0.677   2.651   0.845  0.3576  0.5471 -0.2469
 4096SOL    HW123747   0.623   2.726   0.869 -1.7324 -0.6647 -1.1609
 4096SOL    HW223748   0.636   2.579   0.894 -0.3866  0.7786 -0.5278
 4097SOL     OW23749   0.900   1.995  15.047  0.3290  0.0752 -0.1961
 4097SOL    HW123750   0.824   2.050  15.064  0.0959 -0.1289 -0.5808
 4097SOL    HW223751   0.857   1.911  15.032  1.1216 -0.7966  2.3095
 4098SOL     OW23752   2.378   2.404  16.532  0.5013 -0.1683 -0.2883
 4098SOL    HW123753   2.288   2.372  16.537 -0.4371  2.7544  1.9841
 4098SOL    HW223754   2.431   2.334  16.569  0.1546  0.5381  1.5831
 4099SOL     OW23755   4.495   3.290   3.168 -0.7661  0.3693 -0.7694
 4099SOL    HW123756   4.413   3.242   3.156 -0.0905 -0.7312 -0.9877
 4099SOL    HW223757   4.471   3.333   3.250 -1.5944 -2.5067  0.4780
 4100SOL     OW23758   0.179   0.410  10.290  0.0283 -0.2020 -0.7439
 4100SOL    HW123759   0.187   0.451  10.204 -3.0033 -1.3348 -1.5698
 4100SOL    HW223760   0.186   0.484  10.349 -1.9526 -0.9554  0.4415
 4101SOL     OW23761   3.283   1.271   3.807 -0.0431 -0.6185  0.5252
 4101SOL    HW123762   3.284   1.337   3.738 -0.5599 -0.9923  0.1579
 4101SOL    HW223763   3.376   1.275   3.831 -0.0119 -0.4973  0.3831
 4102SOL     OW23764   2.071   3.093  14.016  0.3357 -0.3213 -0.1777
 4102SOL    HW123765   2.045   3.074  13.925 -1.9262  1.1512  0.1508
 4102SOL    HW223766   2.038   3.183  14.017  0.5051 -0.2564 -0.5016
 4103SOL     OW23767   2.217   4.694   5.838  0.2899 -0.5091 -0.8126
 4103SOL    HW123768   2.242   4.704   5.746  0.7866  2.7971 -0.3415
 4103SOL    HW223769   2.156   4.621   5.827 -1.1943  0.8370 -1.5506
 4104SOL     OW23770   2.104   3.347   8.937 -0.4196 -0.0815 -0.2511
 4104SOL    HW123771   2.131   3.289   9.008  0.4136  0.2201 -0.3193
 4104SOL    HW223772   2.172   3.414   8.927  1.2565 -1.5248  1.5637
 4105SOL     OW23773   0.113   0.022  16.876  1.0826  0.0491  0.4555
 4105SOL    HW123774   0.191   0.061  16.836  0.2315  0.2342 -1.0170
 4105SOL    HW223775   0.151   4.692  16.945 -0.4481  0.3025  1.5090
 4106SOL     OW23776   0.617   4.185   3.998  0.4356 -0.2127  0.1730
 4106SOL    HW123777   0.656   4.116   4.052  0.5107 -0.4016 -0.1220
 4106SOL    HW223778   0.677   4.254   4.025  2.0839 -1.5264 -0.1054
 4107SOL     OW23779   2.093   3.404   6.698  0.2138 -0.6514 -0.3950
 4107SOL    HW123780   2.024   3.469   6.716  1.4446  0.4396  0.3549
 4107SOL    HW223781   2.056   3.329   6.744 -0.7351  1.2373  1.9496
 4108SOL     OW23782   0.713   0.011   5.197 -0.0929 -0.2740  0.3242
 4108SOL    HW123783   0.754   4.652   5.179 -0.2047 -0.1035 -0.7311
 4108SOL    HW223784   0.770   0.068   5.145 -0.6552 -0.1588 -0.1691
 4109SOL     OW23785   3.336   0.086   1.535  0.2440 -0.3804 -0.3131
 4109SOL    HW123786   3.355   0.129   1.451  0.4275 -0.1309 -0.1401
 4109SOL    HW223787   3.380   0.148   1.592 -1.2440 -0.2122  0.6439
 4110SOL     OW23788   3.227   2.814  10.505 -0.2532  0.5298 -0.4117
 4110SOL    HW123789   3.241   2.720  10.503 -2.4656  0.2316 -1.3642
 4110SOL    HW223790   3.164   2.821  10.578 -0.0023  0.6164 -0.2019
 4111SOL     OW23791   4.308   2.540   3.645  0.2911  0.4237 -0.3636
 4111SOL    HW123792   4.298   2.522   3.739 -1.5288  0.5563 -0.5300
 4111SOL    HW223793   4.257   2.467   3.611  2.5282 -0.9943 -0.6567
 4112SOL     OW23794   0.976   0.374   7.153 -0.1427  0.2691  0.2651
 4112SOL    HW123795   0.930   0.294   7.180 -0.4975  1.4432  3.1086
 4112SOL    HW223796   0.929   0.399   7.074  0.3975 -0.3963 -0.2645
 4113SOL     OW23797   1.811   1.248   2.763  0.6330  0.4280 -0.6958
 4113SOL    HW123798   1.768   1.333   2.757 -0.8324 -0.2656 -0.1003
 4113SOL    HW223799   1.901   1.279   2.755  0.8568  0.1521  0.7180
 4114SOL     OW23800   0.586   4.142   4.460 -0.3930 -0.5907 -0.5381
 4114SOL    HW123801   0.611   4.201   4.389  0.2105 -3.0444 -2.3502
 4114SOL    HW223802   0.605   4.205   4.529  1.2318 -0.0091 -1.5224
 4115SOL     OW23803   3.274   3.896   6.273  0.0096  0.0580 -0.2328
 4115SOL    HW123804   3.190   3.908   6.318 -2.8313 -4.2151 -4.4864
 4115SOL    HW223805   3.325   3.849   6.339  1.4180 -0.7833 -1.9247
 4116SOL     OW23806   2.150   0.875  12.003 -0.2378 -0.6985  0.1719
 4116SOL    HW123807   2.201   0.876  11.922  0.0443  0.0999  0.3561
 4116SOL    HW223808   2.196   0.812  12.059  0.6478 -0.5465 -0.3862
 4117SOL     OW23809   1.155   0.980   9.522 -0.0592 -0.7976  0.3500
 4117SOL    HW123810   1.165   0.946   9.611 -0.1051 -0.1096  0.6158
 4117SOL    HW223811   1.071   0.938   9.503 -0.1677 -0.8817  1.0196
 4118SOL     OW23812   2.759   4.135   0.071  0.1991  0.8685  0.4022
 4118SOL    HW123813   2.756   4.196   0.144 -0.1683  0.8380  0.4153
 4118SOL    HW223814   2.794   4.188  17.701 -1.1147  1.4495  0.1902
 4119SOL     OW23815   1.707   4.271   0.102 -0.2707  0.1342 -0.2157
 4119SOL    HW123816   1.760   4.272   0.181  2.1624 -2.9697 -1.8059
 4119SOL    HW223817   1.657   4.352   0.109  1.3548  1.2716 -1.7460
 4120SOL     OW23818   3.318   0.524   1.345  0.0627  0.0226  0.2831
 4120SOL    HW123819   3.268   0.606   1.351 -1.5500 -0.8503 -1.5338
 4120SOL    HW223820   3.246   0.466   1.321  0.3130 -0.1324 -0.0937
 4121SOL     OW23821   3.681   2.792   5.956  0.6341  0.0882 -0.1618
 4121SOL    HW123822   3.753   2.731   5.942  0.1112 -0.0056 -2.4472
 4121SOL    HW223823   3.630   2.763   6.032  0.4907 -0.5110 -0.4837
 4122SOL     OW23824   1.382   2.939   3.770  0.1004  0.1677  0.4867
 4122SOL    HW123825   1.367   3.015   3.714  2.1157 -1.1827 -1.8960
 4122SOL    HW223826   1.447   2.892   3.716 -1.1907 -0.6272 -0.3774
 4123SOL     OW23827   2.638   4.092   7.953  0.3255  0.5147  0.0970
 4123SOL    HW123828   2.688   4.057   7.878 -0.8722 -0.6787 -0.1520
 4123SOL    HW223829   2.553   4.068   7.916  0.9770  0.5254 -1.4087
 4124SOL     OW23830   1.194   0.135   0.627  0.8873 -0.6624  0.2527
 4124SOL    HW123831   1.140   0.154   0.551  0.4112  0.1781  0.7911
 4124SOL    HW223832   1.280   0.139   0.586  0.9934 -1.8688  0.3696
 4125SOL     OW23833   3.567   0.150   5.608  0.0703  0.4465 -0.0081
 4125SOL    HW123834   3.636   0.149   5.542  0.2050 -0.6888  0.1497
 4125SOL    HW223835   3.557   0.056   5.619  0.9271  0.1556 -1.7869
 4126SOL     OW23836   0.786   4.201   7.477  0.1216  0.0560 -0.5470
 4126SOL    HW123837   0.881   4.211   7.484 -0.0918  0.0964  2.1274
 4126SOL    HW223838   0.744   4.224   7.560 -1.5546  0.5758 -1.5292
 4127SOL     OW23839   4.111   2.782   7.047  0.1306  0.2399 -0.1942
 4127SOL    HW123840   4.138   2.719   7.113  3.3060  2.3895  0.5706
 4127SOL    HW223841   4.058   2.738   6.981 -0.0587  1.4463 -0.8600
 4128SOL     OW23842   4.257   0.986   1.035  0.7681 -0.3003 -0.0850
 4128SOL    HW123843   4.216   1.066   1.004  0.0303 -0.7343 -0.2350
 4128SOL    HW223844   4.339   0.981   0.984  1.2782  1.7300  0.5410
 4129SOL     OW23845   1.549   1.114   2.057  0.7282 -0.4711 -0.0914
 4129SOL    HW123846   1.543   1.146   2.147 -0.4374  1.0821 -0.7107
 4129SOL    HW223847   1.455   1.115   2.038  0.2542  2.0221  2.5648
 4130SOL     OW23848   0.133   1.702   8.839 -0.3698 -0.1862  0.2792
 4130SOL    HW123849   0.080   1.680   8.916 -0.5523 -2.2695 -0.4618
 4130SOL    HW223850   0.152   1.613   8.812 -2.0611 -0.5283  0.2110
 4131SOL     OW23851   3.870   0.856   8.625 -0.3283  0.3892 -0.0245
 4131SOL    HW123852   3.867   0.774   8.576  0.3563  0.7568 -0.6904
 4131SOL    HW223853   3.782   0.888   8.606 -0.7379  1.2381  3.2927
 4132SOL     OW23854   0.732   1.621   3.784 -0.0513 -0.0645 -0.2265
 4132SOL    HW123855   0.767   1.702   3.746 -3.3767  0.0364 -3.0657
 4132SOL    HW223856   0.803   1.596   3.843 -0.6214 -0.3642  0.3227
 4133SOL     OW23857   3.961   4.718   9.037 -0.1698  0.0042  0.0496
 4133SOL    HW123858   4.020   0.061   9.005 -2.2688  2.6076  1.7353
 4133SOL    HW223859   3.954   4.664   8.958 -1.4765  0.1120  0.0818
 4134SOL     OW23860   0.565   1.038   7.708  0.2223 -0.3047 -0.4469
 4134SOL    HW123861   0.660   1.035   7.700  0.2276 -1.1141 -0.0223
 4134SOL    HW223862   0.538   1.048   7.616  1.4625 -1.0847 -0.8795
 4135SOL     OW23863   2.296   0.300   5.697 -0.8106 -0.6324  0.1265
 4135SOL    HW123864   2.294   0.336   5.608  0.5345  1.3023  0.8842
 4135SOL    HW223865   2.346   0.219   5.684  0.3040  0.2008 -0.7449
 4136SOL     OW23866   1.950   3.222   2.592  0.0539 -0.1601 -0.0175
 4136SOL    HW123867   2.005   3.148   2.619  0.3140  0.0539  0.0375
 4136SOL    HW223868   1.869   3.212   2.641 -0.2557  3.1640  0.1480
 4137SOL     OW23869   3.625   0.799   2.723 -0.4604  0.0624 -0.1198
 4137SOL    HW123870   3.531   0.782   2.716 -0.7348  1.5689 -0.2326
 4137SOL    HW223871   3.630   0.863   2.651  1.2076  1.3612  1.1613
 4138SOL     OW23872   3.638   3.251   9.619  0.4343  0.2342 -0.3571
 4138SOL    HW123873   3.582   3.259   9.542  0.7220 -0.9387 -0.6801
 4138SOL    HW223874   3.676   3.337   9.603 -2.8705  1.4781 -1.6156
 4139SOL     OW23875   2.371   1.314   3.006 -0.2834  0.3833 -0.1681
 4139SOL    HW123876   2.451   1.294   3.054 -1.6093 -1.0093  1.4364
 4139SOL    HW223877   2.381   1.255   2.931  0.9520  1.3559 -0.7624
 4140SOL     OW23878   2.025   4.358   8.303  0.1773 -0.1988 -0.8067
 4140SOL    HW123879   1.932   4.380   8.310  0.7977  2.6533 -1.5920
 4140SOL    HW223880   2.061   4.442   8.276  1.0290 -0.2805  0.0754
 4141SOL     OW23881   0.566   4.192  16.516 -0.3448 -0.0009  0.4334
 4141SOL    HW123882   0.631   4.122  16.523 -1.6478 -0.8427  4.5475
 4141SOL    HW223883   0.558   4.186  16.421  1.2872 -1.9078  0.3988
 4142SOL     OW23884   3.605   0.866   9.294  0.3224 -0.1722 -0.7708
 4142SOL    HW123885   3.615   0.814   9.214  0.4749  1.0528 -1.5548
 4142SOL    HW223886   3.521   0.904   9.267  0.6028  0.3859 -0.8552
 4143SOL     OW23887   0.861   3.004  14.732  0.0925 -0.1284  0.1724
 4143SOL    HW123888   0.943   3.052  14.719 -0.9477  2.1705  1.9985
 4143SOL    HW223889   0.876   2.934  14.668 -2.7394 -2.1874  1.7482
 4144SOL     OW23890   1.395   1.503   4.990  0.3250 -0.4171  0.1672
 4144SOL    HW123891   1.325   1.566   5.008  1.2265  0.3956  0.8496
 4144SOL    HW223892   1.353   1.428   5.033 -0.3974 -0.7614 -1.1299
 4145SOL     OW23893   1.021   3.521   1.288 -1.0391 -0.8085  0.2298
 4145SOL    HW123894   1.069   3.603   1.296 -0.7997 -0.9660  0.4239
 4145SOL    HW223895   1.015   3.524   1.193  0.7113 -0.7913  0.1185
 4146SOL     OW23896   1.915   1.896   6.616  0.4708 -0.3320 -0.7732
 4146SOL    HW123897   1.866   1.816   6.598 -0.5649  0.5377 -1.8686
 4146SOL    HW223898   1.925   1.924   6.525  3.1874  1.8697  0.2001
 4147SOL     OW23899   2.745   0.432  16.486  0.0241 -0.2283  0.6243
 4147SOL    HW123900   2.751   0.377  16.408 -1.2988 -0.3343  0.5966
 4147SOL    HW223901   2.789   0.512  16.456 -0.3117  0.6402  2.4574
 4148SOL     OW23902   3.597   0.245   3.759 -0.6934  0.3640 -0.0907
 4148SOL    HW123903   3.554   0.313   3.706  1.0458  0.5459 -1.2709
 4148SOL    HW223904   3.648   0.203   3.690 -0.0602 -1.8152  1.7050
 4149SOL     OW23905   1.278   1.466   4.327 -0.2083  0.1215  0.5351
 4149SOL    HW123906   1.350   1.515   4.287 -0.5782 -1.1603 -1.6578
 4149SOL    HW223907   1.291   1.487   4.420 -0.6792  0.9712  0.4065
 4150SOL     OW23908   0.615   2.730   4.938 -0.6404  0.0474  0.6632
 4150SOL    HW123909   0.709   2.720   4.921 -1.2406 -0.5047 -2.4246
 4150SOL    HW223910   0.587   2.788   4.868  1.5383  1.4216  0.9438
 4151SOL     OW23911   4.274   3.874  10.768  0.4394  0.1508  0.0632
 4151SOL    HW123912   4.342   3.935  10.797  0.3783  0.6609 -0.8793
 4151SOL    HW223913   4.248   3.829  10.849 -0.5426 -1.5962 -1.2375
 4152SOL     OW23914   0.616   2.545   4.158  0.3507  0.3364  0.0249
 4152SOL    HW123915   0.550   2.508   4.099  0.8629  0.2634 -0.5080
 4152SOL    HW223916   0.705   2.525   4.129  0.0070 -0.2432 -0.6398
 4153SOL     OW23917   1.576   1.623   9.619  0.2272  0.0722 -0.3839
 4153SOL    HW123918   1.628   1.546   9.644  1.8393  1.3454  0.1663
 4153SOL    HW223919   1.586   1.610   9.524 -0.3131  0.3509 -0.4762
 4154SOL     OW23920   3.205   4.516   1.867 -0.3017  0.0158  0.1475
 4154SOL    HW123921   3.262   4.556   1.933  0.7617  1.0898 -1.4083
 4154SOL    HW223922   3.251   4.530   1.784 -0.9860 -0.7660 -0.3629
 4155SOL     OW23923   4.418   4.307   8.277 -0.2357 -0.0976 -0.2179
 4155SOL    HW123924   4.502   4.295   8.231 -0.1514  0.4030 -0.1996
 4155SOL    HW223925   4.390   4.391   8.242  0.6183 -0.0273 -0.7262
 4156SOL     OW23926   4.572   2.456  10.785 -1.0431  0.1629 -0.2517
 4156SOL    HW123927   4.562   2.472  10.879  3.0613 -1.4453  0.4493
 4156SOL    HW223928   4.501   2.515  10.758  0.0360  2.0790  1.0526
 4157SOL     OW23929   1.898   0.161   8.944 -0.2308  0.4392  0.2191
 4157SOL    HW123930   1.945   0.208   9.013  0.5209 -1.2092  0.8393
 4157SOL    HW223931   1.821   0.217   8.938 -0.1440  0.4460 -0.8041
 4158SOL     OW23932   2.399   3.951   7.868 -0.3055 -0.0309 -0.1896
 4158SOL    HW123933   2.382   3.955   7.774 -0.2279 -1.1410 -0.2574
 4158SOL    HW223934   2.314   3.963   7.910 -1.7111 -0.0313 -3.0383
 4159SOL     OW23935   3.289   2.697  10.008 -0.0058 -0.2385  0.4444
 4159SOL    HW123936   3.207   2.666   9.971  0.6561 -0.7319 -0.6006
 4159SOL    HW223937   3.289   2.784   9.967  0.3299 -0.4304  0.0411
 4160SOL     OW23938   0.473   0.748   6.854  0.5203 -0.4421 -0.0256
 4160SOL    HW123939   0.484   0.783   6.943  0.4911 -0.3813 -0.0458
 4160SOL    HW223940   0.488   0.825   6.798  1.6617 -1.9464 -1.7726
 4161SOL     OW23941   3.115   3.529  15.641  0.6397  0.6288 -0.8457
 4161SOL    HW123942   3.034   3.528  15.590  0.0149  0.7848  0.1294
 4161SOL    HW223943   3.075   3.516  15.727  1.5403 -1.0843 -0.6849
 4162SOL     OW23944   3.846   1.028   3.587 -0.1208 -0.1108  0.2453
 4162SOL    HW123945   3.782   0.959   3.605 -1.3149  0.5333 -1.5247
 4162SOL    HW223946   3.788   1.102   3.567 -0.3350 -0.2363  0.3937
 4163SOL     OW23947   2.314   1.870  16.229 -0.0524 -0.2292 -0.1516
 4163SOL    HW123948   2.319   1.915  16.313 -1.4085  0.4486 -0.4316
 4163SOL    HW223949   2.293   1.781  16.255  0.3116 -0.3534 -0.2854
 4164SOL     OW23950   3.915   3.761   2.742 -0.2823 -0.0073  0.4519
 4164SOL    HW123951   3.856   3.688   2.724  0.6624 -0.7881  0.4959
 4164SOL    HW223952   3.972   3.757   2.665 -0.8836  1.5242 -0.0668
 4165SOL     OW23953   2.662   3.596   1.339  0.4318 -0.0153  0.0640
 4165SOL    HW123954   2.723   3.665   1.315  2.4000 -1.9319 -0.3854
 4165SOL    HW223955   2.659   3.546   1.257 -1.3252  1.8937 -1.0414
 4166SOL     OW23956   0.998   0.177   0.914 -0.9151 -0.1061  0.1625
 4166SOL    HW123957   1.019   0.269   0.928 -2.0710  0.0099  1.1811
 4166SOL    HW223958   1.085   0.143   0.898 -1.1036 -0.4723 -0.0790
 4167SOL     OW23959   3.867   1.579   0.107  0.9457 -0.5390 -1.3278
 4167SOL    HW123960   3.799   1.628   0.153  1.0590 -0.5700 -1.1254
 4167SOL    HW223961   3.812   1.516   0.060 -0.8526 -0.5040  0.6843
 4168SOL     OW23962   3.969   4.632   4.483  0.5013  0.1867  0.1980
 4168SOL    HW123963   3.885   4.648   4.525 -0.4209  0.9824 -1.9612
 4168SOL    HW223964   3.977   4.550   4.532 -0.0287  0.9156  1.4774
 4169SOL     OW23965   1.303   0.074   6.539  0.4999 -0.2158 -0.0801
 4169SOL    HW123966   1.368   0.089   6.470  0.8638  0.0829  0.3213
 4169SOL    HW223967   1.354   0.093   6.618  0.1188  1.0494 -0.1360
 4170SOL     OW23968   2.038   3.649   4.650  0.5320  0.1447  0.1001
 4170SOL    HW123969   1.949   3.634   4.620  0.4987  2.0725 -0.7807
 4170SOL    HW223970   2.090   3.619   4.575  0.3212  0.4806 -0.1792
 4171SOL     OW23971   3.175   3.527   3.357  0.1889  0.2741  0.2797
 4171SOL    HW123972   3.270   3.537   3.345 -0.0831  1.8089 -0.5223
 4171SOL    HW223973   3.141   3.616   3.362 -0.9657 -0.0931 -0.9204
 4172SOL     OW23974   4.563   2.201   7.286 -0.6316  0.3005 -0.0248
 4172SOL    HW123975   4.598   2.290   7.285 -1.0105  0.4474 -0.2113
 4172SOL    HW223976   4.496   2.219   7.221 -1.0502 -2.1160 -0.2662
 4173SOL     OW23977   3.700   1.507  16.076  0.1636  0.0088  0.0032
 4173SOL    HW123978   3.784   1.546  16.101  0.4024 -1.4381  1.4277
 4173SOL    HW223979   3.639   1.579  16.094  1.3553  0.4298  2.4361
 4174SOL     OW23980   3.333   0.985   2.997  0.1007  0.6422 -0.1523
 4174SOL    HW123981   3.376   1.063   3.031 -0.5139  0.4454  1.0866
 4174SOL    HW223982   3.323   1.002   2.903 -0.6996 -1.5565 -0.4632
 4175SOL     OW23983   0.408   0.665  15.540 -0.3652 -0.8704  0.2494
 4175SOL    HW123984   0.416   0.752  15.502 -0.5695 -0.5011  1.0532
 4175SOL    HW223985   0.315   0.644  15.529 -0.3764 -0.4036 -0.5764
 4176SOL     OW23986   4.247   0.389  10.381 -0.4811 -0.0144 -0.9552
 4176SOL    HW123987   4.226   0.296  10.373 -0.8293 -0.0904  0.7613
 4176SOL    HW223988   4.237   0.387  10.476  0.2164 -0.5881 -0.8964
 4177SOL     OW23989   3.833   1.767   0.874  0.3355 -0.2798 -0.4294
 4177SOL    HW123990   3.792   1.756   0.959  0.1767  1.4535 -0.2759
 4177SOL    HW223991   3.889   1.690   0.883 -2.2454 -2.2426 -1.1721
 4178SOL     OW23992   2.714   1.142   4.067 -0.2875  0.0082  0.0097
 4178SOL    HW123993   2.668   1.139   4.151 -2.3648 -0.4841 -1.1359
 4178SOL    HW223994   2.647   1.109   4.007 -1.0841  0.9058  0.3985
 4179SOL     OW23995   2.387   1.972  12.418  0.6628  0.5882  0.0675
 4179SOL    HW123996   2.435   2.050  12.390  3.3219 -0.3166  2.1319
 4179SOL    HW223997   2.437   1.897  12.386  0.0323 -0.5862  1.8280
 4180SOL     OW23998   3.880   3.860   2.282 -0.3655 -0.2264  0.5286
 4180SOL    HW123999   3.851   3.950   2.290  0.5445 -0.1419  2.9202
 4180SOL    HW224000   3.819   3.808   2.229  0.5664 -1.2733  0.4744
 4181SOL     OW24001   1.489   0.895   0.338 -0.1315  0.4213  0.5747
 4181SOL    HW124002   1.442   0.886   0.421 -0.0947  0.3418  0.5866
 4181SOL    HW224003   1.436   0.964   0.298 -0.7473  0.1039  0.8469
 4182SOL     OW24004   3.696   0.958   2.502  0.1437  0.4079 -0.0569
 4182SOL    HW124005   3.631   1.027   2.489  2.8253  2.5562 -2.1409
 4182SOL    HW224006   3.780   1.002   2.489  0.1228  0.2290 -0.7720
 4183SOL     OW24007   1.171   0.990   5.415  0.0728  0.1557  0.1741
 4183SOL    HW124008   1.127   1.054   5.471  0.6582 -0.1523  0.9884
 4183SOL    HW224009   1.257   0.980   5.456  1.3161  3.4149 -1.6796
 4184SOL     OW24010   3.123   4.646   9.146 -0.6800  0.0462 -0.3479
 4184SOL    HW124011   3.051   4.705   9.168 -0.7425  0.5833 -1.9834
 4184SOL    HW224012   3.117   4.564   9.196 -0.1924  0.4807  0.4196
 4185SOL     OW24013   1.272   2.859   5.911 -0.1472  0.4220  0.7737
 4185SOL    HW124014   1.213   2.816   5.972 -0.1182  0.4432  0.8164
 4185SOL    HW224015   1.228   2.843   5.827  0.6622  0.9480  0.2502
 4186SOL     OW24016   3.685   1.963  14.957 -0.3542  0.3067 -0.6456
 4186SOL    HW124017   3.726   1.877  14.947  1.6294  1.1399  0.4416
 4186SOL    HW224018   3.694   1.974  15.052 -0.0332  0.3626 -0.6855
 4187SOL     OW24019   4.094   0.608   8.357 -0.7413 -0.0261 -0.4967
 4187SOL    HW124020   4.034   0.568   8.420  2.5799 -1.5072  1.7016
 4187SOL    HW224021   4.086   0.545   8.285 -1.4961 -2.2451  1.5075
 4188SOL     OW24022   2.012   3.748   0.943 -0.1497  0.1353  0.3926
 4188SOL    HW124023   1.923   3.762   0.976 -1.4923 -1.0322 -2.7905
 4188SOL    HW224024   2.035   3.841   0.953 -2.1353  0.9027 -2.1044
 4189SOL     OW24025   0.083   2.936  13.993 -0.1521  0.1485  0.4306
 4189SOL    HW124026   0.023   2.921  13.920 -0.7519  0.5029  0.8451
 4189SOL    HW224027   0.047   3.014  14.037 -1.7128  0.4502 -1.4148
 4190SOL     OW24028   3.543   3.946   0.369  0.2309 -0.4679 -0.1952
 4190SOL    HW124029   3.516   3.883   0.436  0.0915  0.2426  0.4130
 4190SOL    HW224030   3.461   3.938   0.319  0.8137  0.3292 -1.2709
 4191SOL     OW24031   0.443   2.267   6.401 -0.4807 -0.3457  0.6669
 4191SOL    HW124032   0.471   2.226   6.483  0.0502  2.5067  1.9325
 4191SOL    HW224033   0.388   2.195   6.370  0.9595 -0.8137 -0.7936
 4192SOL     OW24034   2.659   0.136  10.865  0.1737  0.0032  0.5322
 4192SOL    HW124035   2.589   0.198  10.842  1.6820  1.2587 -0.7609
 4192SOL    HW224036   2.665   0.165  10.956 -1.2186  1.7694  0.0502
 4193SOL     OW24037   4.244   4.176   9.899  0.1544  0.4806 -0.2786
 4193SOL    HW124038   4.322   4.197   9.951 -1.4395 -1.0595  2.7383
 4193SOL    HW224039   4.192   4.144   9.972 -0.7990  2.1735 -0.2119
 4194SOL     OW24040   4.053   4.173   7.362 -0.5051 -0.2372 -0.5684
 4194SOL    HW124041   4.075   4.118   7.437  0.6824  0.8436 -0.1401
 4194SOL    HW224042   4.130   4.160   7.306 -0.6452  1.3875 -1.1492
 4195SOL     OW24043   2.445   1.277   6.145  0.4253 -0.0881  0.5004
 4195SOL    HW124044   2.537   1.280   6.172  1.4174 -0.4187 -2.8487
 4195SOL    HW224045   2.422   1.185   6.159  1.3687 -0.5240 -0.7371
 4196SOL     OW24046   1.678   0.062   9.165 -0.6703  0.2924 -0.0954
 4196SOL    HW124047   1.729   0.129   9.211  1.1024 -1.0298 -0.1485
 4196SOL    HW224048   1.593   0.078   9.207 -0.2775  0.9478  0.4579
 4197SOL     OW24049   0.141   3.536   0.441  0.3545 -0.3752 -0.8937
 4197SOL    HW124050   0.179   3.613   0.399  0.5345  0.2627  0.4429
 4197SOL    HW224051   0.046   3.550   0.442 -0.1486 -4.0193  0.5243
 4198SOL     OW24052   0.499   0.105   6.966 -0.3069 -0.0495 -0.6376
 4198SOL    HW124053   0.537   0.044   7.029  0.7894  1.9533  0.6294
 4198SOL    HW224054   0.510   0.051   6.888 -1.6040 -0.9589 -0.1996
 4199SOL     OW24055   0.346   1.301  12.851  0.5347  0.0106 -0.3536
 4199SOL    HW124056   0.349   1.224  12.908  0.6700 -1.0138 -1.7446
 4199SOL    HW224057   0.362   1.273  12.761 -0.9402 -0.3257 -0.5071
 4200SOL     OW24058   1.745   2.298  15.749 -0.4491 -0.4461  0.6333
 4200SOL    HW124059   1.727   2.252  15.667 -1.1606 -0.2906  0.7037
 4200SOL    HW224060   1.674   2.361  15.754 -0.9118 -1.0519  1.7600
 4201SOL     OW24061   1.672   1.963  10.434  0.1700  0.3244 -0.3991
 4201SOL    HW124062   1.696   1.990  10.522 -0.7201  0.9484 -0.3596
 4201SOL    HW224063   1.591   1.913  10.441  0.5927 -0.5054 -1.4281
 4202SOL     OW24064   3.246   4.577  13.232  0.3224  0.1895  0.1345
 4202SOL    HW124065   3.180   4.638  13.199 -0.6265 -1.4738 -1.0389
 4202SOL    HW224066   3.190   4.548  13.304  0.1804  3.3136  1.3002
 4203SOL     OW24067   1.221   0.072   0.182  0.2212 -0.6472 -0.5873
 4203SOL    HW124068   1.260   0.117   0.108  0.0780  0.9523  0.3107
 4203SOL    HW224069   1.138   0.039   0.150  0.4190 -3.1810  1.4467
 4204SOL     OW24070   3.592   3.981   7.053  0.2207 -0.4213  0.5486
 4204SOL    HW124071   3.640   4.023   7.123  1.5326 -1.3825  0.2231
 4204SOL    HW224072   3.531   3.922   7.097  0.2085 -1.1529 -0.4329
 4205SOL     OW24073   0.257   2.394   8.925 -0.5906 -0.2143 -0.0778
 4205SOL    HW124074   0.215   2.333   8.865  0.0115 -1.8920  1.2080
 4205SOL    HW224075   0.205   2.402   9.005  0.5533 -2.0096  0.8440
 4206SOL     OW24076   3.082   3.381  16.808  0.2714  0.0751  0.3442
 4206SOL    HW124077   3.070   3.470  16.841 -0.0220  0.0232  0.3760
 4206SOL    HW224078   3.117   3.344  16.889 -2.4837 -1.5572  0.7912
 4207SOL     OW24079   3.790   2.787   0.709 -0.2702  0.1363 -0.1229
 4207SOL    HW124080   3.857   2.855   0.709  1.4132 -1.5239 -3.8327
 4207SOL    HW224081   3.777   2.782   0.614  0.8181  1.0135 -0.3254
 4208SOL     OW24082   2.064   2.750   2.230 -0.3276 -0.0265  0.1650
 4208SOL    HW124083   2.014   2.668   2.228 -1.7705  0.8401  0.3569
 4208SOL    HW224084   2.012   2.800   2.166 -0.2802 -1.3583 -0.9173
 4209SOL     OW24085   2.481   4.222   6.926 -0.0281 -0.0540  0.0774
 4209SOL    HW124086   2.546   4.168   6.970  2.9931  2.8738 -0.7280
 4209SOL    HW224087   2.406   4.164   6.917  0.1657 -0.5094  1.4536
 4210SOL     OW24088   1.091   3.428  13.769  0.1806 -0.0819  0.0265
 4210SOL    HW124089   0.999   3.444  13.791 -0.0264 -0.6778 -0.4110
 4210SOL    HW224090   1.118   3.392  13.854  0.0332 -1.5553 -0.5487
 4211SOL     OW24091   0.365   2.967  15.686 -0.1531 -0.2252  0.1036
 4211SOL    HW124092   0.434   2.928  15.631 -1.2755 -0.6292 -1.0246
 4211SOL    HW224093   0.399   3.056  15.684 -0.6570 -0.0596 -0.9351
 4212SOL     OW24094   3.031   2.060   6.025 -0.2329 -0.0931 -0.1425
 4212SOL    HW124095   2.949   2.106   6.005 -0.2452 -1.0323 -2.2388
 4212SOL    HW224096   2.996   1.971   6.022 -1.9705  0.5605  0.7728
 4213SOL     OW24097   3.922   4.254   2.653 -0.4255 -0.0393 -0.1604
 4213SOL    HW124098   3.935   4.345   2.680  1.5609 -0.5585  0.6619
 4213SOL    HW224099   4.007   4.208   2.650  0.4141  1.4696  0.5321
 4214SOL     OW24100   0.598   4.220   7.981  0.0902  0.3680 -0.2134
 4214SOL    HW124101   0.552   4.304   7.990  0.6434  0.6399  0.1197
 4214SOL    HW224102   0.526   4.162   8.003 -1.8939  2.5258 -1.0126
 4215SOL     OW24103   3.769   2.746   8.271  0.7142  0.2079  0.4895
 4215SOL    HW124104   3.848   2.762   8.220  1.8455 -0.3403  2.0746
 4215SOL    HW224105   3.733   2.834   8.278 -0.7926 -0.4466  0.8844
 4216SOL     OW24106   0.855   1.635   2.307 -0.1419 -0.0089  1.1108
 4216SOL    HW124107   0.882   1.658   2.219 -1.8270 -0.4855  0.4708
 4216SOL    HW224108   0.770   1.678   2.319  0.1627  1.2127 -1.1202
 4217SOL     OW24109   3.701   2.609  10.157  0.1731 -0.6478  0.6346
 4217SOL    HW124110   3.632   2.578  10.214  0.7001 -2.0576  0.4972
 4217SOL    HW224111   3.769   2.616  10.224  1.9248  0.0971 -1.1993
 4218SOL     OW24112   3.743   3.720   9.119 -0.3536 -0.1288  0.3038
 4218SOL    HW124113   3.688   3.691   9.191 -0.0921  1.2186  1.0627
 4218SOL    HW224114   3.775   3.638   9.083 -2.2247 -0.8356  0.2864
 4219SOL     OW24115   0.512   0.260   1.663  0.5527  0.0509  0.5864
 4219SOL    HW124116   0.536   0.324   1.596  0.4534  0.6219  1.1008
 4219SOL    HW224117   0.554   0.183   1.624 -2.4867 -0.4458 -1.7135
 4220SOL     OW24118   3.969   2.745   7.893 -0.0874 -0.1892 -0.4356
 4220SOL    HW124119   3.967   2.841   7.886  0.1479 -0.3355 -2.4985
 4220SOL    HW224120   3.994   2.710   7.807 -1.3656  0.3706 -1.0302
 4221SOL     OW24121   2.653   2.976   9.793 -0.1920 -0.1873 -0.1339
 4221SOL    HW124122   2.677   3.022   9.713  1.0042 -0.5104  0.0412
 4221SOL    HW224123   2.735   2.958   9.839  0.3445 -1.7733 -1.7138
 4222SOL     OW24124   3.974   1.524  16.267 -0.2076 -0.1567  0.5132
 4222SOL    HW124125   3.951   1.607  16.307 -0.4090  0.6805 -1.3431
 4222SOL    HW224126   3.999   1.562  16.182  0.4226 -1.6629  0.0167
 4223SOL     OW24127   1.080   0.723   9.042  0.3033  0.0834 -0.7872
 4223SOL    HW124128   1.007   0.677   9.084  1.9662 -2.1282 -0.3722
 4223SOL    HW224129   1.161   0.677   9.064 -0.0558 -0.4828 -0.6325
 4224SOL     OW24130   4.613   0.739   3.333 -0.0194  0.0071  0.3213
 4224SOL    HW124131   4.562   0.778   3.403 -1.4997 -0.0042 -0.7520
 4224SOL    HW224132   4.589   0.797   3.261  0.4310  2.2985  2.0210
 4225SOL     OW24133   0.852   3.737   3.125 -0.2868 -0.3761  0.0468
 4225SOL    HW124134   0.846   3.757   3.219  1.0627  0.3186 -0.0117
 4225SOL    HW224135   0.930   3.790   3.108 -0.7901  0.5765  0.6910
 4226SOL     OW24136   3.372   3.430   5.901  0.4297 -0.5197  0.0235
 4226SOL    HW124137   3.330   3.512   5.929 -2.1326 -1.9719  0.4858
 4226SOL    HW224138   3.299   3.370   5.918  0.8222 -1.2183 -0.8094
 4227SOL     OW24139   2.484   0.161   7.131  0.1543 -0.9103 -0.0939
 4227SOL    HW124140   2.508   0.229   7.069  2.6297 -1.0487  0.7346
 4227SOL    HW224141   2.395   0.191   7.150  0.3716 -0.5597  0.3537
 4228SOL     OW24142   4.563   0.765   1.817 -0.5084  0.1516 -0.2987
 4228SOL    HW124143   4.557   0.751   1.723  1.0102  1.1884 -0.5533
 4228SOL    HW224144   4.618   0.843   1.818  0.0969 -0.2583 -1.8635
 4229SOL     OW24145   4.622   3.788   9.711 -0.1302 -0.5980  0.1684
 4229SOL    HW124146   4.545   3.793   9.768 -0.7150  0.0100 -0.6709
 4229SOL    HW224147   4.674   3.859   9.747  0.7499 -1.0625 -0.2000
 4230SOL     OW24148   2.522   0.042  16.648  0.0626 -0.0063  0.0113
 4230SOL    HW124149   2.488   0.076  16.731  0.3453  1.6911 -0.5567
 4230SOL    HW224150   2.486   4.679  16.646  1.4277 -0.5467 -0.5296
 4231SOL     OW24151   0.332   0.140   2.912 -0.2547  0.3433  0.2937
 4231SOL    HW124152   0.422   0.142   2.946  0.3972 -1.8308 -1.3071
 4231SOL    HW224153   0.335   0.053   2.871 -2.6804  0.4348 -0.0258
 4232SOL     OW24154   0.195   2.722   4.686  0.3914  0.1363  0.1061
 4232SOL    HW124155   0.167   2.813   4.695 -2.9134 -0.8605  0.1505
 4232SOL    HW224156   0.113   2.674   4.679  0.4141  0.2935 -1.1826
 4233SOL     OW24157   1.076   1.858   9.096 -0.3291 -0.4032  0.0176
 4233SOL    HW124158   1.112   1.861   9.185  0.2868  1.9394 -0.3313
 4233SOL    HW224159   0.982   1.867   9.112 -0.2462 -1.4200  1.0911
 4234SOL     OW24160   1.688   1.821   4.313 -0.5694  0.1831 -0.1164
 4234SOL    HW124161   1.736   1.781   4.386 -1.9092 -0.3860  0.4471
 4234SOL    HW224162   1.762   1.864   4.270 -0.2268 -1.1145 -0.8402
 4235SOL     OW24163   3.219   2.952   3.455 -0.3563 -0.0430  0.1533
 4235SOL    HW124164   3.178   2.917   3.534  0.3244 -2.8278 -0.7412
 4235SOL    HW224165   3.155   2.946   3.384 -2.5851  0.6292  2.1087
 4236SOL     OW24166   2.639   3.401   2.303 -0.5193  0.0032 -0.2292
 4236SOL    HW124167   2.585   3.474   2.272 -1.8382 -0.5899  0.7483
 4236SOL    HW224168   2.718   3.434   2.258 -0.6292 -0.3429 -0.6820
 4237SOL     OW24169   4.301   2.991   6.996 -0.3894  0.7195  0.0949
 4237SOL    HW124170   4.351   2.948   6.927 -1.4230  0.9386 -0.7854
 4237SOL    HW224171   4.232   2.928   7.018 -0.3098 -0.1419 -2.1853
 4238SOL     OW24172   2.490   2.808   8.166  0.3875 -0.0563 -0.2724
 4238SOL    HW124173   2.439   2.732   8.191 -1.2359  0.5939 -1.5875
 4238SOL    HW224174   2.515   2.767   8.083 -0.2462  0.4275 -0.7011
 4239SOL     OW24175   4.522   3.044  15.666 -0.3605 -0.1504 -0.9176
 4239SOL    HW124176   4.558   3.104  15.731  0.4988  0.6776 -2.1386
 4239SOL    HW224177   4.605   2.999  15.656  0.2399  0.6487  0.5274
 4240SOL     OW24178   3.193   2.361  17.508  0.6177  0.3477 -0.5341
 4240SOL    HW124179   3.146   2.444  17.508 -0.3578 -0.1868  0.2472
 4240SOL    HW224180   3.185   2.330  17.418 -1.0412 -1.4438  0.2187
 4241SOL     OW24181   1.358   1.213   8.105 -0.1173  0.3909  0.2610
 4241SOL    HW124182   1.376   1.298   8.145 -1.8559  0.7562  0.2723
 4241SOL    HW224183   1.397   1.152   8.167  0.2746  1.4182  1.0316
 4242SOL     OW24184   0.209   0.936  14.193 -0.4994  0.2237  0.0548
 4242SOL    HW124185   0.266   0.954  14.118 -1.7298 -0.6224 -1.0865
 4242SOL    HW224186   0.187   1.017  14.240  0.3673 -0.0299  0.8973
 4243SOL     OW24187   0.231   0.852  12.576  0.5608 -0.1594 -0.0778
 4243SOL    HW124188   0.240   0.774  12.522 -2.8107  0.9278 -2.1799
 4243SOL    HW224189   0.321   0.875  12.602  0.9151  0.3411 -1.7766
 4244SOL     OW24190   3.694   2.105   7.365  0.0915  0.4476  0.3664
 4244SOL    HW124191   3.779   2.142   7.390  0.9372  0.1936 -2.1439
 4244SOL    HW224192   3.706   2.016   7.398 -2.2801 -0.2118 -0.5336
 4245SOL     OW24193   1.250   0.794   8.645  0.3784 -0.2235  0.0385
 4245SOL    HW124194   1.223   0.885   8.638 -0.2435 -0.4860 -0.9082
 4245SOL    HW224195   1.185   0.751   8.590  0.6729 -1.6878  0.8276
 4246SOL     OW24196   1.901   2.856   2.714  0.1260  0.2772  0.3377
 4246SOL    HW124197   1.925   2.863   2.621  1.8545 -1.0662  0.6892
 4246SOL    HW224198   1.971   2.905   2.758  0.9197 -1.3377  0.8780
 4247SOL     OW24199   0.804   0.785   4.504  0.0334 -0.4971 -0.2510
 4247SOL    HW124200   0.740   0.784   4.575  0.4935 -0.1830  0.1636
 4247SOL    HW224201   0.743   0.795   4.430  0.7281 -0.5378 -0.8326
 4248SOL     OW24202   1.152   0.472   8.827  0.0780 -0.0398 -0.0807
 4248SOL    HW124203   1.185   0.452   8.739 -2.3242  0.6349 -1.1336
 4248SOL    HW224204   1.185   0.561   8.837 -1.5604  0.4665  0.8378
 4249SOL     OW24205   0.780   4.396   2.245 -0.0122 -0.0321  0.6099
 4249SOL    HW124206   0.858   4.376   2.298 -0.8241 -1.6842  1.1783
 4249SOL    HW224207   0.808   4.480   2.209 -1.0112  1.1919  2.6767
 4250SOL     OW24208   2.966   0.182  15.998 -0.6249  0.7036  0.0608
 4250SOL    HW124209   2.941   0.215  15.912 -1.1569  1.8590  0.6667
 4250SOL    HW224210   3.053   0.219  16.015 -0.3724 -0.3080  1.0464
 4251SOL     OW24211   2.184   3.575   5.736 -0.2071 -0.4204 -0.6537
 4251SOL    HW124212   2.156   3.546   5.649 -1.2912 -0.3082 -0.3342
 4251SOL    HW224213   2.277   3.559   5.717  0.0071 -1.9300  1.6511
 4252SOL     OW24214   3.116   3.376   2.939  0.4588 -0.8307  0.3429
 4252SOL    HW124215   3.179   3.325   2.888  0.6962 -0.7833  0.5895
 4252SOL    HW224216   3.094   3.440   2.871  3.1995 -0.0961  0.1323
 4253SOL     OW24217   0.080   1.108  11.478 -0.2044 -0.2935  0.2732
 4253SOL    HW124218   0.044   1.193  11.452 -0.3450 -0.0746  1.1865
 4253SOL    HW224219   0.172   1.131  11.467 -0.2400 -0.1626  0.2524
 4254SOL     OW24220   0.765   1.924   3.642  0.1690  0.0532 -0.3530
 4254SOL    HW124221   0.852   1.889   3.620  0.0479 -0.5382  0.1199
 4254SOL    HW224222   0.804   1.987   3.702  1.6227 -2.1137  0.9849
 4255SOL     OW24223   2.090   2.500   1.142  0.4792 -0.8467 -0.2594
 4255SOL    HW124224   2.116   2.511   1.050  0.2043 -0.6268 -0.3103
 4255SOL    HW224225   2.010   2.449   1.136  0.4403 -0.6758 -1.2015
 4256SOL     OW24226   2.451   0.891   6.486 -0.1503  0.0577 -0.0977
 4256SOL    HW124227   2.475   0.836   6.411  0.4804  0.7216 -0.3820
 4256SOL    HW224228   2.364   0.910   6.450 -0.9211 -0.7816  1.3114
 4257SOL     OW24229   4.665   2.948   2.290  0.4110 -0.8089 -0.3367
 4257SOL    HW124230   0.008   2.997   2.243  2.1264 -2.1881  0.7080
 4257SOL    HW224231   4.602   3.010   2.329  2.1785  1.3367 -0.9028
 4258SOL     OW24232   3.747   3.334  15.974 -0.3146 -0.1771 -0.3556
 4258SOL    HW124233   3.758   3.255  15.921 -0.4256 -0.3004 -0.1982
 4258SOL    HW224234   3.740   3.408  15.914  2.3111  0.2759 -0.0870
 4259SOL     OW24235   3.050   4.029   3.349  0.5292  0.4918  0.4084
 4259SOL    HW124236   2.999   4.028   3.268 -0.3065 -0.5405  0.9364
 4259SOL    HW224237   3.057   4.122   3.369  0.2241  0.1850  1.9575
 4260SOL     OW24238   0.630   2.827   4.072 -0.0187 -0.2791  0.2600
 4260SOL    HW124239   0.649   2.780   3.990  0.0032 -1.7516  1.1097
 4260SOL    HW224240   0.720   2.843   4.098  0.0871 -0.9362  0.3104
 4261SOL     OW24241   2.747   4.225   5.574  0.2098 -0.1724  0.0048
 4261SOL    HW124242   2.702   4.180   5.646 -1.0773  2.3650  0.7931
 4261SOL    HW224243   2.813   4.160   5.549 -0.5650 -1.1791  0.6132
 4262SOL     OW24244   3.004   1.263  15.997 -0.6937  0.5267 -0.3288
 4262SOL    HW124245   3.086   1.292  16.038  0.5338 -1.7191 -1.2085
 4262SOL    HW224246   2.940   1.296  16.060  1.3620  0.5462  1.7594
 4263SOL     OW24247   4.176   1.937   9.854 -0.5666  0.1498  0.4749
 4263SOL    HW124248   4.190   1.852   9.895  0.9993  0.1034 -0.1275
 4263SOL    HW224249   4.268   1.964   9.850 -0.5686  0.2355  0.9361
 4264SOL     OW24250   3.439   2.988   9.218 -0.4275 -0.3006 -0.0388
 4264SOL    HW124251   3.478   3.010   9.303  0.2195 -4.0512  0.6452
 4264SOL    HW224252   3.425   3.073   9.178 -1.8026  0.5437  2.2451
 4265SOL     OW24253   2.009   2.274   2.955 -0.6893  0.7001 -0.0236
 4265SOL    HW124254   2.001   2.179   2.965  0.6579  0.5085 -0.8125
 4265SOL    HW224255   1.989   2.266   2.861 -2.3143  0.7151  0.3170
 4266SOL     OW24256   1.467   1.543   0.571  0.0141 -0.4348 -0.4797
 4266SOL    HW124257   1.385   1.494   0.560 -0.3993 -0.0101  0.7179
 4266SOL    HW224258   1.448   1.620   0.623 -1.3427 -0.6396 -0.6739
 4267SOL     OW24259   2.230   2.413  14.283  0.1348  0.1967  0.2130
 4267SOL    HW124260   2.144   2.435  14.249 -0.2768 -0.1097  1.0655
 4267SOL    HW224261   2.273   2.497  14.299  0.0462  0.2062  0.4006
 4268SOL     OW24262   1.331   1.384   0.404 -0.5342  0.2852  0.1836
 4268SOL    HW124263   1.394   1.387   0.332 -2.1362 -1.1744 -1.2921
 4268SOL    HW224264   1.291   1.470   0.398 -2.1087 -0.2210  3.7049
 4269SOL     OW24265   0.247   1.451   1.668 -0.0696  0.5389  0.4339
 4269SOL    HW124266   0.257   1.479   1.577 -0.6769  1.8336  0.7719
 4269SOL    HW224267   0.330   1.483   1.705 -0.0304  3.3484 -2.1182
 4270SOL     OW24268   3.727   1.264   5.825 -0.0065 -0.4924 -0.1695
 4270SOL    HW124269   3.743   1.237   5.735 -0.2061  0.3875 -0.4662
 4270SOL    HW224270   3.785   1.210   5.879 -0.8568 -0.4048  0.8443
 4271SOL     OW24271   1.037   1.693   2.070  0.1544  0.1604  0.2363
 4271SOL    HW124272   1.125   1.703   2.108  0.0579 -1.9326  1.0150
 4271SOL    HW224273   1.028   1.773   2.018  1.3882 -0.2607 -0.6411
 4272SOL     OW24274   4.677   4.559   5.327  0.0414 -0.0775  0.0380
 4272SOL    HW124275   4.714   4.479   5.365  0.3890  0.4312  0.7568
 4272SOL    HW224276   4.586   4.547   5.352  0.1555  0.5914  0.7787
 4273SOL     OW24277   0.176   1.273   5.541  0.1715  0.2317 -0.5201
 4273SOL    HW124278   0.109   1.232   5.487  2.4496 -2.6975 -1.1615
 4273SOL    HW224279   0.183   1.205   5.609 -0.4114  1.2524  0.5643
 4274SOL     OW24280   3.573   4.063   6.003  0.5702  0.0495  0.1700
 4274SOL    HW124281   3.637   4.118   5.958 -0.4364  1.4160  0.4324
 4274SOL    HW224282   3.634   3.994   6.031  0.1867  0.6681  2.4689
 4275SOL     OW24283   1.205   3.583   7.848 -0.6840  0.3649 -0.4217
 4275SOL    HW124284   1.275   3.600   7.911 -1.8500  1.8027  0.4801
 4275SOL    HW224285   1.242   3.636   7.778  0.3358 -0.7089 -0.6887
 4276SOL     OW24286   4.405   0.355  14.745  0.2759  0.1454  0.7412
 4276SOL    HW124287   4.455   0.349  14.664  1.1780  1.9160  1.1807
 4276SOL    HW224288   4.472   0.325  14.806  1.9260 -0.7433 -1.4894
 4277SOL     OW24289   3.493   3.925   5.402 -0.1224  0.0556  0.4065
 4277SOL    HW124290   3.431   3.996   5.420  0.3391  1.0307 -1.8923
 4277SOL    HW224291   3.477   3.880   5.485  0.3648 -0.0632  0.4344
 4278SOL     OW24292   1.604   0.556  12.805  0.3753 -0.0839  0.2849
 4278SOL    HW124293   1.667   0.620  12.838 -0.4328 -0.0501  1.7790
 4278SOL    HW224294   1.653   0.474  12.798  2.4477  1.1686  0.3417
 4279SOL     OW24295   1.792   4.051   2.886  0.5638  0.4212  0.0289
 4279SOL    HW124296   1.715   4.107   2.898  0.9046  0.5739  1.4919
 4279SOL    HW224297   1.855   4.102   2.937 -0.5051  0.9257  0.8417
 4280SOL     OW24298   3.880   0.320   6.489  0.0439 -0.1664  0.0026
 4280SOL    HW124299   3.821   0.390   6.458 -0.0731 -0.1513  0.2565
 4280SOL    HW224300   3.949   0.319   6.423  1.5759 -1.2160  1.6549
 4281SOL     OW24301   2.708   4.333  16.556  0.8962 -0.1032 -0.0758
 4281SOL    HW124302   2.634   4.273  16.567  0.4048  0.1930 -1.7924
 4281SOL    HW224303   2.785   4.276  16.562 -1.6410 -3.7267 -1.9236
 4282SOL     OW24304   2.573   0.561   3.169 -0.1286 -0.5288  0.4629
 4282SOL    HW124305   2.581   0.629   3.102  1.2125 -1.2418 -0.0905
 4282SOL    HW224306   2.621   0.605   3.239  2.5467 -1.8034 -0.5622
 4283SOL     OW24307   3.523   0.094   8.426 -0.4019 -0.1283 -0.1572
 4283SOL    HW124308   3.518   0.101   8.521 -1.6409 -0.9181 -0.1716
 4283SOL    HW224309   3.454   0.032   8.405  1.1083 -0.9186 -2.7923
 4284SOL     OW24310   4.693   0.829   2.746  0.4710 -0.2510  0.0797
 4284SOL    HW124311   0.061   0.817   2.764  0.8190  2.2279 -0.1423
 4284SOL    HW224312   4.645   0.826   2.829 -1.6933  2.2962 -1.0904
 4285SOL     OW24313   3.042   3.223  10.162 -0.2267  0.9252  0.2198
 4285SOL    HW124314   3.061   3.159  10.231  0.9226  0.5542 -0.4415
 4285SOL    HW224315   3.062   3.304  10.210 -0.4638  1.0983  0.0252
 4286SOL     OW24316   1.665   2.177   6.049  0.2339 -0.2455  0.2892
 4286SOL    HW124317   1.686   2.223   5.967 -0.3005  0.7997  0.7369
 4286SOL    HW224318   1.597   2.113   6.026 -0.2692 -0.1623  1.5578
 4287SOL     OW24319   3.965   2.655  11.749  0.2226  0.2554  0.6692
 4287SOL    HW124320   4.019   2.710  11.693  1.0418 -1.3269 -0.0940
 4287SOL    HW224321   3.915   2.604  11.684  0.0560  0.4407  0.6501
 4288SOL     OW24322   1.772   1.859   3.192  0.3719  0.1762 -0.2035
 4288SOL    HW124323   1.743   1.950   3.192 -0.8051 -0.1891  1.1072
 4288SOL    HW224324   1.695   1.807   3.165  2.3291 -1.7005 -2.1863
 4289SOL     OW24325   4.652   2.177   2.861 -0.7897 -0.0827 -0.2047
 4289SOL    HW124326   4.590   2.227   2.807 -1.4649 -0.8440 -0.1430
 4289SOL    HW224327   4.596   2.114   2.906  2.2106 -1.4786  1.5750
 4290SOL     OW24328   2.741   1.500   8.841 -0.0860  0.0149  0.2600
 4290SOL    HW124329   2.675   1.469   8.903  3.2372 -4.0893  1.7368
 4290SOL    HW224330   2.691   1.547   8.775  1.7123  1.7109  0.0879
 4291SOL     OW24331   3.293   4.246   7.414  0.6063  0.2965 -0.0035
 4291SOL    HW124332   3.234   4.171   7.408  1.1694 -0.1510  0.0643
 4291SOL    HW224333   3.369   4.194   7.386 -1.9784 -2.5654 -1.7287
 4292SOL     OW24334   2.721   3.220  12.923 -0.1028 -0.8295  0.1836
 4292SOL    HW124335   2.680   3.294  12.878 -2.2968 -3.2529 -1.7337
 4292SOL    HW224336   2.750   3.171  12.846  0.7143  0.5607 -0.3940
 4293SOL     OW24337   1.817   2.469   8.881  0.7549 -0.0652 -0.0341
 4293SOL    HW124338   1.766   2.483   8.801  0.4416  2.0471  0.5500
 4293SOL    HW224339   1.846   2.377   8.878 -0.5810 -0.4954  0.4487
 4294SOL     OW24340   4.447   1.963   4.091 -0.3732  0.0392 -0.2184
 4294SOL    HW124341   4.385   1.923   4.030  1.0204 -1.8204 -0.4100
 4294SOL    HW224342   4.432   1.892   4.154  1.2321 -2.6088 -2.8135
 4295SOL     OW24343   1.318   3.575   3.061 -0.0022 -0.0464  0.2942
 4295SOL    HW124344   1.341   3.487   3.088 -0.0828  0.2957  1.4806
 4295SOL    HW224345   1.362   3.581   2.976  1.6032  2.2791  1.2908
 4296SOL     OW24346   3.353   1.525   4.942  0.5843 -0.1147 -0.0913
 4296SOL    HW124347   3.448   1.519   4.934  0.9747  1.3665  3.5806
 4296SOL    HW224348   3.331   1.436   4.913 -0.7957  0.0276  0.5388
 4297SOL     OW24349   2.986   0.445   7.875 -0.0288 -0.2817  0.4499
 4297SOL    HW124350   2.896   0.434   7.905 -0.4984  0.6180 -0.5965
 4297SOL    HW224351   3.029   0.445   7.960 -0.1293 -0.5910  0.5011
 4298SOL     OW24352   0.245   0.613   7.822  0.2088  0.0934 -0.1613
 4298SOL    HW124353   0.317   0.621   7.761 -0.3036 -0.9173 -0.9014
 4298SOL    HW224354   0.166   0.608   7.768 -1.4287 -0.3595  2.2383
 4299SOL     OW24355   0.700   3.422  14.094  0.2665  0.1923 -0.2906
 4299SOL    HW124356   0.659   3.496  14.048  1.0418  0.9590  0.2498
 4299SOL    HW224357   0.685   3.450  14.184 -0.9613 -0.8586 -0.1662
 4300SOL     OW24358   3.268   3.877   4.549  0.4009  0.4918  0.2718
 4300SOL    HW124359   3.291   3.871   4.457  1.9692 -1.8159  0.8263
 4300SOL    HW224360   3.172   3.877   4.556  0.3712  1.0871 -0.1683
 4301SOL     OW24361   2.628   0.516   8.202 -0.0498  0.3735  0.1068
 4301SOL    HW124362   2.574   0.595   8.210  0.2379  0.4346  1.5465
 4301SOL    HW224363   2.618   0.484   8.292 -2.1555 -0.3662 -0.3926
 4302SOL     OW24364   1.028   0.397   4.001 -0.1837  1.2996 -0.2086
 4302SOL    HW124365   0.949   0.406   3.947  0.4790 -0.8316 -1.5121
 4302SOL    HW224366   1.093   0.416   3.933 -1.1098  0.7306 -1.2590
 4303SOL     OW24367   1.931   4.489   4.685  0.3678 -0.3786 -0.1295
 4303SOL    HW124368   1.881   4.507   4.605 -0.1261 -3.2686 -0.4894
 4303SOL    HW224369   1.953   4.579   4.709 -0.3597 -0.9932  2.9351
 4304SOL     OW24370   4.642   1.895   4.793 -0.4330 -0.1790  0.2467
 4304SOL    HW124371   4.556   1.859   4.815 -0.7747  0.3793 -0.1552
 4304SOL    HW224372   4.632   1.983   4.829  2.3447 -0.8958  2.6882
 4305SOL     OW24373   2.230   4.114   6.894 -0.0641 -0.2889 -0.4121
 4305SOL    HW124374   2.198   4.048   6.833  1.2404 -0.9440 -0.3974
 4305SOL    HW224375   2.151   4.166   6.905  0.8173  0.9137  0.3170
 4306SOL     OW24376   4.724   1.630   5.887 -0.0202 -0.0009  0.2583
 4306SOL    HW124377   0.015   1.570   5.815 -1.7544  1.0330 -0.9765
 4306SOL    HW224378   4.675   1.690   5.831  1.6144  1.2126  0.1616
 4307SOL     OW24379   1.628   2.582  11.585  0.5999 -0.0967 -0.2244
 4307SOL    HW124380   1.648   2.657  11.640  0.9549  0.8326 -1.6021
 4307SOL    HW224381   1.655   2.506  11.637 -0.9128  0.3541  1.1843
 4308SOL     OW24382   2.139   3.702  13.077 -0.1995  0.0011  0.2235
 4308SOL    HW124383   2.194   3.776  13.098  0.6044 -0.5160 -0.0427
 4308SOL    HW224384   2.200   3.631  13.056  2.1092  1.8742  0.6620
 4309SOL     OW24385   0.568   1.993  14.340  0.2917 -0.1314 -0.1256
 4309SOL    HW124386   0.562   2.042  14.258 -2.1175  1.4733  0.9910
 4309SOL    HW224387   0.636   1.928  14.325  1.5147  1.1203  0.0138
 4310SOL     OW24388   2.430   2.417  15.656  0.1596 -0.1357  0.2558
 4310SOL    HW124389   2.417   2.498  15.607 -0.7216 -0.5076 -0.1270
 4310SOL    HW224390   2.440   2.443  15.747 -0.7541 -0.3878  0.4238
 4311SOL     OW24391   3.140   3.409   3.598 -0.2573 -0.1748 -0.0575
 4311SOL    HW124392   3.127   3.444   3.510 -1.1517 -0.6387 -0.1189
 4311SOL    HW224393   3.192   3.330   3.580 -0.4041 -0.2197 -0.2922
 4312SOL     OW24394   2.101   1.022  12.443 -0.1124  0.2724  0.3421
 4312SOL    HW124395   2.096   1.117  12.434 -1.0986  0.1478 -0.4231
 4312SOL    HW224396   2.122   0.992  12.354 -0.2948  0.3174  0.2829
 4313SOL     OW24397   4.387   0.636   6.951 -0.3063  0.1968  0.4692
 4313SOL    HW124398   4.383   0.568   7.018  0.9463  0.0922  0.4311
 4313SOL    HW224399   4.471   0.669   6.981 -0.6766  1.5650  0.0059
 4314SOL     OW24400   4.474   1.579   5.050 -0.2696 -0.5141 -0.1568
 4314SOL    HW124401   4.406   1.646   5.041 -0.5609 -0.9878 -1.4785
 4314SOL    HW224402   4.453   1.531   4.970 -1.3279 -0.7797  0.2797
 4315SOL     OW24403   1.549   0.068   8.797  0.7496 -0.1339  0.5742
 4315SOL    HW124404   1.591   0.133   8.741 -2.0720  0.4509 -0.8729
 4315SOL    HW224405   1.460   0.103   8.798  1.0459  0.6328 -0.4170
 4316SOL     OW24406   4.590   2.540   0.389 -1.2376 -0.3366  0.2753
 4316SOL    HW124407   4.532   2.502   0.455 -1.6167  1.8044  1.1646
 4316SOL    HW224408   4.573   2.487   0.311 -0.3906 -1.1789  0.6627
 4317SOL     OW24409   3.032   4.674   3.717  0.6086  0.0661  0.1016
 4317SOL    HW124410   2.987   4.616   3.779 -0.6848 -0.3925 -1.2702
 4317SOL    HW224411   3.124   4.652   3.731  0.8514  1.7182  1.1045
 4318SOL     OW24412   0.044   4.332   6.763  0.0389  0.2849  0.0663
 4318SOL    HW124413   4.675   4.317   6.754  0.3648 -0.8353 -1.3162
 4318SOL    HW224414   0.070   4.245   6.733  0.1937  0.7354 -1.0843
 4319SOL     OW24415   3.068   4.511  10.981 -0.1537  0.0755 -0.8045
 4319SOL    HW124416   3.140   4.570  10.960  0.9474 -1.0379 -0.1670
 4319SOL    HW224417   3.095   4.436  10.928 -2.1183 -0.9063 -0.4286
 4320SOL     OW24418   4.673   2.068   2.115  0.3303  0.0857 -0.4683
 4320SOL    HW124419   0.006   1.996   2.090 -0.6795 -0.7334 -0.4504
 4320SOL    HW224420   4.699   2.102   2.201  0.9412 -3.0605  0.6006
 4321SOL     OW24421   0.244   2.148   3.990  0.2443  0.4755 -0.3088
 4321SOL    HW124422   0.310   2.161   3.922 -0.1461  2.5602 -0.2988
 4321SOL    HW224423   0.211   2.066   3.954  0.4766  0.3576 -0.2516
 4322SOL     OW24424   0.649   0.726   5.090 -0.9759  0.0255 -0.2138
 4322SOL    HW124425   0.649   0.670   5.167 -1.8645 -0.1589 -0.3448
 4322SOL    HW224426   0.670   0.667   5.018 -1.4262 -0.8942  0.4213
 4323SOL     OW24427   3.873   0.762   6.794 -0.3899 -0.2342 -0.1527
 4323SOL    HW124428   3.953   0.747   6.844  0.3965  1.2833 -0.9840
 4323SOL    HW224429   3.817   0.698   6.838  0.3187 -0.6357  0.1730
 4324SOL     OW24430   0.809   2.449  16.742  0.1416  0.6671 -0.0504
 4324SOL    HW124431   0.784   2.357  16.749  0.3199  0.7840  1.8918
 4324SOL    HW224432   0.826   2.462  16.648 -0.0007  2.4394  0.1543
 4325SOL     OW24433   0.667   3.203  12.573  0.0620 -0.0536  1.1288
 4325SOL    HW124434   0.669   3.282  12.627 -0.2639  0.9837 -0.3738
 4325SOL    HW224435   0.714   3.141  12.628 -1.4960  0.1016  2.6187
 4326SOL     OW24436   3.444   3.443   8.711  0.0861 -0.2374 -0.7919
 4326SOL    HW124437   3.450   3.416   8.619  1.4230 -0.7401 -0.5577
 4326SOL    HW224438   3.536   3.446   8.737 -0.2473  3.7211 -0.1712
 4327SOL     OW24439   3.235   3.649  14.024  0.1838  0.1752  0.2460
 4327SOL    HW124440   3.169   3.621  13.961 -0.7498  2.0540  0.4137
 4327SOL    HW224441   3.215   3.742  14.031 -0.1040  0.2965 -2.2093
 4328SOL     OW24442   2.287   0.713   9.099 -0.3115  0.2683 -0.0274
 4328SOL    HW124443   2.226   0.707   9.025  0.6569  1.8014 -0.9333
 4328SOL    HW224444   2.275   0.624   9.134 -0.3588  0.3168  0.0803
 4329SOL     OW24445   3.300   0.702   8.806  0.4077  0.0849  0.4747
 4329SOL    HW124446   3.300   0.750   8.724 -1.0041 -1.3129 -0.3457
 4329SOL    HW224447   3.394   0.685   8.807  0.0197 -2.1659 -0.4999
 4330SOL     OW24448   3.206   0.202   6.837  0.0500  0.5446 -0.2256
 4330SOL    HW124449   3.143   0.183   6.907 -1.5328  0.5423 -1.6679
 4330SOL    HW224450   3.169   0.278   6.794 -1.5399  1.2314  2.3478
 4331SOL     OW24451   0.370   3.018   2.623  0.6799 -0.3863  0.3671
 4331SOL    HW124452   0.358   2.941   2.567  1.1370 -0.1923 -0.0010
 4331SOL    HW224453   0.404   3.085   2.563  2.1322 -1.2421  0.2431
 4332SOL     OW24454   3.938   2.299  10.701 -0.0056 -0.0501  0.7502
 4332SOL    HW124455   3.930   2.301  10.606  0.1119 -0.7040  0.7288
 4332SOL    HW224456   3.867   2.359  10.725  0.1944 -0.1852  1.6849
 4333SOL     OW24457   0.602   0.273   2.098 -0.2051  0.0427  0.2091
 4333SOL    HW124458   0.667   0.224   2.149 -0.3596 -0.4356 -0.0604
 4333SOL    HW224459   0.640   0.254   2.013 -3.8728 -0.1215 -1.3709
 4334SOL     OW24460   3.611   2.053   5.525 -0.7179  0.5414  0.3545
 4334SOL    HW124461   3.552   1.984   5.495  2.6777 -1.5101 -1.5632
 4334SOL    HW224462   3.662   2.071   5.446 -0.1957  1.0589  0.8079
 4335SOL     OW24463   0.372   0.102   6.618 -0.5113  0.1869  0.0513
 4335SOL    HW124464   0.372   0.086   6.523  1.5220 -0.7206  0.2096
 4335SOL    HW224465   0.428   0.178   6.635 -0.4521  0.3117 -0.6789
 4336SOL     OW24466   4.671   4.190  12.858 -0.2537  0.3438  0.0203
 4336SOL    HW124467   0.003   4.238  12.797 -3.5449  0.4171 -3.0175
 4336SOL    HW224468   4.704   4.225  12.940 -0.1269  0.1015  0.0718
 4337SOL     OW24469   4.007   1.628  10.868  0.0044  0.0939 -0.0240
 4337SOL    HW124470   3.974   1.713  10.839  0.0246  1.0973  2.8459
 4337SOL    HW224471   4.061   1.656  10.942  2.3493  1.1622 -2.1519
 4338SOL     OW24472   3.207   2.709   4.412  0.2645  0.0195  0.1598
 4338SOL    HW124473   3.193   2.669   4.326 -1.8714 -1.3327  1.1364
 4338SOL    HW224474   3.123   2.752   4.428  0.1299 -0.2840  0.2583
 4339SOL     OW24475   0.334   1.700   3.232 -0.2529  0.0533  0.3468
 4339SOL    HW124476   0.382   1.782   3.226  0.0841  0.0020  2.3566
 4339SOL    HW224477   0.400   1.639   3.197 -0.4339 -1.4943  2.6729
 4340SOL     OW24478   2.453   3.505  14.866 -0.3670  0.0907  0.3628
 4340SOL    HW124479   2.416   3.418  14.882 -0.6653  0.0852 -0.3436
 4340SOL    HW224480   2.455   3.543  14.953 -1.4092 -2.4702  1.4965
 4341SOL     OW24481   4.369   2.344  13.100 -0.2745  0.4556  0.6048
 4341SOL    HW124482   4.449   2.314  13.056 -0.6232  0.7562 -0.2393
 4341SOL    HW224483   4.379   2.306  13.187  0.9146  0.2542  0.3895
 4342SOL     OW24484   2.403   4.059   4.283  1.2524 -0.8003 -0.4092
 4342SOL    HW124485   2.356   4.103   4.353 -0.2981 -1.2804 -1.1539
 4342SOL    HW224486   2.468   4.004   4.326  2.6577  1.4516  0.3625
 4343SOL     OW24487   1.362   2.406   2.574 -0.4157  0.5303 -0.0163
 4343SOL    HW124488   1.449   2.404   2.613  0.2525  1.6371 -1.4320
 4343SOL    HW224489   1.387   2.386   2.483 -0.6829 -3.1529  0.7210
 4344SOL     OW24490   1.703   1.681  17.632 -0.1017  0.0889 -0.6313
 4344SOL    HW124491   1.776   1.739  17.654 -0.0679  0.1561 -0.9117
 4344SOL    HW224492   1.697   1.612  17.698  0.2238  0.7334  0.0620
 4345SOL     OW24493   3.225   1.860   2.880 -0.0359 -0.3572 -1.1711
 4345SOL    HW124494   3.197   1.877   2.970  0.4810 -2.8966 -0.5452
 4345SOL    HW224495   3.271   1.939   2.849  0.1024  1.0142  2.5403
 4346SOL     OW24496   0.747   1.239  16.885 -0.1262 -0.0296 -0.1184
 4346SOL    HW124497   0.662   1.215  16.848 -0.0179  2.0691 -1.7443
 4346SOL    HW224498   0.746   1.171  16.952  0.7472  1.6138  1.5787
 4347SOL     OW24499   2.935   1.596   9.010  0.8303 -0.1382  0.0664
 4347SOL    HW124500   2.854   1.573   8.965  0.1155  0.8350  0.8616
 4347SOL    HW224501   2.914   1.681   9.049 -1.1254  0.8347 -3.0807
 4348SOL     OW24502   4.325   4.712   2.729  0.1832  0.0445 -0.1282
 4348SOL    HW124503   4.382   4.710   2.653  0.3873 -1.4168  0.0782
 4348SOL    HW224504   4.326   4.622   2.760 -2.3779  0.7022  1.8714
 4349SOL     OW24505   2.908   3.633   8.581  0.1991  0.2716  0.5204
 4349SOL    HW124506   2.836   3.577   8.610 -1.3025  0.7617 -2.2531
 4349SOL    HW224507   2.989   3.583   8.587  0.3304  0.6010  1.4832
 4350SOL     OW24508   3.790   1.545   7.100  0.6070  0.2260 -0.1661
 4350SOL    HW124509   3.871   1.529   7.148  0.5013  0.8627  0.2246
 4350SOL    HW224510   3.769   1.455   7.074  2.7171 -0.5952  1.0082
 4351SOL     OW24511   0.443   2.722  13.581  0.0235 -0.1200 -0.1714
 4351SOL    HW124512   0.411   2.650  13.635  2.0121  0.4385  1.7312
 4351SOL    HW224513   0.431   2.687  13.492 -2.2060  0.1274  0.0314
 4352SOL     OW24514   0.712   1.068   5.968  0.1711  0.0648 -0.2920
 4352SOL    HW124515   0.808   1.069   5.970  0.1716 -0.0198 -0.2932
 4352SOL    HW224516   0.701   0.995   6.028  0.7975 -1.1364 -1.6276
 4353SOL     OW24517   3.279   1.746   5.770  0.1126 -0.1466  0.2501
 4353SOL    HW124518   3.337   1.712   5.702 -1.8159  1.9965 -2.4904
 4353SOL    HW224519   3.271   1.838   5.744  0.2208 -0.5187 -1.1233
 4354SOL     OW24520   0.711   1.177  13.729  0.1372 -0.2971 -0.4427
 4354SOL    HW124521   0.771   1.251  13.727  0.1666 -0.3547 -1.6727
 4354SOL    HW224522   0.646   1.222  13.675  0.1555 -0.4134 -0.5625
 4355SOL     OW24523   0.888   1.082   7.774  0.6961 -0.1587 -0.7916
 4355SOL    HW124524   0.940   1.005   7.751 -0.0157 -0.7306 -0.4928
 4355SOL    HW224525   0.957   1.140   7.804  0.8494 -0.3374 -0.7972
 4356SOL     OW24526   1.216   1.485   2.971 -0.2547 -0.1233 -0.0496
 4356SOL    HW124527   1.298   1.441   2.949 -0.2341  0.6576 -1.5905
 4356SOL    HW224528   1.209   1.539   2.892 -2.0747 -2.4156 -1.4732
 4357SOL     OW24529   2.457   1.217   4.647  0.4661 -0.2757  0.2936
 4357SOL    HW124530   2.455   1.261   4.562 -3.7655  1.3798  1.2766
 4357SOL    HW224531   2.367   1.232   4.675  0.6296  0.6185  0.3372
 4358SOL     OW24532   4.140   2.003   4.297  0.2358  0.3451  0.2200
 4358SOL    HW124533   4.207   2.047   4.245 -0.1938 -0.4188 -0.9703
 4358SOL    HW224534   4.174   2.014   4.386  1.0223 -0.5564  0.0385
 4359SOL     OW24535   3.883   2.984   1.199  0.0456  0.1187 -0.2713
 4359SOL    HW124536   3.907   3.045   1.129  1.4374  1.1280  1.0799
 4359SOL    HW224537   3.955   2.921   1.199 -0.8445 -0.8958 -0.4062
 4360SOL     OW24538   3.994   2.479  11.946  0.5144 -0.5279 -0.2567
 4360SOL    HW124539   3.900   2.497  11.948  1.0090  1.9769  0.6849
 4360SOL    HW224540   4.009   2.550  11.884  1.7476 -1.2214 -0.7329
 4361SOL     OW24541   4.285   4.622   6.486  0.0795 -0.6666 -0.2138
 4361SOL    HW124542   4.229   4.545   6.479 -0.2842 -0.5824  1.6419
 4361SOL    HW224543   4.329   4.606   6.569 -2.3003  2.8826  1.7699
 4362SOL     OW24544   1.749   3.609   3.138  0.2114 -0.2097  0.2217
 4362SOL    HW124545   1.746   3.697   3.100 -1.0369 -0.2823  0.1519
 4362SOL    HW224546   1.734   3.575   3.050 -2.1357 -0.3714  0.6720
 4363SOL     OW24547   0.336   2.759   3.903  0.3914 -0.7291 -0.9076
 4363SOL    HW124548   0.276   2.781   3.974  1.2167 -0.6069 -0.2582
 4363SOL    HW224549   0.415   2.808   3.928 -0.7413 -1.4059  4.0287
 4364SOL     OW24550   3.305   2.333   6.070  0.1260 -0.9313 -0.0043
 4364SOL    HW124551   3.351   2.368   6.147  1.2994 -0.9999 -0.6661
 4364SOL    HW224552   3.352   2.388   6.006  1.7190 -1.1010  1.0163
 4365SOL     OW24553   2.361   0.054  15.965  0.2251  0.3823 -0.1553
 4365SOL    HW124554   2.424   0.122  15.987  1.6922 -1.0450  0.0779
 4365SOL    HW224555   2.414   4.720  15.911  1.0061  0.3075  0.6914
 4366SOL     OW24556   3.516   0.604   6.263 -0.0863  0.5544 -0.1470
 4366SOL    HW124557   3.448   0.562   6.211  0.1003  0.9951 -0.7481
 4366SOL    HW224558   3.501   0.690   6.225  3.0963  1.2114  0.0203
 4367SOL     OW24559   4.392   3.112   6.373 -0.6065  0.1077  0.7745
 4367SOL    HW124560   4.363   3.126   6.463  0.7542 -1.7199  1.4941
 4367SOL    HW224561   4.355   3.025   6.359  0.5520 -0.4316  1.0032
 4368SOL     OW24562   1.798   0.757  12.859 -0.0362 -0.0646 -0.1824
 4368SOL    HW124563   1.855   0.807  12.800  0.6369  0.4230  0.8662
 4368SOL    HW224564   1.864   0.710  12.911  1.9953  2.0846 -0.7911
 4369SOL     OW24565   3.691   2.044   4.765 -0.2864 -0.0751  0.0739
 4369SOL    HW124566   3.746   2.122   4.775  1.5101 -1.3591  0.3380
 4369SOL    HW224567   3.703   2.016   4.674 -0.2603  1.9869 -0.5707
 4370SOL     OW24568   1.111   1.495   9.164  0.0355 -0.0416  0.4961
 4370SOL    HW124569   1.194   1.449   9.153  1.0301  1.7071  0.6006
 4370SOL    HW224570   1.102   1.518   9.257 -2.4972  0.7190  0.0659
 4371SOL     OW24571   2.429   4.294   7.730 -0.7208  0.3880 -0.4737
 4371SOL    HW124572   2.357   4.240   7.697  0.6209 -1.2412 -0.7336
 4371SOL    HW224573   2.505   4.246   7.698  0.7827  0.8260  2.4979
 4372SOL     OW24574   3.153   2.022   0.726 -0.3040  0.8739 -0.5297
 4372SOL    HW124575   3.135   2.001   0.634 -0.2665 -0.4885 -0.2237
 4372SOL    HW224576   3.110   1.950   0.772  3.4016 -1.6493 -0.9949
 4373SOL     OW24577   0.217   3.661   3.366 -0.4248 -0.1446 -0.2130
 4373SOL    HW124578   0.301   3.625   3.395 -0.9381 -0.8284  0.4446
 4373SOL    HW224579   0.255   3.705   3.290  0.5440 -2.1643 -0.9063
 4374SOL     OW24580   3.397   2.154  15.258 -0.8519 -0.0002 -0.2598
 4374SOL    HW124581   3.322   2.105  15.226 -1.4341 -0.7394  2.2744
 4374SOL    HW224582   3.419   2.199  15.176 -3.2395  0.3443 -0.7082
 4375SOL     OW24583   0.010   2.150   2.525  0.3366 -0.2936  0.2562
 4375SOL    HW124584   4.669   2.106   2.578 -0.6925  0.1026 -0.7029
 4375SOL    HW224585   0.016   2.236   2.565 -2.6086 -0.4021  0.8761
 4376SOL     OW24586   2.941   3.559   9.806 -0.0005 -0.5895  0.0528
 4376SOL    HW124587   3.016   3.542   9.863 -1.6107  1.4304  2.8185
 4376SOL    HW224588   2.995   3.577   9.729  0.5137  1.7814  0.9668
 4377SOL     OW24589   3.948   0.805   7.238  0.3350 -0.3110 -0.5306
 4377SOL    HW124590   3.998   0.759   7.170 -0.4801  0.5297 -1.6962
 4377SOL    HW224591   3.939   0.736   7.304  2.1921 -0.6982 -0.6921
 4378SOL     OW24592   0.828   0.325   2.425 -0.2320  0.0479 -0.0606
 4378SOL    HW124593   0.785   0.398   2.469 -0.3488  0.6677 -1.2085
 4378SOL    HW224594   0.916   0.335   2.461 -1.0584  3.4273  0.9818
 4379SOL     OW24595   3.236   2.298  13.656  0.2643  0.4976  0.1357
 4379SOL    HW124596   3.231   2.324  13.749  1.3440  2.1526 -0.2665
 4379SOL    HW224597   3.303   2.232  13.643 -0.0328  0.6138 -1.8634
 4380SOL     OW24598   3.933   2.705   1.739 -0.1422  0.9021 -0.0072
 4380SOL    HW124599   3.989   2.629   1.751  0.6311  1.4066 -0.3987
 4380SOL    HW224600   3.848   2.664   1.749  0.5123  0.1828  2.4206
 4381SOL     OW24601   4.662   2.996   1.326  0.1219  0.0285  0.1853
 4381SOL    HW124602   4.691   2.976   1.237  0.1833 -2.6794  0.8300
 4381SOL    HW224603   4.592   3.056   1.300  0.6039  0.8568  0.7972
 4382SOL     OW24604   3.695   4.121   5.382  0.1215  0.3616  0.7124
 4382SOL    HW124605   3.654   4.034   5.379 -0.2016  0.5297  0.2768
 4382SOL    HW224606   3.746   4.126   5.463  0.3979 -0.6573  0.6078
 4383SOL     OW24607   0.270   1.341   2.235  0.4507 -0.5127 -0.3198
 4383SOL    HW124608   0.230   1.422   2.204  1.7670  0.3384  0.1924
 4383SOL    HW224609   0.196   1.321   2.292  0.3788  1.3103  0.2228
 4384SOL     OW24610   2.654   0.332   4.883  0.2953  0.2858  0.0610
 4384SOL    HW124611   2.573   0.282   4.888  1.2239 -1.2672 -0.5390
 4384SOL    HW224612   2.630   0.409   4.832 -0.7486  0.0253  0.1559
 4385SOL     OW24613   0.865   2.996  12.605 -0.3361 -0.1382  0.5965
 4385SOL    HW124614   0.919   2.954  12.538 -1.1512  1.6938 -1.1959
 4385SOL    HW224615   0.796   2.929  12.612 -0.8234  0.3075  0.0418
 4386SOL     OW24616   3.214   1.824   6.316 -0.1843 -0.2287  0.3453
 4386SOL    HW124617   3.254   1.897   6.364 -1.3330 -0.7344  2.0900
 4386SOL    HW224618   3.130   1.832   6.360 -1.1056  1.0484 -1.6832
 4387SOL     OW24619   3.900   1.414   8.413 -0.0536 -0.2111 -0.2959
 4387SOL    HW124620   3.825   1.471   8.428  0.4268  0.4296 -0.3295
 4387SOL    HW224621   3.910   1.364   8.494  3.6555  2.2498  0.7558
 4388SOL     OW24622   4.175   2.918   4.895  0.0563 -0.0416  0.1399
 4388SOL    HW124623   4.088   2.954   4.912 -0.6652 -0.3759 -2.8799
 4388SOL    HW224624   4.204   2.985   4.833  0.6858 -0.4589 -0.0132
 4389SOL     OW24625   0.164   0.591  17.420 -0.0519  0.3165 -0.0429
 4389SOL    HW124626   0.232   0.657  17.435 -1.0942  1.3529  0.1669
 4389SOL    HW224627   0.101   0.624  17.356 -1.7249 -0.2559  1.2903
 4390SOL     OW24628   1.611   1.393   7.151  0.2865  0.4070 -0.0377
 4390SOL    HW124629   1.597   1.308   7.192 -0.9494 -0.3689 -2.0604
 4390SOL    HW224630   1.558   1.380   7.072  1.0269 -0.3757 -0.4110
 4391SOL     OW24631   3.746   3.775  14.037  0.2267 -0.2557  0.7411
 4391SOL    HW124632   3.662   3.752  14.077 -1.5829  0.5076 -2.5658
 4391SOL    HW224633   3.761   3.858  14.082 -3.2009  1.3329 -1.0345
 4392SOL     OW24634   3.814   4.371   4.308  0.4688  0.1625 -0.1477
 4392SOL    HW124635   3.790   4.292   4.259  0.4206 -1.8143  3.0090
 4392SOL    HW224636   3.739   4.389   4.364  0.1211  0.1678 -0.6246
 4393SOL     OW24637   2.929   4.600   1.114 -0.1508  0.2179 -0.3775
 4393SOL    HW124638   2.913   4.505   1.120  1.3906 -0.1528 -2.1834
 4393SOL    HW224639   3.024   4.599   1.107 -0.0904  0.9567  0.3360
 4394SOL     OW24640   0.163   2.958   0.972 -0.0899  0.1111 -0.0470
 4394SOL    HW124641   0.171   2.973   0.878 -1.4985  0.1093 -0.1811
 4394SOL    HW224642   0.109   3.030   1.006 -2.6614 -2.0237  0.4254
 4395SOL     OW24643   1.769   3.960   3.291  0.7043 -0.4193 -0.1059
 4395SOL    HW124644   1.769   4.056   3.286 -1.2772 -0.4656 -1.0441
 4395SOL    HW224645   1.675   3.944   3.286  0.9395 -1.2056 -1.8697
 4396SOL     OW24646   3.110   2.582  11.580 -0.0751  0.3586 -0.3569
 4396SOL    HW124647   3.144   2.541  11.659 -0.9100  1.0345  0.3542
 4396SOL    HW224648   3.177   2.609  11.518  1.3293  1.8544  1.8153
 4397SOL     OW24649   3.671   3.378   1.823 -0.0522  0.5314  0.3987
 4397SOL    HW124650   3.637   3.375   1.913  1.8126 -0.5193  1.0564
 4397SOL    HW224651   3.714   3.293   1.820 -1.8583 -0.3492 -0.6882
 4398SOL     OW24652   3.048   0.269   4.574  0.2510  0.1885 -0.0878
 4398SOL    HW124653   3.088   0.246   4.658 -0.8736 -1.5976 -0.0365
 4398SOL    HW224654   3.071   0.361   4.563  0.6785  0.3396  1.9820
 4399SOL     OW24655   1.548   2.163   5.543  0.3683  0.1409  0.4650
 4399SOL    HW124656   1.477   2.155   5.479 -0.5876 -1.4517  1.7141
 4399SOL    HW224657   1.497   2.158   5.624  0.3751 -1.7285  0.3724
 4400SOL     OW24658   3.610   3.219   3.056 -0.3438  0.3890  0.0667
 4400SOL    HW124659   3.622   3.252   3.145 -0.9406  0.0741  0.2593
 4400SOL    HW224660   3.645   3.130   3.048  1.0139  0.7518  1.8287
 4401SOL     OW24661   3.228   3.169   4.576  0.2049  0.2269  0.0795
 4401SOL    HW124662   3.243   3.099   4.513  2.9742 -1.5532  2.6904
 4401SOL    HW224663   3.238   3.247   4.522  2.7344 -0.3107 -0.2136
 4402SOL     OW24664   0.678   0.648   1.016 -0.3720  0.2072  0.2066
 4402SOL    HW124665   0.598   0.615   1.057  1.3379 -1.4309  2.2614
 4402SOL    HW224666   0.647   0.738   1.011 -1.3217 -0.2049 -1.1698
 4403SOL     OW24667   3.416   3.270  14.635 -0.2165  0.6614 -0.0036
 4403SOL    HW124668   3.348   3.234  14.692 -0.6866 -1.1261 -1.7175
 4403SOL    HW224669   3.475   3.300  14.705  0.6046 -0.0456 -0.3830
 4404SOL     OW24670   2.999   3.657  10.185 -0.5109  0.3888  0.6236
 4404SOL    HW124671   3.028   3.567  10.200 -0.7200 -0.1366 -2.0249
 4404SOL    HW224672   2.928   3.666  10.248 -2.1478  1.4380 -1.3546
 4405SOL     OW24673   2.417   0.998   6.129 -0.0270  0.8997 -0.1537
 4405SOL    HW124674   2.375   0.912   6.131  0.1740  0.7773 -1.3112
 4405SOL    HW224675   2.499   0.963   6.165 -1.1668  0.6907  2.2373
 4406SOL     OW24676   0.733   2.103   3.992 -0.1286 -0.6730 -0.2560
 4406SOL    HW124677   0.710   2.010   3.991 -0.1442 -0.6387 -2.7383
 4406SOL    HW224678   0.683   2.129   4.069  0.3878  1.1590 -0.5355
 4407SOL     OW24679   2.603   0.965   0.182  0.3053 -0.1043  0.2074
 4407SOL    HW124680   2.573   1.035   0.124  0.7609 -0.1998 -0.1455
 4407SOL    HW224681   2.578   1.002   0.267 -2.1073  0.0070 -0.5610
 4408SOL     OW24682   1.409   3.166   7.325 -0.1120  0.9039 -0.0144
 4408SOL    HW124683   1.323   3.153   7.283  0.7329 -1.6481 -0.9577
 4408SOL    HW224684   1.396   3.121   7.408  0.0709 -1.3301 -1.1880
 4409SOL     OW24685   1.300   4.538   8.736  0.5903 -0.1376 -0.1681
 4409SOL    HW124686   1.300   4.631   8.756 -0.1315 -0.3898  0.9862
 4409SOL    HW224687   1.209   4.513   8.753  0.0022 -0.5507 -3.8237
 4410SOL     OW24688   1.234   2.361  16.881 -0.1357  0.0776  0.7668
 4410SOL    HW124689   1.244   2.451  16.848  0.2573 -0.3095 -0.1671
 4410SOL    HW224690   1.214   2.319  16.797  0.5783 -0.0427  0.6557
 4411SOL     OW24691   2.604   3.368   3.545  0.2900  0.2012 -0.1193
 4411SOL    HW124692   2.532   3.402   3.492  0.2228 -1.1210 -0.8698
 4411SOL    HW224693   2.682   3.395   3.496 -0.8178  0.3314 -1.8166
 4412SOL     OW24694   4.671   4.302   4.463 -0.1304  0.1643  0.0780
 4412SOL    HW124695   4.630   4.235   4.408 -0.1745  0.9844 -0.8748
 4412SOL    HW224696   0.014   4.326   4.400  1.4454 -2.1017  0.9415
 4413SOL     OW24697   1.285   2.333   8.697  0.0473 -0.3369 -0.4521
 4413SOL    HW124698   1.275   2.319   8.791 -2.7686 -2.8442 -1.1014
 4413SOL    HW224699   1.248   2.251   8.664  0.0881 -0.1487 -0.9624
 4414SOL     OW24700   3.318   1.960   5.638 -0.0283  0.1385 -0.4940
 4414SOL    HW124701   3.289   1.931   5.551 -1.0324 -0.4066  0.0195
 4414SOL    HW224702   3.354   2.043   5.608 -1.6581 -0.1040 -3.1542
 4415SOL     OW24703   1.979   3.394   7.888  0.2458 -0.4331  0.2635
 4415SOL    HW124704   1.977   3.299   7.879 -0.7021 -0.1565 -2.2433
 4415SOL    HW224705   1.890   3.410   7.918  1.1677  0.9942  2.2385
 4416SOL     OW24706   3.840   3.685   3.523  0.5047 -0.3862 -0.3444
 4416SOL    HW124707   3.914   3.745   3.518  0.7192 -0.6827 -0.7159
 4416SOL    HW224708   3.803   3.710   3.439 -0.1739 -1.5698 -0.3992
 4417SOL     OW24709   2.866   1.119   5.252 -0.2921 -0.0287 -0.2190
 4417SOL    HW124710   2.816   1.197   5.276 -0.5598 -0.8328  1.7783
 4417SOL    HW224711   2.792   1.061   5.237  0.6782 -1.1215 -0.7772
 4418SOL     OW24712   0.484   0.682   9.002  0.1989  0.2605  0.2105
 4418SOL    HW124713   0.479   0.626   8.924  1.2497  0.6038 -0.1053
 4418SOL    HW224714   0.392   0.693   9.024  0.2684  0.3123  0.4778
 4419SOL     OW24715   3.964   1.281   9.213  0.1848  0.0119  0.1955
 4419SOL    HW124716   4.009   1.248   9.136  0.7582  0.3556  0.3830
 4419SOL    HW224717   3.906   1.207   9.233  0.8525 -0.9541 -1.4334
 4420SOL     OW24718   3.163   4.046   9.721 -0.0126  0.3558  0.0214
 4420SOL    HW124719   3.167   4.140   9.702  1.1412  0.1800 -0.6014
 4420SOL    HW224720   3.177   4.047   9.816  1.8681 -0.7789 -0.2317
 4421SOL     OW24721   1.775   3.572   5.760 -0.2461 -0.0290 -0.3487
 4421SOL    HW124722   1.839   3.606   5.697  0.2301  1.7011  1.0890
 4421SOL    HW224723   1.714   3.526   5.702  1.4573 -0.2999 -1.9248
 4422SOL     OW24724   4.320   2.877   3.377  0.1051  0.6944  0.1338
 4422SOL    HW124725   4.253   2.879   3.308 -0.6401 -1.0909  0.8217
 4422SOL    HW224726   4.272   2.923   3.446 -2.9356 -0.0125 -1.4831
 4423SOL     OW24727   1.454   1.440   2.850 -0.0728  0.1896 -0.2623
 4423SOL    HW124728   1.477   1.351   2.874  0.8041  0.9607  1.8367
 4423SOL    HW224729   1.500   1.452   2.767 -0.9981 -1.0691 -0.9517
 4424SOL     OW24730   2.517   0.832  12.109 -0.0313  0.1167  0.4102
 4424SOL    HW124731   2.453   0.770  12.142  0.7492 -1.2889 -0.7170
 4424SOL    HW224732   2.497   0.922  12.135 -2.8589 -0.4541  0.1500
 4425SOL     OW24733   4.148   2.750   9.502  0.2510  0.1344  0.1659
 4425SOL    HW124734   4.160   2.783   9.591  0.5159 -1.2057  0.6267
 4425SOL    HW224735   4.105   2.668   9.525  0.5444  0.3413  1.4558
 4426SOL     OW24736   1.009   0.096   2.955 -0.7437  0.4349  0.1396
 4426SOL    HW124737   1.096   0.112   2.993 -0.2238 -1.5039 -0.2815
 4426SOL    HW224738   1.038   0.050   2.877  1.4567  0.5665  0.8938
 4427SOL     OW24739   3.625   3.703   2.183 -0.2304  0.0892  0.0691
 4427SOL    HW124740   3.611   3.689   2.090 -0.4080 -2.1689  0.4354
 4427SOL    HW224741   3.585   3.788   2.197  0.1565  0.1841  0.5911
 4428SOL     OW24742   3.233   4.208  16.659  0.0133  0.0790  0.1541
 4428SOL    HW124743   3.228   4.302  16.674  0.7152  0.2857 -0.8912
 4428SOL    HW224744   3.327   4.188  16.663  0.6894  3.5188  1.3441
 4429SOL     OW24745   3.625   2.325   4.581 -0.1302  0.3439  0.0941
 4429SOL    HW124746   3.596   2.409   4.617  0.4004  1.0427 -1.1180
 4429SOL    HW224747   3.709   2.319   4.627 -0.4825  0.2318  0.7296
 4430SOL     OW24748   3.298   3.767   1.697  0.5841 -0.0693  0.2668
 4430SOL    HW124749   3.383   3.811   1.688  0.9083 -1.0154 -1.2644
 4430SOL    HW224750   3.295   3.745   1.791  2.2791 -3.5440 -0.4689
 4431SOL     OW24751   3.849   1.150  14.246  0.0268 -0.3328 -0.2283
 4431SOL    HW124752   3.883   1.194  14.324 -0.0843 -1.8277  0.6623
 4431SOL    HW224753   3.811   1.221  14.194 -1.0519  0.3403  1.4881
 4432SOL     OW24754   4.155   2.902   6.585  0.0941  0.0696  0.2340
 4432SOL    HW124755   4.158   2.937   6.496 -0.0020  1.5096  0.7948
 4432SOL    HW224756   4.071   2.936   6.615  0.9736  1.7070  0.8453
 4433SOL     OW24757   1.432   2.249   7.497  0.2237  0.3344  0.4610
 4433SOL    HW124758   1.384   2.295   7.566 -1.8705 -1.3220  0.1245
 4433SOL    HW224759   1.495   2.317   7.473  0.3368 -0.2741 -0.9827
 4434SOL     OW24760   4.019   3.398   9.983 -0.2228 -0.2240  0.4522
 4434SOL    HW124761   3.924   3.395   9.995 -0.2920 -3.3080 -0.9193
 4434SOL    HW224762   4.048   3.321  10.032  0.8010  0.2962  0.6542
 4435SOL     OW24763   1.633   4.075   0.721 -0.8073  0.2144 -0.2856
 4435SOL    HW124764   1.552   4.077   0.670  0.9129  0.2456 -3.0348
 4435SOL    HW224765   1.669   4.155   0.681 -2.6139  2.1281  1.9328
 4436SOL     OW24766   1.947   4.365   4.373  0.3577 -0.5259  1.3891
 4436SOL    HW124767   1.957   4.309   4.450  0.4825  0.4943  2.1241
 4436SOL    HW224768   2.033   4.354   4.334 -0.0885 -0.1733  0.3102
 4437SOL     OW24769   2.971   2.871   5.187 -0.0556 -0.3725  0.3155
 4437SOL    HW124770   2.911   2.866   5.113  1.7946  0.8250 -1.2895
 4437SOL    HW224771   3.033   2.803   5.161 -1.0574 -0.9717 -0.4946
 4438SOL     OW24772   4.117   1.524   3.800  0.2119  0.1085 -0.0674
 4438SOL    HW124773   4.087   1.554   3.886 -0.3920  0.7530 -0.4967
 4438SOL    HW224774   4.194   1.472   3.822 -0.4681 -1.0081 -0.3713
 4439SOL     OW24775   1.184   2.464   8.455 -0.3331  0.1198  0.1641
 4439SOL    HW124776   1.212   2.440   8.543 -0.2610  1.6814  0.5636
 4439SOL    HW224777   1.135   2.544   8.472 -3.6132 -1.9227  0.2967
 4440SOL     OW24778   0.670   0.161   4.433 -0.0157  0.4682 -0.2959
 4440SOL    HW124779   0.652   0.255   4.428  0.2044  0.6171  1.4322
 4440SOL    HW224780   0.739   0.176   4.498  0.3810  2.6029 -1.2123
 4441SOL     OW24781   3.549   1.346  11.483 -0.3344 -0.6921  0.3774
 4441SOL    HW124782   3.592   1.363  11.399 -0.1505  0.8783  0.7817
 4441SOL    HW224783   3.472   1.299  11.452 -0.4444 -0.9660  1.0773
 4442SOL     OW24784   1.956   0.364   2.200 -0.2884  0.4389 -0.2239
 4442SOL    HW124785   2.040   0.329   2.171 -1.9975 -3.0532 -0.9564
 4442SOL    HW224786   1.901   0.303   2.151 -0.9334  1.3520 -0.6408
 4443SOL     OW24787   3.929   1.312   1.469  0.1825 -0.2188  0.0025
 4443SOL    HW124788   4.011   1.297   1.421 -0.9456 -4.6433 -0.5060
 4443SOL    HW224789   3.885   1.228   1.460  0.0282 -0.0034 -1.3608
 4444SOL     OW24790   0.709   2.868   7.393  0.0823 -0.4006  0.1190
 4444SOL    HW124791   0.757   2.807   7.338 -0.6707 -0.2799 -0.6642
 4444SOL    HW224792   0.690   2.938   7.331 -0.6315  0.0930  0.8998
 4445SOL     OW24793   1.866   0.201   8.185 -0.5256  0.2102 -0.3338
 4445SOL    HW124794   1.818   0.169   8.262  1.5434  1.8085  1.6068
 4445SOL    HW224795   1.953   0.179   8.218 -0.3240  0.7938 -0.4854
 4446SOL     OW24796   4.250   1.687   6.646 -1.0164 -0.6824 -0.4177
 4446SOL    HW124797   4.238   1.600   6.685 -0.5598  0.0909  1.4418
 4446SOL    HW224798   4.158   1.711   6.643 -0.7346  0.3662 -0.4760
 4447SOL     OW24799   0.285   2.794   5.326  0.0594  0.0520  0.4492
 4447SOL    HW124800   0.307   2.715   5.376 -2.1415 -1.1500 -0.5038
 4447SOL    HW224801   0.341   2.778   5.250 -0.2365 -0.5099  0.3446
 4448SOL     OW24802   0.540   3.648   7.313  0.3958 -0.3112 -0.0222
 4448SOL    HW124803   0.562   3.565   7.271 -1.5450 -0.2487 -1.1586
 4448SOL    HW224804   0.622   3.650   7.362 -0.9188  0.7042  2.1669
 4449SOL     OW24805   3.903   1.191   8.209  0.0418  0.0744  0.4043
 4449SOL    HW124806   3.915   1.211   8.117  0.1445  2.1766  0.8822
 4449SOL    HW224807   3.947   1.264   8.253  1.5152 -0.7424  0.2885
 4450SOL     OW24808   3.744   1.012   6.697  0.2496 -0.6365 -0.1841
 4450SOL    HW124809   3.836   1.008   6.672 -0.0325 -1.2138 -1.1401
 4450SOL    HW224810   3.743   0.940   6.760 -3.5983 -1.1236 -0.7849
 4451SOL     OW24811   2.328   0.721   0.026 -0.0098 -0.8741 -0.0160
 4451SOL    HW124812   2.386   0.739   0.100 -0.6619  0.0937  0.2589
 4451SOL    HW224813   2.385   0.742  17.654  1.3727 -0.8831  1.0573
 4452SOL     OW24814   1.046   2.176  11.033  0.1842 -0.0371  0.1770
 4452SOL    HW124815   1.109   2.203  10.966 -1.6227  0.1762 -1.4407
 4452SOL    HW224816   0.959   2.173  10.992  0.1005 -0.5807  0.3896
 4453SOL     OW24817   1.451   2.951  10.181 -0.1351  0.4791 -0.0909
 4453SOL    HW124818   1.443   2.855  10.179  0.9036  0.4294 -2.5045
 4453SOL    HW224819   1.433   2.978  10.271  0.9651  0.2025  0.2165
 4454SOL     OW24820   4.366   1.845   4.757  0.2207  0.6772  0.5019
 4454SOL    HW124821   4.324   1.828   4.842 -1.1645  0.7583 -0.1683
 4454SOL    HW224822   4.316   1.787   4.699  2.9307  0.4359 -1.5788
 4455SOL     OW24823   2.731   2.079   8.395 -0.1668 -0.0793  0.0935
 4455SOL    HW124824   2.775   1.999   8.368  0.1961 -0.1455  0.8934
 4455SOL    HW224825   2.810   2.132   8.400  0.9798 -1.7701 -0.2061
 4456SOL     OW24826   0.840   3.902   3.813 -0.7101 -0.3331 -0.4585
 4456SOL    HW124827   0.840   3.933   3.904 -2.3851  3.4216 -1.7291
 4456SOL    HW224828   0.929   3.932   3.793 -0.0610 -2.4723 -0.7896
 4457SOL     OW24829   4.502   3.260  11.044  0.1610 -0.6152  0.2003
 4457SOL    HW124830   4.438   3.322  11.009 -0.0309 -0.0440  1.5631
 4457SOL    HW224831   4.482   3.291  11.132 -0.0493  1.6386 -0.6496
 4458SOL     OW24832   3.605   3.503   7.997  0.1340 -0.6742 -0.4803
 4458SOL    HW124833   3.564   3.486   7.912 -1.2433  0.3424 -0.0311
 4458SOL    HW224834   3.550   3.579   8.017 -1.8555 -2.2169 -0.0637
 4459SOL     OW24835   2.958   3.553   5.224  0.1143  0.2585 -0.1981
 4459SOL    HW124836   2.975   3.458   5.224  0.1099  0.2578 -0.2402
 4459SOL    HW224837   3.044   3.592   5.215 -0.1854  1.3255  1.5110
 4460SOL     OW24838   2.673   4.629   7.983  0.2818  0.0305 -0.3081
 4460SOL    HW124839   2.725   4.551   7.965  2.1300  0.6023  2.4379
 4460SOL    HW224840   2.611   4.625   7.911  1.0430  1.0980 -1.0203
 4461SOL     OW24841   4.720   0.430  17.589  0.3903  0.5378 -0.0616
 4461SOL    HW124842   4.691   0.491  17.657 -2.2919 -0.2320 -0.5205
 4461SOL    HW224843   0.055   0.484  17.538  1.0310  0.2957  0.4527
 4462SOL     OW24844   0.512   2.215   3.673 -0.5323  0.3564 -0.1313
 4462SOL    HW124845   0.524   2.159   3.597 -0.5911  0.4125 -0.1828
 4462SOL    HW224846   0.418   2.233   3.677 -0.3758  1.1264  0.2709
 4463SOL     OW24847   1.179   0.167   8.162 -0.1167  0.1459 -0.0752
 4463SOL    HW124848   1.143   0.232   8.102  0.7620  0.0003 -0.7711
 4463SOL    HW224849   1.218   0.115   8.092 -1.1103 -0.6970 -0.0023
 4464SOL     OW24850   2.071   4.298   4.843 -0.1937  0.3069  0.3332
 4464SOL    HW124851   2.162   4.286   4.816  0.1214 -2.5553  2.6646
 4464SOL    HW224852   2.033   4.362   4.783 -0.2580  1.6468  1.7859
 4465SOL     OW24853   2.286   0.351   7.669 -0.2047 -0.7219  0.3024
 4465SOL    HW124854   2.209   0.389   7.712  0.1648  0.6859 -0.2747
 4465SOL    HW224855   2.273   0.258   7.688  1.6701 -1.1604 -0.4834
 4466SOL     OW24856   2.607   3.773   5.874 -0.1836  0.5927  0.0365
 4466SOL    HW124857   2.572   3.843   5.928  0.5989 -1.3739  3.0847
 4466SOL    HW224858   2.668   3.739   5.939  2.0225 -0.4681 -2.6278
 4467SOL     OW24859   3.026   3.302   7.784  0.3163  0.2958 -0.0880
 4467SOL    HW124860   2.984   3.251   7.853 -0.7077 -1.5043 -2.0401
 4467SOL    HW224861   2.951   3.355   7.758 -0.6026 -0.2935  1.3330
 4468SOL     OW24862   1.043   3.893  10.090 -0.2935  0.0218 -0.1009
 4468SOL    HW124863   1.137   3.913  10.096  0.1454 -1.0532 -3.6333
 4468SOL    HW224864   1.034   3.890   9.995 -1.4219  1.2329 -0.0394
 4469SOL     OW24865   3.267   3.810   1.321 -0.5130  0.3538  0.0134
 4469SOL    HW124866   3.338   3.863   1.358 -0.2995  1.0676 -1.3862
 4469SOL    HW224867   3.311   3.794   1.237  1.8323 -0.9227  1.4869
 4470SOL     OW24868   2.871   1.544   5.416 -0.2588  0.4208  0.4619
 4470SOL    HW124869   2.788   1.559   5.370 -0.6159 -1.0072  0.6419
 4470SOL    HW224870   2.866   1.594   5.498 -0.3667 -0.3571  0.9404
 4471SOL     OW24871   1.093   1.169   3.955  0.0441  0.1227  0.0145
 4471SOL    HW124872   1.142   1.109   3.899  0.8793 -1.3298  2.2999
 4471SOL    HW224873   1.152   1.209   4.018  1.0372 -1.7645  0.2965
 4472SOL     OW24874   1.997   0.468  13.184 -0.0404 -0.4348 -0.6540
 4472SOL    HW124875   1.919   0.513  13.217 -1.1788 -1.9416 -1.2546
 4472SOL    HW224876   2.043   0.547  13.155 -2.0145  1.2478  0.7313
 4473SOL     OW24877   4.158   0.067  16.312  0.0383  0.2082 -0.1237
 4473SOL    HW124878   4.220   0.129  16.352  1.0048 -1.0739  0.3531
 4473SOL    HW224879   4.221   0.017  16.259  0.7705  1.2390 -0.2281
 4474SOL     OW24880   2.768   0.109   1.112 -0.2344  0.9364  0.0515
 4474SOL    HW124881   2.697   0.097   1.175  0.7681 -0.1028  0.9899
 4474SOL    HW224882   2.828   0.038   1.138 -0.5378  0.3166 -0.9459
 4475SOL     OW24883   3.223   2.532   2.031 -0.4693  0.1561  0.2789
 4475SOL    HW124884   3.204   2.454   2.083  1.4898 -1.4974 -1.4753
 4475SOL    HW224885   3.148   2.535   1.972 -0.5134 -0.4750  0.3073
 4476SOL     OW24886   2.904   4.118   9.142 -0.4857  0.5444  0.4280
 4476SOL    HW124887   2.815   4.136   9.114  0.8461  1.7150 -3.0969
 4476SOL    HW224888   2.928   4.043   9.088  1.0536  2.6310 -1.7700
 4477SOL     OW24889   4.393   0.860  13.679 -0.3468 -0.2823 -0.1021
 4477SOL    HW124890   4.469   0.873  13.735  0.0486  0.2796 -0.7713
 4477SOL    HW224891   4.328   0.911  13.727 -0.1231  0.0077 -0.1068
 4478SOL     OW24892   3.786   1.952  16.008  0.3298 -0.2446  0.0348
 4478SOL    HW124893   3.751   1.898  15.936  0.9237 -1.1285  0.4132
 4478SOL    HW224894   3.792   2.038  15.965 -4.1703  0.0457 -0.0718
 4479SOL     OW24895   4.186   4.340   3.150  0.3781 -0.1097 -0.2397
 4479SOL    HW124896   4.239   4.262   3.170 -1.1757 -0.4916  2.4468
 4479SOL    HW224897   4.119   4.303   3.094  0.6524 -0.4802 -0.3236
 4480SOL     OW24898   0.259   1.579   4.655  0.5872 -0.1873  0.1574
 4480SOL    HW124899   0.300   1.643   4.597  0.7979 -2.7231 -2.4944
 4480SOL    HW224900   0.335   1.542   4.701  0.0103 -1.9980 -0.3688
 4481SOL     OW24901   4.484   2.375   4.686 -0.0452 -0.6185  0.0813
 4481SOL    HW124902   4.548   2.311   4.658  0.0495 -0.5944  0.2426
 4481SOL    HW224903   4.416   2.316   4.717  1.5096 -1.8213  1.1912
 4482SOL     OW24904   1.136   3.814   4.692 -0.5656  0.0956 -0.0759
 4482SOL    HW124905   1.060   3.847   4.741 -0.5638  2.6829 -1.8093
 4482SOL    HW224906   1.174   3.749   4.751 -1.1214 -0.1028  0.0672
 4483SOL     OW24907   2.146   2.580   1.757 -0.5944  0.1903  0.7113
 4483SOL    HW124908   2.208   2.587   1.684 -3.4142  0.8034 -1.6396
 4483SOL    HW224909   2.200   2.553   1.831 -0.8639 -1.5422  0.2814
 4484SOL     OW24910   3.151   0.084  12.115 -0.2521 -0.8305 -0.0489
 4484SOL    HW124911   3.102   0.016  12.162 -1.1039 -1.0472 -1.2768
 4484SOL    HW224912   3.216   0.021  12.083 -0.2288  0.3007 -2.1899
 4485SOL     OW24913   0.898   2.309   5.228 -0.1494 -0.2783 -0.2075
 4485SOL    HW124914   0.916   2.329   5.136 -3.6832 -1.5092 -1.1542
 4485SOL    HW224915   0.932   2.388   5.269 -0.4746  0.9155 -2.2168
 4486SOL     OW24916   3.216   2.289   3.870  0.0769  0.2125  0.8316
 4486SOL    HW124917   3.143   2.336   3.910 -0.0172  0.5193  0.3003
 4486SOL    HW224918   3.194   2.285   3.777  0.4006 -1.8559  0.8410
 4487SOL     OW24919   2.658   1.147  10.003 -0.2515  0.6315  0.1003
 4487SOL    HW124920   2.697   1.121   9.920 -0.1721 -1.7211  0.8601
 4487SOL    HW224921   2.704   1.082  10.057 -0.6299  0.8914  0.7373
 4488SOL     OW24922   1.380   3.731   4.936 -0.0179 -0.9701 -0.0324
 4488SOL    HW124923   1.404   3.808   4.884  0.8207 -2.0406 -1.2294
 4488SOL    HW224924   1.284   3.730   4.938 -0.0030  0.4568  1.4301
 4489SOL     OW24925   3.075   3.623  16.614  0.2009 -0.0616 -0.5041
 4489SOL    HW124926   3.118   3.647  16.696 -1.2293  2.2205 -0.4375
 4489SOL    HW224927   3.016   3.559  16.655 -0.0571 -1.3457 -2.8394
 4490SOL     OW24928   4.541   0.494   4.276 -0.2771 -0.4669 -0.0706
 4490SOL    HW124929   4.497   0.569   4.315  1.5527 -0.3510  1.8041
 4490SOL    HW224930   4.504   0.415   4.317  1.3817 -0.7522  0.8956
 4491SOL     OW24931   0.886   4.028   7.896  0.5171 -0.3574 -0.2732
 4491SOL    HW124932   0.858   4.008   7.985 -2.6046 -1.1801 -1.4459
 4491SOL    HW224933   0.970   4.072   7.909  0.3953 -0.2817  0.2663
 4492SOL     OW24934   1.902   0.601   3.672  0.2652 -0.3085 -0.0367
 4492SOL    HW124935   1.880   0.550   3.594 -1.3775 -0.9399  0.8416
 4492SOL    HW224936   1.972   0.652   3.630  0.5033  1.7118  2.8107
 4493SOL     OW24937   3.909   3.721  10.221  0.5513 -0.1540  0.4054
 4493SOL    HW124938   3.964   3.645  10.203 -1.4432 -1.9921  2.0138
 4493SOL    HW224939   3.962   3.783  10.271 -0.4233 -0.0380  1.2985
 4494SOL     OW24940   0.928   1.436   2.029 -0.0124 -0.0094  0.1469
 4494SOL    HW124941   0.984   1.372   2.074  2.9034  0.2645 -3.0613
 4494SOL    HW224942   0.977   1.518   2.035 -0.1274 -0.1238  2.5212
 4495SOL     OW24943   3.401   2.679  10.267 -0.1782  0.0284  0.2907
 4495SOL    HW124944   3.361   2.595  10.290 -1.7516  0.9607  0.9600
 4495SOL    HW224945   3.346   2.702  10.193 -0.9564  1.4132  1.2941
 4496SOL     OW24946   2.574   2.308  11.313 -0.3083  0.2208  0.5029
 4496SOL    HW124947   2.521   2.299  11.234 -3.4252  0.1405  2.5783
 4496SOL    HW224948   2.559   2.399  11.340 -0.0309  0.5957 -0.6349
 4497SOL     OW24949   1.076   1.405   7.785  0.0086 -0.4814  0.0603
 4497SOL    HW124950   1.114   1.323   7.817 -0.7350 -0.8569 -0.0020
 4497SOL    HW224951   0.990   1.404   7.827  0.2665  0.9976  0.6221
 4498SOL     OW24952   3.305   4.631   8.470  0.4649 -0.2804 -0.2086
 4498SOL    HW124953   3.385   4.583   8.493  1.7253  1.8450 -0.1720
 4498SOL    HW224954   3.245   4.608   8.541 -1.2735  1.2063 -1.2046
 4499SOL     OW24955   2.025   0.270   3.386  0.3172 -0.6157 -1.0501
 4499SOL    HW124956   1.960   0.240   3.323 -0.0772 -0.0633 -0.9100
 4499SOL    HW224957   1.983   0.281   3.471  0.0353 -1.6412 -1.0561
 4500SOL     OW24958   0.424   0.415   8.881 -0.1851 -0.3651  0.1035
 4500SOL    HW124959   0.466   0.333   8.853 -0.8704 -0.1769 -1.5111
 4500SOL    HW224960   0.330   0.401   8.867 -0.2110 -2.0531  1.9140
 4501SOL     OW24961   4.629   2.950   7.682 -0.1416 -0.1320  0.2067
 4501SOL    HW124962   4.636   2.966   7.776 -1.5454 -0.7958  0.4281
 4501SOL    HW224963   4.536   2.927   7.673 -0.0475 -0.2516 -0.5007
 4502SOL     OW24964   4.720   2.201  12.640 -0.1009 -0.0260  0.3072
 4502SOL    HW124965   4.631   2.213  12.607  0.6336 -0.4084 -1.8301
 4502SOL    HW224966   0.043   2.235  12.564 -0.5198  1.0429  0.5319
 4503SOL     OW24967   2.935   1.331   6.563 -0.6096  0.1230 -0.0468
 4503SOL    HW124968   2.881   1.370   6.494 -0.3435 -1.4382 -1.1332
 4503SOL    HW224969   2.935   1.401   6.629 -1.0402  0.6243 -0.5883
 4504SOL     OW24970   3.858   3.689   8.620  0.6275 -0.3841 -0.3460
 4504SOL    HW124971   3.952   3.684   8.637  0.5733  1.7055  0.4844
 4504SOL    HW224972   3.839   3.777   8.651  0.8063  0.2062 -1.8832
 4505SOL     OW24973   1.747   2.277  11.250 -0.1293 -0.1750 -0.4020
 4505SOL    HW124974   1.766   2.204  11.309  3.4024  1.3044  0.2236
 4505SOL    HW224975   1.828   2.277  11.199  0.1208  0.5676  0.0062
 4506SOL     OW24976   0.646   2.976  17.520  0.0192  0.3261 -0.5312
 4506SOL    HW124977   0.709   3.047  17.530 -0.6605  0.9816 -0.8337
 4506SOL    HW224978   0.580   3.009  17.581  1.5990 -0.6572  1.6909
 4507SOL     OW24979   4.068   3.383   2.014  0.0987 -0.3250  0.7122
 4507SOL    HW124980   4.038   3.337   1.936 -0.0106 -1.3870  1.3666
 4507SOL    HW224981   4.108   3.321   2.075 -3.6487 -0.2128  3.3143
 4508SOL     OW24982   4.376   3.569  17.082 -0.0282  0.1832 -0.8819
 4508SOL    HW124983   4.368   3.647  17.137 -1.5757 -1.5254  1.2986
 4508SOL    HW224984   4.438   3.515  17.131 -0.4255 -1.1587 -1.8585
 4509SOL     OW24985   3.444   2.599  13.762  0.2005 -0.0238 -0.2786
 4509SOL    HW124986   3.388   2.603  13.684 -0.0529 -1.9102 -0.2165
 4509SOL    HW224987   3.393   2.538  13.817  2.9866 -2.4964 -0.4459
 4510SOL     OW24988   2.854   1.865   5.244  0.0372 -0.4028  0.3312
 4510SOL    HW124989   2.802   1.870   5.324 -1.4210  1.1552 -0.7110
 4510SOL    HW224990   2.792   1.905   5.183  1.3890 -0.6653 -1.1933
 4511SOL     OW24991   4.580   3.582   1.835  0.0839 -0.1402  0.1012
 4511SOL    HW124992   4.650   3.592   1.771  0.9325 -0.6461  0.9392
 4511SOL    HW224993   4.501   3.611   1.790  0.6189 -1.6244 -1.7782
 4512SOL     OW24994   2.475   4.656   7.484  0.5901  0.1954  0.4108
 4512SOL    HW124995   2.455   4.632   7.394 -0.3398  1.9740  0.1442
 4512SOL    HW224996   2.469   0.026   7.493  0.3914  0.3647 -1.5704
 4513SOL     OW24997   4.320   4.340   5.915  0.0576  0.7828 -0.0297
 4513SOL    HW124998   4.375   4.414   5.887  0.0346  0.4839 -0.8625
 4513SOL    HW224999   4.244   4.396   5.932 -0.0266  0.0596  1.9162
 4514SOL     OW25000   4.211   2.867   8.699  0.0889 -0.0210  0.0389
 4514SOL    HW125001   4.117   2.852   8.710 -0.2507 -0.3909 -3.1787
 4514SOL    HW225002   4.239   2.910   8.779 -1.9638 -0.4952  1.0048
 4515SOL     OW25003   4.662   0.350  13.920 -0.6424  0.4187 -0.0343
 4515SOL    HW125004   4.709   0.370  14.001 -4.9146 -0.0554  2.5754
 4515SOL    HW225005   4.674   0.258  13.940  2.6549  1.0698  0.9375
 4516SOL     OW25006   3.866   2.495   1.410 -0.2583  0.1907 -0.3768
 4516SOL    HW125007   3.809   2.558   1.455 -0.5748  0.7954 -1.6221
 4516SOL    HW225008   3.895   2.549   1.336  0.1826  0.0104 -0.3363
 4517SOL     OW25009   0.826   3.940   4.486  0.3338 -0.2075 -0.0211
 4517SOL    HW125010   0.908   3.989   4.478  0.0944  0.0414 -0.8813
 4517SOL    HW225011   0.783   3.996   4.421 -0.2763 -1.2332 -0.4907
 4518SOL     OW25012   2.864   2.206   5.383  0.0681 -0.1497  0.5741
 4518SOL    HW125013   2.914   2.244   5.456  0.7485 -0.6386  0.3648
 4518SOL    HW225014   2.808   2.147   5.433 -0.0073 -1.3234 -0.8984
 4519SOL     OW25015   2.598   4.622   4.056  0.3702 -0.7775  0.3383
 4519SOL    HW125016   2.605   4.622   4.152  2.6201 -0.9391  0.1703
 4519SOL    HW225017   2.526   4.561   4.040  0.8343 -1.0466 -0.7124
 4520SOL     OW25018   2.963   2.152  15.250 -0.0589  0.2685  0.4181
 4520SOL    HW125019   2.999   2.151  15.339  0.6073  0.2888  0.1456
 4520SOL    HW225020   2.871   2.134  15.267 -0.0809 -1.0828 -1.1234
 4521SOL     OW25021   3.683   1.414   3.961  0.4917 -0.4366 -0.0841
 4521SOL    HW125022   3.765   1.366   3.953 -0.0237 -1.4414  0.7377
 4521SOL    HW225023   3.699   1.463   4.041 -0.2665  1.4771 -1.0799
 4522SOL     OW25024   1.206   1.027  16.811  0.2767  0.2221 -0.0871
 4522SOL    HW125025   1.229   0.998  16.723 -0.7495 -0.4458 -0.1357
 4522SOL    HW225026   1.195   0.943  16.856  0.6855  1.2391  1.9576
 4523SOL     OW25027   3.014   3.685   6.251  0.0249 -0.3228  0.2217
 4523SOL    HW125028   3.060   3.752   6.302 -0.0588 -0.3348  0.3122
 4523SOL    HW225029   2.967   3.637   6.319 -0.2822 -2.2345 -1.3127
 4524SOL     OW25030   2.329   0.685   4.342  0.4066 -0.0002 -0.2723
 4524SOL    HW125031   2.293   0.725   4.421 -2.7848  0.0282 -1.7105
 4524SOL    HW225032   2.421   0.675   4.365 -0.1433 -1.5494  1.2484
 4525SOL     OW25033   0.274   1.791   8.250  0.4998 -0.0148 -0.1700
 4525SOL    HW125034   0.192   1.762   8.288  1.3347 -3.7855 -1.2474
 4525SOL    HW225035   0.276   1.750   8.164  0.6395  1.9175 -1.0872
 4526SOL     OW25036   0.454   1.144   8.907  0.3697 -0.4971  0.4148
 4526SOL    HW125037   0.524   1.137   8.973  0.4418 -0.5324  0.3342
 4526SOL    HW225038   0.503   1.182   8.834 -1.7790  0.1692 -0.6573
 4527SOL     OW25039   4.058   3.869   3.511 -0.2321 -0.1809 -0.1412
 4527SOL    HW125040   4.020   3.898   3.594 -0.7502  0.1434 -0.4933
 4527SOL    HW225041   4.145   3.907   3.509 -0.1942 -0.1183  2.3179
 4528SOL     OW25042   3.115   0.022  11.686  0.1701  0.2818  0.3181
 4528SOL    HW125043   3.152   4.660  11.670 -0.2693 -0.1551  1.6909
 4528SOL    HW225044   3.024   0.000  11.665  0.1872  0.0195  0.5178
 4529SOL     OW25045   3.469   2.394   6.304  0.5851  0.0585  0.6900
 4529SOL    HW125046   3.421   2.476   6.292  1.3240  0.4412  0.3272
 4529SOL    HW225047   3.481   2.388   6.399  1.1668  0.6301  0.6545
 4530SOL     OW25048   3.448   3.058  15.008 -0.4523 -0.0685 -0.0828
 4530SOL    HW125049   3.516   3.089  14.949  0.6334 -1.9250  0.2038
 4530SOL    HW225050   3.473   2.966  15.015 -0.5796 -0.1037 -0.0816
 4531SOL     OW25051   1.650   1.195   3.821 -0.5782 -0.4943  0.0447
 4531SOL    HW125052   1.589   1.201   3.747 -0.8766 -1.4142  0.2134
 4531SOL    HW225053   1.688   1.283   3.813 -2.4075  0.4796  1.9663
 4532SOL     OW25054   3.744   4.211  15.523  0.0036 -0.0673 -0.4535
 4532SOL    HW125055   3.754   4.254  15.438 -0.0258 -2.2503 -1.5643
 4532SOL    HW225056   3.701   4.280  15.574  1.3190 -0.7438  1.5904
 4533SOL     OW25057   4.647   1.146   6.468 -0.3555 -0.0723 -0.7793
 4533SOL    HW125058   4.636   1.205   6.393 -0.1245  1.0899  0.0936
 4533SOL    HW225059   4.577   1.087   6.441 -0.9896  0.3775 -0.1305
 4534SOL     OW25060   0.040   4.587   0.600 -0.0527 -0.1328  0.2328
 4534SOL    HW125061   4.714   4.661   0.632 -1.1987 -1.4699  1.4922
 4534SOL    HW225062   0.037   4.612   0.508  0.5170 -1.6285 -0.1904
 4535SOL     OW25063   3.681   3.443   1.206  0.6399 -0.8574  1.0747
 4535SOL    HW125064   3.676   3.510   1.138 -1.5405 -1.0025  1.0815
 4535SOL    HW225065   3.668   3.503   1.279  0.6965 -1.0228  1.2227
 4536SOL     OW25066   3.852   1.327   5.047  0.4609 -0.2293  0.1403
 4536SOL    HW125067   3.837   1.294   5.135  0.2594  1.9166  0.8910
 4536SOL    HW225068   3.825   1.248   5.000  1.3094 -0.1059 -0.5707
 4537SOL     OW25069   4.027   4.608   4.868  0.5326  0.3703 -0.2899
 4537SOL    HW125070   4.017   4.620   4.962 -2.6622 -2.1136 -0.3081
 4537SOL    HW225071   3.998   4.518   4.854  1.1825  0.0145  0.6547
 4538SOL     OW25072   0.704   2.007   4.805 -0.0415  0.3149  0.0865
 4538SOL    HW125073   0.727   1.923   4.766 -1.1526 -0.0293  0.1790
 4538SOL    HW225074   0.627   1.987   4.859 -1.7082  1.6247 -1.8228
 4539SOL     OW25075   0.646   0.012  10.691 -0.2599  0.5275 -0.0165
 4539SOL    HW125076   0.664   4.643  10.685 -1.2249  0.2722  1.1069
 4539SOL    HW225077   0.553   0.020  10.714  0.0250  2.4489  0.4413
 4540SOL     OW25078   3.094   2.805  14.476  0.1312  0.8316 -0.3413
 4540SOL    HW125079   3.088   2.758  14.393  0.8562  1.0759 -0.5317
 4540SOL    HW225080   2.999   2.809  14.487  0.2042 -0.7852  0.9124
 4541SOL     OW25081   4.687   4.297  13.113  0.1982 -0.3019  0.5352
 4541SOL    HW125082   0.043   4.345  13.100 -0.2404  0.6578  1.2729
 4541SOL    HW225083   4.636   4.364  13.159 -1.6994 -1.7504  0.5539
 4542SOL     OW25084   1.466   1.760  12.000  0.0667 -0.0804  0.6038
 4542SOL    HW125085   1.382   1.714  12.002 -0.7300  1.3809  0.7204
 4542SOL    HW225086   1.510   1.706  11.934 -0.1390  1.0495 -0.4446
 4543SOL     OW25087   3.668   0.358  15.864  0.5319 -0.9071 -0.0368
 4543SOL    HW125088   3.762   0.354  15.881  0.4059 -0.8707  0.6633
 4543SOL    HW225089   3.665   0.441  15.818  0.6792 -1.5287 -1.1668
 4544SOL     OW25090   3.730   1.930   7.842 -0.4049 -0.2886  0.2887
 4544SOL    HW125091   3.818   1.927   7.879 -0.0707 -2.7137 -0.7286
 4544SOL    HW225092   3.739   1.860   7.778 -2.2616  0.2934 -0.6109
 4545SOL     OW25093   3.308   0.919   1.067  0.3236  0.0176  0.6220
 4545SOL    HW125094   3.307   0.833   1.026  1.9453 -0.0736  0.7740
 4545SOL    HW225095   3.397   0.928   1.102  1.3816 -4.7294 -0.9244
 4546SOL     OW25096   3.560   2.896  10.049 -0.5388  0.0752  0.0659
 4546SOL    HW125097   3.567   2.802  10.065 -1.3921  0.0982  0.5810
 4546SOL    HW225098   3.475   2.905  10.005  0.5071 -1.3239 -2.2032
 4547SOL     OW25099   0.159   3.775   0.078 -0.1923 -0.0241  0.0285
 4547SOL    HW125100   0.200   3.770   0.164 -0.5666  1.0980  0.2613
 4547SOL    HW225101   0.238   3.756   0.026  0.4788 -0.8031  1.3158
 4548SOL     OW25102   3.190   3.392  10.572  0.0752  0.1172 -0.4851
 4548SOL    HW125103   3.272   3.365  10.612 -0.8512 -1.7639  0.1341
 4548SOL    HW225104   3.135   3.394  10.650  0.2156 -1.9046 -0.3440
 4549SOL     OW25105   1.916   1.262   4.651  0.5327 -0.2508 -0.0172
 4549SOL    HW125106   1.980   1.207   4.696  0.3750 -0.9178 -0.6023
 4549SOL    HW225107   1.865   1.202   4.596  1.6011 -2.4091  1.3429
 4550SOL     OW25108   0.101   3.731   2.162  0.6781 -0.4183 -0.4147
 4550SOL    HW125109   0.027   3.774   2.206  1.5842  1.3323 -0.6144
 4550SOL    HW225110   0.102   3.792   2.089  0.4411  1.8493  1.4875
 4551SOL     OW25111   2.541   3.637   4.368  0.0272  0.5534  0.4972
 4551SOL    HW125112   2.474   3.631   4.299 -0.5624  0.9760  1.0309
 4551SOL    HW225113   2.557   3.544   4.384  1.0076  0.6663  0.1467
 4552SOL     OW25114   2.454   3.566   2.571 -0.2391  0.0886  0.3733
 4552SOL    HW125115   2.390   3.541   2.638 -0.0793  0.7840  0.7901
 4552SOL    HW225116   2.423   3.509   2.501 -1.6669 -1.0707  1.9371
 4553SOL     OW25117   2.337   1.522   7.999  0.2583 -0.4402 -0.3811
 4553SOL    HW125118   2.315   1.474   7.920  0.6982 -1.0429 -0.1427
 4553SOL    HW225119   2.340   1.443   8.053 -1.8609 -1.5320 -1.8905
 4554SOL     OW25120   0.208   4.103   5.962  0.2311  0.5289  0.4622
 4554SOL    HW125121   0.296   4.111   5.925  0.8329  0.4146  1.8656
 4554SOL    HW225122   0.150   4.080   5.889  1.1430  0.0996 -0.1321
 4555SOL     OW25123   1.350   2.743   8.922  0.4753 -0.6725 -0.3129
 4555SOL    HW125124   1.360   2.807   8.992  1.1901 -1.6971  0.5226
 4555SOL    HW225125   1.277   2.691   8.954  1.1654 -0.1903  2.0166
 4556SOL     OW25126   3.583   1.178  12.417  0.3513  0.0859 -0.8107
 4556SOL    HW125127   3.573   1.273  12.412  0.0242  0.2169  2.3563
 4556SOL    HW225128   3.678   1.165  12.419  0.4526  0.7684 -1.2279
 4557SOL     OW25129   0.914   2.416   7.834  0.2231 -0.0766 -0.1333
 4557SOL    HW125130   0.994   2.466   7.818  0.4912 -0.5116 -0.1784
 4557SOL    HW225131   0.945   2.338   7.788  0.5626  0.2908 -0.5263
 4558SOL     OW25132   2.641   0.406  10.658 -0.0979 -0.0263  0.4174
 4558SOL    HW125133   2.566   0.460  10.632 -0.2058 -0.1908  0.3837
 4558SOL    HW225134   2.618   0.391  10.750 -3.8757  1.4404 -0.2801
 4559SOL     OW25135   2.552   1.488   5.402  0.0973  0.3236 -0.8155
 4559SOL    HW125136   2.460   1.460   5.398  0.3725 -1.0268  2.3497
 4559SOL    HW225137   2.553   1.503   5.496 -1.1665 -0.4671 -0.6692
 4560SOL     OW25138   3.748   1.078   4.331 -0.0758 -0.5362  0.0977
 4560SOL    HW125139   3.729   1.096   4.423 -2.6558 -1.9799 -0.1677
 4560SOL    HW225140   3.665   1.093   4.287  0.3010  1.2704  0.0166
 4561SOL     OW25141   0.087   0.737   1.026  0.3574 -0.1702 -0.4211
 4561SOL    HW125142   0.099   0.698   0.939 -0.0794  3.1337 -1.9789
 4561SOL    HW225143   0.125   0.822   1.004 -0.5458  0.1130 -0.9211
 4562SOL     OW25144   2.793   4.364   6.240  0.0259  0.0899 -0.3825
 4562SOL    HW125145   2.742   4.300   6.190 -0.5126  0.9199 -0.8960
 4562SOL    HW225146   2.852   4.402   6.175  0.1174  0.2440 -0.2080
 4563SOL     OW25147   4.307   2.445   1.774  0.1212  0.5213  0.1529
 4563SOL    HW125148   4.220   2.439   1.735 -0.6057 -1.4888  2.0504
 4563SOL    HW225149   4.280   2.485   1.857  0.3221 -1.2019  1.0602
 4564SOL     OW25150   0.961   2.923   6.323  0.5292 -0.5475  0.2435
 4564SOL    HW125151   0.877   2.964   6.303  0.5472 -1.6940 -2.1981
 4564SOL    HW225152   0.936   2.857   6.387  0.2528 -0.5381  0.1435
 4565SOL     OW25153   4.104   0.293   4.877  0.1223 -0.1467 -0.7757
 4565SOL    HW125154   4.032   0.261   4.931  0.2855  0.6763 -0.0708
 4565SOL    HW225155   4.111   0.220   4.816 -0.0189 -0.1508 -0.7848
 4566SOL     OW25156   2.713   2.075   5.599  0.3113  0.2309  0.1494
 4566SOL    HW125157   2.677   2.023   5.672 -0.9425  1.2577  0.2662
 4566SOL    HW225158   2.808   2.068   5.608  0.3614  0.4691 -0.2303
 4567SOL     OW25159   2.714   0.359   8.456 -0.4114 -0.1261  0.3771
 4567SOL    HW125160   2.632   0.318   8.426 -1.3009  0.4070  2.0701
 4567SOL    HW225161   2.705   0.328   8.546 -1.8847  1.7912  0.8906
 4568SOL     OW25162   1.365   1.021   1.323  0.0043  0.0218  0.6720
 4568SOL    HW125163   1.397   0.975   1.246  1.5229  0.1866  1.1981
 4568SOL    HW225164   1.283   1.039   1.278  0.5636  3.9027  1.2435
 4569SOL     OW25165   2.688   2.800  16.534  0.1037 -0.4057 -0.3877
 4569SOL    HW125166   2.635   2.880  16.530  0.6558 -0.0263 -0.0085
 4569SOL    HW225167   2.612   2.745  16.553 -0.9661  0.1348 -3.0096
 4570SOL     OW25168   3.168   3.618  13.714 -0.3073  0.2514 -0.1189
 4570SOL    HW125169   3.261   3.595  13.707 -0.0347  0.9402  1.4074
 4570SOL    HW225170   3.124   3.538  13.686 -1.7388  0.1275  2.5094
 4571SOL     OW25171   0.861   0.401  15.597 -0.9029  0.6754 -0.7205
 4571SOL    HW125172   0.910   0.402  15.679 -0.0860 -0.3701 -1.1965
 4571SOL    HW225173   0.933   0.382  15.537 -1.4494 -0.8180 -0.9206
 4572SOL     OW25174   2.247   1.438   8.610 -0.5540  0.5680  0.1178
 4572SOL    HW125175   2.297   1.377   8.665 -3.3652  0.1205  2.1627
 4572SOL    HW225176   2.292   1.521   8.630 -2.3864  1.1637  1.7246
 4573SOL     OW25177   1.779   2.620   9.615 -0.4381 -0.2434  0.6702
 4573SOL    HW125178   1.801   2.552   9.551 -1.3662  0.2566 -0.1954
 4573SOL    HW225179   1.811   2.705   9.584  2.7830 -1.7338 -0.1179
 4574SOL     OW25180   3.381   0.313  14.263  0.1286  0.0604 -0.6761
 4574SOL    HW125181   3.326   0.267  14.199 -0.7870  2.1854 -1.4296
 4574SOL    HW225182   3.462   0.271  14.235  0.0525 -0.5354 -0.0099
 4575SOL     OW25183   3.178   0.531   5.569 -0.1901 -0.4827 -0.3105
 4575SOL    HW125184   3.256   0.489   5.533  0.5288 -1.1840  2.0914
 4575SOL    HW225185   3.132   0.450   5.592 -3.0628  1.2728  0.1991
 4576SOL     OW25186   3.188   1.935  10.947 -0.0620  0.1281  0.8349
 4576SOL    HW125187   3.118   1.997  10.965 -1.5428 -1.1587 -0.5515
 4576SOL    HW225188   3.209   1.944  10.854 -0.2181  1.0776  0.8878
 4577SOL     OW25189   0.748   3.660   7.474 -0.1763  0.2874 -0.0547
 4577SOL    HW125190   0.751   3.756   7.473 -2.2363  0.3138 -2.2269
 4577SOL    HW225191   0.840   3.641   7.493  0.1404  1.8999 -0.0029
 4578SOL     OW25192   3.971   4.124   1.733 -0.5454 -0.0749  0.7457
 4578SOL    HW125193   3.916   4.099   1.659  0.0206 -2.3252  1.0760
 4578SOL    HW225194   3.984   4.216   1.714  0.3409 -0.2145  0.6610
 4579SOL     OW25195   4.109   2.075  13.705 -0.5818 -0.8591 -0.3550
 4579SOL    HW125196   4.046   2.008  13.732 -1.3524 -0.8696 -2.2294
 4579SOL    HW225197   4.043   2.140  13.685 -0.2032  0.1893  1.7467
 4580SOL     OW25198   2.729   3.731   0.163 -0.1039  0.3490 -0.2196
 4580SOL    HW125199   2.765   3.802   0.217 -0.3348  0.3817 -0.1062
 4580SOL    HW225200   2.652   3.710   0.216 -0.9849  2.5650 -0.6463
 4581SOL     OW25201   3.502   0.443  11.084  0.3693 -0.2317  0.0267
 4581SOL    HW125202   3.557   0.373  11.050 -2.2060 -2.1439 -0.2049
 4581SOL    HW225203   3.418   0.400  11.102  0.4740 -1.3940 -2.2296
 4582SOL     OW25204   1.519   2.386   9.001 -0.1652  0.3409 -0.1050
 4582SOL    HW125205   1.425   2.384   8.981  0.0957  0.9377 -1.3823
 4582SOL    HW225206   1.544   2.464   8.951  0.1102  0.9542  0.9836
 4583SOL     OW25207   2.992   4.543   3.433  0.3082  0.2998 -0.2241
 4583SOL    HW125208   2.994   4.592   3.515 -0.1490  0.8108 -0.5183
 4583SOL    HW225209   2.913   4.578   3.393  0.9165  0.6916 -1.0805
 4584SOL     OW25210   0.403   3.058   1.062 -0.8981  0.1078 -0.1620
 4584SOL    HW125211   0.329   3.008   1.027 -0.0255  0.1492 -2.0970
 4584SOL    HW225212   0.371   3.148   1.069 -0.5958  0.1958  0.1229
 4585SOL     OW25213   2.044   3.082   4.334 -0.2207 -0.3173  0.3958
 4585SOL    HW125214   2.004   3.036   4.260 -1.4554  0.3381  0.6595
 4585SOL    HW225215   1.965   3.126   4.364  1.3866  2.0008  1.1748
 4586SOL     OW25216   0.459   2.491  10.036  0.0196 -0.4201 -0.1211
 4586SOL    HW125217   0.486   2.445   9.956  0.3837 -1.9336  0.8867
 4586SOL    HW225218   0.465   2.418  10.097 -1.3077 -0.8958 -0.5515
 4587SOL     OW25219   3.589   3.632   6.032  0.2991 -0.6068  0.8244
 4587SOL    HW125220   3.521   3.683   5.989 -1.1516 -2.0697  1.3893
 4587SOL    HW225221   3.607   3.573   5.959  1.8151  1.6927 -0.6696
 4588SOL     OW25222   3.461   2.693  17.496  0.1285 -0.2110  0.3019
 4588SOL    HW125223   3.371   2.725  17.487  1.0205  1.9740 -0.7587
 4588SOL    HW225224   3.473   2.642  17.416  0.7710 -0.7677  0.7572
 4589SOL     OW25225   0.427   1.848  14.919  0.2335  0.1423  0.0988
 4589SOL    HW125226   0.499   1.899  14.881  0.4965 -0.1664  0.1818
 4589SOL    HW225227   0.391   1.788  14.854  0.2892  1.1629 -0.8777
 4590SOL     OW25228   1.089   4.034   8.845  0.1748  0.5880  0.5238
 4590SOL    HW125229   1.122   4.101   8.786 -0.6526  0.6827  0.1632
 4590SOL    HW225230   1.058   4.085   8.920 -0.0952 -0.3449  1.0490
 4591SOL     OW25231   3.207   2.351   0.187  0.0281 -0.0988 -0.4534
 4591SOL    HW125232   3.287   2.402   0.179 -0.7352  1.1390 -0.0567
 4591SOL    HW225233   3.233   2.280   0.246 -1.3501 -1.5511 -1.5615
 4592SOL     OW25234   3.041   0.927  10.857  0.3749  0.4491  0.1147
 4592SOL    HW125235   3.001   0.960  10.938 -2.1882 -0.7452 -0.6999
 4592SOL    HW225236   3.001   0.987  10.794 -1.3612  0.7444  1.4945
 4593SOL     OW25237   4.614   3.139   8.505 -0.3515  0.0974 -0.2071
 4593SOL    HW125238   4.555   3.137   8.580  0.4055 -1.0492  0.3777
 4593SOL    HW225239   4.597   3.228   8.476  0.9231  0.6717  0.8425
 4594SOL     OW25240   3.095   0.929   6.625 -0.9135  0.5939  0.0781
 4594SOL    HW125241   3.083   1.003   6.564 -0.8823  0.1017 -0.5265
 4594SOL    HW225242   3.184   0.898   6.611 -1.1436  0.9927 -2.4075
 4595SOL     OW25243   2.880   0.155   7.949  0.3095 -0.1528 -0.5714
 4595SOL    HW125244   2.831   0.073   7.958 -0.3434  0.0731 -2.1105
 4595SOL    HW225245   2.814   0.220   7.926 -0.1943 -0.6801 -0.6106
 4596SOL     OW25246   3.915   1.647   0.436  0.1378  0.2265  0.5199
 4596SOL    HW125247   3.891   1.554   0.446  0.6488 -0.2003 -2.3062
 4596SOL    HW225248   3.840   1.695   0.472 -0.8490 -0.7021 -0.2559
 4597SOL     OW25249   0.223   4.396   0.587 -0.2867 -0.6799 -0.1286
 4597SOL    HW125250   0.159   4.467   0.599  2.1076  1.7102 -1.5418
 4597SOL    HW225251   0.255   4.385   0.676 -0.0076 -1.2672 -0.3013
 4598SOL     OW25252   3.829   1.078   8.921  0.0866 -0.1058 -0.1564
 4598SOL    HW125253   3.754   1.047   8.972 -1.0473 -1.2301 -2.5370
 4598SOL    HW225254   3.909   1.035   8.952  0.5359 -0.1050 -1.2980
 4599SOL     OW25255   3.764   3.756   7.633 -0.0937  0.3101  0.1092
 4599SOL    HW125256   3.719   3.831   7.670  2.3193  1.1180  1.4066
 4599SOL    HW225257   3.756   3.700   7.710  1.4465 -0.0576  0.0029
 4600SOL     OW25258   2.871   1.276  16.556 -0.2887 -0.3337  0.0484
 4600SOL    HW125259   2.883   1.187  16.590  1.5693 -0.9595 -2.1594
 4600SOL    HW225260   2.820   1.318  16.625  0.7156  1.3219 -0.2127
 4601SOL     OW25261   4.676   3.054  11.001  0.2757  0.1168 -0.2284
 4601SOL    HW125262   0.025   3.114  11.008 -0.1946  0.4875  1.4336
 4601SOL    HW225263   4.600   3.110  11.021  0.0808 -0.4958  0.6925
 4602SOL     OW25264   4.050   4.161  10.160  0.1313  1.0470 -0.0036
 4602SOL    HW125265   3.965   4.183  10.122 -0.1345  1.8963  1.1027
 4602SOL    HW225266   4.078   4.243  10.201 -0.3388  1.2606 -0.1189
 4603SOL     OW25267   4.426   0.481  13.971 -0.1558 -0.1972  0.1228
 4603SOL    HW125268   4.444   0.570  13.942  1.8751 -0.0376  1.8826
 4603SOL    HW225269   4.506   0.434  13.947  0.3664  0.7263  0.0815
 4604SOL     OW25270   1.012   2.708   2.434 -0.4288  0.4955 -0.4201
 4604SOL    HW125271   0.944   2.733   2.371 -0.0245 -0.1286 -1.0997
 4604SOL    HW225272   1.089   2.704   2.377 -0.2507  1.2397 -0.2361
 4605SOL     OW25273   0.739   1.506  15.993  0.2546 -0.4519 -0.1947
 4605SOL    HW125274   0.794   1.505  16.072  3.1103  1.6722 -2.1742
 4605SOL    HW225275   0.662   1.560  16.011  0.6900 -0.6179  2.2705
 4606SOL     OW25276   0.626   0.321  13.760 -0.2811  0.7379  0.1157
 4606SOL    HW125277   0.582   0.330  13.844 -1.1115 -0.0264 -0.2351
 4606SOL    HW225278   0.684   0.246  13.780 -2.5136 -1.4415 -1.5346
 4607SOL     OW25279   3.366   2.943   2.003  0.1695 -0.2876  0.4252
 4607SOL    HW125280   3.340   3.011   1.940  1.2711 -1.2082 -1.0188
 4607SOL    HW225281   3.342   2.860   1.963 -0.8481  0.3745 -0.3147
 4608SOL     OW25282   1.567   0.790  13.716  0.0463 -0.1432 -0.2132
 4608SOL    HW125283   1.572   0.884  13.730 -2.0822  0.0278 -0.5940
 4608SOL    HW225284   1.632   0.764  13.781 -1.8669 -1.0003  1.3501
 4609SOL     OW25285   2.933   3.871   8.994 -0.4207  0.0668 -0.2923
 4609SOL    HW125286   2.886   3.806   8.941 -2.4617 -0.2367  1.8744
 4609SOL    HW225287   3.010   3.824   9.026  0.2262  0.5241 -1.1765
 4610SOL     OW25288   1.858   1.606  16.836 -0.1414 -0.5547  0.7579
 4610SOL    HW125289   1.766   1.630  16.851 -0.1510 -1.2658  1.7768
 4610SOL    HW225290   1.862   1.525  16.886 -4.6311 -1.3556 -0.1269
 4611SOL     OW25291   4.661   0.557  12.751 -0.5183 -0.1077  0.1938
 4611SOL    HW125292   4.576   0.556  12.706  0.8808  4.4847 -2.5214
 4611SOL    HW225293   4.659   0.642  12.794 -2.0577  0.1323 -0.3280
 4612SOL     OW25294   4.341   1.204  17.519 -0.0288 -0.2401  0.2762
 4612SOL    HW125295   4.436   1.202  17.520  0.0449  3.1957 -0.5140
 4612SOL    HW225296   4.323   1.248  17.603  1.2388  0.3267  0.2505
 4613SOL     OW25297   2.303   1.273   3.476  0.5514  0.1438 -0.0107
 4613SOL    HW125298   2.370   1.207   3.457  0.1111 -0.6477  1.1445
 4613SOL    HW225299   2.347   1.340   3.529 -0.5698  0.7259  0.1761
 4614SOL     OW25300   1.487   0.331   5.140  0.3925 -0.0554 -0.7582
 4614SOL    HW125301   1.511   0.404   5.197  2.7868 -3.0478  2.0788
 4614SOL    HW225302   1.460   0.265   5.204 -1.9302  1.5730 -0.0532
 4615SOL     OW25303   0.872   2.424   8.247  0.1074  0.1282  0.0107
 4615SOL    HW125304   0.867   2.501   8.190  3.4410  0.1418 -0.2569
 4615SOL    HW225305   0.793   2.440   8.299  0.4294 -0.9030  0.8279
 4616SOL     OW25306   4.454   0.837   7.695 -0.1425  0.2078  0.1377
 4616SOL    HW125307   4.399   0.770   7.736  2.4834 -1.2521  1.2569
 4616SOL    HW225308   4.442   0.909   7.756 -1.9374  0.7656 -0.8527
 4617SOL     OW25309   1.356   1.572   3.332 -0.3499 -0.1072 -0.3626
 4617SOL    HW125310   1.387   1.491   3.373 -0.3769  0.2308  0.3337
 4617SOL    HW225311   1.419   1.596   3.264 -1.4047 -0.5981 -1.4934
 4618SOL     OW25312   3.434   4.021  14.983 -0.1404  0.3904 -0.5183
 4618SOL    HW125313   3.505   4.048  15.041  1.2599 -1.7612 -1.2327
 4618SOL    HW225314   3.363   4.033  15.046 -0.0199  0.7671 -0.4552
 4619SOL     OW25315   2.132   3.482   8.476  0.2481 -0.5252  0.0397
 4619SOL    HW125316   2.081   3.438   8.544  1.4446 -2.2100 -0.1359
 4619SOL    HW225317   2.210   3.506   8.526  0.9725  0.0619 -1.3864
 4620SOL     OW25318   0.831   4.321   0.317 -0.9571 -0.4646 -0.4498
 4620SOL    HW125319   0.856   4.272   0.396  2.2925 -1.7363 -2.2803
 4620SOL    HW225320   0.792   4.401   0.352 -2.9202 -1.6018 -0.0427
 4621SOL     OW25321   2.421   0.476  10.286 -0.1357 -0.2170 -0.3492
 4621SOL    HW125322   2.506   0.511  10.259 -0.6067 -0.3513 -2.0246
 4621SOL    HW225323   2.384   0.416  10.221 -1.3844 -0.2500  0.3944
 4622SOL     OW25324   4.025   0.435  10.944  0.0852  0.0590  0.1910
 4622SOL    HW125325   4.097   0.439  11.007 -0.1796  0.8752  0.4310
 4622SOL    HW225326   4.069   0.379  10.879 -1.4323 -1.5321  0.5144
 4623SOL     OW25327   1.398   3.745   9.511  0.4458 -0.0583  0.2168
 4623SOL    HW125328   1.383   3.668   9.457  0.5654 -0.9838  1.5213
 4623SOL    HW225329   1.309   3.775   9.530  0.2260 -2.3454  2.7448
 4624SOL     OW25330   4.152   4.588   3.268 -0.4411  0.4921 -0.6957
 4624SOL    HW125331   4.183   4.514   3.215 -0.9961  0.6708 -1.2673
 4624SOL    HW225332   4.058   4.572   3.276 -0.1079 -0.5638  1.0612
 4625SOL     OW25333   2.398   2.279   7.046 -0.0833 -0.2189 -0.2244
 4625SOL    HW125334   2.303   2.276   7.052 -0.0702  2.0046  0.9228
 4625SOL    HW225335   2.421   2.186   7.042 -4.0777 -1.2620  1.8027
 4626SOL     OW25336   4.691   1.238   7.921  0.3191  0.0772  0.3710
 4626SOL    HW125337   4.689   1.326   7.881  3.0273 -1.3014 -2.7826
 4626SOL    HW225338   4.695   1.179   7.846  0.4880 -2.1685  2.1504
 4627SOL     OW25339   0.948   1.663   5.678  0.2295  0.6493 -0.0944
 4627SOL    HW125340   0.975   1.577   5.645  0.6936  1.0640 -0.8104
 4627SOL    HW225341   1.018   1.721   5.649  1.1092 -0.8389 -0.9609
 4628SOL     OW25342   0.477   2.807  15.459 -0.0846  0.6022  0.1125
 4628SOL    HW125343   0.402   2.790  15.403  1.9078 -0.0469 -2.3419
 4628SOL    HW225344   0.549   2.753  15.427 -2.7069 -0.8421 -3.3258
 4629SOL     OW25345   2.769   3.744   9.334 -0.3909 -0.1236  0.1506
 4629SOL    HW125346   2.700   3.795   9.292  0.3375  1.1730  0.5535
 4629SOL    HW225347   2.711   3.678   9.372 -0.4038 -0.5808 -0.6416
 4630SOL     OW25348   2.466   2.279   0.789  0.1350  0.8286  0.0809
 4630SOL    HW125349   2.455   2.278   0.884  1.6259 -0.3871  0.2457
 4630SOL    HW225350   2.411   2.352   0.761 -0.7009  1.6957  4.0161
 4631SOL     OW25351   0.810   0.940   8.014  0.6056 -0.3009  0.1855
 4631SOL    HW125352   0.715   0.930   8.026  0.5514 -1.0001 -0.8948
 4631SOL    HW225353   0.819   0.967   7.923  2.0137 -1.1305  0.0867
 4632SOL     OW25354   0.528   0.515   1.845  0.2604 -0.6560  0.4002
 4632SOL    HW125355   0.515   0.536   1.938  2.3686  0.2042  0.5069
 4632SOL    HW225356   0.542   0.421   1.850 -0.8057 -0.6147  4.3596
 4633SOL     OW25357   2.106   3.633   1.322  0.3913  0.6715 -0.3528
 4633SOL    HW125358   2.127   3.702   1.385 -0.8196 -0.9603  1.8542
 4633SOL    HW225359   2.014   3.612   1.339  0.1335  1.2889 -0.9968
 4634SOL     OW25360   4.234   2.518   3.071  0.1721  0.0217  0.3265
 4634SOL    HW125361   4.223   2.431   3.109 -2.1502 -0.1374 -0.7238
 4634SOL    HW225362   4.234   2.508   2.976 -1.5420 -2.9306  0.6307
 4635SOL     OW25363   1.041   0.242   4.228 -0.0473 -0.3954 -0.5011
 4635SOL    HW125364   1.058   0.304   4.157 -0.4387 -1.8627 -1.8552
 4635SOL    HW225365   1.125   0.233   4.274 -0.8240  0.8310  1.1765
 4636SOL     OW25366   0.080   3.537   5.159  0.4893 -0.5649 -0.9252
 4636SOL    HW125367   0.022   3.535   5.235  0.7953 -0.9131 -0.7004
 4636SOL    HW225368   0.026   3.509   5.085 -0.1503 -4.8078  1.1501
 4637SOL     OW25369   4.495   2.791  16.715  0.2218  0.4968  0.0944
 4637SOL    HW125370   4.467   2.701  16.701 -1.0612  1.0030 -0.5815
 4637SOL    HW225371   4.583   2.786  16.753 -2.0231  2.1665  5.4167
 4638SOL     OW25372   3.364   2.685   1.588  0.2294 -0.3809  0.2278
 4638SOL    HW125373   3.337   2.776   1.591 -2.7004 -1.2310 -0.9049
 4638SOL    HW225374   3.285   2.639   1.615  0.5521  0.3067  2.3740
 4639SOL     OW25375   2.056   2.371   5.977  0.0937  0.2645 -0.1057
 4639SOL    HW125376   2.138   2.360   6.024  0.3113 -1.3761 -0.8672
 4639SOL    HW225377   2.071   2.362   5.883  1.9410  1.1027  0.1192
 4640SOL     OW25378   3.426   4.269   1.441 -0.0598  0.7195  0.3558
 4640SOL    HW125379   3.375   4.345   1.413 -2.5239 -1.1844 -0.2594
 4640SOL    HW225380   3.508   4.270   1.391 -0.0020  1.6774  0.4731
 4641SOL     OW25381   2.905   1.820   6.030  0.4487  0.7759 -0.1547
 4641SOL    HW125382   2.836   1.780   6.083  1.7273 -0.2206  0.7626
 4641SOL    HW225383   2.969   1.749   6.027 -1.3951 -0.9184  0.3663
 4642SOL     OW25384   2.264   3.093   6.011 -0.0969 -0.1568  0.4694
 4642SOL    HW125385   2.303   3.015   6.049  1.8033  1.0339  0.9182
 4642SOL    HW225386   2.321   3.105   5.935  1.0098 -0.9575  1.1940
 4643SOL     OW25387   2.622   3.063   8.272 -0.2177 -0.4105  0.2056
 4643SOL    HW125388   2.616   2.968   8.258  0.2888 -0.3749 -0.2487
 4643SOL    HW225389   2.702   3.066   8.325 -2.1573  1.4801  2.9821
 4644SOL     OW25390   4.223   3.869   8.243 -0.0562 -0.3621  0.4404
 4644SOL    HW125391   4.138   3.871   8.199  0.0199  0.0718  0.3159
 4644SOL    HW225392   4.213   3.926   8.319  1.2376 -0.1144  0.4280
 4645SOL     OW25393   2.117   3.626   3.054 -0.1158 -0.5745  0.3334
 4645SOL    HW125394   2.129   3.683   2.978  0.8591  0.9448  1.6472
 4645SOL    HW225395   2.046   3.674   3.096  1.3108  1.7864  0.0217
 4646SOL     OW25396   1.392   1.875   5.538 -0.4185 -0.1281 -0.3741
 4646SOL    HW125397   1.468   1.825   5.508 -0.8346 -1.7069  1.1355
 4646SOL    HW225398   1.392   1.949   5.478 -2.9034  1.6647  1.8451
 4647SOL     OW25399   4.335   0.710  17.486  0.1618  0.0010  0.0710
 4647SOL    HW125400   4.326   0.698  17.581  1.0974 -2.9328 -0.1912
 4647SOL    HW225401   4.276   0.644  17.450 -0.5023 -0.0369  1.2286
 4648SOL     OW25402   1.966   2.149  11.790 -0.0156  0.7654  0.2314
 4648SOL    HW125403   2.010   2.230  11.764  1.7159 -0.4277 -0.5858
 4648SOL    HW225404   1.913   2.186  11.860 -1.8204 -0.3052 -0.5854
 4649SOL     OW25405   0.901   1.867   8.807 -0.6535 -0.0098 -0.5517
 4649SOL    HW125406   0.987   1.864   8.765 -0.0555  2.0285  0.5417
 4649SOL    HW225407   0.886   1.961   8.816 -0.1385  0.2453 -2.3839
 4650SOL     OW25408   0.896   1.404   6.823 -0.2371 -0.0906  0.1339
 4650SOL    HW125409   0.871   1.464   6.752  2.1270 -0.9006 -1.3750
 4650SOL    HW225410   0.830   1.425   6.889  0.3664 -1.2442  1.0968
 4651SOL     OW25411   1.503   4.655   4.216 -0.6218  0.7939 -0.3665
 4651SOL    HW125412   1.593   4.632   4.237 -0.3024  0.2495 -2.3262
 4651SOL    HW225413   1.479   0.006   4.269 -0.4545 -0.9162  2.1136
 4652SOL     OW25414   4.125   2.232   6.109 -0.5347 -0.3638  0.3126
 4652SOL    HW125415   4.104   2.211   6.018 -2.1926 -1.5995  0.9755
 4652SOL    HW225416   4.207   2.182   6.115 -0.8372 -0.9283 -0.2064
 4653SOL     OW25417   4.067   2.173   2.247  0.5768 -0.1830  0.0041
 4653SOL    HW125418   4.016   2.252   2.231 -0.0619 -0.7559 -0.7716
 4653SOL    HW225419   4.157   2.207   2.246  1.3090 -2.1356  0.2777
 4654SOL     OW25420   3.592   1.222  16.954  0.5214 -0.6474 -0.5928
 4654SOL    HW125421   3.643   1.171  16.891 -0.4609  0.2689 -2.1347
 4654SOL    HW225422   3.505   1.189  16.930  0.5425 -0.5147 -0.8505
 4655SOL     OW25423   4.150   1.304   8.111  0.2516 -0.1757 -0.1079
 4655SOL    HW125424   4.158   1.292   8.206  1.7278  0.2859 -0.1691
 4655SOL    HW225425   4.241   1.317   8.083  0.5300 -0.9274  0.4417
 4656SOL     OW25426   3.353   3.469   4.966 -0.4900  0.3480 -0.2707
 4656SOL    HW125427   3.400   3.427   4.894  3.0242 -0.6624  2.6167
 4656SOL    HW225428   3.417   3.447   5.033 -0.6271  1.9936  0.4070
 4657SOL     OW25429   3.275   3.355   1.642  0.2244  0.0404  0.4792
 4657SOL    HW125430   3.271   3.340   1.547  0.5979  0.6550  0.3670
 4657SOL    HW225431   3.333   3.431   1.640  0.3695  0.0025  3.7954
 4658SOL     OW25432   1.777   0.763   2.547  0.2642  0.1505 -0.0821
 4658SOL    HW125433   1.703   0.703   2.544 -1.0584  1.7629  0.3490
 4658SOL    HW225434   1.747   0.842   2.592  0.0286  0.3307 -0.5575
 4659SOL     OW25435   0.729   2.326   1.550 -0.4653 -0.3768  0.7289
 4659SOL    HW125436   0.704   2.344   1.641  0.3300 -0.0530  0.8910
 4659SOL    HW225437   0.641   2.304   1.519 -0.3068  0.5764 -0.3726
 4660SOL     OW25438   3.136   3.007  10.344 -0.0874  0.6751 -0.9820
 4660SOL    HW125439   3.183   2.957  10.411 -0.0718  2.7708  0.5847
 4660SOL    HW225440   3.215   3.032  10.296  1.4300 -1.5114  0.3873
 4661SOL     OW25441   1.150   3.774   7.025  0.0259 -0.1576  0.2995
 4661SOL    HW125442   1.219   3.793   6.962 -0.3189  1.5318  0.4295
 4661SOL    HW225443   1.182   3.829   7.097 -1.7614  2.6426 -1.0246
 4662SOL     OW25444   3.195   3.633   5.140  0.5767 -0.2497 -0.0340
 4662SOL    HW125445   3.216   3.608   5.050 -0.7230 -0.7326 -0.2078
 4662SOL    HW225446   3.272   3.600   5.186  1.9039  0.5043 -1.7143
 4663SOL     OW25447   1.649   0.625   4.789  0.1638 -0.2528 -0.8326
 4663SOL    HW125448   1.577   0.663   4.839  1.3115  1.8240 -0.7761
 4663SOL    HW225449   1.643   0.537   4.825 -3.6833  1.1069  1.8156
 4664SOL     OW25450   4.152   2.801   2.062  0.4261 -0.9718 -0.2374
 4664SOL    HW125451   4.102   2.773   2.138  0.5895 -0.6676 -0.0177
 4664SOL    HW225452   4.100   2.877   2.035  1.4227  0.0502  0.6574
 4665SOL     OW25453   3.407   0.847   4.660 -0.4552  0.1745  0.4028
 4665SOL    HW125454   3.444   0.935   4.660 -0.8806  0.3455 -1.8722
 4665SOL    HW225455   3.486   0.796   4.639  0.2192  1.0942  0.7204
 4666SOL     OW25456   0.184   2.194  10.976 -0.3476 -0.2142 -0.0207
 4666SOL    HW125457   0.174   2.100  10.995  1.3975  0.0663  2.3759
 4666SOL    HW225458   0.277   2.205  10.997 -0.6320  1.7407  0.1847
 4667SOL     OW25459   2.266   0.668  10.081  0.8617 -0.4711  0.3657
 4667SOL    HW125460   2.246   0.650  10.173 -0.4434 -1.8960 -0.1990
 4667SOL    HW225461   2.361   0.673  10.087  0.9454 -0.1504 -1.4907
 4668SOL     OW25462   1.858   2.715   8.638  0.1254 -0.1925  0.3091
 4668SOL    HW125463   1.870   2.810   8.632  0.6951 -0.4173 -2.1084
 4668SOL    HW225464   1.936   2.677   8.679  0.5934  0.9866  0.5320
 4669SOL     OW25465   2.863   0.806   7.934 -0.1603  0.4071 -0.0742
 4669SOL    HW125466   2.786   0.802   7.991  0.3835  0.6833  0.6694
 4669SOL    HW225467   2.826   0.856   7.861 -5.0802 -2.0843  0.6490
 4670SOL     OW25468   2.455   4.029  17.486  0.0579  0.2369 -0.0417
 4670SOL    HW125469   2.406   4.102  17.523  2.0403  1.1212  0.8428
 4670SOL    HW225470   2.435   4.039  17.393 -4.0758 -0.1993  0.7803
 4671SOL     OW25471   3.642   4.098   1.699  0.2723 -0.2255 -0.0357
 4671SOL    HW125472   3.656   4.156   1.773 -2.0162  1.1871 -0.7227
 4671SOL    HW225473   3.719   4.106   1.644  0.6427 -2.5138  0.1319
 4672SOL     OW25474   0.454   0.958  15.766 -0.2199 -0.1921  0.0614
 4672SOL    HW125475   0.524   0.998  15.715 -1.3808  0.6213 -0.8857
 4672SOL    HW225476   0.376   0.970  15.712 -0.0786 -1.4398 -0.4121
 4673SOL     OW25477   0.153   1.759   6.809 -0.9684 -0.2531  0.8129
 4673SOL    HW125478   0.240   1.767   6.770 -2.3753  1.9050 -1.8932
 4673SOL    HW225479   0.160   1.821   6.882  2.1747 -0.6362  0.8238
 4674SOL     OW25480   3.410   3.314   8.127 -0.0283 -0.6672 -0.2323
 4674SOL    HW125481   3.427   3.353   8.041  1.8251  0.7931  0.8003
 4674SOL    HW225482   3.359   3.382   8.172  1.1291  0.2187 -0.2610
 4675SOL     OW25483   1.556   3.916   2.350 -0.0231 -0.3259  0.6082
 4675SOL    HW125484   1.472   3.916   2.396  0.0378 -0.3717  0.7196
 4675SOL    HW225485   1.615   3.884   2.418 -0.3712 -1.8634  0.1940
 4676SOL     OW25486   1.202   3.466   2.783 -0.3009 -0.1174  0.6076
 4676SOL    HW125487   1.216   3.491   2.692 -1.2924  1.1550  0.8118
 4676SOL    HW225488   1.293   3.440   2.797  0.6631  1.9715 -1.9429
 4677SOL     OW25489   4.218   3.296   5.639 -0.1083 -0.3601  0.2015
 4677SOL    HW125490   4.245   3.370   5.693 -1.9964 -1.2779  2.3958
 4677SOL    HW225491   4.300   3.249   5.624  0.4212 -0.7397  4.2876
 4678SOL     OW25492   2.563   2.931   4.177  0.2878  0.9179 -0.2040
 4678SOL    HW125493   2.517   3.013   4.198  0.4650  1.0298 -0.2576
 4678SOL    HW225494   2.498   2.900   4.113 -0.8717 -0.0948  1.4654
 4679SOL     OW25495   3.913   3.471   2.311 -0.1688  0.0370  0.4151
 4679SOL    HW125496   3.868   3.472   2.227  1.6334 -0.6691 -0.5607
 4679SOL    HW225497   3.843   3.505   2.368 -0.0164 -2.7128  2.2335
 4680SOL     OW25498   3.695   1.026   8.226 -0.2865  0.0983  0.5480
 4680SOL    HW125499   3.724   0.938   8.250  1.8595  0.7954  0.5518
 4680SOL    HW225500   3.777   1.069   8.249 -1.6741  1.9025  2.0908
 4681SOL     OW25501   4.317   3.867   4.620  1.1589 -0.1869  0.1566
 4681SOL    HW125502   4.372   3.878   4.698 -1.8870  1.6597  2.0523
 4681SOL    HW225503   4.355   3.784   4.594  2.1622 -0.3692  2.2265
 4682SOL     OW25504   2.362   3.850   2.147 -0.1329  0.9281  0.2398
 4682SOL    HW125505   2.288   3.815   2.096 -0.4848  1.2640  0.5210
 4682SOL    HW225506   2.411   3.898   2.080  0.7386  1.3246  1.1716
 4683SOL     OW25507   0.596   0.847   6.136 -0.2578 -0.0719 -0.1480
 4683SOL    HW125508   0.608   0.759   6.172 -0.0964  0.5408  1.2629
 4683SOL    HW225509   0.568   0.825   6.047 -1.5782  2.8830 -0.4726
 4684SOL     OW25510   1.577   1.249   4.395 -0.2901  0.2695 -0.0398
 4684SOL    HW125511   1.620   1.332   4.416  0.3293  0.2428 -1.2442
 4684SOL    HW225512   1.515   1.274   4.326 -0.6639 -0.1962  0.1292
 4685SOL     OW25513   1.552   4.163   2.882  0.0170 -0.0668 -0.0920
 4685SOL    HW125514   1.570   4.253   2.911  0.9775 -1.0800  2.5277
 4685SOL    HW225515   1.521   4.180   2.793  2.7307  0.5841 -0.9153
 4686SOL     OW25516   3.028   3.240   3.306  0.8805  0.0593 -0.2458
 4686SOL    HW125517   2.940   3.202   3.297  0.5143  0.7843  0.3602
 4686SOL    HW225518   3.077   3.157   3.300 -0.1821 -0.6396  0.8952
 4687SOL     OW25519   1.379   3.936   2.860  0.5782  0.0626  0.0111
 4687SOL    HW125520   1.415   4.023   2.881 -0.2474  0.4855 -0.3231
 4687SOL    HW225521   1.348   3.910   2.947  0.8039 -0.8796 -0.1933
 4688SOL     OW25522   1.404   2.742   3.143  0.0469 -0.0808 -0.3435
 4688SOL    HW125523   1.476   2.712   3.087  0.2671 -1.2228  0.5481
 4688SOL    HW225524   1.434   2.743   3.234 -0.2982  0.0057 -0.2291
 4689SOL     OW25525   0.875   3.438   6.323  0.1622 -0.3415 -0.3187
 4689SOL    HW125526   0.815   3.490   6.269  0.2149 -1.6758 -1.6494
 4689SOL    HW225527   0.956   3.489   6.316  0.3214 -0.3768  1.3317
 4690SOL     OW25528   2.355   1.168  16.014 -0.4562  0.5027 -0.0499
 4690SOL    HW125529   2.399   1.084  16.029  1.6224  1.1237 -2.6513
 4690SOL    HW225530   2.325   1.199  16.100 -0.4205  1.2140 -0.2900
 4691SOL     OW25531   2.432   2.883   9.623  0.6481  0.3372  0.1116
 4691SOL    HW125532   2.383   2.838   9.692  0.9618 -0.9285 -0.5006
 4691SOL    HW225533   2.508   2.913   9.674  1.2046 -2.2249  0.7917
 4692SOL     OW25534   3.320   3.097   8.726 -0.5203  0.1085  0.0953
 4692SOL    HW125535   3.326   3.181   8.770 -0.0020 -1.3451  2.7490
 4692SOL    HW225536   3.386   3.052   8.778 -1.1267 -1.7744 -0.7568
 4693SOL     OW25537   2.766   2.828   2.887  0.3879  0.2629  0.1804
 4693SOL    HW125538   2.723   2.864   2.810 -0.7496  0.2858  0.8272
 4693SOL    HW225539   2.699   2.768   2.918  1.0258  0.8233  2.6645
 4694SOL     OW25540   1.858   0.779   1.514 -0.0103  0.4437  0.3013
 4694SOL    HW125541   1.852   0.714   1.584  0.5488  0.6444  0.5419
 4694SOL    HW225542   1.779   0.830   1.530 -0.6908 -0.4046 -0.4160
 4695SOL     OW25543   1.070   2.463   6.537 -0.3701  0.7717 -0.2723
 4695SOL    HW125544   1.074   2.477   6.443 -2.3904  0.9280 -0.3447
 4695SOL    HW225545   1.030   2.547   6.560  1.9493  1.7407  0.2044
 4696SOL     OW25546   2.495   3.761   5.634  0.4205  0.0202 -0.2508
 4696SOL    HW125547   2.504   3.798   5.722 -3.8759  1.1078 -0.2931
 4696SOL    HW225548   2.491   3.666   5.643 -1.5686  0.2375  1.1134
 4697SOL     OW25549   2.486   4.654   1.189 -0.6457  0.5135  0.2555
 4697SOL    HW125550   2.489   4.707   1.109  0.6658 -0.7669 -0.5395
 4697SOL    HW225551   2.428   4.586   1.157 -1.5387  1.1645  0.4957
 4698SOL     OW25552   0.382   4.380  16.526 -0.4943  0.1395 -0.3870
 4698SOL    HW125553   0.333   4.345  16.600 -2.3853  2.9237 -0.3580
 4698SOL    HW225554   0.462   4.326  16.525 -1.2222 -0.9507  0.3860
 4699SOL     OW25555   1.738   4.431   5.860  0.2719  0.1293  0.0212
 4699SOL    HW125556   1.797   4.411   5.934  0.0175 -1.5556 -0.2320
 4699SOL    HW225557   1.803   4.445   5.791  0.6320 -1.3815  0.0411
 4700SOL     OW25558   3.603   1.015   1.098 -0.3183 -0.3151  0.2271
 4700SOL    HW125559   3.599   1.043   1.007  3.4523 -1.7504 -0.3908
 4700SOL    HW225560   3.690   1.042   1.129 -0.1614  2.0224 -2.2247
 4701SOL     OW25561   1.190   1.549   9.660  0.2162  0.3541 -0.3727
 4701SOL    HW125562   1.244   1.613   9.615 -0.9386  1.2589 -0.4578
 4701SOL    HW225563   1.107   1.593   9.678 -0.3404 -0.5474 -0.7271
 4702SOL     OW25564   0.752   2.943   1.846 -0.3325  0.0795  0.1723
 4702SOL    HW125565   0.676   2.997   1.824 -0.7752 -0.5068  0.2721
 4702SOL    HW225566   0.820   3.009   1.862  0.1838 -0.3187 -0.4041
 4703SOL     OW25567   1.169   3.004   4.375 -0.3669  0.3540 -0.0749
 4703SOL    HW125568   1.163   3.079   4.315  2.7773 -0.8007 -1.8787
 4703SOL    HW225569   1.237   3.033   4.436 -0.7361  1.9633 -0.4277
 4704SOL     OW25570   2.337   1.447  12.059  0.7427  0.1227  0.1468
 4704SOL    HW125571   2.260   1.456  12.115  0.6000 -2.4342  0.3391
 4704SOL    HW225572   2.303   1.501  11.987  0.4743  0.7511  0.7485
 4705SOL     OW25573   3.031   4.472   0.044  0.0178  0.1231 -0.2267
 4705SOL    HW125574   3.044   4.518   0.127  1.0165  0.8469 -0.7720
 4705SOL    HW225575   2.947   4.428   0.049  0.4469 -0.6121  0.4046
 4706SOL     OW25576   3.594   3.412   3.448  0.6213  0.3145 -0.2092
 4706SOL    HW125577   3.576   3.320   3.430 -3.2713  1.1441 -0.6404
 4706SOL    HW225578   3.662   3.421   3.381 -0.2996  0.6000 -1.1176
 4707SOL     OW25579   4.273   4.695   7.302  0.2663 -0.4961  0.0971
 4707SOL    HW125580   4.269   4.682   7.207  1.3910 -0.4498  0.0469
 4707SOL    HW225581   4.271   4.604   7.331  2.1503 -0.5397  0.0845
 4708SOL     OW25582   1.741   3.582   9.146  0.2269  0.3081 -0.6352
 4708SOL    HW125583   1.812   3.642   9.124  0.2809  0.7200  0.6670
 4708SOL    HW225584   1.740   3.592   9.241  1.5969  0.8910 -0.6840
 4709SOL     OW25585   0.015   1.047   6.716 -0.2350  0.3790 -0.7387
 4709SOL    HW125586   4.654   1.060   6.758 -0.8881  1.2631 -2.3604
 4709SOL    HW225587   4.721   1.090   6.633  1.4027  1.8268 -0.3651
 4710SOL     OW25588   4.320   2.954   0.814 -0.5008  0.2390 -0.1347
 4710SOL    HW125589   4.326   3.041   0.775 -1.2262  0.1386 -0.4690
 4710SOL    HW225590   4.327   2.970   0.909  1.8329  1.7102 -0.5568
 4711SOL     OW25591   3.258   2.643   6.596 -0.2771 -0.3345  0.5105
 4711SOL    HW125592   3.181   2.629   6.651  0.4887 -0.9893  1.4143
 4711SOL    HW225593   3.246   2.729   6.556  0.9017 -0.4222 -0.0217
 4712SOL     OW25594   1.825   2.848  12.039  0.3981  0.1855 -0.0473
 4712SOL    HW125595   1.840   2.756  12.062  0.5493  0.2536  0.1176
 4712SOL    HW225596   1.911   2.883  12.062  0.2236  2.7885 -3.4416
 4713SOL     OW25597   2.030   1.294  12.346  0.0179  0.6902 -0.4440
 4713SOL    HW125598   2.041   1.241  12.266  0.8109  1.6878 -0.9853
 4713SOL    HW225599   1.938   1.322  12.340 -0.1010  0.1954 -0.9627
 4714SOL     OW25600   0.010   3.307   5.497  0.5117 -0.1562 -0.1139
 4714SOL    HW125601   0.064   3.260   5.433  0.9007 -0.1309  0.1980
 4714SOL    HW225602   4.699   3.378   5.444 -0.2505 -0.2725  0.2513
 4715SOL     OW25603   2.533   1.232   0.206  0.3327  0.2524 -0.5430
 4715SOL    HW125604   2.541   1.292   0.281 -0.5791 -0.8713  0.4611
 4715SOL    HW225605   2.470   1.174   0.249  0.5198 -0.0599 -0.7001
 4716SOL     OW25606   2.649   3.641  13.295 -0.2348  0.5361 -0.1447
 4716SOL    HW125607   2.616   3.708  13.356 -0.7444 -0.4239  0.6422
 4716SOL    HW225608   2.744   3.652  13.301 -0.2290 -1.2166  3.0400
 4717SOL     OW25609   3.016   4.245   7.495 -0.0246  0.1018 -0.3892
 4717SOL    HW125610   3.050   4.324   7.451  0.9311 -0.4982 -0.7225
 4717SOL    HW225611   3.004   4.177   7.429 -1.3071 -3.8905  3.9916
 4718SOL     OW25612   4.237   3.840   7.345  0.2005 -0.3994  0.4614
 4718SOL    HW125613   4.164   3.838   7.283  0.6189 -0.1408 -0.0342
 4718SOL    HW225614   4.315   3.825   7.291  0.4436  1.0368  0.4217
 4719SOL     OW25615   3.752   4.703  15.627 -0.0587 -0.7364  0.1354
 4719SOL    HW125616   3.751   0.025  15.710  1.7632  1.1907 -0.9480
 4719SOL    HW225617   3.658   4.701  15.607 -0.2578  0.2113  0.9643
 4720SOL     OW25618   3.285   3.473   4.528  0.6423  0.6164 -0.2473
 4720SOL    HW125619   3.320   3.522   4.454  0.7851  1.1796  0.1907
 4720SOL    HW225620   3.211   3.534   4.538 -2.0810 -2.5149 -1.5580
 4721SOL     OW25621   3.047   4.204   9.339 -0.4892  0.0753  0.3407
 4721SOL    HW125622   2.986   4.188   9.412  2.8045 -0.3834  3.0030
 4721SOL    HW225623   3.002   4.170   9.262 -1.3064 -1.0265  1.2934
 4722SOL     OW25624   1.390   1.993   2.939  0.2433 -0.0467  0.2763
 4722SOL    HW125625   1.427   1.924   2.885 -0.2021 -1.4715  1.8068
 4722SOL    HW225626   1.308   2.018   2.897  1.8247  0.3292 -2.6247
 4723SOL     OW25627   3.665   2.039   3.658 -0.5636 -0.5784 -0.1139
 4723SOL    HW125628   3.747   2.008   3.696 -0.3459  1.4371  1.0716
 4723SOL    HW225629   3.606   1.964   3.662  0.8359 -1.6774 -0.0458
 4724SOL     OW25630   3.595   4.321   3.374 -0.4639  0.0328 -0.2673
 4724SOL    HW125631   3.677   4.281   3.402 -0.4501  0.8773  0.9051
 4724SOL    HW225632   3.556   4.238   3.345 -0.2221 -0.7568  1.6473
 4725SOL     OW25633   3.332   0.680   3.137 -0.5007 -0.2439  0.4975
 4725SOL    HW125634   3.388   0.743   3.182  0.0235  1.1551 -2.0913
 4725SOL    HW225635   3.364   0.613   3.197 -1.6552  1.5893  3.1834
 4726SOL     OW25636   3.499   1.870   5.356  0.0369 -0.3205  0.1222
 4726SOL    HW125637   3.412   1.848   5.323 -0.1807 -0.2882  0.6792
 4726SOL    HW225638   3.557   1.844   5.284  1.5496 -2.6131  2.1519
 4727SOL     OW25639   1.751   1.926   5.333  0.1127  0.0946 -0.2370
 4727SOL    HW125640   1.730   2.019   5.329  1.1241  0.1980 -3.0325
 4727SOL    HW225641   1.730   1.889   5.247  2.4879  0.7865 -1.1174
 4728SOL     OW25642   0.641   2.920  16.883 -0.0145  0.4931  0.0403
 4728SOL    HW125643   0.609   2.837  16.847  0.2763  1.2015 -1.8046
 4728SOL    HW225644   0.638   2.977  16.807  3.0771  0.2929 -0.2527
 4729SOL     OW25645   2.201   0.849   5.320 -0.6216  0.1605 -0.2035
 4729SOL    HW125646   2.230   0.821   5.233 -0.5970 -0.0960 -0.1093
 4729SOL    HW225647   2.122   0.796   5.332 -1.3830  1.2841 -0.1562
 4730SOL     OW25648   3.342   0.076   5.857  0.3224  0.1340 -0.9799
 4730SOL    HW125649   3.264   0.024   5.876 -0.2584  2.3150  2.5222
 4730SOL    HW225650   3.396   0.001   5.834 -1.0916 -1.4861  1.0471
 4731SOL     OW25651   2.373   1.801   7.966  0.4019 -0.2572  0.0144
 4731SOL    HW125652   2.361   1.706   7.960 -1.3745  0.0443 -1.3280
 4731SOL    HW225653   2.436   1.828   7.899 -0.9202 -1.2864 -1.6440
 4732SOL     OW25654   3.421   0.494  12.221 -0.4284  0.1461  0.0493
 4732SOL    HW125655   3.486   0.427  12.240  0.0492  0.9367  1.2547
 4732SOL    HW225656   3.344   0.439  12.210  0.6839 -1.0720 -1.5725
 4733SOL     OW25657   1.516   1.199   2.970 -0.0453 -0.6566 -0.1089
 4733SOL    HW125658   1.598   1.184   3.016 -0.1542  0.3037  0.4085
 4733SOL    HW225659   1.496   1.111   2.938 -1.5725 -0.6299  0.7568
 4734SOL     OW25660   0.928   3.500   6.897 -0.6015 -0.0082 -0.0322
 4734SOL    HW125661   0.975   3.518   6.978 -0.1819 -0.3139 -0.2080
 4734SOL    HW225662   0.996   3.478   6.834 -0.2851  1.1766 -0.0979
 4735SOL     OW25663   3.696   2.516  16.158 -0.1884  0.0822  0.2068
 4735SOL    HW125664   3.649   2.479  16.083 -0.2943  0.6657 -0.0160
 4735SOL    HW225665   3.776   2.466  16.146  0.9750  1.5637  1.7820
 4736SOL     OW25666   1.675   3.324   9.013  0.5385  0.1828 -0.0238
 4736SOL    HW125667   1.642   3.345   9.101  2.7985  1.2303  0.5692
 4736SOL    HW225668   1.703   3.413   8.989 -1.5019  1.4237  2.1382
 4737SOL     OW25669   4.050   2.980  14.156 -0.5373 -0.0236  0.2508
 4737SOL    HW125670   4.114   3.015  14.218  0.0528 -1.0042  0.1831
 4737SOL    HW225671   4.071   3.031  14.077  0.7665 -0.4426  0.3336
 4738SOL     OW25672   1.577   2.354  12.276  0.3726  0.0576  0.2308
 4738SOL    HW125673   1.647   2.291  12.262  0.9235  0.4594  1.2015
 4738SOL    HW225674   1.509   2.330  12.212  0.2460  0.2841  0.2771
 4739SOL     OW25675   4.254   0.040  11.617 -0.4061 -0.5658  0.2794
 4739SOL    HW125676   4.186   4.715  11.664 -0.2739  0.6817  1.7694
 4739SOL    HW225677   4.207   0.123  11.622 -1.5876 -1.1854 -0.4557
 4740SOL     OW25678   3.777   2.840   3.282  0.1594  0.0662  0.4845
 4740SOL    HW125679   3.727   2.801   3.353 -0.1841  0.3736  0.4097
 4740SOL    HW225680   3.857   2.787   3.284 -0.1754 -0.3960  1.1185
 4741SOL     OW25681   1.246   0.092   8.519 -0.4524  0.1865  0.0114
 4741SOL    HW125682   1.261   4.723   8.526  0.2780  0.1178 -2.7134
 4741SOL    HW225683   1.174   0.097   8.457  1.4889  0.3702 -2.2233
 4742SOL     OW25684   2.377   2.837   4.939 -0.5534 -0.4234 -0.1174
 4742SOL    HW125685   2.315   2.768   4.915  0.7400 -1.7845  0.4775
 4742SOL    HW225686   2.370   2.888   4.858 -0.1858 -0.1716  0.0087
 4743SOL     OW25687   4.028   3.568  16.770 -0.1559  0.0252  0.7160
 4743SOL    HW125688   3.985   3.631  16.828 -0.9242  2.2296 -2.2549
 4743SOL    HW225689   3.962   3.499  16.762 -1.2796  1.2399 -0.5054
 4744SOL     OW25690   0.764   1.647   7.901 -0.2191  0.1070 -0.6074
 4744SOL    HW125691   0.815   1.727   7.910 -0.9851  0.6454 -1.0544
 4744SOL    HW225692   0.699   1.665   7.968  1.0185 -1.3061  0.9701
 4745SOL     OW25693   2.392   3.510   3.430  0.1444  0.3934 -0.2019
 4745SOL    HW125694   2.417   3.585   3.484 -1.9481  0.7322  0.2955
 4745SOL    HW225695   2.396   3.548   3.342  1.1227 -1.0553 -0.7885
 4746SOL     OW25696   2.765   1.701   7.579  0.0688 -0.0550 -0.1784
 4746SOL    HW125697   2.750   1.633   7.514  1.0752  1.2865 -1.8324
 4746SOL    HW225698   2.858   1.686   7.600 -0.2305 -0.5591  0.7689
 4747SOL     OW25699   2.342   0.817   3.789 -0.3849 -0.1138 -0.6208
 4747SOL    HW125700   2.255   0.809   3.828  0.1380 -2.8175 -0.0181
 4747SOL    HW225701   2.320   0.781   3.703  0.1282  2.1762 -1.7214
 4748SOL     OW25702   4.528   2.541   2.656 -0.0496 -0.3443  0.6465
 4748SOL    HW125703   4.531   2.630   2.692 -2.4660  0.1069 -0.2542
 4748SOL    HW225704   4.542   2.566   2.564  0.0339  0.7958  0.9650
 4749SOL     OW25705   2.010   1.183   2.449 -0.4783 -0.3290  0.2943
 4749SOL    HW125706   2.025   1.089   2.443 -0.2805 -0.3261  0.7427
 4749SOL    HW225707   2.045   1.195   2.361 -1.0117 -1.8342 -0.1206
 4750SOL     OW25708   4.417   4.054   2.047  0.9914 -0.4159  0.3138
 4750SOL    HW125709   4.384   3.964   2.042 -0.8658  0.4299 -2.3007
 4750SOL    HW225710   4.335   4.101   2.028  0.9775 -0.7223 -0.3765
 4751SOL     OW25711   0.570   4.328  10.117 -0.1585 -0.8500  0.1533
 4751SOL    HW125712   0.555   4.402  10.059 -0.8420 -2.3126 -1.5245
 4751SOL    HW225713   0.485   4.299  10.150 -0.3254 -0.6520 -0.1045
 4752SOL     OW25714   3.111   4.221   4.661 -0.1860 -0.0714  0.0015
 4752SOL    HW125715   3.051   4.188   4.728 -1.1689 -0.3216 -0.9993
 4752SOL    HW225716   3.149   4.297   4.705  0.3035  0.1069 -0.7367
 4753SOL     OW25717   1.857   0.524  12.601 -0.5326 -0.1320 -0.4478
 4753SOL    HW125718   1.853   0.480  12.686  0.2331  1.4600  0.4025
 4753SOL    HW225719   1.918   0.469  12.551  1.2604  2.6773 -1.3481
 4754SOL     OW25720   4.405   3.850  12.049 -0.4047 -0.1781  0.9121
 4754SOL    HW125721   4.346   3.828  11.976  0.1771  2.5883 -0.4195
 4754SOL    HW225722   4.348   3.896  12.110 -0.2019  0.7661  0.3969
 4755SOL     OW25723   2.249   1.443  13.222 -0.5345 -0.0964 -0.2670
 4755SOL    HW125724   2.161   1.449  13.185 -0.8932 -1.5358  0.3411
 4755SOL    HW225725   2.276   1.531  13.195 -0.9511  0.4749  1.1384
 4756SOL     OW25726   2.973   3.755  11.098 -0.1061  0.3854  0.4513
 4756SOL    HW125727   3.056   3.793  11.069 -0.7742  1.4454 -0.0809
 4756SOL    HW225728   3.008   3.674  11.136 -1.0783 -1.1979 -2.0607
 4757SOL     OW25729   2.693   1.537  10.649 -1.0300 -0.4416 -0.1878
 4757SOL    HW125730   2.713   1.508  10.559 -0.7894 -0.4696 -0.1259
 4757SOL    HW225731   2.643   1.619  10.643 -0.3159  0.0714  1.1265
 4758SOL     OW25732   2.798   3.406  13.104  0.0598 -0.1520 -0.4388
 4758SOL    HW125733   2.778   3.342  13.036 -0.1981  1.0767 -1.5329
 4758SOL    HW225734   2.798   3.485  13.049 -0.3341 -0.3709 -0.7547
 4759SOL     OW25735   0.864   2.748   6.016 -0.1806  0.3923  0.1918
 4759SOL    HW125736   0.841   2.786   5.931  1.0756 -1.2988 -0.9066
 4759SOL    HW225737   0.957   2.769   6.011  0.0628 -0.1289  2.4258
 4760SOL     OW25738   2.976   3.878   4.544  0.9435 -0.4831 -0.1229
 4760SOL    HW125739   2.979   3.913   4.633 -3.9268 -2.9065  0.9936
 4760SOL    HW225740   2.917   3.941   4.502  1.7418 -1.2019 -2.3601
 4761SOL     OW25741   4.182   1.032  12.728 -0.5290 -0.1399 -0.0092
 4761SOL    HW125742   4.232   1.107  12.696  0.6344 -0.7477  0.4078
 4761SOL    HW225743   4.245   0.961  12.726  0.2482  0.5967 -1.3352
 4762SOL     OW25744   0.339   0.841  14.444  0.0414 -0.3445  0.2777
 4762SOL    HW125745   0.280   0.808  14.512  0.3464 -0.5390  0.4431
 4762SOL    HW225746   0.282   0.875  14.374 -0.9341 -0.3342  1.0817
 4763SOL     OW25747   3.073   3.099   5.067  0.2667  0.1178  0.3191
 4763SOL    HW125748   3.054   3.008   5.089 -0.3787 -0.3813 -2.3635
 4763SOL    HW225749   3.095   3.102   4.974 -1.4494 -0.0456 -0.0933
 4764SOL     OW25750   4.233   1.221   4.856  0.2365 -0.0739  0.4367
 4764SOL    HW125751   4.320   1.260   4.863  0.8624 -1.1032 -1.6391
 4764SOL    HW225752   4.221   1.239   4.763 -0.3979  2.1126  0.9395
 4765SOL     OW25753   3.574   1.879   1.011 -0.1030  0.4011 -0.1101
 4765SOL    HW125754   3.603   1.789   1.027 -2.2337 -0.3573 -0.5313
 4765SOL    HW225755   3.500   1.868   0.952 -1.3810  0.3273  1.5193
 4766SOL     OW25756   3.260   2.273  13.158 -0.7120 -0.4578  0.0424
 4766SOL    HW125757   3.312   2.305  13.232 -1.3887  0.6294  0.0397
 4766SOL    HW225758   3.301   2.186  13.156  1.5079  0.6393 -2.0901
 4767SOL     OW25759   4.671   4.488   4.162  0.0021  1.0116  0.4446
 4767SOL    HW125760   0.016   4.459   4.220 -0.6687  1.5877  1.5304
 4767SOL    HW225761   4.663   4.411   4.106 -0.3354  1.0003  0.5068
 4768SOL     OW25762   2.263   4.666  16.197 -0.4705  0.1164 -0.1311
 4768SOL    HW125763   2.304   4.669  16.111 -0.6782 -1.4232 -0.2842
 4768SOL    HW225764   2.346   4.678  16.244  0.2952 -1.7192 -0.9873
 4769SOL     OW25765   0.269   4.304  13.269 -0.1189  0.0308  0.3692
 4769SOL    HW125766   0.204   4.315  13.338 -0.3051 -0.0168  0.1996
 4769SOL    HW225767   0.342   4.258  13.311  1.6305  0.5678 -2.0774
 4770SOL     OW25768   1.134   3.703   3.857  0.1543 -0.0614 -0.1392
 4770SOL    HW125769   1.094   3.658   3.783 -0.5051 -0.8001  0.6659
 4770SOL    HW225770   1.116   3.794   3.832  1.8782  0.7781  1.6592
 4771SOL     OW25771   2.804   3.285   5.711  0.0400  0.3052 -0.1720
 4771SOL    HW125772   2.865   3.295   5.639  0.9439 -1.5936  0.3558
 4771SOL    HW225773   2.719   3.300   5.668 -1.8608  1.6215  3.9614
 4772SOL     OW25774   2.334   0.897   0.643 -0.2957  0.4649  0.1091
 4772SOL    HW125775   2.358   0.853   0.561 -1.5590  1.0219 -0.5579
 4772SOL    HW225776   2.255   0.941   0.613 -0.9246  0.2757  1.4908
 4773SOL     OW25777   2.307   0.040  13.382  0.1214 -0.6616  0.1316
 4773SOL    HW125778   2.392   0.056  13.341  0.5366  0.3724  1.3731
 4773SOL    HW225779   2.306   4.670  13.390 -1.0470 -0.5748  1.0208
 4774SOL     OW25780   0.954   2.459   9.399  0.0633 -0.4576 -0.6867
 4774SOL    HW125781   0.896   2.393   9.438  0.4941 -0.0492  0.6324
 4774SOL    HW225782   0.972   2.513   9.476  0.8205 -1.4713 -0.1596
 4775SOL     OW25783   4.384   2.274   9.359 -0.2694  0.1999 -0.0067
 4775SOL    HW125784   4.414   2.362   9.336  0.2588 -0.0742 -0.3890
 4775SOL    HW225785   4.373   2.237   9.271 -1.1047 -1.1288  0.6670
 4776SOL     OW25786   3.707   4.216   9.245  0.2575  0.5971 -0.9775
 4776SOL    HW125787   3.614   4.235   9.257 -0.2150 -0.4821 -2.9928
 4776SOL    HW225788   3.753   4.296   9.271 -1.2326  0.9822  0.5205
 4777SOL     OW25789   0.999   0.388   3.507  0.1432 -0.1337 -0.6625
 4777SOL    HW125790   0.979   0.300   3.539  1.7531 -0.5270 -0.7346
 4777SOL    HW225791   0.922   0.407   3.453 -0.1779  0.1998 -0.0814
 4778SOL     OW25792   3.769   1.475   1.834  0.3085  0.0699 -0.0202
 4778SOL    HW125793   3.817   1.394   1.826  0.3250  0.3309 -2.3992
 4778SOL    HW225794   3.733   1.486   1.746 -1.8734  0.1929  0.8874
 4779SOL     OW25795   4.135   4.258   5.014  0.4879  0.0089 -0.2764
 4779SOL    HW125796   4.082   4.231   4.939  0.0311  1.4677 -0.4827
 4779SOL    HW225797   4.064   4.281   5.073  1.2284  0.8547  0.2991
 4780SOL     OW25798   1.351   1.310  16.135  0.3593  0.4195  0.1560
 4780SOL    HW125799   1.351   1.356  16.050 -1.6182 -1.6317 -0.9468
 4780SOL    HW225800   1.319   1.376  16.196  0.2745 -1.4495  2.1323
 4781SOL     OW25801   4.397   0.253   4.964 -0.2689 -0.2400  0.5006
 4781SOL    HW125802   4.368   0.171   5.006  0.6845 -1.0646 -0.4617
 4781SOL    HW225803   4.349   0.313   5.021 -0.5309 -0.6940  0.7684
 4782SOL     OW25804   4.706   0.394   2.903 -0.2803 -0.4798 -0.1346
 4782SOL    HW125805   4.614   0.398   2.929 -0.7963  0.1274 -1.9973
 4782SOL    HW225806   0.019   0.462   2.959  0.2136  0.2451 -1.3286
 4783SOL     OW25807   3.436   3.564   1.497 -0.1506 -0.1618  0.3796
 4783SOL    HW125808   3.490   3.617   1.438 -0.8179 -0.6465 -0.6489
 4783SOL    HW225809   3.378   3.627   1.541 -1.2871  0.1992 -1.6577
 4784SOL     OW25810   4.194   2.046   4.575 -0.1331  0.0689 -0.0108
 4784SOL    HW125811   4.136   1.981   4.616  2.3618 -1.5584  0.9566
 4784SOL    HW225812   4.154   2.124   4.613  1.4489  0.4488  0.8851
 4785SOL     OW25813   2.833   0.827   3.455 -0.6931  0.4412 -0.3064
 4785SOL    HW125814   2.906   0.846   3.397  1.5757  0.6368  2.6557
 4785SOL    HW225815   2.879   0.802   3.535  2.2803  3.7021 -1.0350
 4786SOL     OW25816   3.450   1.390   3.124  0.2744  0.0403  0.1164
 4786SOL    HW125817   3.355   1.382   3.117  0.3468 -0.6451 -0.0127
 4786SOL    HW225818   3.472   1.440   3.046 -1.0882  0.2140 -0.1619
 4787SOL     OW25819   0.596   0.393   7.659  0.0494  0.2272  0.2230
 4787SOL    HW125820   0.575   0.421   7.748  0.5257 -0.3046  0.4988
 4787SOL    HW225821   0.514   0.343   7.652 -0.6504  0.9014  3.4250
 4788SOL     OW25822   3.662   2.862   0.940  0.1716  0.2580 -0.0185
 4788SOL    HW125823   3.633   2.774   0.915 -0.0168 -0.0203  1.1737
 4788SOL    HW225824   3.756   2.862   0.920 -0.3499  0.6210 -2.5085
 4789SOL     OW25825   2.435   2.503  15.203  0.3621 -0.1387  0.4618
 4789SOL    HW125826   2.458   2.537  15.290 -0.5241 -0.6323  0.8874
 4789SOL    HW225827   2.498   2.437  15.175  1.0968  0.0023  1.7946
 4790SOL     OW25828   3.089   1.067   5.380 -0.0779 -0.1723  0.2669
 4790SOL    HW125829   3.076   1.130   5.452 -1.0316 -0.5586  0.4376
 4790SOL    HW225830   3.015   1.094   5.326  0.0834 -1.1407 -0.4329
 4791SOL     OW25831   2.222   1.009  16.491  0.5631 -0.1670  0.5418
 4791SOL    HW125832   2.181   0.962  16.563  0.3894 -0.4557  0.2588
 4791SOL    HW225833   2.206   1.098  16.523 -0.0763 -0.4847  1.0991
 4792SOL     OW25834   4.110   1.988   0.673 -0.1348  0.3683 -0.7147
 4792SOL    HW125835   4.118   1.898   0.706 -1.5174  0.2845 -0.5777
 4792SOL    HW225836   4.099   1.963   0.581 -0.5684  1.7087 -1.0218
 4793SOL     OW25837   0.520   1.970   3.453  0.0335  0.4099 -0.4961
 4793SOL    HW125838   0.609   1.963   3.488 -0.9025 -0.7458  1.6855
 4793SOL    HW225839   0.524   1.923   3.370  1.5185  1.7460 -1.1854
 4794SOL     OW25840   1.701   1.180  16.662  0.2867 -0.2228  0.1132
 4794SOL    HW125841   1.616   1.155  16.626  0.7742 -0.4982 -0.8231
 4794SOL    HW225842   1.688   1.246  16.730  0.6017 -0.0746  0.0272
 4795SOL     OW25843   3.528   0.668   5.838  0.3695 -0.0038 -0.5312
 4795SOL    HW125844   3.449   0.621   5.865  0.2906  0.3638 -0.1208
 4795SOL    HW225845   3.557   0.605   5.772  3.0262  2.5366 -1.7903
 4796SOL     OW25846   4.638   4.027  13.578 -0.3144 -0.2108 -0.0322
 4796SOL    HW125847   4.614   4.093  13.513  3.5767  1.2247 -0.0411
 4796SOL    HW225848   4.595   3.947  13.548 -1.9993  0.5030  0.4843
 4797SOL     OW25849   4.158   0.140   2.431  0.3738  0.0684 -0.1503
 4797SOL    HW125850   4.115   0.112   2.512  2.2771  0.8751  1.1287
 4797SOL    HW225851   4.161   0.058   2.382 -2.6724  0.9118 -1.7510
 4798SOL     OW25852   4.478   2.650  10.322  0.3850 -0.6273  0.2950
 4798SOL    HW125853   4.521   2.692  10.397  1.6971 -1.2993 -0.0750
 4798SOL    HW225854   4.535   2.577  10.299 -1.0433 -1.7800  0.4747
 4799SOL     OW25855   0.059   2.967  15.593  0.2918 -0.0866 -0.9535
 4799SOL    HW125856   0.152   2.986  15.588  0.5815 -0.4215  2.5792
 4799SOL    HW225857   0.031   2.987  15.504 -0.9698 -0.1086 -0.5643
 4800SOL     OW25858   0.279   4.642   3.193 -0.4045  0.0874  0.9454
 4800SOL    HW125859   0.324   4.646   3.109  0.4480  0.1729  1.4070
 4800SOL    HW225860   0.269   4.549   3.211  1.4791 -0.1855  0.4878
 4801SOL     OW25861   4.676   1.826   2.443 -0.0210 -0.0559 -0.5520
 4801SOL    HW125862   4.624   1.870   2.509 -2.0894 -3.1177 -0.1634
 4801SOL    HW225863   0.035   1.812   2.487 -1.1681 -0.3984  1.5308
 4802SOL     OW25864   1.677   4.691   4.599  0.6169  1.0637  0.0010
 4802SOL    HW125865   1.727   0.029   4.650  0.4739  1.3103 -0.1656
 4802SOL    HW225866   1.711   4.705   4.510  1.3683  0.0554  0.1273
 4803SOL     OW25867   0.679   2.503   9.757 -0.2558  0.1058 -0.2658
 4803SOL    HW125868   0.772   2.484   9.771 -0.0903  2.2425  1.5533
 4803SOL    HW225869   0.643   2.428   9.804 -0.6986  0.7362  0.4139
 4804SOL     OW25870   2.104   2.326   3.847 -0.1513  0.3686 -0.5617
 4804SOL    HW125871   2.116   2.319   3.752 -3.8796  1.2654 -1.1187
 4804SOL    HW225872   2.014   2.359   3.846 -0.3145 -0.0087  1.5701
 4805SOL     OW25873   1.247   3.348   6.376 -0.6717 -0.4808 -0.0192
 4805SOL    HW125874   1.199   3.372   6.297 -0.0213  2.1528  0.3827
 4805SOL    HW225875   1.231   3.254   6.383  1.0849 -0.7683  0.1305
 4806SOL     OW25876   1.351   3.213   8.909 -0.1352 -0.0291  0.2360
 4806SOL    HW125877   1.294   3.238   8.836 -1.3634 -1.1945  0.8168
 4806SOL    HW225878   1.438   3.203   8.869  0.6402  1.3962  1.5464
 4807SOL     OW25879   1.724   3.972   9.399 -0.3396  0.1439  0.1235
 4807SOL    HW125880   1.657   4.000   9.337  0.3040 -3.8603 -2.4289
 4807SOL    HW225881   1.797   4.009   9.349 -0.1616 -1.7954 -1.0849
 4808SOL     OW25882   2.084   1.960   6.370 -0.4358  0.4543  0.0221
 4808SOL    HW125883   2.041   1.874   6.376 -1.8153  0.9733 -2.1882
 4808SOL    HW225884   2.171   1.931   6.341 -1.0712  0.2770 -1.7607
 4809SOL     OW25885   0.168   1.959   3.385 -0.1496  0.3556 -0.1702
 4809SOL    HW125886   0.223   1.923   3.455 -1.6958 -1.2562  0.2233
 4809SOL    HW225887   0.080   1.932   3.412  0.0631  0.6932  0.8271
 4810SOL     OW25888   0.375   1.549   0.710 -0.2583  0.1480 -0.0470
 4810SOL    HW125889   0.393   1.643   0.706 -0.2148  0.1189 -0.5673
 4810SOL    HW225890   0.376   1.528   0.616 -1.6487  0.7594 -0.2012
 4811SOL     OW25891   0.338   3.663   5.481 -0.0258 -0.2373  0.2718
 4811SOL    HW125892   0.269   3.678   5.546  1.2186  0.4691  1.4130
 4811SOL    HW225893   0.373   3.583   5.518 -0.4884 -1.2039 -1.3778
 4812SOL     OW25894   3.977   4.272  17.694  0.4200  0.1101  0.1507
 4812SOL    HW125895   4.014   4.191   0.026 -2.1002  0.2336  3.2760
 4812SOL    HW225896   4.022   4.287  17.612 -0.3550 -0.0774 -0.3133
 4813SOL     OW25897   2.007   4.710   9.325  0.5761  0.1428  0.1811
 4813SOL    HW125898   1.922   4.667   9.314 -0.3274  1.3680  2.4217
 4813SOL    HW225899   2.056   4.632   9.349 -1.2479 -1.4299 -1.2237
 4814SOL     OW25900   4.654   1.050   8.168 -0.1762 -0.1731 -0.1245
 4814SOL    HW125901   4.617   0.992   8.234  2.5418  0.6017  2.0414
 4814SOL    HW225902   4.590   1.121   8.176 -1.2427 -1.3832  1.8711
 4815SOL     OW25903   2.960   0.808   0.944  0.6756 -0.4419 -0.5715
 4815SOL    HW125904   2.943   0.869   0.872 -0.1432 -0.8595 -0.7353
 4815SOL    HW225905   2.947   0.862   1.022  0.6095 -0.8798 -0.2806
 4816SOL     OW25906   2.602   2.809   3.452  0.0075 -0.2319 -0.0176
 4816SOL    HW125907   2.572   2.744   3.515 -0.6151  0.4802  0.4190
 4816SOL    HW225908   2.590   2.888   3.504 -1.0563 -0.0805 -0.4921
 4817SOL     OW25909   3.925   3.073   6.653  0.1939  0.2657  0.3659
 4817SOL    HW125910   3.953   3.131   6.723 -2.5879  1.7734  0.2474
 4817SOL    HW225911   3.858   3.016   6.692  0.4984 -0.1466  0.2905
 4818SOL     OW25912   1.124   2.735   8.502  0.0729  0.6008  0.0718
 4818SOL    HW125913   1.047   2.739   8.559 -0.1447  1.8314 -0.3049
 4818SOL    HW225914   1.179   2.802   8.542  1.4244  1.2466 -2.8205
 4819SOL     OW25915   3.163   1.350   3.322  0.5239 -0.0191  0.2562
 4819SOL    HW125916   3.202   1.309   3.245  0.3802 -0.9432  0.6782
 4819SOL    HW225917   3.069   1.334   3.311  0.8184 -0.3421 -1.7917
 4820SOL     OW25918   0.382   2.829  17.527 -0.6029  0.5599  0.1857
 4820SOL    HW125919   0.362   2.897  17.592  2.1479  1.8234 -0.3084
 4820SOL    HW225920   0.457   2.785  17.567 -2.0807 -2.1339  0.0161
 4821SOL     OW25921   2.691   3.250   4.062 -0.2319 -0.3219  0.3816
 4821SOL    HW125922   2.609   3.205   4.083 -1.5484  2.0086  0.2307
 4821SOL    HW225923   2.657   3.299   3.986 -0.1158 -2.1195 -0.8233
 4822SOL     OW25924   0.721   4.270   5.568  0.3231 -0.5648  0.5156
 4822SOL    HW125925   0.762   4.354   5.548 -2.6939  0.6141 -0.5857
 4822SOL    HW225926   0.684   4.244   5.484  0.3927 -1.9133  0.9011
 4823SOL     OW25927   1.855   3.498   7.468 -0.5309 -0.1499  0.3244
 4823SOL    HW125928   1.839   3.426   7.407 -2.8817  1.0395 -0.4503
 4823SOL    HW225929   1.928   3.474   7.525 -1.0911  1.1055  1.5684
 4824SOL     OW25930   1.804   2.873   2.164  0.2390  0.4794  0.5647
 4824SOL    HW125931   1.760   2.949   2.126  0.9414  0.2768 -0.6507
 4824SOL    HW225932   1.770   2.804   2.106  1.3862  0.1868  0.2428
 4825SOL     OW25933   0.005   4.502   1.777  0.2124  0.5861 -0.1217
 4825SOL    HW125934   0.061   4.521   1.852 -0.3880  2.4544 -0.1372
 4825SOL    HW225935   4.649   4.544   1.805 -0.7756 -1.5624  0.2334
 4826SOL     OW25936   0.355   1.276   3.004  0.2430  0.3672  0.1268
 4826SOL    HW125937   0.416   1.207   3.032 -0.8054 -1.2220 -1.5130
 4826SOL    HW225938   0.309   1.286   3.088  0.6821 -0.1950  0.4404
 4827SOL     OW25939   4.010   0.877   3.435 -0.5162 -0.1854 -0.5677
 4827SOL    HW125940   3.964   0.942   3.489  1.0000 -0.2616  0.8264
 4827SOL    HW225941   3.958   0.879   3.354 -0.3130 -0.7097 -0.7089
 4828SOL     OW25942   2.127   4.237   8.531  0.2805 -0.3100 -0.3782
 4828SOL    HW125943   2.149   4.147   8.506  1.1692 -0.3240  0.4490
 4828SOL    HW225944   2.115   4.292   8.454  1.4376  0.9041  0.2920
 4829SOL     OW25945   2.025   1.751   3.219  0.1894  0.3990 -0.1001
 4829SOL    HW125946   1.991   1.662   3.213  0.5382  0.1480  1.5632
 4829SOL    HW225947   1.942   1.799   3.218  1.1936  2.2355  3.3456
 4830SOL     OW25948   3.788   4.679  16.641  0.5946 -0.4060  0.0885
 4830SOL    HW125949   3.880   4.685  16.617  0.3767 -0.4035 -0.7441
 4830SOL    HW225950   3.806   4.616  16.712 -0.6901  0.6348  1.3306
 4831SOL     OW25951   4.332   2.631   8.389 -0.6396 -0.0465 -0.0930
 4831SOL    HW125952   4.302   2.543   8.410 -0.7792  0.1115  0.3633
 4831SOL    HW225953   4.245   2.672   8.393 -0.2386  0.8827 -0.8972
 4832SOL     OW25954   3.787   4.609   2.633 -0.5234 -0.0171 -1.3317
 4832SOL    HW125955   3.859   4.570   2.682 -0.7701  2.1049  0.7120
 4832SOL    HW225956   3.712   4.594   2.690  1.1223  0.8273  1.0704
 4833SOL     OW25957   1.721   3.514   0.118 -0.1808 -0.7639 -0.1287
 4833SOL    HW125958   1.816   3.504   0.111 -0.1161  0.3350 -0.8339
 4833SOL    HW225959   1.683   3.440   0.073  1.0243 -1.9489  0.7960
 4834SOL     OW25960   1.832   0.883   2.265  0.5131  0.2104 -0.4739
 4834SOL    HW125961   1.755   0.941   2.266  1.0839  0.8954  3.1924
 4834SOL    HW225962   1.831   0.860   2.358 -1.3615 -1.9217 -1.0186
 4835SOL     OW25963   3.614   3.116  10.878 -0.3794 -0.3218 -0.0161
 4835SOL    HW125964   3.617   3.085  10.968 -0.0907  1.0154  0.4322
 4835SOL    HW225965   3.547   3.057  10.844 -1.1903  0.6770 -0.1403
 4836SOL     OW25966   3.569   1.181   2.984 -0.4953 -0.2184  0.1873
 4836SOL    HW125967   3.542   1.264   3.024  1.8542  0.8159 -0.3832
 4836SOL    HW225968   3.658   1.203   2.957 -0.5830 -0.8121 -0.5826
 4837SOL     OW25969   2.338   3.330  16.979  0.1652  0.2746 -0.4882
 4837SOL    HW125970   2.353   3.349  16.886  1.2352 -0.2879 -0.4204
 4837SOL    HW225971   2.416   3.359  17.026  1.5342 -1.0107 -1.9467
 4838SOL     OW25972   3.164   3.407   5.401  0.2768 -0.2400  0.6044
 4838SOL    HW125973   3.161   3.369   5.313  0.3948  0.1271  0.4410
 4838SOL    HW225974   3.071   3.416   5.420 -0.0378 -0.1499 -0.9973
 4839SOL     OW25975   3.591   2.665   1.427 -0.1790 -0.5883  0.1243
 4839SOL    HW125976   3.596   2.737   1.364  0.7018  0.2903  1.1945
 4839SOL    HW225977   3.507   2.681   1.470 -0.7491 -0.2960 -1.0881
 4840SOL     OW25978   3.617   3.845   2.533 -0.0167 -0.2880 -0.6314
 4840SOL    HW125979   3.691   3.898   2.562 -0.8051  0.1746  0.5151
 4840SOL    HW225980   3.601   3.882   2.446 -1.5409 -1.2509 -0.7641
 4841SOL     OW25981   2.695   0.709   4.086 -0.5034 -0.0477 -0.0932
 4841SOL    HW125982   2.737   0.653   4.021 -0.4123  0.5667 -0.5541
 4841SOL    HW225983   2.646   0.645   4.138 -1.3462  1.6946  1.2887
 4842SOL     OW25984   3.036   3.613   4.639 -0.0951 -0.1198 -0.1848
 4842SOL    HW125985   3.045   3.693   4.588  2.4946 -0.8477 -0.8754
 4842SOL    HW225986   2.962   3.582   4.588  0.1830 -0.7310 -0.2154
 4843SOL     OW25987   2.770   3.191   6.545  0.3459  0.1782 -0.5858
 4843SOL    HW125988   2.692   3.229   6.585  2.1430  1.0130  2.1027
 4843SOL    HW225989   2.744   3.194   6.452 -1.5692 -2.6433 -0.1143
 4844SOL     OW25990   2.402   0.109   7.913 -0.2206  0.0755 -0.4876
 4844SOL    HW125991   2.449   0.042   7.864 -1.5137  0.3043 -2.0717
 4844SOL    HW225992   2.451   0.187   7.884 -1.0307  0.4118 -0.9520
 4845SOL     OW25993   2.028   3.099  12.016  0.4392  0.6693  0.1481
 4845SOL    HW125994   2.080   3.040  12.070 -1.8398 -0.0371  1.5802
 4845SOL    HW225995   2.080   3.179  12.024  0.7758  0.4247  0.3946
 4846SOL     OW25996   2.374   1.172   0.778  0.2432 -0.6999 -0.0619
 4846SOL    HW125997   2.363   1.222   0.698 -0.4022 -0.7827 -0.0247
 4846SOL    HW225998   2.362   1.246   0.837 -1.3057  0.4254 -1.8119
 4847SOL     OW25999   1.106   1.002   5.728 -0.3595 -0.0350 -0.1292
 4847SOL    HW126000   1.122   1.072   5.792 -2.6483 -0.2740  0.6839
 4847SOL    HW226001   1.030   1.046   5.692 -1.8182 -2.7501 -0.3401
 4848SOL     OW26002   3.066   2.435   5.917 -0.1384 -0.0174 -0.1134
 4848SOL    HW126003   2.997   2.438   5.983 -1.1188 -1.6022 -1.0617
 4848SOL    HW226004   3.127   2.372   5.955 -1.8791 -1.3122  0.5547
 4849SOL     OW26005   2.741   4.722  16.053 -0.4702 -0.1746 -0.1741
 4849SOL    HW126006   2.804   4.650  16.054 -0.4690 -0.2048 -2.0561
 4849SOL    HW226007   2.790   0.079  16.058  1.6687 -1.2293 -3.4748
 4850SOL     OW26008   2.459   2.452   7.986 -0.3472  0.5848 -0.0232
 4850SOL    HW126009   2.378   2.453   8.036 -0.2196 -0.3353  0.1925
 4850SOL    HW226010   2.520   2.405   8.044  1.0381  2.2396 -0.1178
 4851SOL     OW26011   1.912   0.708   4.769 -0.2366  0.2345  0.1646
 4851SOL    HW126012   1.817   0.716   4.757 -0.3068  0.1709  0.6973
 4851SOL    HW226013   1.919   0.749   4.855  1.6814  1.0748 -0.3807
 4852SOL     OW26014   4.633   0.465   3.249 -0.1230 -0.3245 -0.1907
 4852SOL    HW126015   4.629   0.535   3.315  0.5293 -0.2521 -0.2231
 4852SOL    HW226016   4.717   0.481   3.206 -0.0451  2.5352  0.9587
 4853SOL     OW26017   1.561   1.832  11.095  0.4662  0.0970  0.3912
 4853SOL    HW126018   1.497   1.901  11.078  0.1815  0.2832  2.2123
 4853SOL    HW226019   1.646   1.876  11.092  0.3755  0.2021 -0.5518
 4854SOL     OW26020   2.550   0.600   2.318 -0.0570 -0.2898  0.3660
 4854SOL    HW126021   2.534   0.532   2.384 -0.6244  1.1058  1.6774
 4854SOL    HW226022   2.484   0.586   2.250  0.5528 -1.0235 -0.0710
 4855SOL     OW26023   0.908   4.288  10.227 -0.1228  0.4541  0.1977
 4855SOL    HW126024   0.904   4.376  10.265 -1.7126 -0.1162  1.3371
 4855SOL    HW226025   0.947   4.304  10.141  1.9805  2.2035  1.4610
 4856SOL     OW26026   3.509   2.416   1.820 -0.0166  0.2251 -0.2344
 4856SOL    HW126027   3.549   2.376   1.742 -1.1865 -0.7395 -0.3421
 4856SOL    HW226028   3.417   2.417   1.795  0.0953 -3.5486 -0.8182
 4857SOL     OW26029   0.890   0.180   5.007 -0.4549  0.0048 -0.2676
 4857SOL    HW126030   0.876   0.260   5.058 -0.4929 -1.7295  2.4569
 4857SOL    HW226031   0.981   0.153   5.017 -1.1240 -1.2970  2.3839
 4858SOL     OW26032   3.956   1.271   3.341 -0.0672  0.2193 -1.2106
 4858SOL    HW126033   4.037   1.251   3.295  0.8127  0.2230  0.3143
 4858SOL    HW226034   3.893   1.293   3.272 -1.0105  1.7406  0.1354
 4859SOL     OW26035   1.809   2.405  14.789  0.3791  0.1540  0.9755
 4859SOL    HW126036   1.782   2.464  14.719  0.6779  0.4096  1.0741
 4859SOL    HW226037   1.842   2.330  14.739  0.9095  0.3003  1.0952
 4860SOL     OW26038   4.277   1.891   2.082 -0.2664 -0.2133 -0.0292
 4860SOL    HW126039   4.262   1.959   2.016  0.4882  1.0150  1.0628
 4860SOL    HW226040   4.364   1.909   2.117  0.0273 -1.9386  0.1083
 4861SOL     OW26041   0.036   3.062   6.338 -0.1408 -0.0825 -0.3615
 4861SOL    HW126042   0.129   3.039   6.332  0.2100  0.6520  2.5550
 4861SOL    HW226043   4.725   2.989   6.287 -0.2737 -0.5605  0.4183
 4862SOL     OW26044   1.059   1.867   2.470 -0.2630 -0.3230  0.0632
 4862SOL    HW126045   0.997   1.939   2.483 -0.0386 -0.6634  2.9427
 4862SOL    HW226046   1.106   1.903   2.395  0.3667  0.2037  0.7116
 4863SOL     OW26047   0.332   2.042  12.539  0.1541 -0.1075  0.2632
 4863SOL    HW126048   0.323   1.962  12.488 -0.9649 -0.8339  1.5955
 4863SOL    HW226049   0.339   1.999  12.624 -0.4514 -0.4051  0.1603
 4864SOL     OW26050   0.234   0.705   4.375  0.1368 -0.0447  0.5974
 4864SOL    HW126051   0.155   0.678   4.422 -0.0945  0.6680  0.6183
 4864SOL    HW226052   0.200   0.684   4.288 -0.3942  2.3084  0.2461
 4865SOL     OW26053   4.498   3.309  16.182 -0.2363  0.3170 -0.1142
 4865SOL    HW126054   4.406   3.317  16.208 -0.3999 -2.1113  0.0540
 4865SOL    HW226055   4.527   3.228  16.226 -0.4014 -0.4136 -1.3671
 4866SOL     OW26056   2.422   2.463   5.926  0.1446 -0.4066  0.4338
 4866SOL    HW126057   2.376   2.526   5.871 -0.5561 -0.6290  0.7567
 4866SOL    HW226058   2.399   2.386   5.875 -1.3803  0.7461 -0.6290
 4867SOL     OW26059   2.768   0.923  10.113 -0.6364 -0.1715 -0.3627
 4867SOL    HW126060   2.689   0.906  10.165 -0.8564  0.7439 -0.3877
 4867SOL    HW226061   2.801   0.834  10.120 -0.7672 -0.0974  1.1654
 4868SOL     OW26062   0.264   1.352   0.348  0.0616  0.0953  0.6246
 4868SOL    HW126063   0.284   1.300   0.425 -2.7691  0.2276  1.4457
 4868SOL    HW226064   0.333   1.418   0.353 -0.5806  0.6784  1.7338
 4869SOL     OW26065   3.654   1.167   1.934 -1.0707 -0.8397 -0.4580
 4869SOL    HW126066   3.602   1.239   1.972 -0.2854 -0.7694  0.4820
 4869SOL    HW226067   3.731   1.212   1.899 -2.2630  0.0864 -1.9201
 4870SOL     OW26068   2.077   4.114   6.121  0.3322  0.3044  0.2452
 4870SOL    HW126069   2.118   4.028   6.112 -0.8085 -0.3334  1.1123
 4870SOL    HW226070   2.071   4.115   6.217 -3.4613  1.6028 -0.0220
 4871SOL     OW26071   0.606   4.389   4.665 -0.9625  0.0199  0.4563
 4871SOL    HW126072   0.559   4.472   4.670 -0.2610  0.4742 -0.5155
 4871SOL    HW226073   0.613   4.354   4.754  0.4679  1.0726  0.7630
 4872SOL     OW26074   0.226   0.978   2.876  0.1204  0.0828 -0.0265
 4872SOL    HW126075   0.210   1.024   2.793  0.2255 -1.2791 -0.7929
 4872SOL    HW226076   0.152   1.018   2.921 -0.0904  0.5041 -0.7530
 4873SOL     OW26077   3.269   0.119   5.169  0.4103  0.0162 -0.2353
 4873SOL    HW126078   3.199   0.109   5.105 -0.7710 -1.6024  1.2956
 4873SOL    HW226079   3.270   0.028   5.200 -0.0564 -0.0619 -0.4564
 4874SOL     OW26080   0.280   3.561  11.287 -0.3915 -0.6572 -0.5957
 4874SOL    HW126081   0.190   3.533  11.272 -0.4903 -1.6443  1.8091
 4874SOL    HW226082   0.314   3.561  11.197  0.3055  0.5663 -0.3396
 4875SOL     OW26083   3.036   4.245   1.611  0.7158 -0.1912 -0.1363
 4875SOL    HW126084   2.981   4.246   1.690 -0.0301 -1.1558 -0.6550
 4875SOL    HW226085   3.065   4.154   1.604  3.0257  0.5133  0.2255
 4876SOL     OW26086   3.102   3.040  12.927  0.1195  0.4998 -0.3801
 4876SOL    HW126087   3.071   2.962  12.971 -0.8659  1.0235 -0.1420
 4876SOL    HW226088   3.167   3.012  12.862  0.0103 -0.2450 -0.1662
 4877SOL     OW26089   0.778   2.971  15.373 -0.1131  0.0350 -0.3479
 4877SOL    HW126090   0.765   3.064  15.391  1.7205  0.0507  0.9120
 4877SOL    HW226091   0.771   2.965  15.278  0.5903 -0.5404 -0.3622
 4878SOL     OW26092   1.574   4.632  13.109 -0.1983 -0.2826  0.2382
 4878SOL    HW126093   1.541   4.551  13.148  2.1155 -1.0884  0.4901
 4878SOL    HW226094   1.619   4.667  13.185 -2.4137 -2.9284  2.7461
 4879SOL     OW26095   0.466   0.502   0.596  0.5823 -0.3537  0.0620
 4879SOL    HW126096   0.453   0.562   0.670  1.9385  1.2133 -0.9708
 4879SOL    HW226097   0.380   0.511   0.555  0.6969  1.0687  0.1152
 4880SOL     OW26098   1.211   1.842   6.517  0.3443 -0.4184  0.4065
 4880SOL    HW126099   1.225   1.868   6.608  1.2883  3.4111 -0.8507
 4880SOL    HW226100   1.304   1.852   6.499  0.3640  0.3657  0.9394
 4881SOL     OW26101   3.793   0.152   3.293  0.3563  0.0945  0.4513
 4881SOL    HW126102   3.734   0.221   3.264  0.0807  0.2304  1.3494
 4881SOL    HW226103   3.865   0.156   3.229 -0.3888  0.6212 -0.3526
 4882SOL     OW26104   0.410   0.487   1.127 -0.1109  0.1831 -0.6118
 4882SOL    HW126105   0.473   0.415   1.132  0.3192  0.4911 -1.6004
 4882SOL    HW226106   0.369   0.466   1.043 -1.3706 -2.2926  0.6031
 4883SOL     OW26107   4.687   3.457  16.297 -0.3905  0.0100 -0.6839
 4883SOL    HW126108   4.607   3.438  16.249 -3.1540  1.6711  3.3135
 4883SOL    HW226109   4.655   3.488  16.382 -0.6586 -2.2164  0.0212
 4884SOL     OW26110   3.381   1.385   4.287 -0.0830  0.3188 -0.5945
 4884SOL    HW126111   3.355   1.407   4.198  0.2873 -2.2053 -1.3042
 4884SOL    HW226112   3.295   1.386   4.330  0.4734 -0.4822  0.5354
 4885SOL     OW26113   1.425   3.691   1.923  0.0789 -0.5116  0.3800
 4885SOL    HW126114   1.456   3.648   2.003  3.2443 -1.6830 -1.4854
 4885SOL    HW226115   1.504   3.744   1.910 -0.1872  0.0216  0.9177
 4886SOL     OW26116   1.584   0.740  12.271 -0.7110  0.0330 -0.0034
 4886SOL    HW126117   1.666   0.706  12.235 -0.6742  1.7507 -1.5557
 4886SOL    HW226118   1.584   0.680  12.345  1.8155 -0.4394 -0.3693
 4887SOL     OW26119   3.428   3.641   3.340 -0.4646 -0.3450  0.1801
 4887SOL    HW126120   3.499   3.600   3.390  1.1535  2.3721  0.1003
 4887SOL    HW226121   3.453   3.734   3.331  0.7809 -0.5021  1.8321
 4888SOL     OW26122   2.411   3.865   9.003 -0.3219  0.0988 -0.7794
 4888SOL    HW126123   2.398   3.945   8.952 -0.3095 -1.2514 -2.8906
 4888SOL    HW226124   2.320   3.835   9.008 -0.3893  0.3404 -0.5487
 4889SOL     OW26125   1.890   3.433   1.780  0.5618 -0.0400  1.0311
 4889SOL    HW126126   1.833   3.357   1.793  0.6231 -0.5846 -2.1038
 4889SOL    HW226127   1.939   3.404   1.704  0.7820 -2.1528  1.9654
 4890SOL     OW26128   3.086   0.720   7.808 -0.0054 -0.2619 -0.4020
 4890SOL    HW126129   3.050   0.631   7.813  3.4274 -1.4728  3.4482
 4890SOL    HW226130   3.024   0.762   7.868  0.9449  0.5897 -0.0317
 4891SOL     OW26131   0.585   3.018   5.872  0.1492  0.1429  0.5658
 4891SOL    HW126132   0.498   2.978   5.866  0.1125  0.2972  0.0501
 4891SOL    HW226133   0.623   3.013   5.784  3.0867 -1.2233  1.9163
 4892SOL     OW26134   4.670   2.513   0.738  0.2077 -0.2331 -0.3773
 4892SOL    HW126135   4.631   2.544   0.820 -1.2355 -0.8158 -0.8523
 4892SOL    HW226136   4.590   2.516   0.687 -0.1843 -2.3265  0.1265
 4893SOL     OW26137   3.224   1.297   2.064  0.2908 -0.1052  0.0339
 4893SOL    HW126138   3.132   1.291   2.040  0.5978 -1.7536 -0.7656
 4893SOL    HW226139   3.248   1.373   2.012 -0.9288 -0.3214 -0.8351
 4894SOL     OW26140   2.042   2.980   3.801 -0.5817  0.2864  0.3616
 4894SOL    HW126141   1.948   2.992   3.817 -0.5125 -0.2239  1.1463
 4894SOL    HW226142   2.057   2.949   3.712 -0.0459  0.1398  0.5013
 4895SOL     OW26143   0.392   4.407   6.282  0.0735 -0.1478 -0.4863
 4895SOL    HW126144   0.475   4.395   6.328 -1.4023 -1.9961  1.7127
 4895SOL    HW226145   0.355   4.319   6.287  1.8300 -0.8348  0.6049
 4896SOL     OW26146   1.562   4.435   1.988  0.8911 -0.4408  0.0015
 4896SOL    HW126147   1.510   4.373   2.038 -1.9580  1.6657 -0.3524
 4896SOL    HW226148   1.654   4.424   2.013  1.1560  1.1762 -0.2286
 4897SOL     OW26149   2.393   1.058   7.973  0.4645 -0.0547 -0.0630
 4897SOL    HW126150   2.434   1.074   8.058 -0.3193  0.6518  0.1845
 4897SOL    HW226151   2.303   1.059   8.007  0.8703 -0.5862  1.0259
 4898SOL     OW26152   1.393   4.415   4.321 -0.7060  0.0226  0.0962
 4898SOL    HW126153   1.445   4.481   4.274 -1.2467  0.0580 -0.4496
 4898SOL    HW226154   1.407   4.433   4.414  3.0295  0.7488 -0.5999
 4899SOL     OW26155   1.906   0.348  15.969 -0.0747 -0.4789 -0.4085
 4899SOL    HW126156   1.966   0.292  15.919  0.7158 -0.5216  0.5850
 4899SOL    HW226157   1.913   0.427  15.916  2.2509 -0.0255  0.5761
 4900SOL     OW26158   3.323   0.381   3.211 -0.1231 -0.1755  0.5608
 4900SOL    HW126159   3.231   0.386   3.184 -0.5490  0.6537  2.1839
 4900SOL    HW226160   3.357   0.358   3.125 -0.9348 -0.7432  0.3862
 4901SOL     OW26161   2.713   0.371  15.958  0.3874 -0.6053  0.3326
 4901SOL    HW126162   2.740   0.331  15.876  1.2991 -0.2069  0.4365
 4901SOL    HW226163   2.706   0.461  15.929 -2.3910 -0.0025  2.8112
 4902SOL     OW26164   3.647   3.721   1.059 -0.5338 -0.1759  0.1783
 4902SOL    HW126165   3.737   3.751   1.051 -0.8698  1.0726  1.2042
 4902SOL    HW226166   3.616   3.737   0.970 -1.7805 -0.5959  0.5322
 4903SOL     OW26167   1.909   2.752   4.784 -0.3993  0.2249  0.1329
 4903SOL    HW126168   1.994   2.730   4.824  0.4514 -1.1522 -2.3517
 4903SOL    HW226169   1.881   2.661   4.772  1.1671 -0.0285 -1.7579
 4904SOL     OW26170   2.780   2.699   8.778 -0.3766  0.3639 -0.1182
 4904SOL    HW126171   2.789   2.634   8.849  2.1457  2.7841  1.7851
 4904SOL    HW226172   2.685   2.692   8.777 -0.1919 -2.0303 -0.1086
 4905SOL     OW26173   0.525   1.837   8.332  0.0481 -0.2953 -0.4194
 4905SOL    HW126174   0.443   1.802   8.297 -0.8310 -0.4288  1.7865
 4905SOL    HW226175   0.507   1.832   8.426  0.7719  1.0474 -0.2069
 4906SOL     OW26176   0.757   3.326   4.758  0.0858  0.7244 -0.0773
 4906SOL    HW126177   0.833   3.268   4.766  1.2569  2.1180 -1.0901
 4906SOL    HW226178   0.707   3.310   4.838 -0.3915  0.4170 -0.4396
 4907SOL     OW26179   2.610   3.933   2.729 -0.2065 -0.1202  0.3653
 4907SOL    HW126180   2.540   3.937   2.663  0.6070  0.8314 -0.4505
 4907SOL    HW226181   2.687   3.931   2.673  0.3449 -0.6198  1.1446
 4908SOL     OW26182   0.643   2.053   8.207  0.2943 -0.0744  0.0461
 4908SOL    HW126183   0.606   2.007   8.283  0.9756 -0.3244  0.2289
 4908SOL    HW226184   0.711   2.102   8.252 -0.7981  1.0038  0.5421
 4909SOL     OW26185   1.774   0.516   5.638 -0.0709 -0.3713 -0.1166
 4909SOL    HW126186   1.728   0.547   5.716 -1.9505 -1.1035 -0.9309
 4909SOL    HW226187   1.867   0.513   5.659 -0.8326 -1.9708  2.9817
 4910SOL     OW26188   0.919   3.086   4.536 -0.1338  0.7647 -0.3808
 4910SOL    HW126189   0.885   3.165   4.494 -0.8135  0.4377 -0.4387
 4910SOL    HW226190   0.987   3.069   4.471 -0.0729  0.9617 -0.3665
 4911SOL     OW26191   1.093   2.950  13.419 -0.2892 -0.2411  0.0054
 4911SOL    HW126192   1.084   2.956  13.324  0.5053  0.8579 -0.0002
 4911SOL    HW226193   1.120   2.859  13.434  2.0479  0.2125 -1.3787
 4912SOL     OW26194   0.998   1.814   6.334 -0.2155  0.0455  0.2230
 4912SOL    HW126195   0.911   1.809   6.374 -0.7678 -0.0382 -0.9951
 4912SOL    HW226196   1.049   1.837   6.412 -1.3095  0.3356  0.8659
 4913SOL     OW26197   3.147   4.569   8.244  0.1496 -0.0136 -0.3568
 4913SOL    HW126198   3.062   4.599   8.276 -0.1626  0.1901 -1.3784
 4913SOL    HW226199   3.203   4.629   8.294 -0.8793  2.2749 -1.9399
 4914SOL     OW26200   3.764   2.729   5.646  0.0529 -0.6439 -0.0501
 4914SOL    HW126201   3.797   2.775   5.569 -2.3537  0.4947 -0.4025
 4914SOL    HW226202   3.712   2.796   5.689  0.7762  2.3385 -3.8607
 4915SOL     OW26203   1.841   3.870   6.621  0.5951  0.1278  0.1709
 4915SOL    HW126204   1.776   3.906   6.561 -0.2345  0.0239  1.0126
 4915SOL    HW226205   1.791   3.882   6.701  0.6682 -1.8721  0.5208
 4916SOL     OW26206   3.507   2.367  12.656  0.5244  0.2848 -0.3878
 4916SOL    HW126207   3.420   2.389  12.689  0.1595 -2.5382  0.5777
 4916SOL    HW226208   3.557   2.441  12.691  1.0549  0.8744 -2.4018
 4917SOL     OW26209   4.259   3.926   0.737 -0.0480 -0.3163  0.2274
 4917SOL    HW126210   4.325   3.995   0.741 -0.0952 -0.2864  0.5103
 4917SOL    HW226211   4.197   3.951   0.806 -1.7829  0.2385 -1.5319
 4918SOL     OW26212   0.439   3.875   3.754 -0.5285  0.4433 -0.4124
 4918SOL    HW126213   0.479   3.960   3.737 -2.3136  1.2882 -0.3732
 4918SOL    HW226214   0.349   3.897   3.731 -1.1408 -1.7327 -0.1289
 4919SOL     OW26215   1.668   4.643  16.083 -0.2496  0.3027 -0.5344
 4919SOL    HW126216   1.748   4.654  16.032  1.0311  1.1754  1.6227
 4919SOL    HW226217   1.646   0.011  16.090 -0.6112  0.2304 -0.7682
 4920SOL     OW26218   2.654   0.143   7.739  0.2897  0.3375  0.3385
 4920SOL    HW126219   2.576   0.135   7.684  1.9968 -1.1678 -1.8676
 4920SOL    HW226220   2.722   0.119   7.675  0.0376  3.4397 -1.0865
 4921SOL     OW26221   0.032   0.914   7.913 -0.2398  0.9224 -0.1938
 4921SOL    HW126222   0.000   0.900   7.823 -1.7951 -1.0772  0.6733
 4921SOL    HW226223   4.691   0.978   7.937 -0.5649  0.3489  0.4213
 4922SOL     OW26224   4.505   3.711  10.158  0.3770  0.1968 -0.3444
 4922SOL    HW126225   4.531   3.629  10.116  0.4790  0.0780 -0.0481
 4922SOL    HW226226   4.586   3.757  10.181  0.8822 -0.4663 -0.7737
 4923SOL     OW26227   2.523   3.392   7.667  0.1054  0.3980 -0.3351
 4923SOL    HW126228   2.556   3.330   7.603 -2.4587  0.1571 -1.4237
 4923SOL    HW226229   2.429   3.379   7.653 -0.1350  2.8030 -0.9356
 4924SOL     OW26230   1.941   0.100   5.559  0.2430 -0.3617  0.3202
 4924SOL    HW126231   1.875   0.110   5.628  0.3195 -1.4482  0.5393
 4924SOL    HW226232   1.970   0.191   5.549  0.1641 -0.3520  0.1711
 4925SOL     OW26233   3.971   1.815   1.948 -0.3129 -0.2216  0.2903
 4925SOL    HW126234   4.057   1.856   1.942 -0.7577  0.7503  0.6382
 4925SOL    HW226235   3.952   1.801   1.855  0.6717  1.1076 -0.0994
 4926SOL     OW26236   2.750   0.840  14.815 -0.4703  0.7225  0.1771
 4926SOL    HW126237   2.686   0.773  14.839 -0.4416  0.2857 -0.9858
 4926SOL    HW226238   2.740   0.839  14.720 -0.3056  0.7997  0.1582
 4927SOL     OW26239   0.382   4.163   9.461 -0.0549  0.2131 -0.3584
 4927SOL    HW126240   0.389   4.131   9.551  1.2329 -1.7174 -1.1456
 4927SOL    HW226241   0.450   4.108   9.421 -0.0828  0.1584 -0.3297
 4928SOL     OW26242   4.192   0.370   6.166  0.2545 -0.3740 -0.5958
 4928SOL    HW126243   4.275   0.351   6.123  0.9602 -1.6371  1.3436
 4928SOL    HW226244   4.125   0.359   6.098 -0.5306 -1.2772  0.3353
 4929SOL     OW26245   0.693   3.603   4.688 -0.3574  0.1442  0.1769
 4929SOL    HW126246   0.734   3.520   4.713 -0.8882 -0.0544  0.4085
 4929SOL    HW226247   0.606   3.591   4.728 -0.6964 -2.5821 -1.3769
 4930SOL     OW26248   3.824   3.416   6.748 -0.0074 -0.2903  0.1172
 4930SOL    HW126249   3.751   3.452   6.698 -1.1138 -2.3938  0.2470
 4930SOL    HW226250   3.771   3.369   6.813  0.1537 -0.2219  0.2975
 4931SOL     OW26251   1.698   1.029  13.738  0.2035  0.3903  0.0597
 4931SOL    HW126252   1.792   1.038  13.751  0.5618 -1.7127 -1.0050
 4931SOL    HW226253   1.688   1.081  13.659  0.4019  0.4121  0.0502
 4932SOL     OW26254   1.573   0.345   3.107  0.3202  0.3707 -0.2708
 4932SOL    HW126255   1.665   0.350   3.133 -0.2675  2.1417  1.4683
 4932SOL    HW226256   1.583   0.345   3.012  0.5386  0.5934 -0.2454
 4933SOL     OW26257   1.280   3.707   2.363 -0.2748  0.0525  0.6759
 4933SOL    HW126258   1.208   3.645   2.354  0.4193 -0.8210  1.0382
 4933SOL    HW226259   1.255   3.739   2.450  0.8951  2.7915  0.0061
 4934SOL     OW26260   1.394   0.692   3.502 -0.9163  0.5257  0.2800
 4934SOL    HW126261   1.303   0.695   3.531 -0.6977 -0.6299  1.0481
 4934SOL    HW226262   1.408   0.610   3.456 -1.1495 -1.2935  3.4984
 4935SOL     OW26263   3.919   4.610   3.940 -0.3281  0.3136 -0.4652
 4935SOL    HW126264   4.000   4.566   3.915 -0.3964 -0.2209  0.2380
 4935SOL    HW226265   3.946   4.625   4.031  2.6884 -1.1741 -1.0923
 4936SOL     OW26266   2.962   0.380   6.120  0.2527  0.1912  0.0735
 4936SOL    HW126267   3.028   0.369   6.189 -0.0739  1.2052  0.5521
 4936SOL    HW226268   2.921   0.457   6.159 -0.0916  0.8361 -1.5759
 4937SOL     OW26269   1.712   2.891   5.455 -0.2907  0.2892 -0.1330
 4937SOL    HW126270   1.642   2.912   5.517 -0.8027 -0.1377 -0.5582
 4937SOL    HW226271   1.780   2.857   5.513 -1.3107 -1.3829  0.0792
 4938SOL     OW26272   0.006   2.397   7.524  0.0792 -0.1303  0.1760
 4938SOL    HW126273   0.071   2.349   7.472  1.3978  0.4949  1.2253
 4938SOL    HW226274   0.011   2.486   7.490 -2.5026  0.4572  1.3358
 4939SOL     OW26275   3.625   0.252   7.507 -0.4271 -0.7747  0.6527
 4939SOL    HW126276   3.607   0.284   7.595 -1.6600  1.9227 -0.5611
 4939SOL    HW226277   3.600   0.324   7.448  0.0377 -1.6955 -0.6770
 4940SOL     OW26278   3.235   0.186   7.172 -0.1071 -0.4546  0.4868
 4940SOL    HW126279   3.168   0.212   7.235 -2.2280  1.3124 -2.4786
 4940SOL    HW226280   3.289   0.261   7.146 -0.1072 -0.4203  0.5862
 4941SOL     OW26281   2.432   2.957   6.771  0.2992  0.1155 -0.7859
 4941SOL    HW126282   2.515   3.003   6.759  0.4079 -0.0107 -0.5149
 4941SOL    HW226283   2.450   2.941   6.864  0.5932  0.0253 -0.8581
 4942SOL     OW26284   0.056   3.182  13.391 -0.2322 -0.2623  0.4094
 4942SOL    HW126285   0.053   3.271  13.426 -1.6598  0.3377 -1.2636
 4942SOL    HW226286   0.044   3.129  13.470 -0.1242  0.1436  0.7030
 4943SOL     OW26287   1.968   0.286   2.786 -0.0834  0.2628  0.7192
 4943SOL    HW126288   1.980   0.308   2.694  1.2456  0.2771  0.8944
 4943SOL    HW226289   2.023   0.351   2.831  0.7863  0.9530 -1.3439
 4944SOL     OW26290   0.474   4.612   4.677 -0.5836  0.5477  0.3039
 4944SOL    HW126291   0.434   4.690   4.639  0.2374  0.7574 -0.1280
 4944SOL    HW226292   0.497   4.646   4.763  1.3733 -2.2276  0.8764
 4945SOL     OW26293   4.019   3.698   3.038 -0.2289 -0.2240 -0.3658
 4945SOL    HW126294   3.998   3.713   2.946  1.6838  1.3068 -0.5298
 4945SOL    HW226295   3.936   3.687   3.085  1.2767 -0.9068  2.1319
 4946SOL     OW26296   4.654   3.140   4.391  0.2639 -0.2764 -0.1558
 4946SOL    HW126297   4.705   3.215   4.361  0.8541 -0.9450 -0.8368
 4946SOL    HW226298   4.628   3.169   4.478 -1.0775  0.3586 -0.7713
 4947SOL     OW26299   2.809   3.954   6.485 -0.0482 -0.1248  0.2306
 4947SOL    HW126300   2.786   4.038   6.523 -1.5717  0.3032 -1.6677
 4947SOL    HW226301   2.741   3.903   6.529 -1.0545  0.8796 -0.1744
 4948SOL     OW26302   3.676   3.084   4.888 -0.0664 -0.0645  0.1508
 4948SOL    HW126303   3.696   3.133   4.809 -2.5701  0.2403 -0.2951
 4948SOL    HW226304   3.583   3.079   4.864  0.6186  3.6314 -3.1129
 4949SOL     OW26305   1.029   3.856   0.238 -0.2032  0.1090  0.0562
 4949SOL    HW126306   1.029   3.770   0.281 -0.5302 -0.0179 -0.1927
 4949SOL    HW226307   0.965   3.902   0.291 -1.0425  0.3431 -1.1726
 4950SOL     OW26308   3.115   4.657   5.894  0.1796 -0.9143  0.1553
 4950SOL    HW126309   3.073   4.590   5.946 -0.1746 -1.8864 -1.3806
 4950SOL    HW226310   3.088   4.629   5.806 -0.6641 -0.6755  0.3396
 4951SOL     OW26311   1.134   3.138   8.356 -0.7508  0.2716 -0.9027
 4951SOL    HW126312   1.147   3.226   8.323 -0.1191  0.3209 -0.5272
 4951SOL    HW226313   1.122   3.096   8.271 -0.2847 -0.3023 -0.6863
 4952SOL     OW26314   1.705   3.175   8.132 -0.0466 -0.3005 -0.5573
 4952SOL    HW126315   1.663   3.176   8.045 -1.2479 -1.3975  0.0219
 4952SOL    HW226316   1.797   3.164   8.107  0.2213  2.2268 -0.7166
 4953SOL     OW26317   4.228   3.494  10.584 -0.4174 -0.3786  0.0119
 4953SOL    HW126318   4.193   3.437  10.516 -0.9536 -0.8710  0.7054
 4953SOL    HW226319   4.296   3.448  10.632  1.7000  0.5530 -2.0990
 4954SOL     OW26320   2.872   4.692   0.504  0.9890 -0.1117  0.1768
 4954SOL    HW126321   2.817   0.045   0.496 -1.4235 -1.8165 -0.0388
 4954SOL    HW226322   2.895   4.700   0.596 -1.5698  0.1205  0.8055
 4955SOL     OW26323   1.978   0.226  11.330 -0.6162 -0.2881  0.3326
 4955SOL    HW126324   1.929   0.274  11.263 -3.3833  0.2607  2.7456
 4955SOL    HW226325   1.957   0.270  11.412 -0.3733  1.5728 -0.6034
 4956SOL     OW26326   2.038   4.318   2.166  0.0645 -0.2148  0.7248
 4956SOL    HW126327   2.087   4.255   2.113 -1.4329 -0.7319 -0.0406
 4956SOL    HW226328   2.093   4.327   2.244  2.0432  0.3407 -0.7197
 4957SOL     OW26329   0.790   3.176  11.727 -0.1701 -0.2968  0.3748
 4957SOL    HW126330   0.793   3.107  11.660 -2.5668  0.3762 -0.4230
 4957SOL    HW226331   0.821   3.255  11.683  2.1684 -0.7051  1.3239
 4958SOL     OW26332   2.947   4.573   7.561 -0.1008 -0.0231 -0.0798
 4958SOL    HW126333   3.005   4.523   7.504 -1.4179 -1.6187 -0.0327
 4958SOL    HW226334   2.972   4.547   7.649 -1.6965  0.5790  0.5570
 4959SOL     OW26335   3.516   0.754   7.524  0.3566  0.0157  0.4866
 4959SOL    HW126336   3.456   0.710   7.584  0.0800 -2.4534 -1.5572
 4959SOL    HW226337   3.545   0.834   7.567 -0.9353 -0.1194  1.5857
 4960SOL     OW26338   1.781   3.942   5.408 -0.2813  0.0926  0.2024
 4960SOL    HW126339   1.791   3.907   5.497 -0.5258  1.1706  0.6515
 4960SOL    HW226340   1.687   3.954   5.414 -0.3219 -0.1385  0.0039
 4961SOL     OW26341   0.579   3.212   8.082 -0.2003 -0.1406  0.1143
 4961SOL    HW126342   0.501   3.184   8.129 -0.5428  1.0022  0.2216
 4961SOL    HW226343   0.610   3.284   8.137  1.5363 -0.1166 -0.8864
 4962SOL     OW26344   2.487   0.467   6.181 -0.0064  0.2438 -0.5119
 4962SOL    HW126345   2.439   0.403   6.128 -0.6444 -2.2551  3.0792
 4962SOL    HW226346   2.554   0.415   6.226 -2.4221 -1.5240  1.0533
 4963SOL     OW26347   1.976   0.377   5.848 -0.0563  0.1612 -0.1858
 4963SOL    HW126348   1.909   0.381   5.917 -1.0228  0.9216 -1.1725
 4963SOL    HW226349   2.039   0.313   5.882  0.3127  1.0306  0.7816
 4964SOL     OW26350   4.307   0.117  14.947  0.6182  0.0891  0.1042
 4964SOL    HW126351   4.219   0.111  14.984  1.0299  0.2880  1.1089
 4964SOL    HW226352   4.298   0.080  14.859  3.0067 -1.0044  0.3253
 4965SOL     OW26353   3.235   3.522   9.230 -0.5238 -0.4938  0.0806
 4965SOL    HW126354   3.316   3.531   9.180 -0.0801 -1.1741  0.6749
 4965SOL    HW226355   3.271   3.502   9.317 -1.2770 -0.2662  0.4456
 4966SOL     OW26356   0.159   4.449   4.344  0.5004  0.3665 -0.1065
 4966SOL    HW126357   0.187   4.407   4.426  0.3524  0.3293 -0.0753
 4966SOL    HW226358   0.198   4.535   4.360 -1.1049  1.1671 -0.4826
 4967SOL     OW26359   1.896   2.737  16.779  0.4908 -0.0172 -0.0335
 4967SOL    HW126360   1.924   2.827  16.766 -2.9218  0.9808 -0.4026
 4967SOL    HW226361   1.892   2.733  16.874  0.1002  1.6032  0.0113
 4968SOL     OW26362   0.486   3.066   1.753  0.4777 -0.2789  0.5980
 4968SOL    HW126363   0.415   3.007   1.727  0.3948  0.2314 -0.3489
 4968SOL    HW226364   0.498   3.114   1.671 -1.9326 -1.1421 -0.2707
 4969SOL     OW26365   4.287   1.331   7.150  0.5749 -0.0065 -1.1497
 4969SOL    HW126366   4.230   1.258   7.126 -0.2172  0.4117 -0.5275
 4969SOL    HW226367   4.235   1.407   7.124  1.6765  0.8480 -0.8665
 4970SOL     OW26368   1.502   0.605  13.517 -0.1890  0.0492  0.4935
 4970SOL    HW126369   1.424   0.658  13.507  0.3045  0.8500  0.8807
 4970SOL    HW226370   1.530   0.655  13.594  1.4347  1.7314 -1.2016
 4971SOL     OW26371   3.326   4.287   4.287 -0.1278 -0.0984  0.7129
 4971SOL    HW126372   3.275   4.369   4.287  0.6469  0.3828 -0.3435
 4971SOL    HW226373   3.262   4.219   4.308  0.5227 -0.5838  1.1061
 4972SOL     OW26374   1.146   4.246   8.680 -0.1017 -0.0814  0.6652
 4972SOL    HW126375   1.115   4.314   8.740 -1.0344 -0.6175  0.7878
 4972SOL    HW226376   1.199   4.297   8.619 -0.7087  0.5875  0.7001
 4973SOL     OW26377   3.827   0.229   5.804  0.1538  0.3237 -0.2794
 4973SOL    HW126378   3.842   0.302   5.864 -0.7147  0.3692 -0.1199
 4973SOL    HW226379   3.768   0.263   5.737  0.4846  0.1347 -0.6714
 4974SOL     OW26380   4.606   2.129   6.173 -0.7506  0.0857 -0.1391
 4974SOL    HW126381   4.610   2.186   6.250 -0.6966  0.5409 -0.4768
 4974SOL    HW226382   4.693   2.140   6.133 -0.8272 -0.6943 -0.5301
 4975SOL     OW26383   1.698   2.141  10.976 -0.3052  0.4719 -0.3069
 4975SOL    HW126384   1.657   2.226  10.994 -1.1331 -0.0593  0.3154
 4975SOL    HW226385   1.631   2.084  11.014  1.6416 -3.8762 -3.4152
 4976SOL     OW26386   1.781   3.866   8.897  0.0828 -0.0482 -0.3920
 4976SOL    HW126387   1.833   3.820   8.962 -0.3281 -1.5013 -1.0874
 4976SOL    HW226388   1.844   3.880   8.826  0.5941 -1.3804 -0.1966
 4977SOL     OW26389   2.206   1.278   2.589 -0.4089 -0.0619 -0.0500
 4977SOL    HW126390   2.143   1.280   2.518 -0.3733 -1.1384 -0.1093
 4977SOL    HW226391   2.254   1.197   2.573 -1.6265 -0.7711 -0.1192
 4978SOL     OW26392   2.070   3.309   8.220 -0.6226 -0.0694 -0.0719
 4978SOL    HW126393   2.083   3.395   8.179 -3.0458 -0.3301 -1.3963
 4978SOL    HW226394   2.160   3.301   8.252 -1.6063 -1.2930  2.3943
 4979SOL     OW26395   2.054   3.965   0.711 -0.4601  0.3902  0.9658
 4979SOL    HW126396   2.020   4.052   0.729 -3.0960 -0.1595 -1.2343
 4979SOL    HW226397   2.000   3.925   0.642 -0.2534  1.4547  0.1814
 4980SOL     OW26398   3.255   2.126   7.359 -0.3093  0.0572  0.2246
 4980SOL    HW126399   3.247   2.072   7.438 -2.9585 -0.1291 -0.1737
 4980SOL    HW226400   3.342   2.166   7.368 -0.1368 -0.6222  1.5790
 4981SOL     OW26401   2.852   1.082  11.781  0.6525  0.4875  0.2275
 4981SOL    HW126402   2.858   1.024  11.704  0.2368 -0.4362  0.8920
 4981SOL    HW226403   2.937   1.091  11.825  1.6693 -1.3667 -1.3397
 4982SOL     OW26404   0.905   1.599   4.037 -0.1494  0.0319 -0.1343
 4982SOL    HW126405   0.888   1.507   4.019 -1.7889  0.6392 -1.7155
 4982SOL    HW226406   0.991   1.601   3.995 -0.1888  2.0702 -0.1035
 4983SOL     OW26407   1.758   2.126   7.867 -0.6469  0.6040 -0.0301
 4983SOL    HW126408   1.829   2.149   7.808  0.8332  0.7610  1.8223
 4983SOL    HW226409   1.726   2.047   7.822  1.7155  0.5997 -1.7182
 4984SOL     OW26410   4.088   2.930   6.065  0.0056  0.4114 -0.0607
 4984SOL    HW126411   4.130   3.015   6.059 -0.7324  0.8087  0.3745
 4984SOL    HW226412   4.005   2.938   6.017 -1.1907 -2.9413  1.4379
 4985SOL     OW26413   4.580   0.925   5.439  0.5588  0.4510 -0.2331
 4985SOL    HW126414   4.636   0.855   5.406  0.5799  0.5219 -0.3475
 4985SOL    HW226415   4.536   0.956   5.360 -0.9662 -3.2625 -0.8375
 4986SOL     OW26416   0.911   2.378   4.982  0.6071  0.1332 -0.0589
 4986SOL    HW126417   0.870   2.325   4.914 -0.5848 -0.1359  0.8729
 4986SOL    HW226418   0.866   2.456   4.950 -1.2814 -1.5055 -1.3735
 4987SOL     OW26419   2.770   1.257   3.710 -0.6209 -0.1328 -0.1498
 4987SOL    HW126420   2.822   1.276   3.789 -1.4907 -1.2188  0.6737
 4987SOL    HW226421   2.686   1.245   3.754  0.0176  0.3643  1.2153
 4988SOL     OW26422   3.989   3.267   8.092  0.2348 -0.2767  0.3986
 4988SOL    HW126423   4.079   3.256   8.062  0.3273 -0.5521  0.7794
 4988SOL    HW226424   3.944   3.274   8.008  0.5488 -0.4024  0.2224
 4989SOL     OW26425   4.664   2.592   5.692  0.2245 -0.0265 -0.0902
 4989SOL    HW126426   4.609   2.623   5.620 -0.1939 -1.6213 -0.4615
 4989SOL    HW226427   4.722   2.667   5.703 -0.3146  0.4558 -0.5149
 4990SOL     OW26428   0.284   0.171   8.630  0.1462 -0.7068 -0.8407
 4990SOL    HW126429   0.265   0.247   8.685 -0.1372 -2.1682  1.0783
 4990SOL    HW226430   0.373   0.153   8.659 -0.3494  0.1459  1.1987
 4991SOL     OW26431   1.472   2.383   6.116 -0.0169 -0.1004 -0.4077
 4991SOL    HW126432   1.542   2.445   6.139 -0.0051 -0.2608 -0.0060
 4991SOL    HW226433   1.524   2.311   6.082  0.8580  0.4689 -0.2946
 4992SOL     OW26434   1.766   2.091  10.647 -0.2970  0.0734  0.2310
 4992SOL    HW126435   1.729   2.009  10.679 -0.6504 -0.1886 -0.8475
 4992SOL    HW226436   1.796   2.124  10.732 -0.7887  1.6353 -0.1903
 4993SOL     OW26437   3.604   0.903   8.550  0.4445  0.1949  0.1101
 4993SOL    HW126438   3.579   0.855   8.471  0.7808  1.2984 -0.6725
 4993SOL    HW226439   3.518   0.931   8.583  0.9279 -1.5353  2.7987
 4994SOL     OW26440   4.384   0.361  12.184 -0.0226  0.2113 -0.4481
 4994SOL    HW126441   4.317   0.293  12.181  0.6899 -0.6008  1.8445
 4994SOL    HW226442   4.419   0.363  12.273 -0.9501  0.1748 -0.0859
 4995SOL     OW26443   3.640   1.371   8.912 -0.1354  0.1484  0.0935
 4995SOL    HW126444   3.719   1.425   8.905  0.7183 -1.1766 -0.6502
 4995SOL    HW226445   3.650   1.339   9.002 -1.0049 -3.3612 -1.0639
 4996SOL     OW26446   0.417   0.227   2.294  0.4769  0.4900 -0.5267
 4996SOL    HW126447   0.388   0.317   2.309  3.6464  1.5193 -0.5486
 4996SOL    HW226448   0.475   0.250   2.221 -0.8636  1.6139 -1.2425
 4997SOL     OW26449   0.945   0.815   1.573  0.0014  0.4229 -0.6811
 4997SOL    HW126450   0.891   0.856   1.506 -1.6117  0.1202  0.4372
 4997SOL    HW226451   0.986   0.746   1.521  0.9374  1.8733 -1.8682
 4998SOL     OW26452   0.161   0.102   9.778 -1.2984 -0.3615 -0.3326
 4998SOL    HW126453   0.217   0.027   9.760 -0.0548 -0.0456  2.2279
 4998SOL    HW226454   0.107   0.110   9.700 -1.8288  0.0055  0.0705
 4999SOL     OW26455   3.589   1.381   4.869 -0.7987  0.6072  0.0503
 4999SOL    HW126456   3.534   1.308   4.895  1.3717 -0.1646  2.5730
 4999SOL    HW226457   3.673   1.351   4.905 -0.8080 -0.0912 -0.5121
 5000SOL     OW26458   1.357   3.592   9.294 -0.0226  0.4728 -0.2671
 5000SOL    HW126459   1.418   3.639   9.238  0.8980  0.6601  0.9042
 5000SOL    HW226460   1.342   3.509   9.248 -0.6293  0.4409 -0.0203
 5001SOL     OW26461   4.564   1.984   5.175 -0.2074  0.6524 -0.7662
 5001SOL    HW126462   4.580   2.023   5.090  3.3620 -0.0682 -0.3979
 5001SOL    HW226463   4.640   2.011   5.227 -1.8646  0.2210  1.9157
 5002SOL     OW26464   2.423   4.394   4.961 -0.5135  0.0572 -0.5942
 5002SOL    HW126465   2.404   4.339   4.885  2.1495  0.1006 -1.3123
 5002SOL    HW226466   2.499   4.357   5.006 -2.2319 -1.4590  1.0752
 5003SOL     OW26467   1.181   2.277   5.379 -0.4105 -0.2533  0.3319
 5003SOL    HW126468   1.156   2.363   5.346 -1.6139 -1.2014 -1.2362
 5003SOL    HW226469   1.115   2.268   5.448  1.6466 -0.0885  2.3332
 5004SOL     OW26470   0.392   4.268   7.775  0.3756 -0.5360 -0.5802
 5004SOL    HW126471   0.326   4.213   7.817  0.6243  0.9866  1.8246
 5004SOL    HW226472   0.427   4.200   7.718  1.1043 -1.1154  0.5795
 5005SOL     OW26473   2.760   1.609   2.763 -0.4779 -0.0023 -0.5551
 5005SOL    HW126474   2.854   1.601   2.778 -0.2887  1.6173 -0.9036
 5005SOL    HW226475   2.736   1.523   2.797 -1.8262  0.7022  0.3144
 5006SOL     OW26476   1.410   1.384   6.896  0.3072 -0.2310  1.2405
 5006SOL    HW126477   1.418   1.290   6.878 -0.0365 -0.0090 -0.1383
 5006SOL    HW226478   1.323   1.404   6.860  0.4485  0.8656  1.5071
 5007SOL     OW26479   4.015   1.508   1.644 -0.4261 -0.2088  0.3426
 5007SOL    HW126480   3.934   1.558   1.656 -0.3784 -0.4942  1.8224
 5007SOL    HW226481   3.981   1.434   1.594 -0.1356 -0.0217 -0.1326
 5008SOL     OW26482   3.522   0.975   7.678  0.2763  0.0726  0.5244
 5008SOL    HW126483   3.456   0.974   7.747  0.7421  0.9001  0.9815
 5008SOL    HW226484   3.602   0.973   7.732  1.3493  1.7865 -1.0273
 5009SOL     OW26485   1.477   2.681   5.845  0.2015 -0.2607  0.4786
 5009SOL    HW126486   1.414   2.744   5.880  0.9994  1.6795 -1.5928
 5009SOL    HW226487   1.536   2.689   5.920  2.2198  2.8516 -1.4732
 5010SOL     OW26488   4.166   3.605  16.191 -0.6526 -0.2853 -0.3798
 5010SOL    HW126489   4.206   3.601  16.104  0.8213  0.5090  0.2745
 5010SOL    HW226490   4.215   3.538  16.237  0.0933  0.0726 -0.6507
 5011SOL     OW26491   3.841   1.678   6.829  0.1393 -0.4165 -0.1994
 5011SOL    HW126492   3.808   1.590   6.809  0.2523 -0.3640 -0.6118
 5011SOL    HW226493   3.857   1.679   6.923 -2.3473 -1.6376  0.2471
 5012SOL     OW26494   3.666   4.722  17.646  0.1556 -0.8530 -0.2801
 5012SOL    HW126495   3.750   0.008  17.690  0.1529 -0.6314 -0.3327
 5012SOL    HW226496   3.604   0.027   0.010  0.9750  0.2403 -0.0027
 5013SOL     OW26497   1.769   3.833   1.016  0.0494  0.3283  0.4563
 5013SOL    HW126498   1.819   3.907   1.051  1.4520 -0.2581 -0.3105
 5013SOL    HW226499   1.681   3.848   1.050  0.2235 -0.7676  1.4097
 5014SOL     OW26500   0.433   3.407   5.546  0.2824  0.2189 -0.1556
 5014SOL    HW126501   0.465   3.370   5.628  0.4248 -2.0236 -1.2202
 5014SOL    HW226502   0.447   3.334   5.486  0.2029  0.7667 -0.8382
 5015SOL     OW26503   4.060   2.754  15.714 -0.3503 -0.4773 -0.3169
 5015SOL    HW126504   4.129   2.810  15.679  0.8630 -1.6828  0.1034
 5015SOL    HW226505   3.982   2.741  15.661 -1.3251 -0.1773  1.0506
 5016SOL     OW26506   1.614   3.221   8.657 -0.2616  0.2070  0.6797
 5016SOL    HW126507   1.675   3.151   8.680 -0.1968 -0.5558 -1.7804
 5016SOL    HW226508   1.631   3.218   8.563 -1.9324  3.7472  0.2938
 5017SOL     OW26509   3.339   4.431   3.407 -0.3712  0.0394 -0.6840
 5017SOL    HW126510   3.353   4.480   3.488 -0.6695 -2.6715  0.9931
 5017SOL    HW226511   3.415   4.374   3.407 -2.1961 -2.3915 -2.1074
 5018SOL     OW26512   2.543   3.854   9.254 -0.1308  0.0764  0.0134
 5018SOL    HW126513   2.501   3.867   9.170 -2.7250 -0.2013  1.2544
 5018SOL    HW226514   2.520   3.937   9.296  1.9469  0.1591  0.9909
 5019SOL     OW26515   1.601   2.136   3.451 -0.3803  0.4865  0.3752
 5019SOL    HW126516   1.690   2.117   3.420 -0.7795  1.1702 -1.1650
 5019SOL    HW226517   1.554   2.058   3.422 -0.2912  0.0783  1.3352
 5020SOL     OW26518   0.293   3.753   0.352  0.1947  0.6089 -0.4676
 5020SOL    HW126519   0.365   3.738   0.414 -0.4381 -2.5567 -0.4825
 5020SOL    HW226520   0.268   3.845   0.353  0.6780  0.7128  2.7629
 5021SOL     OW26521   2.451   1.895  13.672  0.0084  0.5489  0.2932
 5021SOL    HW126522   2.422   1.915  13.761  2.0273 -0.7254  1.2394
 5021SOL    HW226523   2.450   1.987  13.646  0.4767  0.3619 -0.3840
 5022SOL     OW26524   1.502   1.642   8.643  0.0717 -0.0998  0.3859
 5022SOL    HW126525   1.524   1.735   8.655 -0.2181  0.2279 -1.7001
 5022SOL    HW226526   1.464   1.640   8.555  2.5700 -1.1716 -0.6792
 5023SOL     OW26527   3.436   0.780   4.052  0.6431 -0.3366  0.7158
 5023SOL    HW126528   3.484   0.734   4.122  0.0737 -3.0275 -0.6539
 5023SOL    HW226529   3.502   0.849   4.045  0.2582 -0.2433 -1.8984
 5024SOL     OW26530   2.086   2.248   1.426  0.4577  0.1336 -0.2121
 5024SOL    HW126531   2.089   2.159   1.391 -0.1087 -0.1783  0.5323
 5024SOL    HW226532   2.001   2.277   1.395  0.2723 -1.0237 -0.8096
 5025SOL     OW26533   3.927   3.217   4.270 -0.8277 -0.1683 -0.4306
 5025SOL    HW126534   3.858   3.183   4.326 -1.0274  0.6741 -0.1735
 5025SOL    HW226535   3.911   3.311   4.270  1.9176  0.3107 -1.3509
 5026SOL     OW26536   3.906   1.663  16.051 -0.2087  0.2469  0.1976
 5026SOL    HW126537   3.888   1.757  16.049 -0.1126  0.3011  1.9326
 5026SOL    HW226538   3.907   1.649  15.957  1.1758  0.9378  0.1161
 5027SOL     OW26539   2.395   3.329   6.179 -0.5662 -0.2597  0.8330
 5027SOL    HW126540   2.306   3.343   6.211 -1.0453 -0.8655 -0.2112
 5027SOL    HW226541   2.394   3.237   6.207 -0.5917 -0.7141 -0.6175
 5028SOL     OW26542   4.121   0.228   6.391  0.0679 -0.6282 -0.2933
 5028SOL    HW126543   4.197   0.218   6.447 -0.5299 -0.8264  0.4750
 5028SOL    HW226544   4.150   0.224   6.300  0.8915  0.5439 -0.0783
 5029SOL     OW26545   0.655   3.901   7.219 -0.5409  0.3465  0.3979
 5029SOL    HW126546   0.612   3.817   7.234 -0.4972  0.5396  1.5754
 5029SOL    HW226547   0.747   3.876   7.230 -0.7909 -0.0659  1.5735
 5030SOL     OW26548   2.361   2.278  16.141  0.3189 -0.4643  0.3290
 5030SOL    HW126549   2.283   2.223  16.129  0.9959 -1.3809  0.1362
 5030SOL    HW226550   2.312   2.360  16.134 -0.1364 -0.5965  1.8199
 5031SOL     OW26551   2.515   1.042   7.408  0.3920  0.2554  0.5269
 5031SOL    HW126552   2.527   0.981   7.336 -0.9221  0.3134  0.2580
 5031SOL    HW226553   2.495   0.981   7.479 -1.8161  0.2023 -0.1441
 5032SOL     OW26554   4.443   0.278   4.399 -0.1971  0.0974 -0.1107
 5032SOL    HW126555   4.532   0.262   4.429 -1.1214  0.0277  2.6394
 5032SOL    HW226556   4.392   0.275   4.480 -1.2894 -0.7584 -0.8267
 5033SOL     OW26557   3.403   2.476   4.424  0.1435 -1.0701  0.0499
 5033SOL    HW126558   3.471   2.478   4.492 -0.6969 -0.3472  0.8672
 5033SOL    HW226559   3.348   2.549   4.454  0.2419  0.0860 -2.5897
 5034SOL     OW26560   0.109   2.799   2.506  0.0103 -0.4395  0.5298
 5034SOL    HW126561   0.123   2.723   2.561 -2.6876 -0.6147  0.9682
 5034SOL    HW226562   0.013   2.802   2.507  0.0178 -0.6323  1.7460
 5035SOL     OW26563   3.500   2.986   8.904  0.0423  0.7032 -0.5381
 5035SOL    HW126564   3.504   3.025   8.992 -0.1249  1.7571 -0.9902
 5035SOL    HW226565   3.587   2.947   8.907 -0.2808  0.0100  0.0611
 5036SOL     OW26566   1.426   1.105   4.021 -0.2395 -0.1259  0.0777
 5036SOL    HW126567   1.374   1.185   4.036 -2.3788 -1.7132  1.1829
 5036SOL    HW226568   1.510   1.129   4.059 -0.7719  0.9485  0.5791
 5037SOL     OW26569   2.601   4.541   5.294 -0.1591 -0.0987 -0.1793
 5037SOL    HW126570   2.675   4.480   5.296 -1.3080 -1.4554  1.8214
 5037SOL    HW226571   2.595   4.576   5.383  0.2069 -1.4232  0.3615
 5038SOL     OW26572   1.325   3.257  13.318  0.4889 -0.2054  0.1019
 5038SOL    HW126573   1.393   3.289  13.260  1.2716 -0.6676  0.7676
 5038SOL    HW226574   1.251   3.247  13.258 -0.4427  2.4137  0.7798
 5039SOL     OW26575   1.695   1.497   0.435 -0.0179  0.2132 -0.2563
 5039SOL    HW126576   1.626   1.523   0.496  1.0026  0.8692  0.6249
 5039SOL    HW226577   1.684   1.402   0.436  2.4191 -0.0693  1.7668
 5040SOL     OW26578   2.804   2.743   3.749  0.1603 -0.1103  0.1064
 5040SOL    HW126579   2.820   2.675   3.684 -0.2051 -0.8938  0.8290
 5040SOL    HW226580   2.868   2.811   3.725 -0.0049 -0.0597 -0.1828
 5041SOL     OW26581   4.604   3.187  15.917  0.0916  0.1843  0.1127
 5041SOL    HW126582   4.656   3.117  15.958  0.7257  1.1682  1.0046
 5041SOL    HW226583   4.544   3.210  15.988  0.1323  3.4669 -0.9324
 5042SOL     OW26584   0.708   0.753  17.431 -0.1600 -0.1329  0.8335
 5042SOL    HW126585   0.753   0.791  17.356  0.1732  1.4824  1.8729
 5042SOL    HW226586   0.782   0.709  17.473 -0.5246 -1.0722  0.4897
 5043SOL     OW26587   0.742   3.196  17.105  0.4578  0.6320 -0.0983
 5043SOL    HW126588   0.681   3.270  17.105 -0.1094  0.1609  0.3261
 5043SOL    HW226589   0.684   3.132  17.146 -0.5928  0.2060 -2.1996
 5044SOL     OW26590   4.188   0.528   4.815 -0.3481 -0.5749  0.2507
 5044SOL    HW126591   4.159   0.441   4.842 -0.2327 -0.2537  1.4339
 5044SOL    HW226592   4.112   0.560   4.767  0.3017  0.8043  0.1253
 5045SOL     OW26593   0.354   0.468   8.032  0.3351 -1.2146  0.2767
 5045SOL    HW126594   0.281   0.412   8.057 -0.6335  0.3198  0.8458
 5045SOL    HW226595   0.309   0.517   7.964 -1.1183 -2.9711 -0.0432
 5046SOL     OW26596   0.819   1.387   1.387  0.3831 -0.1804 -0.5255
 5046SOL    HW126597   0.818   1.437   1.305 -1.1231  0.4805 -0.0962
 5046SOL    HW226598   0.761   1.443   1.439 -0.0946  0.0765 -1.3484
 5047SOL     OW26599   2.862   0.255   2.410  0.2929 -0.1602 -0.5148
 5047SOL    HW126600   2.863   0.221   2.320  0.3196 -2.5744  0.3927
 5047SOL    HW226601   2.954   0.281   2.418  1.4846 -3.7316 -2.6683
 5048SOL     OW26602   0.022   0.850   4.215  0.0013  0.1872  0.5002
 5048SOL    HW126603   0.067   0.878   4.135 -0.9188 -0.8638 -0.3903
 5048SOL    HW226604   0.074   0.896   4.281 -0.6500  0.4940  0.8002
 5049SOL     OW26605   0.696   4.617   0.104 -0.2352 -0.5534 -0.3700
 5049SOL    HW126606   0.713   4.561   0.180  0.5636  0.7621  0.4123
 5049SOL    HW226607   0.697   4.554   0.032  1.5779  0.1624 -0.9715
 5050SOL     OW26608   2.554   0.757   4.774 -0.6640  0.1850 -0.4712
 5050SOL    HW126609   2.580   0.837   4.728 -0.8855  1.0714  0.9331
 5050SOL    HW226610   2.536   0.791   4.862 -0.4563  2.9703 -1.5113
 5051SOL     OW26611   3.887   1.167  12.733  0.7332 -0.3653  0.0349
 5051SOL    HW126612   3.845   1.208  12.657 -1.4522  0.2039  1.5540
 5051SOL    HW226613   3.823   1.098  12.749 -0.9652  1.2505  0.2329
 5052SOL     OW26614   3.714   0.476  10.188 -1.2011  0.2348  0.4021
 5052SOL    HW126615   3.763   0.393  10.187 -1.2182  0.2296 -0.3296
 5052SOL    HW226616   3.627   0.438  10.195 -1.9801  1.3811 -2.7303
 5053SOL     OW26617   4.660   3.924   0.111 -0.1802  1.0331  0.3207
 5053SOL    HW126618   4.629   3.933   0.021  0.9470  1.6640 -0.0093
 5053SOL    HW226619   4.718   3.852   0.088 -1.6273 -0.0522  0.1088
 5054SOL     OW26620   1.047   2.078   4.503 -0.2422 -0.5342  0.0365
 5054SOL    HW126621   1.117   2.026   4.463  2.7074  2.1063  1.7216
 5054SOL    HW226622   1.042   2.040   4.591 -0.0032 -2.0522 -0.6101
 5055SOL     OW26623   3.254   0.524   7.320 -0.1026  0.2104 -0.2349
 5055SOL    HW126624   3.168   0.540   7.358 -0.3991 -0.3675 -0.6632
 5055SOL    HW226625   3.241   0.521   7.225  0.9208  0.4787 -0.3889
 5056SOL     OW26626   4.175   0.568   9.242 -0.0826  0.2576 -0.7487
 5056SOL    HW126627   4.202   0.481   9.213  0.1393  0.9522 -2.6524
 5056SOL    HW226628   4.220   0.579   9.326 -0.8759 -1.1169 -0.1368
 5057SOL     OW26629   2.383   3.899   4.932  0.3934 -0.1765 -0.0664
 5057SOL    HW126630   2.361   3.810   4.959 -0.3082  0.8030  2.5873
 5057SOL    HW226631   2.409   3.940   5.014  1.5364 -1.2893  0.1313
 5058SOL     OW26632   1.690   2.519   6.253  0.5240  0.0224  0.9295
 5058SOL    HW126633   1.713   2.594   6.308  2.9358  0.3191 -0.4727
 5058SOL    HW226634   1.682   2.447   6.315 -1.6288  2.0871  3.0611
 5059SOL     OW26635   1.978   3.387   4.309 -0.5463 -0.2865  0.2977
 5059SOL    HW126636   1.946   3.348   4.390 -0.9928  0.8338  0.6726
 5059SOL    HW226637   1.895   3.410   4.267 -0.4903 -0.7459 -0.0570
 5060SOL     OW26638   2.341   0.052  15.453 -0.4516 -0.0362 -0.2561
 5060SOL    HW126639   2.305   0.135  15.421 -0.7623 -0.6473 -1.5032
 5060SOL    HW226640   2.393   0.086  15.525  2.3896  0.2783 -2.4911
 5061SOL     OW26641   0.596   1.256   1.295  0.0074  0.0095  0.3089
 5061SOL    HW126642   0.679   1.279   1.338 -0.4572 -0.3601  1.3960
 5061SOL    HW226643   0.547   1.228   1.371 -1.4445  2.4989  0.2843
 5062SOL     OW26644   0.229   3.377  16.924 -0.0821  0.0717 -0.2192
 5062SOL    HW126645   0.205   3.362  17.015 -0.1591 -0.0167 -0.2538
 5062SOL    HW226646   0.151   3.416  16.884 -1.3810 -1.7336  0.5707
 5063SOL     OW26647   1.312   4.328  16.921 -0.7715 -0.2289 -0.0344
 5063SOL    HW126648   1.324   4.414  16.882  1.0998 -0.8012 -0.7171
 5063SOL    HW226649   1.266   4.274  16.858  2.5921 -0.6416 -2.1507
 5064SOL     OW26650   2.179   1.968  17.349  0.3561  0.3773 -0.1349
 5064SOL    HW126651   2.093   1.933  17.371 -0.6943  2.7619 -0.4746
 5064SOL    HW226652   2.181   2.028  17.424 -0.4886 -0.3777  0.4870
 5065SOL     OW26653   1.531   3.768   5.181 -0.5730  0.5556 -0.0022
 5065SOL    HW126654   1.473   3.782   5.106  2.5802 -4.7099 -3.4052
 5065SOL    HW226655   1.613   3.743   5.139  0.3244 -0.7247  2.4912
 5066SOL     OW26656   1.643   2.937   6.788  0.2133 -0.0610 -0.4665
 5066SOL    HW126657   1.653   2.843   6.772  1.1621 -0.0380  0.0241
 5066SOL    HW226658   1.572   2.941   6.852  1.2982 -0.7328  0.7648
 5067SOL     OW26659   4.717   4.520  14.910  0.4693 -0.2023  0.4784
 5067SOL    HW126660   4.623   4.536  14.921  0.3788  0.5387 -1.3249
 5067SOL    HW226661   0.002   4.427  14.888  0.9607  0.3508 -1.6373
 5068SOL     OW26662   1.475   4.504   3.268  0.1481  0.0153 -0.1704
 5068SOL    HW126663   1.457   4.418   3.306  1.6251 -0.7968 -1.3233
 5068SOL    HW226664   1.394   4.539   3.306  1.0782  0.8916  1.0142
 5069SOL     OW26665   1.375   2.546  13.466  0.2504 -0.2002 -0.7469
 5069SOL    HW126666   1.437   2.511  13.530  0.6498  1.9110  0.0403
 5069SOL    HW226667   1.307   2.478  13.466  1.5134 -1.4660  0.2810
 5070SOL     OW26668   2.151   1.135   8.677  0.3495  0.6038  0.1543
 5070SOL    HW126669   2.216   1.170   8.738  0.8846  1.1200 -0.7125
 5070SOL    HW226670   2.120   1.059   8.726  4.0047 -1.8946 -1.4561
 5071SOL     OW26671   1.818   1.074   6.326 -0.2570 -0.0626  0.6816
 5071SOL    HW126672   1.862   1.083   6.242  0.3224  1.8921  1.1830
 5071SOL    HW226673   1.792   0.984   6.309  0.0399 -0.4571  2.3163
 5072SOL     OW26674   2.427   3.196   4.089 -0.1007 -0.1187 -0.1446
 5072SOL    HW126675   2.387   3.279   4.114  0.3058  0.2498 -0.7231
 5072SOL    HW226676   2.347   3.144   4.077 -1.0870  1.1630  0.8362
 5073SOL     OW26677   2.743   1.563  15.400  0.2343  0.0475  0.1502
 5073SOL    HW126678   2.690   1.498  15.446  1.1771 -0.4136  0.5976
 5073SOL    HW226679   2.723   1.627  15.469  1.1452  1.7999 -1.2216
 5074SOL     OW26680   4.167   2.507   4.850  0.2589  0.2471  0.1374
 5074SOL    HW126681   4.140   2.582   4.798  0.2878 -1.3378 -2.1533
 5074SOL    HW226682   4.180   2.544   4.938  0.2747 -0.0945  0.2806
 5075SOL     OW26683   3.060   4.545   5.657  0.3497  0.4505  0.9135
 5075SOL    HW126684   2.966   4.526   5.656  0.5581 -0.5645  0.3149
 5075SOL    HW226685   3.108   4.462   5.666 -0.0215  0.2401  0.9439
 5076SOL     OW26686   1.969   4.586   2.558  0.1383 -0.5548  0.0161
 5076SOL    HW126687   2.019   4.665   2.576 -0.7470  0.1808 -0.7615
 5076SOL    HW226688   1.963   4.597   2.463 -0.3871 -0.8484  0.0176
 5077SOL     OW26689   1.761   1.791   6.096 -0.1681  0.1481  0.8736
 5077SOL    HW126690   1.679   1.785   6.047  0.8742  0.4353 -0.9159
 5077SOL    HW226691   1.818   1.759   6.025  0.1113  1.1331  0.6534
 5078SOL     OW26692   3.645   2.594   6.804  0.8382 -0.1024  0.1173
 5078SOL    HW126693   3.650   2.527   6.736  1.7210 -0.3750  0.4551
 5078SOL    HW226694   3.550   2.589   6.814  0.8301 -0.4776 -0.1659
 5079SOL     OW26695   1.733   3.190   4.179 -0.3943 -0.3268  0.3859
 5079SOL    HW126696   1.738   3.284   4.194  0.6246 -0.0523 -1.5713
 5079SOL    HW226697   1.755   3.199   4.086 -0.2925 -0.2534  0.4181
 5080SOL     OW26698   2.983   2.008   5.644 -0.3396  0.6017  0.2002
 5080SOL    HW126699   3.028   1.963   5.572 -1.2662  2.0737 -1.3080
 5080SOL    HW226700   3.030   2.092   5.652 -1.9422  1.6593 -1.2868
 5081SOL     OW26701   0.646   2.407   7.990  0.0899  0.6989 -0.8078
 5081SOL    HW126702   0.600   2.324   7.979  3.2487 -1.1033 -0.3673
 5081SOL    HW226703   0.733   2.387   7.956 -0.2880 -2.2168 -0.1125
 5082SOL     OW26704   1.255   4.363   8.436  0.4293 -0.4404 -0.1277
 5082SOL    HW126705   1.262   4.416   8.357 -1.4767  0.0586  0.0413
 5082SOL    HW226706   1.181   4.411   8.474  1.2341  0.5129  0.2301
 5083SOL     OW26707   1.415   1.854  10.456 -0.0953  0.0170  0.0694
 5083SOL    HW126708   1.357   1.889  10.388 -0.6679 -0.9902  0.0478
 5083SOL    HW226709   1.412   1.761  10.436 -1.4862 -0.0446  0.5651
 5084SOL     OW26710   0.490   1.375   2.768  0.3000  0.2474  0.2259
 5084SOL    HW126711   0.507   1.463   2.802  0.6616 -0.3564  1.6327
 5084SOL    HW226712   0.433   1.347   2.840  2.8801 -0.8305  1.8313
 5085SOL     OW26713   1.969   1.672   5.719 -0.4857 -0.7900  0.6551
 5085SOL    HW126714   1.901   1.700   5.657  2.1521  1.6965 -1.1576
 5085SOL    HW226715   2.019   1.751   5.740 -1.5639  0.2865 -0.7557
 5086SOL     OW26716   3.125   4.146  12.395 -0.4951  0.0786  0.3922
 5086SOL    HW126717   3.041   4.119  12.359 -0.2639  0.6611 -0.6117
 5086SOL    HW226718   3.110   4.151  12.489 -0.4208  3.3833  0.2463
 5087SOL     OW26719   3.880   2.670  10.357  0.2943  0.2576  0.1619
 5087SOL    HW126720   3.967   2.642  10.385  0.2999 -1.5921 -1.7675
 5087SOL    HW226721   3.835   2.667  10.442  1.0167  0.3680  0.5483
 5088SOL     OW26722   0.085   4.387   7.447  0.1114 -0.4322 -0.1121
 5088SOL    HW126723   0.036   4.382   7.366  0.2275  1.4045 -0.3043
 5088SOL    HW226724   0.045   4.464   7.488 -1.3556 -0.4860 -1.4598
 5089SOL     OW26725   2.086   0.708   3.513 -0.4130 -0.5689 -0.0073
 5089SOL    HW126726   2.162   0.654   3.493  0.6559  0.9333 -0.0379
 5089SOL    HW226727   2.130   0.793   3.500 -0.0078 -0.8799 -0.6550
 5090SOL     OW26728   4.580   3.191   7.925 -0.2988 -0.0185 -0.3856
 5090SOL    HW126729   4.506   3.218   7.871 -0.5213  0.5040  0.1844
 5090SOL    HW226730   4.566   3.102   7.957 -1.1858  0.2275 -0.0866
 5091SOL     OW26731   3.806   0.260   9.846 -0.6131  0.8126 -0.1537
 5091SOL    HW126732   3.730   0.316   9.860  0.3000  1.5708  1.7753
 5091SOL    HW226733   3.870   0.312   9.895  1.8045 -3.3674  1.2223
 5092SOL     OW26734   1.202   2.039   7.801 -0.1651  0.1926 -0.0531
 5092SOL    HW126735   1.206   2.112   7.862 -2.5345 -0.8634  1.3778
 5092SOL    HW226736   1.277   1.990   7.834 -2.1724 -1.9669  1.3147
 5093SOL     OW26737   2.821   3.678  17.401  0.3269  0.2581  0.2022
 5093SOL    HW126738   2.726   3.685  17.403  0.0108 -4.2397  1.8014
 5093SOL    HW226739   2.837   3.600  17.348 -0.7582 -1.5813  2.5805
 5094SOL     OW26740   4.307   4.616  10.923 -0.4158  0.0042 -0.0803
 5094SOL    HW126741   4.308   4.690  10.983 -1.6351 -0.0800  0.0498
 5094SOL    HW226742   4.385   4.621  10.867 -0.6696  3.0030 -0.1373
 5095SOL     OW26743   2.654   0.335   4.223  0.6916  0.2845 -0.4772
 5095SOL    HW126744   2.692   0.329   4.136  0.4077  0.7334 -0.6333
 5095SOL    HW226745   2.586   0.399   4.202  0.8497  0.2472 -1.1068
 5096SOL     OW26746   3.679   4.181   8.966 -0.2393 -0.1820  0.4152
 5096SOL    HW126747   3.668   4.214   9.056  1.6361  0.3670  0.4384
 5096SOL    HW226748   3.652   4.090   8.978 -0.2132 -0.1329  0.8555
 5097SOL     OW26749   1.341   0.723   6.970 -0.0598 -0.3147 -0.2829
 5097SOL    HW126750   1.286   0.789   6.927 -1.4882 -1.0217  0.4853
 5097SOL    HW226751   1.285   0.647   6.981  0.6659 -0.8337 -0.1551
 5098SOL     OW26752   3.071   0.917   3.988  0.8223 -0.2840 -0.1487
 5098SOL    HW126753   3.040   0.927   3.898  0.3931 -1.3022 -0.1163
 5098SOL    HW226754   3.064   0.822   3.998  1.2042 -0.1412  1.4261
 5099SOL     OW26755   0.226   0.625   5.766 -0.0297  0.2758  0.1763
 5099SOL    HW126756   0.137   0.614   5.798  0.1529 -0.6501  0.3571
 5099SOL    HW226757   0.262   0.560   5.826 -2.1846  0.1374  1.3120
 5100SOL     OW26758   1.113   0.955   5.152 -0.5525 -0.0653 -0.1252
 5100SOL    HW126759   1.038   1.014   5.143  0.2099  1.2822  2.3459
 5100SOL    HW226760   1.114   0.960   5.247  0.9475  1.5860 -0.2114
 5101SOL     OW26761   3.725   3.923   8.343  0.2210 -0.3898 -0.1221
 5101SOL    HW126762   3.649   3.974   8.369 -0.6178 -1.5961 -0.1861
 5101SOL    HW226763   3.702   3.836   8.375 -2.1317 -0.2628 -1.4302
 5102SOL     OW26764   3.756   1.942  13.558  0.1212 -0.2940  0.7908
 5102SOL    HW126765   3.789   2.008  13.620 -0.1103  0.3567  0.2211
 5102SOL    HW226766   3.777   1.859  13.601  0.2637 -0.7632 -0.2018
 5103SOL     OW26767   3.793   3.133  13.428 -0.4490  0.4429  0.7318
 5103SOL    HW126768   3.726   3.086  13.378 -0.0689  1.3144 -0.5756
 5103SOL    HW226769   3.871   3.089  13.394 -1.2465  1.2102 -2.0469
 5104SOL     OW26770   0.794   3.924   1.797 -0.3270 -0.1289 -0.3123
 5104SOL    HW126771   0.838   3.840   1.803 -0.0710 -0.0404 -0.9932
 5104SOL    HW226772   0.821   3.962   1.881  3.7437  0.2810 -1.8148
 5105SOL     OW26773   2.019   4.638  11.350  0.2182 -0.3585  0.4961
 5105SOL    HW126774   2.017   0.007  11.333 -0.2132 -0.5143 -0.3353
 5105SOL    HW226775   1.976   4.641  11.435  0.2712 -0.8220  0.5414
 5106SOL     OW26776   0.540   3.285  16.776 -0.3670  0.5077  0.8175
 5106SOL    HW126777   0.478   3.234  16.724  0.9279  0.9074 -1.1307
 5106SOL    HW226778   0.623   3.243  16.752  1.1598  3.4887  0.7540
 5107SOL     OW26779   1.825   4.184   5.110 -0.1630 -0.2206 -1.0041
 5107SOL    HW126780   1.735   4.161   5.131  0.3623 -1.1502  0.2318
 5107SOL    HW226781   1.827   4.277   5.130 -0.5581 -0.7434  1.4499
 5108SOL     OW26782   2.029   4.505  17.641  0.2727 -0.1345  0.0113
 5108SOL    HW126783   2.052   4.547   0.022  0.6872 -1.9975  0.8382
 5108SOL    HW226784   2.075   4.563  17.580 -0.7419  0.0778 -0.5590
 5109SOL     OW26785   4.271   2.872   6.308  0.0775 -0.2687  0.4179
 5109SOL    HW126786   4.300   2.782   6.293  0.1035 -0.5069  1.8592
 5109SOL    HW226787   4.205   2.885   6.241 -1.5448  1.7030  2.4105
 5110SOL     OW26788   0.913   2.394   9.864  0.3684  0.5196 -0.2864
 5110SOL    HW126789   0.999   2.423   9.835  0.3564 -0.0323 -0.8882
 5110SOL    HW226790   0.931   2.304   9.892 -0.1739  0.0250 -1.5405
 5111SOL     OW26791   3.732   4.531   5.142  0.1776  0.2950  0.5393
 5111SOL    HW126792   3.670   4.490   5.203 -1.8062  2.4545 -0.0245
 5111SOL    HW226793   3.741   4.450   5.090 -2.8222  0.4197 -0.1901
 5112SOL     OW26794   2.861   3.080  16.677  0.1547  0.0654  0.8853
 5112SOL    HW126795   2.776   3.124  16.681  1.6930  3.2499 -0.8714
 5112SOL    HW226796   2.887   3.085  16.585 -2.1441  0.3790  0.2387
 5113SOL     OW26797   4.473   0.134  16.964  0.0471  0.1448 -0.2057
 5113SOL    HW126798   4.404   0.194  16.935  0.3113 -0.3232 -1.7829
 5113SOL    HW226799   4.472   0.150  17.058  0.1791  0.1393 -0.2043
 5114SOL     OW26800   3.665   3.222   8.160 -0.0559  0.0846  0.1836
 5114SOL    HW126801   3.575   3.242   8.186  0.0675  1.5090 -0.4641
 5114SOL    HW226802   3.721   3.292   8.196 -1.7705  0.2998  2.4026
 5115SOL     OW26803   3.880   1.972   4.025  0.2457 -0.3572 -0.0326
 5115SOL    HW126804   3.854   2.011   4.108 -0.6959  0.4389 -0.6957
 5115SOL    HW226805   3.952   2.032   4.005 -0.5681  1.2600  1.9623
 5116SOL     OW26806   0.571   2.384   0.512 -0.5734  0.1014  0.2681
 5116SOL    HW126807   0.534   2.367   0.599 -2.5995 -2.3220 -1.0655
 5116SOL    HW226808   0.518   2.458   0.484 -0.0540  1.1041  1.9659
 5117SOL     OW26809   3.692   3.791  12.977 -0.1102 -0.3591 -0.1368
 5117SOL    HW126810   3.649   3.757  12.898 -1.2577 -2.2885  1.3324
 5117SOL    HW226811   3.737   3.715  13.013 -0.2737 -0.9000 -1.0595
 5118SOL     OW26812   4.006   0.634   7.690 -0.0911 -0.2147  0.1563
 5118SOL    HW126813   3.949   0.642   7.613 -0.8121 -3.2528  0.3844
 5118SOL    HW226814   4.071   0.565   7.677 -1.9588 -1.3935 -2.8650
 5119SOL     OW26815   0.202   3.551   1.899 -0.0815  0.6483 -0.3678
 5119SOL    HW126816   0.179   3.611   1.828 -0.9407  1.4194  0.5638
 5119SOL    HW226817   0.290   3.517   1.884  0.2018  0.1529  2.3217
 5120SOL     OW26818   3.833   4.378   2.408 -0.2617 -0.1812  0.0738
 5120SOL    HW126819   3.904   4.442   2.408 -0.7499  0.3429  2.6412
 5120SOL    HW226820   3.838   4.352   2.500 -1.4636 -2.4552 -0.4797
 5121SOL     OW26821   0.438   4.721   1.867  0.0175 -0.2203  0.7999
 5121SOL    HW126822   0.495   0.069   1.841 -0.1510  0.4251  2.2051
 5121SOL    HW226823   0.465   4.712   1.959  0.2339 -1.5344  0.6171
 5122SOL     OW26824   0.667   4.406  13.976 -0.3415 -0.4234 -0.8368
 5122SOL    HW126825   0.656   4.494  13.939 -2.8049 -0.7397 -0.8836
 5122SOL    HW226826   0.756   4.383  13.949 -0.1850 -0.7807 -0.0210
 5123SOL     OW26827   4.546   2.627   3.556 -0.0630 -0.4915 -0.9659
 5123SOL    HW126828   4.478   2.573   3.594  1.5513 -0.8514  1.4251
 5123SOL    HW226829   4.613   2.623   3.625 -0.4954  0.1412 -0.5140
 5124SOL     OW26830   2.509   2.016   5.409  0.1217 -0.2031 -0.2813
 5124SOL    HW126831   2.475   1.952   5.472 -2.1987  1.1400 -0.1659
 5124SOL    HW226832   2.591   2.032   5.455 -0.7413  0.2826  1.0736
 5125SOL     OW26833   3.018   0.980   4.412 -0.3974 -0.8614 -0.2663
 5125SOL    HW126834   2.972   0.900   4.385 -0.9457 -1.0176  1.1276
 5125SOL    HW226835   2.992   1.043   4.345 -0.0040  0.3217  0.6934
 5126SOL     OW26836   2.427   1.257   5.589  0.4568  0.0805  0.3771
 5126SOL    HW126837   2.434   1.243   5.684  1.5135 -0.4852  0.2156
 5126SOL    HW226838   2.504   1.206   5.563  1.6695  2.1886 -0.2053
 5127SOL     OW26839   2.213   3.041   3.998  0.1782 -0.1976 -0.5921
 5127SOL    HW126840   2.179   3.003   3.916 -2.5719 -0.6208  0.7706
 5127SOL    HW226841   2.150   3.112   4.001  0.5937  0.1451 -0.1733
 5128SOL     OW26842   3.619   3.868   8.918  0.9220  0.5282 -0.3196
 5128SOL    HW126843   3.668   3.826   8.989  0.4336 -1.0437 -0.9319
 5128SOL    HW226844   3.531   3.854   8.955 -0.3485  1.1293 -3.1394
 5129SOL     OW26845   2.343   3.968   6.459  0.0323  0.1529 -0.7217
 5129SOL    HW126846   2.423   3.941   6.414 -0.1574  1.1366 -1.6495
 5129SOL    HW226847   2.288   3.986   6.383 -0.7559  1.5266  0.1773
 5130SOL     OW26848   1.745   2.909  14.097 -0.5931  0.1821 -0.2839
 5130SOL    HW126849   1.812   2.884  14.034 -1.3231  0.4916 -1.1735
 5130SOL    HW226850   1.799   2.955  14.162 -1.8479 -1.1401  1.6871
 5131SOL     OW26851   1.819   1.483   3.473 -0.1682  0.2114 -0.4650
 5131SOL    HW126852   1.775   1.567   3.461  1.8171  1.5442  1.6388
 5131SOL    HW226853   1.802   1.471   3.566 -3.2446 -1.6466 -1.2767
 5132SOL     OW26854   4.400   4.598   2.257  0.1776 -0.4619 -0.2027
 5132SOL    HW126855   4.436   4.686   2.248  0.6374 -0.6400 -0.1334
 5132SOL    HW226856   4.463   4.551   2.200  0.3494 -1.4849  0.8315
 5133SOL     OW26857   3.622   3.173   6.310 -0.0481  0.6438 -0.2689
 5133SOL    HW126858   3.683   3.237   6.346 -0.0138  1.1184 -1.1743
 5133SOL    HW226859   3.681   3.100   6.290  0.9697  0.8211  1.9998
 5134SOL     OW26860   3.396   0.909  17.336 -0.2725  0.5793 -0.2944
 5134SOL    HW126861   3.390   0.814  17.327 -1.0654  0.5580  0.4022
 5134SOL    HW226862   3.490   0.916  17.324 -0.2658 -2.6991 -2.0381
 5135SOL     OW26863   0.898   1.834   8.056  1.3365  0.1643  0.0452
 5135SOL    HW126864   0.972   1.798   8.006  0.4730 -0.0669 -1.0562
 5135SOL    HW226865   0.924   1.922   8.084 -2.2403  2.1424 -2.9522
 5136SOL     OW26866   1.734   4.259   9.468 -0.0095 -0.2539  0.1263
 5136SOL    HW126867   1.696   4.190   9.523  1.7972 -0.4094  1.1703
 5136SOL    HW226868   1.801   4.219   9.413 -0.2236 -1.1506  0.5031
 5137SOL     OW26869   4.427   4.492   5.492  0.1374  0.2307  0.2274
 5137SOL    HW126870   4.392   4.483   5.403 -0.1954 -0.7187  0.4516
 5137SOL    HW226871   4.367   4.558   5.525  0.3972  0.7268 -0.2980
 5138SOL     OW26872   2.302   2.505   0.712 -0.4306  0.1223  0.0611
 5138SOL    HW126873   2.215   2.494   0.750  0.2359  0.7175  1.7499
 5138SOL    HW226874   2.297   2.601   0.709 -0.1833  0.1569  0.8253
 5139SOL     OW26875   1.983   0.902   7.881  0.3578  0.1463  0.2466
 5139SOL    HW126876   1.896   0.891   7.842  0.9128  2.6435 -1.6435
 5139SOL    HW226877   1.968   0.869   7.970  1.5241  1.3708  0.8888
 5140SOL     OW26878   0.693   0.594   1.650  0.3597  0.1555  0.3149
 5140SOL    HW126879   0.707   0.685   1.626 -1.3062  0.6329  1.1811
 5140SOL    HW226880   0.659   0.594   1.739 -0.6161  1.6882 -0.0513
 5141SOL     OW26881   1.539   2.679   4.387  0.8208  0.2739 -0.1031
 5141SOL    HW126882   1.624   2.717   4.409  1.4492 -0.4776 -1.2760
 5141SOL    HW226883   1.509   2.699   4.476 -0.9831  0.4277 -0.7466
 5142SOL     OW26884   0.540   4.392   7.450 -0.3580 -0.2135  0.4808
 5142SOL    HW126885   0.482   4.320   7.424 -2.1952  1.1892  0.7219
 5142SOL    HW226886   0.615   4.369   7.396 -2.2773 -0.8234 -1.9186
 5143SOL     OW26887   4.523   2.257   8.158  0.4577  0.1591  0.3926
 5143SOL    HW126888   4.528   2.348   8.186  1.1759  0.0707  0.5423
 5143SOL    HW226889   4.613   2.227   8.153  0.6901  1.0709 -0.7649
 5144SOL     OW26890   3.431   0.328   2.975  0.1173 -0.4478  0.0102
 5144SOL    HW126891   3.347   0.353   2.935 -0.1336 -2.0588 -0.4598
 5144SOL    HW226892   3.495   0.383   2.931  0.5149 -0.0732  1.0549
 5145SOL     OW26893   2.579   2.960  14.000 -0.0186  0.1748  0.1916
 5145SOL    HW126894   2.578   3.000  13.913  0.8722  2.6252  1.3023
 5145SOL    HW226895   2.604   3.046  14.033 -2.8091  0.3118  1.9778
 5146SOL     OW26896   1.468   0.707   4.212 -0.0503  0.4217 -0.0559
 5146SOL    HW126897   1.436   0.617   4.208  2.1066 -0.2464 -2.7892
 5146SOL    HW226898   1.433   0.738   4.129  0.5130 -1.0685 -0.8520
 5147SOL     OW26899   0.741   4.702   7.103  0.0868  0.3072  0.2167
 5147SOL    HW126900   0.835   4.703   7.117  0.3209  3.2680 -1.5132
 5147SOL    HW226901   0.698   4.629   7.149 -0.5098 -0.9785 -2.4150
 5148SOL     OW26902   0.994   3.063   3.511  0.0024  0.3871 -0.3030
 5148SOL    HW126903   0.984   3.109   3.595 -1.4148 -2.3615  1.0318
 5148SOL    HW226904   0.985   3.144   3.461 -0.7182  1.5393  1.6649
 5149SOL     OW26905   3.124   2.867   8.652  0.0419 -0.7138  0.1611
 5149SOL    HW126906   3.170   2.870   8.736  1.3077 -0.9535 -0.5096
 5149SOL    HW226907   3.049   2.810   8.665 -1.1062  0.5201 -1.0233
 5150SOL     OW26908   3.267   2.856   5.393  0.1679  0.3471  0.0968
 5150SOL    HW126909   3.191   2.808   5.427 -0.7127  1.3499 -0.4687
 5150SOL    HW226910   3.264   2.935   5.445  0.1721  0.5408 -0.1950
 5151SOL     OW26911   1.916   0.691   6.522 -0.2468 -0.0208  0.2107
 5151SOL    HW126912   1.923   0.687   6.617  0.4591 -0.2159  0.1457
 5151SOL    HW226913   1.944   0.781   6.508 -0.9894  0.2092  0.2133
 5152SOL     OW26914   2.745   4.394  10.938 -0.1918  0.5168 -0.3568
 5152SOL    HW126915   2.680   4.368  11.004  1.1800  0.2450  0.8986
 5152SOL    HW226916   2.783   4.308  10.920 -1.7851 -0.6583  1.8514
 5153SOL     OW26917   1.389   0.968  13.480  0.3357  0.1472 -0.2204
 5153SOL    HW126918   1.322   0.908  13.512 -1.0264  1.3178 -0.8295
 5153SOL    HW226919   1.381   0.959  13.385  0.7253  4.0584 -0.6590
 5154SOL     OW26920   1.236   0.622   1.622 -0.4280  0.0349 -0.7744
 5154SOL    HW126921   1.172   0.638   1.553 -2.9294 -2.1134  1.0206
 5154SOL    HW226922   1.214   0.532   1.647  3.1246 -0.0785  1.9932
 5155SOL     OW26923   4.055   0.102  10.092  0.1786 -0.2569  0.2489
 5155SOL    HW126924   4.094   0.016  10.075  0.8211  0.4880 -1.9916
 5155SOL    HW226925   4.084   0.119  10.182  0.9782 -0.2044 -0.0254
 5156SOL     OW26926   2.052   0.891  16.668 -0.5462 -0.3829  0.3919
 5156SOL    HW126927   1.982   0.933  16.718 -1.4246 -0.3102 -0.9128
 5156SOL    HW226928   2.007   0.898  16.584 -1.0146  1.0029  0.7546
 5157SOL     OW26929   2.559   2.597  15.431  0.0671  0.7290  0.2116
 5157SOL    HW126930   2.615   2.530  15.469  0.3260  1.7651  1.6605
 5157SOL    HW226931   2.618   2.671  15.416 -0.7237  1.7971  2.2032
 5158SOL     OW26932   1.491   4.363   0.816 -0.1461  0.1429  0.2077
 5158SOL    HW126933   1.464   4.276   0.787 -1.9103  0.3542  1.1986
 5158SOL    HW226934   1.542   4.342   0.894  0.5905 -0.0667 -0.3276
 5159SOL     OW26935   0.991   4.158   2.665  0.5020  0.1012 -0.1695
 5159SOL    HW126936   0.951   4.070   2.662  1.4586 -0.3720  0.8718
 5159SOL    HW226937   1.079   4.123   2.651 -0.8666 -2.5571 -2.2118
 5160SOL     OW26938   0.147   1.974   6.972  0.0275 -0.3189 -0.1289
 5160SOL    HW126939   0.134   2.047   6.912 -0.4827 -0.6121 -0.3713
 5160SOL    HW226940   0.146   2.009   7.060  3.6986  1.5914 -0.8513
 5161SOL     OW26941   0.823   4.205  15.031 -0.2466 -0.7397 -0.0328
 5161SOL    HW126942   0.764   4.144  14.987 -1.0739  0.2389 -0.2810
 5161SOL    HW226943   0.904   4.180  14.987  0.3127  0.6389  0.2463
 5162SOL     OW26944   0.041   3.456   2.121  0.2548  0.2680  0.2109
 5162SOL    HW126945   0.052   3.551   2.127 -1.6962  0.5542 -0.7019
 5162SOL    HW226946   0.080   3.442   2.034  1.5498  0.8989  0.6881
 5163SOL     OW26947   2.366   2.657   5.718  0.1882  0.3887 -0.3362
 5163SOL    HW126948   2.457   2.677   5.692  0.1908 -0.9958 -1.3805
 5163SOL    HW226949   2.334   2.612   5.640  0.9467 -0.2561 -0.2722
 5164SOL     OW26950   0.208   2.684  10.483 -0.1015 -0.0122 -0.2441
 5164SOL    HW126951   0.165   2.622  10.424  0.7514 -1.6483  0.8860
 5164SOL    HW226952   0.299   2.657  10.473 -0.0851  0.9397 -2.7644
 5165SOL     OW26953   1.604   4.098   5.813 -0.1916  0.3217 -0.1507
 5165SOL    HW126954   1.560   4.014   5.817 -0.1063  0.1371 -3.3643
 5165SOL    HW226955   1.699   4.086   5.818 -0.5074 -0.8332  2.7834
 5166SOL     OW26956   0.668   2.051  12.365 -0.2682 -0.2046 -0.9262
 5166SOL    HW126957   0.674   1.972  12.418 -1.7047  0.8265  0.7906
 5166SOL    HW226958   0.701   2.120  12.423  1.1189  0.0641 -2.0516
 5167SOL     OW26959   0.732   1.628   9.790 -0.4225  0.4025 -0.4052
 5167SOL    HW126960   0.786   1.550   9.786  2.0105  2.0443  0.7594
 5167SOL    HW226961   0.648   1.596   9.756 -0.5332  1.3370 -1.0126
 5168SOL     OW26962   3.115   1.182   2.332 -0.3007  0.2769  0.2117
 5168SOL    HW126963   3.169   1.103   2.332 -0.4073  0.2041  2.0206
 5168SOL    HW226964   3.042   1.154   2.276  3.0596 -1.2078 -3.3911
 5169SOL     OW26965   2.048   4.330   3.858  0.0880 -0.4744  0.1115
 5169SOL    HW126966   2.017   4.259   3.914 -1.4447 -0.2955 -0.5127
 5169SOL    HW226967   2.029   4.280   3.779  1.8713 -0.1252 -0.5369
 5170SOL     OW26968   1.045   0.917  10.530  0.3706  0.4897 -0.4522
 5170SOL    HW126969   1.097   0.966  10.466  0.7129 -0.9415 -1.2842
 5170SOL    HW226970   0.975   0.899  10.467 -0.8701 -1.2422  1.4308
 5171SOL     OW26971   4.706   2.277   6.385 -0.0667  0.3709 -0.2639
 5171SOL    HW126972   0.036   2.246   6.457 -0.1473  1.5789  0.3109
 5171SOL    HW226973   4.633   2.308   6.439 -0.4732 -1.0336 -0.0039
 5172SOL     OW26974   2.118   2.889  12.164  0.2741 -0.1142  0.0202
 5172SOL    HW126975   2.062   2.861  12.236 -0.0443 -2.0654 -0.9908
 5172SOL    HW226976   2.180   2.816  12.160 -3.8384 -3.7050  2.7052
 5173SOL     OW26977   3.241   0.428   7.050  1.0274  0.0186  0.3239
 5173SOL    HW126978   3.313   0.444   6.989 -1.1396  1.0550 -1.9326
 5173SOL    HW226979   3.172   0.475   7.005 -0.0639 -1.8895  0.0048
 5174SOL     OW26980   3.552   0.131   6.994  0.3563 -0.4851  0.4542
 5174SOL    HW126981   3.629   0.118   6.939  0.0517 -0.4591  0.0223
 5174SOL    HW226982   3.526   0.220   6.969  0.7128 -0.2649  0.8769
 5175SOL     OW26983   1.383   3.068   3.242 -0.1157 -0.1012  0.1877
 5175SOL    HW126984   1.354   2.988   3.285 -2.3603  0.9663  0.6609
 5175SOL    HW226985   1.457   3.035   3.190 -0.1537 -1.1202  0.7829
 5176SOL     OW26986   3.118   1.729   4.396 -0.1663  0.4627 -0.1829
 5176SOL    HW126987   3.065   1.757   4.470 -1.4330 -1.2247 -0.4526
 5176SOL    HW226988   3.077   1.780   4.326  1.1369  0.6274 -0.8370
 5177SOL     OW26989   0.515   1.526   8.845 -0.2749  0.0892 -0.4554
 5177SOL    HW126990   0.591   1.575   8.813  0.2221 -0.5789 -0.3236
 5177SOL    HW226991   0.573   1.476   8.903 -1.1492 -0.7409 -0.3055
 5178SOL     OW26992   1.773   1.517  17.420 -0.1516  0.0594 -0.9896
 5178SOL    HW126993   1.799   1.569  17.343  0.7906 -0.3482 -0.9478
 5178SOL    HW226994   1.742   1.579  17.486 -1.1506 -1.0723 -0.3988
 5179SOL     OW26995   2.844   3.078   9.606 -0.1768 -0.1627  0.0430
 5179SOL    HW126996   2.936   3.062   9.585 -0.4692  1.3267 -2.3779
 5179SOL    HW226997   2.844   3.172   9.623 -0.4132 -0.2679  0.6082
 5180SOL     OW26998   3.737   3.223   6.954 -0.1034 -0.4603  0.1257
 5180SOL    HW126999   3.825   3.219   6.990 -0.9406  1.0496  2.3259
 5180SOL    HW227000   3.731   3.131   6.927  1.1403 -0.2268 -0.9779
 5181SOL     OW27001   0.029   3.011  16.055  0.1410 -0.3278  0.2321
 5181SOL    HW127002   0.122   3.023  16.078 -0.4345  2.1753  1.1674
 5181SOL    HW227003   0.028   2.918  16.033 -1.1264  0.2484 -2.0616
 5182SOL     OW27004   3.750   4.242   9.631  0.0485  0.3225 -0.6009
 5182SOL    HW127005   3.682   4.279   9.575 -1.5929 -1.0604  0.4856
 5182SOL    HW227006   3.779   4.310   9.693 -0.9004  0.3717 -0.2154
 5183SOL     OW27007   0.896   4.469   4.872 -0.5831  0.0701  0.3018
 5183SOL    HW127008   0.879   4.473   4.966  0.0777 -1.3711  0.4831
 5183SOL    HW227009   0.920   4.377   4.867 -2.3287 -0.3367 -0.5473
 5184SOL     OW27010   4.618   1.932   0.020 -0.5520 -0.0034  0.2459
 5184SOL    HW127011   4.570   1.860  17.680  0.7710  0.0704 -1.3906
 5184SOL    HW227012   4.603   1.994  17.650  0.3522 -0.2567 -0.1591
 5185SOL     OW27013   3.678   3.629   4.863  0.0276 -0.5335  0.2716
 5185SOL    HW127014   3.596   3.675   4.879 -0.2997 -0.4173 -1.7929
 5185SOL    HW227015   3.643   3.547   4.828 -2.1646  1.6482 -2.6697
 5186SOL     OW27016   0.497   4.712   2.139 -0.4592  0.1303  0.0675
 5186SOL    HW127017   0.418   0.018   2.185  0.0509  0.0732  0.9741
 5186SOL    HW227018   0.558   0.046   2.183 -2.3105  0.2650  2.4603
 5187SOL     OW27019   0.781   4.477  16.270  0.2974 -0.3573 -0.1782
 5187SOL    HW127020   0.727   4.404  16.298 -0.9020  0.8665  0.7268
 5187SOL    HW227021   0.870   4.443  16.275 -0.0603 -1.4831 -1.6557
 5188SOL     OW27022   1.692   0.159  17.463 -0.2577  0.2670  0.3099
 5188SOL    HW127023   1.642   0.127  17.388 -3.1137  2.4876  1.2699
 5188SOL    HW227024   1.722   0.245  17.434  1.5092 -0.1042  1.0338
 5189SOL     OW27025   4.502   1.117   0.292 -0.0704  0.0056  0.2950
 5189SOL    HW127026   4.465   1.205   0.301 -2.0489 -0.7637 -0.3904
 5189SOL    HW227027   4.551   1.136   0.213 -0.5676  2.3570  0.5366
 5190SOL     OW27028   4.014   4.400   1.714 -0.2678  0.1554  0.6247
 5190SOL    HW127029   3.978   4.469   1.770  1.6870  0.8199  1.0604
 5190SOL    HW227030   4.103   4.398   1.749  0.7230 -0.1415 -1.9089
 5191SOL     OW27031   4.402   1.642   6.238 -0.1883  0.3297  0.2127
 5191SOL    HW127032   4.394   1.729   6.277 -2.5304 -0.9615  2.5874
 5191SOL    HW227033   4.333   1.649   6.172  0.3892 -0.5261 -0.4752
 5192SOL     OW27034   1.886   4.463  12.738  0.1243 -0.5523  0.0622
 5192SOL    HW127035   1.798   4.480  12.773  0.6923  2.4925  0.0616
 5192SOL    HW227036   1.934   4.543  12.759 -1.1665  0.1743  0.2400
 5193SOL     OW27037   1.438   4.547   4.570 -0.3702  0.2631 -0.2156
 5193SOL    HW127038   1.519   4.596   4.578  0.5552 -0.9691 -1.8908
 5193SOL    HW227039   1.369   4.614   4.569  1.3379  2.0095 -0.0760
 5194SOL     OW27040   2.099   2.105  13.646 -0.6098  0.1143 -0.2860
 5194SOL    HW127041   2.144   2.181  13.682  2.1339 -2.0987  0.9492
 5194SOL    HW227042   2.017   2.115  13.694 -0.3186 -3.0590  0.8661
 5195SOL     OW27043   3.389   3.155   7.148 -0.2118  0.3550  0.1359
 5195SOL    HW127044   3.442   3.221   7.103  0.6761 -2.7222 -3.2658
 5195SOL    HW227045   3.440   3.162   7.229 -0.5081  1.3786  0.2414
 5196SOL     OW27046   2.640   0.164  14.167 -0.2246  0.5131  0.0467
 5196SOL    HW127047   2.707   0.153  14.234  1.0577 -1.3630 -1.5334
 5196SOL    HW227048   2.636   0.085  14.113  2.2892  1.7408 -1.9897
 5197SOL     OW27049   1.124   1.580   6.527 -0.5809  0.3533 -0.3090
 5197SOL    HW127050   1.103   1.625   6.609 -1.2217 -0.4128 -0.0559
 5197SOL    HW227051   1.177   1.647   6.484 -0.6249  1.5015  1.4102
 5198SOL     OW27052   3.558   0.662   8.728 -0.2708  0.2191  0.4657
 5198SOL    HW127053   3.554   0.613   8.646  2.2658  1.0806 -0.1683
 5198SOL    HW227054   3.625   0.727   8.706 -0.8535  1.0138  1.0416
 5199SOL     OW27055   0.895   1.342   7.278  0.1550 -0.0311 -0.0773
 5199SOL    HW127056   0.939   1.422   7.307  1.5663 -0.9518  0.3053
 5199SOL    HW227057   0.952   1.273   7.311 -0.7243 -1.0516 -0.6816
 5200SOL     OW27058   3.717   2.609  16.498  0.5708  0.7147  0.2703
 5200SOL    HW127059   3.744   2.618  16.590  0.1995 -0.5913  0.5031
 5200SOL    HW227060   3.634   2.657  16.497  0.6577  0.8423 -1.5464
 5201SOL     OW27061   1.401   1.746  11.691  0.0110  0.6434 -0.1771
 5201SOL    HW127062   1.397   1.699  11.607 -0.0789  0.8309 -0.2778
 5201SOL    HW227063   1.320   1.715  11.731 -0.2699 -0.3749 -1.5065
 5202SOL     OW27064   2.695   3.428   2.724  0.5084 -0.4077 -0.4591
 5202SOL    HW127065   2.718   3.506   2.675  0.9055  0.4562  1.0855
 5202SOL    HW227066   2.719   3.357   2.665 -2.5515 -1.9789  0.1887
 5203SOL     OW27067   3.550   1.418   2.264 -0.3466 -0.1538  0.0878
 5203SOL    HW127068   3.522   1.424   2.172  1.3959 -1.0864 -0.5238
 5203SOL    HW227069   3.515   1.332   2.283 -3.6097  1.0628 -0.4932
 5204SOL     OW27070   0.050   0.882   4.840 -0.1801 -0.2965  0.4483
 5204SOL    HW127071   0.016   0.931   4.915  3.2758  1.3082  0.9483
 5204SOL    HW227072   4.703   0.825   4.813 -0.3222 -0.5098  1.2778
 5205SOL     OW27073   2.543   4.347   4.358  0.0092 -0.3271 -0.6039
 5205SOL    HW127074   2.611   4.401   4.318 -1.0319  2.8950  2.0143
 5205SOL    HW227075   2.559   4.269   4.304 -0.2932  0.2766 -1.5576
 5206SOL     OW27076   1.645   1.276   9.016 -0.8233 -0.0286 -1.1481
 5206SOL    HW127077   1.656   1.364   9.053 -0.3038 -1.3342  1.8383
 5206SOL    HW227078   1.738   1.253   9.011 -0.7880  0.1660 -1.3705
 5207SOL     OW27079   2.634   4.655   2.346  0.4313 -0.5052 -0.3517
 5207SOL    HW127080   2.653   4.588   2.280  0.2414  0.2017 -1.1200
 5207SOL    HW227081   2.555   4.628   2.392 -0.1722  0.8563 -0.5799
 5208SOL     OW27082   3.234   4.031  15.157  0.3562 -0.1569  0.4714
 5208SOL    HW127083   3.171   4.006  15.089 -0.0486 -0.8205  1.0849
 5208SOL    HW227084   3.232   3.966  15.227  2.0108 -2.6634 -1.7883
 5209SOL     OW27085   1.997   0.983   6.511  0.3299 -0.4745 -0.1220
 5209SOL    HW127086   1.992   1.019   6.599  1.6513 -1.0403  0.1841
 5209SOL    HW227087   1.938   1.044   6.466  2.7742  0.1613 -2.4977
 5210SOL     OW27088   4.597   3.454   6.539  0.4323 -0.3749 -0.1554
 5210SOL    HW127089   4.688   3.472   6.563  0.3277  1.3831 -1.1091
 5210SOL    HW227090   4.608   3.396   6.464 -1.4614  1.5008 -1.8559
 5211SOL     OW27091   3.561   4.369   4.660  0.8310  0.0187 -0.5130
 5211SOL    HW127092   3.575   4.437   4.594  4.3199  0.2359  0.4107
 5211SOL    HW227093   3.556   4.288   4.610 -1.2160  0.2709 -0.7139
 5212SOL     OW27094   4.694   2.270   3.752  0.1955  0.3124 -0.0987
 5212SOL    HW127095   4.699   2.364   3.769 -1.3333  0.3146  0.2683
 5212SOL    HW227096   4.607   2.271   3.712  0.1098 -0.2393  0.0651
 5213SOL     OW27097   0.113   1.479  15.721  0.0833  0.3785  0.2727
 5213SOL    HW127098   0.050   1.470  15.793  0.1772  0.5084  0.3713
 5213SOL    HW227099   0.138   1.390  15.698 -1.1468  0.5841 -1.8535
 5214SOL     OW27100   4.647   4.105   2.740 -0.3950  0.0312  0.0829
 5214SOL    HW127101   0.017   4.108   2.747 -0.4407  1.1653  0.2869
 5214SOL    HW227102   4.633   4.011   2.753  1.0363 -0.0432  1.0650
 5215SOL     OW27103   0.075   1.798  16.836  0.0460  0.2020 -0.1173
 5215SOL    HW127104   0.047   1.730  16.897  1.6122  1.5361  2.1144
 5215SOL    HW227105   0.159   1.818  16.879 -0.9303 -0.3234  2.0298
 5216SOL     OW27106   3.043   1.226  15.694  0.0240 -0.2458 -0.2842
 5216SOL    HW127107   3.064   1.315  15.667 -1.5724  0.2937  0.2053
 5216SOL    HW227108   3.051   1.238  15.788 -2.5368  3.1494 -0.4794
 5217SOL     OW27109   2.237   1.673   4.824  0.0754 -0.0821 -0.3749
 5217SOL    HW127110   2.313   1.701   4.876  0.0935  1.2205 -1.1078
 5217SOL    HW227111   2.214   1.752   4.776  1.2352  0.5981  0.1719
 5218SOL     OW27112   0.795   3.194   4.144 -0.2954 -0.5962 -0.8903
 5218SOL    HW127113   0.715   3.177   4.194 -1.1970  0.1341 -2.0786
 5218SOL    HW227114   0.826   3.103   4.143  4.0631  0.9111 -1.4139
 5219SOL     OW27115   2.654   4.157   6.586 -0.2180  0.1060  1.0770
 5219SOL    HW127116   2.646   4.181   6.678 -0.8143  2.1985  0.4724
 5219SOL    HW227117   2.700   4.232   6.549 -1.1503  0.9391  1.6008
 5220SOL     OW27118   1.417   2.363  11.803 -0.0979  0.4146 -0.1775
 5220SOL    HW127119   1.338   2.383  11.854 -1.0857 -1.6210 -0.9275
 5220SOL    HW227120   1.403   2.269  11.809 -1.5429  0.4942 -2.3424
 5221SOL     OW27121   0.054   1.428   3.362 -0.0165 -0.1274  0.0830
 5221SOL    HW127122   0.089   1.427   3.451 -1.8729  0.1874  0.8069
 5221SOL    HW227123   4.690   1.395   3.375 -0.3123  0.3674 -0.6864
 5222SOL     OW27124   3.327   4.020  13.587  0.0143 -0.5642  0.0143
 5222SOL    HW127125   3.357   3.929  13.587  3.2783  0.5376 -0.3226
 5222SOL    HW227126   3.254   4.010  13.648 -1.6881 -1.1239 -2.1038
 5223SOL     OW27127   1.008   4.301   3.511  0.3203  0.0031 -0.3253
 5223SOL    HW127128   1.052   4.381   3.538  0.3430  0.0137 -0.3935
 5223SOL    HW227129   0.948   4.292   3.585  0.6302  0.0555 -0.0664
 5224SOL     OW27130   3.495   0.239   9.161 -0.3130 -0.3548 -0.5681
 5224SOL    HW127131   3.450   0.308   9.212  0.2280  0.5734 -1.3503
 5224SOL    HW227132   3.583   0.263   9.132 -1.6416  2.5097 -2.2690
 5225SOL     OW27133   2.056   4.218  10.752  0.0865  0.5529  0.1164
 5225SOL    HW127134   2.087   4.278  10.820 -0.0713  0.6162  0.1320
 5225SOL    HW227135   1.961   4.219  10.756  0.0753  0.0924  0.0031
 5226SOL     OW27136   2.817   2.341  12.871 -0.3988  0.5492  0.0439
 5226SOL    HW127137   2.843   2.415  12.817 -1.8548  0.9547 -0.1091
 5226SOL    HW227138   2.741   2.382  12.912 -0.3914  2.0818 -1.4811
 5227SOL     OW27139   0.908   0.303  17.001 -0.1682 -0.5872  0.2813
 5227SOL    HW127140   0.873   0.338  16.919 -1.2276  0.4787  1.1846
 5227SOL    HW227141   0.858   0.221  17.003  2.1982 -2.0558 -2.0493
 5228SOL     OW27142   1.820   2.781   3.692  0.1929 -0.9272 -0.2426
 5228SOL    HW127143   1.803   2.830   3.773 -0.8425  0.4689 -1.2980
 5228SOL    HW227144   1.897   2.733   3.721  1.2168  0.7344 -0.2490
 5229SOL     OW27145   1.123   1.897   7.104  0.2409 -0.1081 -0.5465
 5229SOL    HW127146   1.083   1.813   7.083 -1.2831  0.2916  0.7645
 5229SOL    HW227147   1.117   1.891   7.200  0.9539  0.4972 -0.4673
 5230SOL     OW27148   0.664   2.581   6.485 -0.5792 -0.0955 -0.0284
 5230SOL    HW127149   0.571   2.599   6.468 -0.6934 -0.0950  0.5933
 5230SOL    HW227150   0.690   2.608   6.396 -2.0078 -1.3476 -0.8190
 5231SOL     OW27151   0.783   4.589   3.599  0.5466 -0.3967  0.0935
 5231SOL    HW127152   0.815   4.602   3.510  1.1682 -1.6322  0.1322
 5231SOL    HW227153   0.855   4.599   3.660 -0.1591  0.9943  0.6870
 5232SOL     OW27154   2.854   2.943   5.422 -0.0838 -0.1006 -0.2670
 5232SOL    HW127155   2.917   2.900   5.365 -0.6013  0.4335 -1.2417
 5232SOL    HW227156   2.885   2.922   5.510  2.1804  2.2939 -0.4672
 5233SOL     OW27157   2.174   2.006  14.187 -0.3309 -0.3714 -0.2148
 5233SOL    HW127158   2.185   1.914  14.163  0.6679 -0.2618 -0.1569
 5233SOL    HW227159   2.122   2.004  14.268  0.3318 -0.7520  0.2004
 5234SOL     OW27160   3.209   0.491  15.062 -0.0371 -0.3231  0.2255
 5234SOL    HW127161   3.223   0.509  14.969 -1.1185  0.0696  0.1332
 5234SOL    HW227162   3.123   0.533  15.073  2.2406  4.2806  0.4716
 5235SOL     OW27163   2.732   0.189   8.997  0.0752 -0.4283  0.6532
 5235SOL    HW127164   2.740   0.135   8.919 -0.1639  0.3463  0.0922
 5235SOL    HW227165   2.640   0.173   9.020 -0.5150 -2.2059 -3.0062
 5236SOL     OW27166   0.017   2.016   7.905 -0.3432 -0.7187  0.0631
 5236SOL    HW127167   0.048   2.089   7.852  1.5031 -0.2818  1.7332
 5236SOL    HW227168   0.061   2.034   7.988 -2.0118 -0.6901  0.9347
 5237SOL     OW27169   2.040   4.626   9.038 -0.2735  0.0407 -0.1601
 5237SOL    HW127170   1.963   4.583   9.075  0.8639  0.8478  3.1797
 5237SOL    HW227171   2.020   4.720   9.033  1.5171  0.4566  0.4996
 5238SOL     OW27172   2.287   2.042   6.096  0.1987 -0.2352 -0.6038
 5238SOL    HW127173   2.288   2.138   6.098 -2.4877 -0.2151  0.4053
 5238SOL    HW227174   2.194   2.019   6.107  0.4382 -0.3675  1.2044
 5239SOL     OW27175   4.667   2.593   1.064  0.7569  0.9193  0.4714
 5239SOL    HW127176   4.608   2.666   1.084 -0.8413 -0.3836  0.4843
 5239SOL    HW227177   4.643   2.532   1.134 -0.6888  0.5427 -0.3418
 5240SOL     OW27178   0.349   1.211   6.088 -0.5165  0.0319  0.2148
 5240SOL    HW127179   0.355   1.115   6.084 -2.3087 -0.0935  0.4460
 5240SOL    HW227180   0.300   1.227   6.169 -2.4174  1.3173 -1.1785
 5241SOL     OW27181   1.292   3.750   6.376  0.1634  0.2068 -0.1944
 5241SOL    HW127182   1.219   3.704   6.334  0.3171 -0.4346  0.2503
 5241SOL    HW227183   1.332   3.678   6.425 -0.1729 -0.5070 -0.9554
 5242SOL     OW27184   4.328   0.053   7.774 -0.4711  0.2144  0.2058
 5242SOL    HW127185   4.245   0.087   7.806 -0.6141  1.5595 -1.6382
 5242SOL    HW227186   4.372   0.026   7.855 -0.4549 -1.5759 -0.4017
 5243SOL     OW27187   1.305   0.983   3.163  0.1374  0.5459  0.7251
 5243SOL    HW127188   1.290   0.915   3.097 -0.9123  1.0074  0.4873
 5243SOL    HW227189   1.399   0.973   3.177  0.2960 -1.6738 -1.8347
 5244SOL     OW27190   3.385   2.658   6.881  0.2060 -0.7076 -0.0188
 5244SOL    HW127191   3.368   2.747   6.913 -1.9752 -1.0304 -0.3269
 5244SOL    HW227192   3.300   2.621   6.860  0.5765 -1.4386 -0.2230
 5245SOL     OW27193   0.529   3.181   3.855  0.8417 -0.0153 -0.0367
 5245SOL    HW127194   0.438   3.173   3.827  1.0162 -0.7161 -0.4016
 5245SOL    HW227195   0.562   3.100   3.816  1.6340  0.9392 -1.3696
 5246SOL     OW27196   0.107   3.414   3.422 -0.4262  0.2088  0.2790
 5246SOL    HW127197   0.115   3.402   3.517 -0.4627 -0.1888  0.2320
 5246SOL    HW227198   0.140   3.503   3.407 -2.9232  0.9335 -1.0211
 5247SOL     OW27199   2.111   3.632   0.360 -0.2431 -0.0006  0.4271
 5247SOL    HW127200   2.050   3.655   0.430  0.0370 -0.8519  0.9475
 5247SOL    HW227201   2.189   3.670   0.400  0.3615  0.2896 -1.0276
 5248SOL     OW27202   0.475   1.280  12.150  0.1777  0.3272  0.2103
 5248SOL    HW127203   0.523   1.234  12.081 -1.3124 -1.4615  0.3695
 5248SOL    HW227204   0.499   1.369  12.124 -4.1186  1.9547  1.7369
 5249SOL     OW27205   1.151   1.131   4.526  0.2465  0.1556 -0.0612
 5249SOL    HW127206   1.104   1.094   4.601 -0.0608 -0.6320 -0.6420
 5249SOL    HW227207   1.236   1.153   4.564  0.7621  0.6489 -1.5003
 5250SOL     OW27208   4.339   0.579   3.439 -0.4379  0.4004 -0.1758
 5250SOL    HW127209   4.299   0.659   3.475  1.6797 -0.3187  3.7757
 5250SOL    HW227210   4.420   0.569   3.490  0.3329  0.7308 -1.3252
 5251SOL     OW27211   3.365   0.531   8.333 -0.0275  0.0278 -0.0347
 5251SOL    HW127212   3.370   0.440   8.305  2.1556 -0.2263  1.1859
 5251SOL    HW227213   3.278   0.547   8.297 -0.3929  1.7705  1.5914
 5252SOL     OW27214   2.357   2.578   8.224 -0.2689  0.4117 -0.1234
 5252SOL    HW127215   2.271   2.595   8.262  0.8255  2.3499  1.4763
 5252SOL    HW227216   2.368   2.487   8.253 -1.6844  0.1176 -0.4851
 5253SOL     OW27217   0.208   1.039   0.127  0.1075 -0.8432 -0.0838
 5253SOL    HW127218   0.283   1.095   0.147 -1.5608  1.8870 -1.5282
 5253SOL    HW227219   0.223   0.964   0.185  0.6449  0.0447  0.9102
 5254SOL     OW27220   0.380   1.980   4.712  0.8478  0.1966  0.3873
 5254SOL    HW127221   0.362   2.014   4.625  0.2757 -3.8271 -1.0757
 5254SOL    HW227222   0.414   2.059   4.755  0.8066  0.9884 -1.0433
 5255SOL     OW27223   3.415   2.314   7.591 -0.5394  0.2565 -0.3457
 5255SOL    HW127224   3.380   2.372   7.659 -0.9551  0.0451 -0.3770
 5255SOL    HW227225   3.482   2.270   7.644 -0.9576  1.4667  1.1676
 5256SOL     OW27226   0.951   1.174  14.012  0.3244 -0.3546 -0.1304
 5256SOL    HW127227   0.978   1.101  13.957  0.1127  0.6120 -1.5321
 5256SOL    HW227228   0.866   1.193  13.971  0.4912  3.9588  1.5611
 5257SOL     OW27229   3.252   0.382   5.146  0.4107  0.1587 -0.2618
 5257SOL    HW127230   3.228   0.383   5.053  1.5911  1.1660 -0.5418
 5257SOL    HW227231   3.255   0.288   5.161 -0.7226  0.1550 -0.0267
 5258SOL     OW27232   4.128   2.484   7.127  0.5183 -0.0384 -0.6054
 5258SOL    HW127233   4.054   2.518   7.077  0.2121  0.7314  0.3621
 5258SOL    HW227234   4.194   2.483   7.058  1.5025 -2.9902  0.3496
 5259SOL     OW27235   1.876   4.699   5.960 -0.0024 -0.4686 -0.1694
 5259SOL    HW127236   1.813   4.684   6.030 -0.6606  3.0305  0.0109
 5259SOL    HW227237   1.944   4.639   5.990  2.3287  1.3205 -1.7955
 5260SOL     OW27238   0.732   1.511   6.601  0.3856 -0.5095  0.1026
 5260SOL    HW127239   0.694   1.436   6.556  2.7435 -0.7124 -1.5183
 5260SOL    HW227240   0.673   1.574   6.559 -0.2256  1.7167  4.3124
 5261SOL     OW27241   4.257   1.091   7.453 -0.0573  0.3699 -0.1458
 5261SOL    HW127242   4.189   1.106   7.387  0.7666 -0.5335 -1.1821
 5261SOL    HW227243   4.207   1.042   7.519 -0.5943  0.6047 -0.3772
 5262SOL     OW27244   0.964   0.525   4.708  0.2926 -0.4096  0.1814
 5262SOL    HW127245   0.979   0.512   4.615 -0.3170  0.4702 -0.0374
 5262SOL    HW227246   0.992   0.438   4.739 -0.3558 -0.3184  1.0392
 5263SOL     OW27247   1.442   0.439   3.338  0.7667  0.0470  0.4372
 5263SOL    HW127248   1.357   0.397   3.326  1.4386 -1.4999  1.1392
 5263SOL    HW227249   1.489   0.411   3.259  0.9436  0.2530  0.4702
 5264SOL     OW27250   3.353   4.490   2.222  0.7320  1.0219  0.3434
 5264SOL    HW127251   3.379   4.567   2.171  1.3552 -0.0251 -0.9462
 5264SOL    HW227252   3.425   4.472   2.283  0.9074 -1.9441 -0.7272
 5265SOL     OW27253   2.996   1.679  10.551 -0.4989  0.4426  0.7693
 5265SOL    HW127254   2.954   1.655  10.634 -1.4063  0.5854  0.3481
 5265SOL    HW227255   2.955   1.762  10.527 -0.9968 -0.5714 -1.8092
 5266SOL     OW27256   1.912   4.457  11.630  0.0580  0.0477  0.3445
 5266SOL    HW127257   1.955   4.401  11.566 -1.1627  1.7976 -2.0111
 5266SOL    HW227258   1.885   4.399  11.701  0.8308 -1.0847 -0.2899
 5267SOL     OW27259   1.598   3.784   8.726 -0.4830  1.1723  0.6621
 5267SOL    HW127260   1.661   3.713   8.721 -1.0505  1.0017 -4.0258
 5267SOL    HW227261   1.633   3.830   8.803  1.8769  2.8051 -1.3985
 5268SOL     OW27262   0.300   2.086   8.673 -0.3892  0.1272 -0.4220
 5268SOL    HW127263   0.279   2.173   8.640 -2.8221  0.1048  1.0641
 5268SOL    HW227264   0.360   2.050   8.608 -0.6755  0.8288 -1.0679
 5269SOL     OW27265   1.725   0.909   3.545 -0.5467 -0.0233 -0.0918
 5269SOL    HW127266   1.757   0.890   3.457  0.7897 -1.2025  0.6560
 5269SOL    HW227267   1.634   0.935   3.529 -0.3315  0.2678 -0.8322
 5270SOL     OW27268   1.164   4.419  11.668  0.0046 -0.4547 -0.3493
 5270SOL    HW127269   1.233   4.464  11.717 -0.8400  2.5215 -1.8438
 5270SOL    HW227270   1.194   4.328  11.666  0.5992 -0.2664 -0.2239
 5271SOL     OW27271   3.764   2.749  12.287 -0.7401  0.1595  0.2876
 5271SOL    HW127272   3.675   2.723  12.261 -0.7845  0.7189 -0.1125
 5271SOL    HW227273   3.775   2.706  12.371 -0.6814  0.9265  0.6672
 5272SOL     OW27274   1.190   4.035   7.674 -0.4275  0.9613 -0.1951
 5272SOL    HW127275   1.120   3.970   7.678  0.6657 -0.1752  0.4834
 5272SOL    HW227276   1.206   4.067   7.763  0.8093  0.4729 -0.2412
 5273SOL     OW27277   3.610   2.666   1.787  0.3667  0.2652 -0.0965
 5273SOL    HW127278   3.557   2.682   1.709 -0.4809 -1.0317  0.2182
 5273SOL    HW227279   3.573   2.583   1.816 -1.6530  1.4662  0.8079
 5274SOL     OW27280   0.717   3.624   6.128  0.1159  0.8494 -0.0962
 5274SOL    HW127281   0.711   3.564   6.053  0.4280  2.9522 -1.8116
 5274SOL    HW227282   0.624   3.645   6.130 -0.0292  0.1972  0.2778
 5275SOL     OW27283   1.452   1.574   2.434 -0.2318 -0.2148  0.2201
 5275SOL    HW127284   1.394   1.591   2.360 -0.2556 -0.2370  0.2336
 5275SOL    HW227285   1.396   1.600   2.508 -1.9921 -1.8858 -0.5204
 5276SOL     OW27286   4.450   2.487   3.365  0.1473 -0.0513 -0.3597
 5276SOL    HW127287   4.535   2.453   3.335  0.7942 -0.3433  1.8073
 5276SOL    HW227288   4.470   2.554   3.430 -0.8246 -0.5689  0.4641
 5277SOL     OW27289   2.915   3.666   3.938  0.3921 -0.5903 -0.0283
 5277SOL    HW127290   2.987   3.719   3.906 -1.2384  0.7604 -1.4611
 5277SOL    HW227291   2.848   3.673   3.871  1.6018 -1.7678 -1.3742
 5278SOL     OW27292   0.638   0.278   0.773 -0.0871 -0.6520  0.3541
 5278SOL    HW127293   0.676   0.365   0.764  1.0923 -1.1765  0.3028
 5278SOL    HW227294   0.556   0.288   0.821 -0.6827 -1.3388 -0.5292
 5279SOL     OW27295   2.952   3.592   0.420  0.1131  0.2657  0.1356
 5279SOL    HW127296   2.879   3.533   0.438  0.0430 -0.1310 -1.4305
 5279SOL    HW227297   2.903   3.675   0.418 -1.5943 -0.7559 -0.4253
 5280SOL     OW27298   4.274   0.628  13.624  0.4066 -0.0460  0.5816
 5280SOL    HW127299   4.351   0.571  13.633  1.0255  0.5100 -1.2129
 5280SOL    HW227300   4.308   0.712  13.655  0.7449 -0.5302  1.5578
 5281SOL     OW27301   2.946   1.905   7.425 -0.4334  0.1988 -0.8269
 5281SOL    HW127302   2.945   1.836   7.358  1.2763 -1.4722  0.8990
 5281SOL    HW227303   3.039   1.906   7.447 -0.4701 -0.9563 -0.6466
 5282SOL     OW27304   4.625   2.846  13.774  0.4852 -0.3897  0.3917
 5282SOL    HW127305   4.557   2.912  13.789 -0.4987 -1.2608 -0.2189
 5282SOL    HW227306   4.652   2.878  13.688  1.5282 -1.2474  0.3985
 5283SOL     OW27307   4.503   0.161   7.196 -0.1124 -0.3331  0.9172
 5283SOL    HW127308   4.504   0.136   7.289  1.9352 -0.3368  0.8810
 5283SOL    HW227309   4.525   0.084   7.144 -1.3890 -1.1112  1.5237
 5284SOL     OW27310   3.129   2.172   2.569 -0.5720  0.3811  0.1091
 5284SOL    HW127311   3.041   2.149   2.598  0.5075  0.0081  3.1790
 5284SOL    HW227312   3.121   2.188   2.475 -0.1882 -0.4020 -0.0640
 5285SOL     OW27313   0.411   0.045  15.388  0.0768  1.0059 -0.6107
 5285SOL    HW127314   0.453   4.684  15.387 -3.1661 -0.5278 -2.7605
 5285SOL    HW227315   0.392   0.052  15.482 -0.2712 -1.6514 -0.4903
 5286SOL     OW27316   3.723   2.491  12.079 -0.2819  0.0567  0.2900
 5286SOL    HW127317   3.751   2.434  12.152  2.6501 -2.1199 -2.5574
 5286SOL    HW227318   3.642   2.524  12.119 -0.1253 -1.9681  2.3199
 5287SOL     OW27319   3.405   0.615   9.081  0.4618 -0.6443 -0.2498
 5287SOL    HW127320   3.343   0.688   9.075  0.8516 -0.4262 -1.6337
 5287SOL    HW227321   3.491   0.657   9.085 -0.0371  0.2713  0.7068
 5288SOL     OW27322   4.547   0.600   4.915 -0.5215  0.4750  0.2719
 5288SOL    HW127323   4.541   0.564   4.826 -1.3816 -0.6066  0.7682
 5288SOL    HW227324   4.606   0.537   4.955  0.1229  0.1957 -1.1013
 5289SOL     OW27325   0.217   2.628  17.206 -0.1971 -0.6118  0.4278
 5289SOL    HW127326   0.154   2.564  17.241  0.6461 -2.2404 -1.0687
 5289SOL    HW227327   0.227   2.596  17.117 -1.5140  1.6394 -0.5312
 5290SOL     OW27328   1.356   2.048   6.655  0.3839  0.1585 -0.5706
 5290SOL    HW127329   1.451   2.047   6.642  0.3927 -2.4464 -0.2228
 5290SOL    HW227330   1.336   2.138   6.681  0.0133 -0.5059  1.4434
 5291SOL     OW27331   1.831   0.273   4.772 -0.7017  0.6039  0.0342
 5291SOL    HW127332   1.815   0.258   4.679  0.8276  1.0812 -0.2911
 5291SOL    HW227333   1.780   0.354   4.782  0.1698  1.1670 -0.1741
 5292SOL     OW27334   1.932   1.233   7.610 -0.1620 -0.4270  0.3278
 5292SOL    HW127335   1.840   1.224   7.635 -0.3884  1.4799  0.2469
 5292SOL    HW227336   1.934   1.236   7.514 -0.8764  0.8957  0.3410
 5293SOL     OW27337   4.315   2.800  11.877  0.0153  0.0194 -0.0852
 5293SOL    HW127338   4.394   2.787  11.928 -0.3936 -1.7987  0.0897
 5293SOL    HW227339   4.328   2.740  11.803  3.2570  0.3795  0.1851
 5294SOL     OW27340   1.488   4.122  10.633 -0.1745  0.1065 -0.0395
 5294SOL    HW127341   1.436   4.124  10.552  0.4502  0.0471 -0.4359
 5294SOL    HW227342   1.574   4.091  10.607 -1.1458 -0.6848 -2.3319
 5295SOL     OW27343   0.051   0.068   3.681 -0.0276  0.3641  0.3325
 5295SOL    HW127344   0.003   4.719   3.719 -0.5249 -1.0764 -2.9931
 5295SOL    HW227345   0.068   0.035   3.592  0.3265 -0.2795  0.6364
 5296SOL     OW27346   2.805   0.246  15.717  0.1247  0.0071 -0.1211
 5296SOL    HW127347   2.839   0.305  15.649 -0.9609  1.8037  0.8738
 5296SOL    HW227348   2.846   0.163  15.696  0.8237  0.7456 -1.7251
 5297SOL     OW27349   0.851   3.769   4.883  0.3914 -0.3504  0.2270
 5297SOL    HW127350   0.799   3.699   4.844  0.4024 -0.7871  1.0058
 5297SOL    HW227351   0.807   3.839   4.834 -0.5488 -1.5103 -0.5820
 5298SOL     OW27352   4.089   1.582   1.208  0.1188  0.5093 -0.0823
 5298SOL    HW127353   4.047   1.647   1.265 -0.3245 -0.2514  0.4648
 5298SOL    HW227354   4.183   1.599   1.205  0.3848 -1.0985 -0.7747
 5299SOL     OW27355   2.257   2.709   9.814  0.1869 -0.0128  0.1499
 5299SOL    HW127356   2.306   2.633   9.845  0.2602 -1.0813 -2.5552
 5299SOL    HW227357   2.276   2.778   9.878  0.0364 -1.2339  1.4997
 5300SOL     OW27358   0.757   2.343   9.558  0.7374 -0.4018 -0.0631
 5300SOL    HW127359   0.709   2.403   9.616 -1.6571 -0.3209 -2.1447
 5300SOL    HW227360   0.773   2.262   9.606  0.4258 -1.5944 -1.9904
 5301SOL     OW27361   0.764   0.262   6.590 -1.0084 -0.4693  0.6092
 5301SOL    HW127362   0.722   0.193   6.539  0.2739  0.4652 -1.6892
 5301SOL    HW227363   0.857   0.244   6.575 -1.5031 -2.8017  0.2717
 5302SOL     OW27364   3.864   0.588   2.130  0.1315 -0.2563 -0.1628
 5302SOL    HW127365   3.772   0.600   2.109 -0.3204 -1.7559  0.9982
 5302SOL    HW227366   3.896   0.678   2.132 -1.9001  0.5231 -2.5223
 5303SOL     OW27367   3.269   1.321   7.657  0.0232 -0.1093 -0.3698
 5303SOL    HW127368   3.310   1.343   7.740 -0.7435  0.1428 -0.0596
 5303SOL    HW227369   3.175   1.309   7.670  0.3736 -1.0590  1.2592
 5304SOL     OW27370   4.239   1.214  16.668  0.5993  0.5646 -0.0983
 5304SOL    HW127371   4.216   1.186  16.757  0.1007  1.3742  0.0347
 5304SOL    HW227372   4.324   1.254  16.686  0.8591 -0.1260  0.1932
 5305SOL     OW27373   3.166   1.409   6.407 -0.0699 -0.1347 -0.6687
 5305SOL    HW127374   3.106   1.423   6.334  0.8791 -2.2711 -1.8764
 5305SOL    HW227375   3.119   1.440   6.484 -1.8008 -1.8547 -1.0195
 5306SOL     OW27376   3.862   4.509  15.445 -0.4067 -0.2683 -0.0593
 5306SOL    HW127377   3.863   4.574  15.514  1.0726  1.2662 -1.5308
 5306SOL    HW227378   3.767   4.500  15.436 -0.3509  0.1725 -1.0905
 5307SOL     OW27379   0.228   0.810   3.255 -0.2818  0.2340 -0.0482
 5307SOL    HW127380   0.150   0.866   3.265 -0.4767  0.0767 -0.7316
 5307SOL    HW227381   0.250   0.805   3.348 -0.2751 -3.0532 -0.2117
 5308SOL     OW27382   2.101   4.659   6.369  0.1468  0.1890  0.0419
 5308SOL    HW127383   2.194   4.676   6.383  0.4918 -1.3912 -0.3175
 5308SOL    HW227384   2.084   4.577   6.415  1.9335 -0.7205 -0.9239
 5309SOL     OW27385   2.630   2.268   8.961  0.8141  0.1447  0.2653
 5309SOL    HW127386   2.701   2.305   8.909  1.1684 -2.2101 -0.9152
 5309SOL    HW227387   2.560   2.332   8.945  1.7998  0.6981 -1.7811
 5310SOL     OW27388   2.746   1.448   7.770  0.1093 -0.0231  0.2172
 5310SOL    HW127389   2.673   1.492   7.728  1.0159 -0.8414 -2.2220
 5310SOL    HW227390   2.791   1.515   7.821  1.3131 -0.6532 -0.0056
 5311SOL     OW27391   4.344   1.124   2.968 -0.2656  0.0256  0.2043
 5311SOL    HW127392   4.401   1.172   3.028 -1.9004  1.8536  0.2880
 5311SOL    HW227393   4.398   1.095   2.894 -2.2661 -0.6735 -0.9815
 5312SOL     OW27394   1.680   4.481  13.994  0.1533  0.3403 -0.2051
 5312SOL    HW127395   1.685   4.520  14.082  1.3808 -0.1828 -0.0584
 5312SOL    HW227396   1.616   4.543  13.958 -0.8795 -1.0826 -0.8025
 5313SOL     OW27397   3.265   3.958   6.938  0.4136 -0.1503 -0.2509
 5313SOL    HW127398   3.347   3.914   6.960  0.0423 -0.7020  0.0248
 5313SOL    HW227399   3.257   4.034   6.996 -0.1806  0.5678 -1.2825
 5314SOL     OW27400   3.147   1.395   8.393 -0.2491  0.4849 -0.1615
 5314SOL    HW127401   3.117   1.470   8.343  1.6560  1.7782  0.6166
 5314SOL    HW227402   3.242   1.410   8.397 -0.1530 -0.6472  2.1380
 5315SOL     OW27403   1.698   0.347   2.856  0.2613 -0.2471  0.3188
 5315SOL    HW127404   1.661   0.326   2.771  1.5406  3.0634 -1.0661
 5315SOL    HW227405   1.782   0.304   2.836  1.7032  2.1476  1.1569
 5316SOL     OW27406   3.825   4.132   2.300  0.5134 -0.8684 -0.7757
 5316SOL    HW127407   3.911   4.157   2.264  0.9604  1.9960  2.3187
 5316SOL    HW227408   3.793   4.210   2.346  0.2494 -1.7060  0.4406
 5317SOL     OW27409   2.749   3.748  16.663 -0.1484 -0.4178 -0.0369
 5317SOL    HW127410   2.766   3.831  16.708  0.1826  0.8266 -2.4957
 5317SOL    HW227411   2.666   3.766  16.619 -0.4723  0.9591  1.1329
 5318SOL     OW27412   4.672   1.872   0.714  0.3676  0.0801 -0.3678
 5318SOL    HW127413   4.720   1.899   0.635 -1.8335 -0.2790 -1.8240
 5318SOL    HW227414   4.583   1.854   0.685  0.5074  1.8224 -1.8846
 5319SOL     OW27415   3.429   4.237   5.741 -0.1988  0.8661  0.3138
 5319SOL    HW127416   3.455   4.317   5.787  0.9920 -0.1514  1.4313
 5319SOL    HW227417   3.497   4.180   5.777 -1.5673  0.2042  1.8612
 5320SOL     OW27418   4.017   1.427   8.840 -0.2567  0.3137 -0.0151
 5320SOL    HW127419   3.994   1.344   8.798 -2.0464  0.1967  1.1684
 5320SOL    HW227420   3.937   1.476   8.817  0.2772  0.0331 -2.4176
 5321SOL     OW27421   3.453   4.053   7.334 -0.1772 -0.0447  0.2884
 5321SOL    HW127422   3.429   3.960   7.324 -0.9341  0.2435 -0.5294
 5321SOL    HW227423   3.519   4.079   7.269 -0.0551  1.4153  1.0049
 5322SOL     OW27424   3.046   2.783  17.276  0.1521  0.7044 -0.2443
 5322SOL    HW127425   3.103   2.737  17.338  0.6983 -0.5763 -1.7219
 5322SOL    HW227426   3.085   2.747  17.197 -0.5051  2.6567 -1.4721
 5323SOL     OW27427   1.428   4.340   5.531 -0.1179 -0.2470 -0.2420
 5323SOL    HW127428   1.432   4.427   5.570  0.3226 -0.7590  0.8504
 5323SOL    HW227429   1.516   4.304   5.547  0.4330  0.1022 -2.5367
 5324SOL     OW27430   2.809   4.367   6.511  0.6666 -0.1963 -0.2766
 5324SOL    HW127431   2.904   4.373   6.526  0.6784  1.8295 -1.2903
 5324SOL    HW227432   2.808   4.386   6.417 -0.8100  1.2846  0.0636
 5325SOL     OW27433   0.909   4.663   2.366  0.7144 -0.5078 -0.3655
 5325SOL    HW127434   0.964   4.631   2.438  0.6093  1.5523  0.6090
 5325SOL    HW227435   0.977   4.704   2.312  0.7711 -1.3275 -0.9299
 5326SOL     OW27436   3.695   0.661   3.831 -0.2806 -0.3327 -0.2269
 5326SOL    HW127437   3.669   0.611   3.909  2.6682 -0.6822  0.5376
 5326SOL    HW227438   3.745   0.592   3.787  0.0222 -0.3122  0.0739
 5327SOL     OW27439   3.981   4.661  13.886  0.0156 -0.2596  0.3563
 5327SOL    HW127440   4.060   4.636  13.935 -0.2957 -1.2365  0.3652
 5327SOL    HW227441   3.936   4.576  13.885 -1.1181  0.3713 -1.5289
 5328SOL     OW27442   1.528   4.396   8.816 -0.4217  0.3319  0.0838
 5328SOL    HW127443   1.568   4.460   8.875 -0.0302  0.4924 -0.3546
 5328SOL    HW227444   1.436   4.420   8.819 -0.4463  0.1497  0.8195
 5329SOL     OW27445   1.689   0.836   7.847 -0.1067 -0.1696  0.6008
 5329SOL    HW127446   1.682   0.864   7.938 -2.5087 -0.1292  0.4147
 5329SOL    HW227447   1.615   0.775   7.842 -1.4136  1.1796  3.0094
 5330SOL     OW27448   3.185   2.732   4.754 -0.1300 -0.8278  0.0916
 5330SOL    HW127449   3.201   2.658   4.813  0.6656 -2.9575 -2.7444
 5330SOL    HW227450   3.274   2.767   4.744 -1.2657  1.5738 -1.6210
 5331SOL     OW27451   4.669   3.103  12.826 -0.0152 -0.2981  0.2978
 5331SOL    HW127452   4.722   3.071  12.754  0.0736 -3.3702  1.7321
 5331SOL    HW227453   4.606   3.032  12.835 -1.0350  0.3174 -2.1311
 5332SOL     OW27454   4.712   3.144   1.074 -0.0704  0.1348  0.3438
 5332SOL    HW127455   0.041   3.223   1.072 -0.9009  0.7095  0.3734
 5332SOL    HW227456   4.625   3.180   1.094 -0.0213 -0.3408  1.4136
 5333SOL     OW27457   1.072   1.964   7.360 -0.1356  0.1503  0.1544
 5333SOL    HW127458   1.139   1.974   7.427  0.5154 -1.6628 -0.2160
 5333SOL    HW227459   0.987   1.995   7.391 -0.5733  0.8720 -1.7359
 5334SOL     OW27460   1.001   2.319   2.631 -0.3437  0.6560  0.5110
 5334SOL    HW127461   0.967   2.362   2.552  1.2273  0.4575 -0.2713
 5334SOL    HW227462   1.057   2.388   2.666  0.3407 -0.0172  0.7414
 5335SOL     OW27463   3.937   4.723   2.202  0.6283  0.0564  0.3885
 5335SOL    HW127464   3.966   4.655   2.263  1.7791 -0.8168 -1.1257
 5335SOL    HW227465   4.018   0.032   2.164  2.1907 -0.7977  2.9083
 5336SOL     OW27466   4.291   2.384   4.494  0.8656 -0.1496 -0.4298
 5336SOL    HW127467   4.295   2.318   4.425 -0.5764 -0.4398 -0.2531
 5336SOL    HW227468   4.372   2.380   4.544  0.8962 -1.1701 -0.5533
 5337SOL     OW27469   3.437   1.877   8.807 -0.4858 -0.3183 -0.0140
 5337SOL    HW127470   3.344   1.898   8.814 -0.4510  0.4586 -2.0075
 5337SOL    HW227471   3.470   1.876   8.897 -1.8265 -0.7130  0.4817
 5338SOL     OW27472   1.993   0.508   8.356 -0.1632  0.2155  0.1168
 5338SOL    HW127473   2.020   0.436   8.414 -0.6268 -0.9621 -1.1510
 5338SOL    HW227474   1.954   0.562   8.425 -0.9023  1.0210 -0.9333
 5339SOL     OW27475   1.930   0.140   7.127  0.2293  0.2861  0.0580
 5339SOL    HW127476   1.887   0.212   7.174  1.4700 -0.4366  2.2696
 5339SOL    HW227477   1.893   0.151   7.039 -1.1853 -0.1676  0.6013
 5340SOL     OW27478   4.237   0.310   9.201 -0.3511  0.3391  0.1911
 5340SOL    HW127479   4.185   0.262   9.265 -0.9192  0.7213  0.0162
 5340SOL    HW227480   4.270   0.238   9.149 -0.9811  0.1938 -0.0075
 5341SOL     OW27481   4.209   2.057  14.005 -0.1347  0.4438  0.0420
 5341SOL    HW127482   4.228   2.020  13.919 -0.8007  2.0562 -0.8130
 5341SOL    HW227483   4.257   2.138  13.985  0.2133  0.1174 -0.4335
 5342SOL     OW27484   0.788   3.403   3.933 -0.2573 -0.1494 -0.0051
 5342SOL    HW127485   0.822   3.471   3.990  2.7743 -0.5643 -1.3504
 5342SOL    HW227486   0.773   3.344   4.007  2.6651  2.2662  2.4956
 5343SOL     OW27487   4.270   2.473   5.182  0.3859 -0.0330 -0.6117
 5343SOL    HW127488   4.218   2.548   5.153  0.1440  0.3701  0.8410
 5343SOL    HW227489   4.252   2.481   5.276  2.7254 -0.7403 -0.0997
 5344SOL     OW27490   3.276   0.128   3.883  0.0499 -0.3491 -0.3994
 5344SOL    HW127491   3.293   0.109   3.791  0.9803  0.3848 -0.3747
 5344SOL    HW227492   3.283   0.224   3.889 -2.0454 -0.2136 -0.1284
 5345SOL     OW27493   2.757   1.424   5.024 -0.0725  0.5856  0.2764
 5345SOL    HW127494   2.716   1.345   4.989 -0.2431  1.7983 -2.2482
 5345SOL    HW227495   2.828   1.443   4.963  2.2141 -0.7305  2.5584
 5346SOL     OW27496   3.602   2.495   7.475 -0.2275  0.3208  0.0522
 5346SOL    HW127497   3.532   2.440   7.510  0.2673 -1.1257 -1.2177
 5346SOL    HW227498   3.600   2.464   7.385 -2.7514  0.6788 -0.0030
 5347SOL     OW27499   1.300   3.196   5.871  0.1243 -0.0489  0.2214
 5347SOL    HW127500   1.213   3.211   5.834  1.8609  1.7936 -3.1153
 5347SOL    HW227501   1.335   3.284   5.855  0.2393 -0.1709 -0.2125
 5348SOL     OW27502   0.035   0.475   6.258 -0.2903  0.1777  0.6345
 5348SOL    HW127503   0.073   0.556   6.291 -1.0660 -1.1807  4.8872
 5348SOL    HW227504   0.007   0.439   6.342  1.1829 -0.1100  1.0003
 5349SOL     OW27505   0.747   2.553   9.013 -0.7508 -0.3854  0.0440
 5349SOL    HW127506   0.731   2.556   9.107  1.3540 -3.1012  0.4589
 5349SOL    HW227507   0.671   2.500   8.988 -0.9669 -0.8724  1.7077
 5350SOL     OW27508   3.143   4.472  10.249 -0.4402  0.5852 -0.8676
 5350SOL    HW127509   3.083   4.500  10.180 -2.7344 -1.6909  0.2255
 5350SOL    HW227510   3.148   4.553  10.301  0.6083  0.6457 -1.0641
 5351SOL     OW27511   4.399   2.345  12.204 -0.0865  0.4390 -0.3953
 5351SOL    HW127512   4.370   2.254  12.212 -1.2809  0.9141  0.6078
 5351SOL    HW227513   4.326   2.395  12.241  0.1151  0.3034  0.1715
 5352SOL     OW27514   3.571   3.610   4.179 -0.0601  0.8287  0.2390
 5352SOL    HW127515   3.627   3.687   4.174  0.7031  0.3520  1.2570
 5352SOL    HW227516   3.488   3.647   4.209 -0.2784  1.3330 -0.9942
 5353SOL     OW27517   0.567   2.410   5.271 -0.2713 -0.2130  0.2821
 5353SOL    HW127518   0.496   2.386   5.329  0.7428 -0.2026  1.5228
 5353SOL    HW227519   0.588   2.325   5.230 -0.3583 -0.3315  0.4845
 5354SOL     OW27520   0.107   2.392   2.651  0.0937 -0.2673 -0.2445
 5354SOL    HW127521   0.078   2.426   2.566  0.6456  0.2851 -0.2185
 5354SOL    HW227522   0.128   2.470   2.702 -1.3093 -0.1641  0.1706
 5355SOL     OW27523   1.193   1.434  11.162 -0.3007 -0.5229 -0.0884
 5355SOL    HW127524   1.286   1.424  11.142 -0.6433 -2.6403 -0.6516
 5355SOL    HW227525   1.152   1.365  11.109 -0.9581 -1.7552  2.0335
 5356SOL     OW27526   4.472   2.713  16.067  0.1352 -0.2063  0.3116
 5356SOL    HW127527   4.427   2.794  16.087 -0.8552 -1.1526  1.9162
 5356SOL    HW227528   4.422   2.658  16.126  0.3583  0.8715  1.4925
 5357SOL     OW27529   2.695   1.938   3.359  0.0372 -0.4793  0.0258
 5357SOL    HW127530   2.731   1.921   3.446 -3.9078  0.6146  1.8459
 5357SOL    HW227531   2.710   1.855   3.313 -2.1826 -1.1187  0.4404
 5358SOL     OW27532   3.095   0.926  11.247 -0.5385  0.7144 -0.0126
 5358SOL    HW127533   3.186   0.910  11.219 -0.7077 -1.0998  0.4522
 5358SOL    HW227534   3.123   0.993  11.309  1.0086 -0.1094  0.1787
 5359SOL     OW27535   3.000   0.913  16.338 -0.0034  0.0087 -0.1946
 5359SOL    HW127536   3.023   0.930  16.246 -1.9498 -0.6766 -0.8059
 5359SOL    HW227537   2.916   0.959  16.347  0.2661  0.0030  2.4194
 5360SOL     OW27538   0.948   3.022   8.923 -0.4578  1.1570 -0.3905
 5360SOL    HW127539   0.883   3.075   8.970 -1.0043 -0.2193  0.4051
 5360SOL    HW227540   0.893   2.944   8.908  0.8821  0.3635 -1.1887
 5361SOL     OW27541   1.439   3.709   1.027  0.3631  0.4594  0.3057
 5361SOL    HW127542   1.448   3.805   1.024  0.7458  0.4006 -0.5500
 5361SOL    HW227543   1.344   3.709   1.029  0.3012 -0.0973 -2.4510
 5362SOL     OW27544   0.934   1.021  11.062 -0.0662  0.0623  0.1090
 5362SOL    HW127545   0.971   0.956  11.003  0.2772  0.8222 -0.5235
 5362SOL    HW227546   0.869   0.964  11.103  1.1503 -0.6235  1.0912
 5363SOL     OW27547   0.334   1.189  11.428 -0.3587  0.4924 -0.1305
 5363SOL    HW127548   0.371   1.260  11.377  1.2396  0.9427  1.6729
 5363SOL    HW227549   0.377   1.212  11.510 -1.2468 -1.3728  0.8647
 5364SOL     OW27550   0.890   2.911   4.167 -0.0237  0.1536 -0.0574
 5364SOL    HW127551   0.909   2.936   4.077  1.1898  1.5919  0.5961
 5364SOL    HW227552   0.967   2.858   4.186 -0.9820 -1.8570 -1.9305
 5365SOL     OW27553   2.764   2.453  15.504 -0.0099  0.2691 -0.1443
 5365SOL    HW127554   2.841   2.479  15.555  0.7034 -0.8898 -0.6437
 5365SOL    HW227555   2.770   2.359  15.522  0.0704  0.0234 -1.4963
 5366SOL     OW27556   4.492   1.291   8.264 -0.0407  0.0637 -0.4561
 5366SOL    HW127557   4.529   1.343   8.335 -1.1580 -2.3410  1.9014
 5366SOL    HW227558   4.484   1.359   8.198 -1.9748  0.1261 -0.1692
 5367SOL     OW27559   4.429   4.040  10.264  0.2325 -0.0053 -0.2633
 5367SOL    HW127560   4.505   3.983  10.272  1.7934  1.9964 -0.7910
 5367SOL    HW227561   4.429   4.084  10.349 -2.4875 -1.6469  0.6042
 5368SOL     OW27562   0.999   4.526   7.309 -0.0145 -0.1327  0.0032
 5368SOL    HW127563   1.059   4.571   7.369  2.4982 -1.2423 -1.6889
 5368SOL    HW227564   0.911   4.542   7.343 -0.0688 -1.8259  0.6817
 5369SOL     OW27565   0.807   2.144  10.903  0.4230  0.2032  0.2165
 5369SOL    HW127566   0.741   2.140  10.834  0.6128 -1.4863  0.1220
 5369SOL    HW227567   0.748   2.138  10.978  1.0913  0.7954  0.7902
 5370SOL     OW27568   0.606   4.031  13.790  0.0506  0.2919 -0.2305
 5370SOL    HW127569   0.662   4.059  13.717 -1.7312  1.3022 -1.2165
 5370SOL    HW227570   0.660   3.954  13.808  2.3120  2.6505  2.9258
 5371SOL     OW27571   2.461   1.642  13.558 -0.3819 -0.4798  0.3634
 5371SOL    HW127572   2.548   1.660  13.522 -0.8727  2.4855  0.6464
 5371SOL    HW227573   2.451   1.725  13.604 -2.1700  1.0418 -2.7883
 5372SOL     OW27574   4.702   0.186   4.487  0.1912  0.0162  0.2510
 5372SOL    HW127575   0.008   0.128   4.556  1.9961 -0.4087 -0.9150
 5372SOL    HW227576   4.694   0.123   4.416 -0.8489 -0.0021  0.3926
 5373SOL     OW27577   3.701   2.017  15.244 -0.0891  0.1760  0.7552
 5373SOL    HW127578   3.722   1.956  15.314 -1.2632 -2.4204 -1.1660
 5373SOL    HW227579   3.607   2.030  15.258 -0.7141 -3.8114  0.1430
 5374SOL     OW27580   3.706   2.741   7.951 -0.2303 -0.3910  0.3620
 5374SOL    HW127581   3.782   2.722   7.895  0.0847 -2.3283  1.4591
 5374SOL    HW227582   3.684   2.654   7.984  0.3657 -0.5312  0.3950
 5375SOL     OW27583   4.249   1.321   3.575 -0.4674  0.0878 -0.5394
 5375SOL    HW127584   4.246   1.411   3.608  3.3662 -0.1604  0.4624
 5375SOL    HW227585   4.196   1.321   3.495  1.4085  1.5634 -1.7966
 5376SOL     OW27586   0.024   2.918   8.524 -0.2179 -0.1146  0.4924
 5376SOL    HW127587   4.709   3.004   8.513  1.9509  0.3841 -3.5704
 5376SOL    HW227588   4.673   2.863   8.502 -0.0201 -0.4415  0.6330
 5377SOL     OW27589   0.634   2.035  15.093 -0.3637 -0.1943  0.3307
 5377SOL    HW127590   0.597   2.056  15.007 -1.0620  0.6888  0.8345
 5377SOL    HW227591   0.552   2.025  15.142 -1.2392  1.7239 -0.7069
 5378SOL     OW27592   3.688   4.558   3.487  0.5546  0.2607 -0.3928
 5378SOL    HW127593   3.695   4.597   3.574 -0.0364 -1.7440  0.5493
 5378SOL    HW227594   3.654   4.469   3.494  2.7009 -0.6646 -1.8030
 5379SOL     OW27595   4.269   3.844   4.996 -0.4771 -0.2070  0.2398
 5379SOL    HW127596   4.209   3.916   4.979 -1.2068 -0.7521  0.4887
 5379SOL    HW227597   4.346   3.865   4.944 -1.8018  1.4886 -1.0282
 5380SOL     OW27598   1.107   0.383   9.294 -0.0826  0.1032  0.2182
 5380SOL    HW127599   1.059   0.350   9.219  1.3195 -0.4558 -0.4214
 5380SOL    HW227600   1.034   0.401   9.353 -2.3428 -0.5513 -2.3966
 5381SOL     OW27601   3.656   1.720  14.627 -0.0558  0.3237  0.1286
 5381SOL    HW127602   3.594   1.793  14.625 -0.0448  0.3067 -0.8529
 5381SOL    HW227603   3.727   1.762  14.578 -0.7813  2.3781  0.8267
 5382SOL     OW27604   0.461   1.904  15.558 -0.3686 -0.1440 -0.0784
 5382SOL    HW127605   0.537   1.848  15.542 -0.8388 -0.8390  0.1485
 5382SOL    HW227606   0.422   1.843  15.620  0.0278 -1.8850 -1.5646
 5383SOL     OW27607   0.176   0.488   1.227  0.0554  0.0975 -0.0520
 5383SOL    HW127608   0.267   0.497   1.201 -0.0849  0.6764 -0.3517
 5383SOL    HW227609   0.144   0.415   1.174 -0.7736  0.2842  0.1851
 5384SOL     OW27610   3.334   4.557   9.489  0.1703 -0.2289  0.4143
 5384SOL    HW127611   3.374   4.617   9.426  3.4820 -0.6724  2.0951
 5384SOL    HW227612   3.261   4.535   9.432  0.9044  2.2680 -1.4824
 5385SOL     OW27613   3.047   2.351   8.601 -0.2230 -0.1797 -0.8748
 5385SOL    HW127614   3.014   2.440   8.609  1.3874  0.2865  0.7433
 5385SOL    HW227615   3.140   2.367   8.618 -0.4214  0.3893 -0.3243
 5386SOL     OW27616   4.685   3.519   9.685  0.6741 -0.1244 -0.2555
 5386SOL    HW127617   4.686   3.614   9.673  2.0270 -0.2409 -1.1349
 5386SOL    HW227618   0.007   3.518   9.768 -2.6041 -0.8133  1.5755
 5387SOL     OW27619   0.469   2.692   7.598 -0.1224  0.0898 -0.4594
 5387SOL    HW127620   0.481   2.706   7.504 -0.7386  0.9121 -0.4135
 5387SOL    HW227621   0.561   2.670   7.611 -0.0034  0.8042 -0.0743
 5388SOL     OW27622   1.742   3.186   5.636 -0.3459 -0.8053  0.3211
 5388SOL    HW127623   1.811   3.219   5.578 -2.1182  0.1081 -1.2635
 5388SOL    HW227624   1.792   3.116   5.678 -1.4501 -0.9069  1.4611
 5389SOL     OW27625   0.618   4.012   8.990  0.9173 -0.0608  0.0027
 5389SOL    HW127626   0.603   4.080   8.924 -2.1313  0.1420  0.9025
 5389SOL    HW227627   0.674   3.941   8.958  0.4485  0.5173 -2.0274
 5390SOL     OW27628   0.364   0.127   3.333 -0.8042  0.4024  0.0733
 5390SOL    HW127629   0.321   0.118   3.418 -1.2086 -0.3876 -0.2187
 5390SOL    HW227630   0.301   0.073   3.286  1.5756 -2.5151  0.2479
 5391SOL     OW27631   1.625   1.025  16.335  0.7023  0.5403  0.2156
 5391SOL    HW127632   1.643   1.072  16.254  1.1531  0.6941  0.4073
 5391SOL    HW227633   1.533   1.051  16.344  0.8823  1.2072  0.1171
 5392SOL     OW27634   0.990   3.917   9.813 -0.6438  0.2262  0.3320
 5392SOL    HW127635   0.899   3.891   9.803 -0.5634  0.2135 -0.3245
 5392SOL    HW227636   1.015   3.884   9.727  0.6298 -0.0418  0.7893
 5393SOL     OW27637   0.620   4.267  15.494  0.8512 -0.2709  0.1820
 5393SOL    HW127638   0.578   4.343  15.455 -0.1478 -1.1382 -0.4175
 5393SOL    HW227639   0.680   4.239  15.426  0.1248 -1.0565 -0.1411
 5394SOL     OW27640   2.032   2.201   6.515 -0.6103  0.3322  0.4139
 5394SOL    HW127641   2.043   2.129   6.452  0.3646  1.0133 -0.1919
 5394SOL    HW227642   2.022   2.280   6.463 -1.8726  0.2341  0.5024
 5395SOL     OW27643   2.016   2.925   5.170 -0.8145 -0.2929  0.2493
 5395SOL    HW127644   2.006   2.859   5.239 -2.6036  0.9216  1.1542
 5395SOL    HW227645   2.112   2.926   5.170 -0.8254  0.3381 -0.4261
 5396SOL     OW27646   3.933   1.312   7.959 -0.2000  0.2146  0.0022
 5396SOL    HW127647   4.025   1.321   7.984  0.0635 -2.3848 -0.0337
 5396SOL    HW227648   3.905   1.403   7.966  2.6500  1.1393 -0.6847
 5397SOL     OW27649   1.948   1.834   2.358 -0.3437  0.1083  0.7018
 5397SOL    HW127650   1.871   1.785   2.329  0.0232 -1.1032  1.7587
 5397SOL    HW227651   1.950   1.912   2.302  0.3975 -0.4274 -0.0223
 5398SOL     OW27652   0.329   4.010   4.181 -0.7361 -0.2265  0.4449
 5398SOL    HW127653   0.331   4.100   4.149  1.7319 -0.4260 -0.0282
 5398SOL    HW227654   0.298   3.960   4.106  1.5607  0.8108 -1.2147
 5399SOL     OW27655   1.723   0.837   5.942  0.0494  0.0071 -0.3596
 5399SOL    HW127656   1.817   0.830   5.956  0.2446 -0.3619 -1.8626
 5399SOL    HW227657   1.701   0.857   6.033  1.3754 -1.4502  0.2832
 5400SOL     OW27658   3.239   3.175  14.825 -0.0115 -0.4344 -0.3068
 5400SOL    HW127659   3.200   3.221  14.900 -2.1638 -0.3673 -1.4619
 5400SOL    HW227660   3.297   3.108  14.861 -0.0340 -0.1487  0.2577
 5401SOL     OW27661   4.078   3.081   5.619  0.4235  0.4732 -0.0763
 5401SOL    HW127662   4.134   3.154   5.592 -0.5166  1.1589 -0.1576
 5401SOL    HW227663   4.034   3.127   5.690 -0.4595 -1.6772  0.7513
 5402SOL     OW27664   0.852   3.924   7.525  0.4516 -0.0496 -0.2395
 5402SOL    HW127665   0.797   4.001   7.509 -0.4855 -0.2864  1.9631
 5402SOL    HW227666   0.904   3.907   7.446  3.3888  0.0496  1.6661
 5403SOL     OW27667   0.383   0.690   0.765 -0.0809 -0.1673 -0.8567
 5403SOL    HW127668   0.353   0.750   0.696  3.5129  1.0117 -1.3670
 5403SOL    HW227669   0.348   0.744   0.836 -1.9438 -0.8864 -1.2091
 5404SOL     OW27670   0.172   3.096   3.751 -0.6202  0.0734  0.3558
 5404SOL    HW127671   0.158   3.191   3.746  0.1873  0.2804  1.8613
 5404SOL    HW227672   0.090   3.059   3.717 -0.1631  0.7247 -1.4025
 5405SOL     OW27673   1.138   2.977   8.735  0.3537  0.1264  0.6780
 5405SOL    HW127674   1.201   3.047   8.715 -1.4405  1.1198 -1.4491
 5405SOL    HW227675   1.096   3.000   8.818  1.2144  0.4713  1.0230
 5406SOL     OW27676   4.651   3.304   6.317  0.1252  0.5493 -0.1610
 5406SOL    HW127677   4.701   3.222   6.322 -1.4060 -0.3517  0.2585
 5406SOL    HW227678   4.587   3.274   6.253 -1.1574 -0.1301  1.4224
 5407SOL     OW27679   1.162   3.654   3.258 -0.6370  0.0183  0.3296
 5407SOL    HW127680   1.198   3.614   3.179  0.0004 -2.1654  1.7151
 5407SOL    HW227681   1.131   3.581   3.311 -2.4558 -0.0822 -0.8982
 5408SOL     OW27682   1.690   4.578   8.650  0.1249 -0.0913 -0.0225
 5408SOL    HW127683   1.646   4.660   8.672  2.3301  1.3662 -1.0740
 5408SOL    HW227684   1.628   4.523   8.698  2.2480  1.0759  3.9542
 5409SOL     OW27685   3.546   3.503   7.706 -0.5526  0.2561 -0.6262
 5409SOL    HW127686   3.611   3.465   7.647  0.7781 -1.3418  1.8864
 5409SOL    HW227687   3.497   3.564   7.650 -1.8576 -0.3385 -0.1369
 5410SOL     OW27688   3.636   1.018   3.951 -0.7567 -0.1123  0.0953
 5410SOL    HW127689   3.624   1.089   3.888  1.0594 -1.4872 -1.7873
 5410SOL    HW227690   3.618   1.065   4.033  2.5731 -0.1621  0.8354
 5411SOL     OW27691   0.586   0.069   3.570  0.3631  0.0558  0.3144
 5411SOL    HW127692   0.651   4.725   3.584  1.6078  1.9094  3.6713
 5411SOL    HW227693   0.548   0.051   3.484  0.1458 -0.6133  0.5494
 5412SOL     OW27694   3.333   1.693   4.693 -0.0108  0.1445  0.7243
 5412SOL    HW127695   3.308   1.658   4.608  0.7482 -0.3338  0.6991
 5412SOL    HW227696   3.415   1.647   4.711  1.2076  1.9824 -0.1108
 5413SOL     OW27697   0.119   1.431  10.705  0.0017 -0.0818 -0.0271
 5413SOL    HW127698   0.032   1.394  10.716 -0.4924  0.9096 -0.6272
 5413SOL    HW227699   0.168   1.349  10.698  0.5440  0.0821  1.7830
 5414SOL     OW27700   0.421   2.569   4.632  0.0668 -0.2796  0.0031
 5414SOL    HW127701   0.470   2.626   4.573 -0.4647 -0.5103 -0.6557
 5414SOL    HW227702   0.346   2.624   4.653 -1.7200 -2.3614 -0.9659
 5415SOL     OW27703   4.242   4.158   6.564  0.5044  0.5305 -0.3385
 5415SOL    HW127704   4.186   4.224   6.523 -1.8399 -0.9723  0.4362
 5415SOL    HW227705   4.293   4.139   6.485  1.4557  1.1019  0.1422
 5416SOL     OW27706   0.099   4.324  12.333  0.4380 -0.0112  0.2133
 5416SOL    HW127707   0.010   4.330  12.299 -0.2542 -2.0967  1.5729
 5416SOL    HW227708   0.118   4.234  12.306  1.3644 -0.0418  0.9758
 5417SOL     OW27709   4.527   3.791   5.283 -0.3930  0.2972 -0.3050
 5417SOL    HW127710   4.517   3.789   5.378 -2.4972 -0.6182 -0.5364
 5417SOL    HW227711   4.484   3.708   5.260 -0.0772 -0.6125  2.3570
 5418SOL     OW27712   0.426   3.310  10.527 -0.1747  0.2748 -0.4062
 5418SOL    HW127713   0.332   3.329  10.521  0.5590  4.7747  2.5012
 5418SOL    HW227714   0.423   3.226  10.482 -1.2893  0.0587  0.0601
 5419SOL     OW27715   2.092   2.692  10.170  0.1887 -0.2341  0.2027
 5419SOL    HW127716   2.141   2.633  10.113 -1.7580 -0.7853 -0.9239
 5419SOL    HW227717   2.000   2.676  10.150 -0.3183  1.7478  0.9210
 5420SOL     OW27718   1.194   1.870   9.935  0.0638  0.2359 -0.7658
 5420SOL    HW127719   1.190   1.958   9.896 -2.0603 -0.3494 -1.8503
 5420SOL    HW227720   1.259   1.829   9.877  0.9489 -0.3521  0.6508
 5421SOL     OW27721   4.506   0.486   7.570  0.3363  0.2638  0.2710
 5421SOL    HW127722   4.497   0.509   7.663 -0.3795 -1.0538  0.5252
 5421SOL    HW227723   4.498   0.391   7.562 -1.4612  0.4693 -0.3414
 5422SOL     OW27724   4.531   1.576   3.629 -0.3682 -0.1074  0.8091
 5422SOL    HW127725   4.513   1.615   3.715 -0.6977  2.3929 -0.3931
 5422SOL    HW227726   4.627   1.572   3.622 -0.2497  0.0147  2.3311
 5423SOL     OW27727   4.098   0.826   5.892  0.0073  0.5838 -0.3794
 5423SOL    HW127728   4.107   0.743   5.845  0.7961  0.0302  0.7713
 5423SOL    HW227729   4.049   0.885   5.834  0.8122  1.3353 -0.3098
 5424SOL     OW27730   2.053   2.904   6.164 -0.0208  0.0546  0.0321
 5424SOL    HW127731   2.125   2.864   6.116 -0.1912 -0.6514  0.3683
 5424SOL    HW227732   1.979   2.868   6.115  0.3012  0.6980 -0.9075
 5425SOL     OW27733   1.634   3.573   7.148  0.6263  0.2166 -0.3407
 5425SOL    HW127734   1.566   3.590   7.084 -0.0193 -0.3477  0.2064
 5425SOL    HW227735   1.605   3.534   7.230 -0.2918  1.2788 -0.1744
 5426SOL     OW27736   2.027   0.639  16.017  0.4081 -0.1679 -0.1123
 5426SOL    HW127737   1.947   0.614  16.063  0.3529 -0.9107 -0.6100
 5426SOL    HW227738   2.019   0.623  15.923  2.2539  2.9297 -0.7938
 5427SOL     OW27739   2.424   3.232   4.630  0.4360  0.4725 -0.0627
 5427SOL    HW127740   2.367   3.240   4.553  1.0840 -1.2483 -0.7118
 5427SOL    HW227741   2.369   3.210   4.705  0.5433 -2.7682 -0.9761
 5428SOL     OW27742   0.005   3.651  16.496 -0.1305  0.1382 -0.2092
 5428SOL    HW127743   0.072   3.654  16.563  1.1775 -0.1002 -1.5087
 5428SOL    HW227744   4.671   3.723  16.518  0.5824  0.7335 -0.2787
 5429SOL     OW27745   0.992   2.034   3.790  0.2130 -0.5137  1.2870
 5429SOL    HW127746   1.013   2.128   3.792 -1.1493 -0.2105  2.1090
 5429SOL    HW227747   1.078   1.994   3.799  0.2806 -0.9129 -1.3542
 5430SOL     OW27748   3.663   1.085  14.879  0.6858  0.0197 -0.2638
 5430SOL    HW127749   3.691   1.007  14.926 -0.1211 -0.9461 -1.3974
 5430SOL    HW227750   3.587   1.106  14.934  0.2606  1.2649 -1.3400
 5431SOL     OW27751   1.837   4.057   2.588  0.1673 -0.1359  0.2097
 5431SOL    HW127752   1.820   4.062   2.682 -1.3256 -1.0459 -0.0111
 5431SOL    HW227753   1.793   3.977   2.560  1.7040 -0.4874 -1.1441
 5432SOL     OW27754   1.408   2.384   4.037  0.2383 -0.5764  0.9390
 5432SOL    HW127755   1.430   2.468   4.077  0.6946 -0.3730  0.2807
 5432SOL    HW227756   1.489   2.338   4.059  1.0101 -0.9839 -2.7528
 5433SOL     OW27757   4.310   2.101   3.403  0.6726 -0.4301 -0.0840
 5433SOL    HW127758   4.227   2.104   3.451 -0.0365  0.6961 -1.3672
 5433SOL    HW227759   4.373   2.085   3.474  1.5217 -0.5246 -0.8524
 5434SOL     OW27760   4.629   0.354  10.298  0.2122 -0.2590 -0.2371
 5434SOL    HW127761   4.724   0.370  10.296  0.3361 -0.9977 -0.3075
 5434SOL    HW227762   4.596   0.405  10.224  1.2913  1.1532  0.2602
 5435SOL     OW27763   4.397   3.737   8.414  0.5406 -0.4272  0.1827
 5435SOL    HW127764   4.375   3.745   8.321  0.5110  1.6319  0.3603
 5435SOL    HW227765   4.311   3.727   8.455 -1.1999  2.1941 -2.8465
 5436SOL     OW27766   3.467   0.188   6.449 -0.1570 -0.0315 -0.4569
 5436SOL    HW127767   3.525   0.213   6.376  1.7786 -0.5584  0.8886
 5436SOL    HW227768   3.440   0.100   6.423  0.5291 -0.1661 -0.7295
 5437SOL     OW27769   0.575   0.319   8.097 -0.1987 -0.1733  0.7596
 5437SOL    HW127770   0.515   0.375   8.048  1.2936  0.6307 -0.1339
 5437SOL    HW227771   0.650   0.378   8.106 -0.0912 -0.0313 -1.2369
 5438SOL     OW27772   0.304   1.691  14.727  0.2550  0.2984  0.0911
 5438SOL    HW127773   0.299   1.747  14.649 -2.1336 -0.7277 -0.5086
 5438SOL    HW227774   0.211   1.668  14.737  0.2609 -1.0089 -3.0718
 5439SOL     OW27775   0.340   4.451   3.912  0.5993 -0.0050  0.3693
 5439SOL    HW127776   0.347   4.514   3.984  0.9852  1.6202 -1.0865
 5439SOL    HW227777   0.432   4.423   3.910  0.2174 -1.1613 -0.6475
 5440SOL     OW27778   0.640   4.575   4.357 -0.5335 -0.1351  0.0139
 5440SOL    HW127779   0.550   4.606   4.366 -1.3188 -1.7743 -2.1441
 5440SOL    HW227780   0.685   4.653   4.324  0.9752 -0.8795  0.2603
 5441SOL     OW27781   4.143   2.044   1.891  0.0162 -0.7859  0.0933
 5441SOL    HW127782   4.115   2.065   1.801 -0.7498  0.2376  0.5635
 5441SOL    HW227783   4.103   2.115   1.942 -0.3032 -0.1459 -1.0404
 5442SOL     OW27784   3.873   0.897  10.493  0.3511 -0.0599 -0.0582
 5442SOL    HW127785   3.831   0.966  10.440  1.4933 -0.1556 -1.0904
 5442SOL    HW227786   3.875   0.827  10.427  1.2737 -1.1736  1.1718
 5443SOL     OW27787   4.115   1.755   3.306  0.2112  0.7547 -0.3644
 5443SOL    HW127788   4.118   1.676   3.253  0.6503 -0.4750  1.5007
 5443SOL    HW227789   4.111   1.715   3.393  2.7644 -0.2607 -0.7176
 5444SOL     OW27790   4.477   4.678   5.938  0.0832  0.2253  0.2136
 5444SOL    HW127791   4.555   4.684   5.884 -0.0382 -1.6727 -0.1971
 5444SOL    HW227792   4.491   0.029   5.994 -0.5395 -0.0276  0.7166
 5445SOL     OW27793   1.871   2.021   5.844  0.7312  0.0014 -0.2846
 5445SOL    HW127794   1.789   1.972   5.842 -0.3321  1.8911 -2.8127
 5445SOL    HW227795   1.843   2.112   5.832 -2.7636 -1.0164  0.2408
 5446SOL     OW27796   4.178   2.143   3.917 -0.0864  1.0450  0.0005
 5446SOL    HW127797   4.209   2.229   3.945 -0.3400  0.9304  0.6342
 5446SOL    HW227798   4.100   2.177   3.872 -0.3543 -0.9063 -1.0170
 5447SOL     OW27799   0.715   1.426   8.992 -0.1238  0.3530 -0.3616
 5447SOL    HW127800   0.731   1.368   9.066  1.6968  0.7199 -0.4650
 5447SOL    HW227801   0.799   1.472   8.987  0.5355 -0.7000  1.1558
 5448SOL     OW27802   0.439   1.676   7.355 -0.1306 -0.7623 -0.3247
 5448SOL    HW127803   0.399   1.688   7.441 -1.3751  0.2500 -1.0405
 5448SOL    HW227804   0.370   1.696   7.291 -0.2491  0.0716  0.0581
 5449SOL     OW27805   4.205   1.145  15.565  0.0046  0.0249 -0.4936
 5449SOL    HW127806   4.123   1.167  15.520  0.3574  1.0099 -0.6416
 5449SOL    HW227807   4.267   1.201  15.519 -0.1392  1.1052  0.6468
 5450SOL     OW27808   1.627   4.020   3.700 -0.3256 -0.2376 -0.6693
 5450SOL    HW127809   1.593   4.103   3.734  0.7422 -0.2140  0.3155
 5450SOL    HW227810   1.700   4.052   3.647  1.2650 -0.3259  1.5120
 5451SOL     OW27811   0.622   1.530  10.328 -0.0740 -0.1762  0.1812
 5451SOL    HW127812   0.662   1.581  10.258  1.6580 -3.5669 -1.3409
 5451SOL    HW227813   0.664   1.569  10.405 -0.1080 -1.4673  0.8534
 5452SOL     OW27814   0.664   2.091   4.512 -0.5332  0.0451  0.1132
 5452SOL    HW127815   0.741   2.121   4.464 -0.8557 -1.7149 -1.4785
 5452SOL    HW227816   0.689   2.136   4.593  0.1155  0.3059 -0.2291
 5453SOL     OW27817   1.318   3.787  11.433  0.3941 -0.2507  0.3447
 5453SOL    HW127818   1.248   3.831  11.481 -0.1295  0.8920 -1.4667
 5453SOL    HW227819   1.386   3.776  11.500 -0.7342 -1.4546  1.3010
 5454SOL     OW27820   3.419   4.130   2.916 -0.0993  0.0734 -0.0065
 5454SOL    HW127821   3.412   4.182   2.996 -1.9235  0.0074 -0.1159
 5454SOL    HW227822   3.341   4.075   2.923 -1.1156  1.3478 -1.2508
 5455SOL     OW27823   3.321   4.678   7.023 -0.1032  0.0962 -0.2062
 5455SOL    HW127824   3.297   0.036   7.065 -0.8491  0.5146 -1.4519
 5455SOL    HW227825   3.410   4.706   7.005 -0.1315  1.2519  1.4822
 5456SOL     OW27826   4.632   1.618   1.372  0.0134  0.0751  0.2931
 5456SOL    HW127827   4.619   1.524   1.379 -2.0611  0.2743 -1.1042
 5456SOL    HW227828   4.650   1.649   1.283 -0.8397 -0.2289  0.0238
 5457SOL     OW27829   2.486   0.552   6.526  0.4630 -0.0398 -0.8019
 5457SOL    HW127830   2.420   0.545   6.456  0.4181  1.3390 -0.8930
 5457SOL    HW227831   2.457   0.636   6.560  2.4041  0.0854  0.5105
 5458SOL     OW27832   3.627   0.141  11.546  0.3397 -0.2000  0.0794
 5458SOL    HW127833   3.538   0.105  11.551 -0.4871  2.0991  1.6312
 5458SOL    HW227834   3.660   0.123  11.634 -0.6196 -0.5761  0.3646
 5459SOL     OW27835   3.753   2.365  15.188  0.0955 -0.1608  0.5374
 5459SOL    HW127836   3.740   2.342  15.280  2.8012 -2.7198  0.3067
 5459SOL    HW227837   3.826   2.308  15.163 -1.4121 -2.3097  1.0216
 5460SOL     OW27838   1.225   4.027  10.872 -0.6946  0.4354  0.3988
 5460SOL    HW127839   1.143   3.982  10.891 -2.5409  2.8619 -1.6867
 5460SOL    HW227840   1.188   4.109  10.840 -1.9450 -0.5880 -0.7540
 5461SOL     OW27841   2.654   2.705   2.398  0.2224  0.0231 -0.4618
 5461SOL    HW127842   2.620   2.642   2.335  1.1885 -1.2158  0.2574
 5461SOL    HW227843   2.655   2.781   2.340 -0.4164  2.1862  2.3177
 5462SOL     OW27844   2.715   2.085   8.057 -0.0147  0.4366  0.2659
 5462SOL    HW127845   2.633   2.065   8.010  0.9662 -0.1500 -1.2129
 5462SOL    HW227846   2.754   1.998   8.052 -2.1494 -0.4954 -0.0363
 5463SOL     OW27847   2.097   0.459   6.117 -0.0861  0.1862  0.0035
 5463SOL    HW127848   2.171   0.501   6.075  0.7875  1.1673  2.5513
 5463SOL    HW227849   2.148   0.399   6.171  1.0979 -0.6235 -1.9915
 5464SOL     OW27850   0.306   1.791   0.524 -0.1346  0.0300 -0.3817
 5464SOL    HW127851   0.302   1.886   0.533 -0.2280 -0.0007 -0.0885
 5464SOL    HW227852   0.235   1.800   0.461 -0.9730 -1.4093  0.3541
 5465SOL     OW27853   0.333   4.217   7.431  0.1956 -0.0387 -0.6548
 5465SOL    HW127854   0.245   4.249   7.453  0.0115 -1.3020  0.4513
 5465SOL    HW227855   0.315   4.134   7.387 -0.5101 -1.5181  2.4668
 5466SOL     OW27856   2.817   0.383   6.980 -0.4156  0.0458 -0.2340
 5466SOL    HW127857   2.844   0.463   6.934  0.6150  0.0335  0.3318
 5466SOL    HW227858   2.726   0.365   6.958  0.7711 -2.7281 -2.8111
 5467SOL     OW27859   0.692   0.612  15.663 -0.1386 -0.6194 -0.3721
 5467SOL    HW127860   0.738   0.532  15.640 -1.0777 -0.7683 -1.7458
 5467SOL    HW227861   0.614   0.602  15.608 -0.1382 -2.6035 -0.0182
 5468SOL     OW27862   2.112   3.519  16.284  0.4026  0.0127  0.3084
 5468SOL    HW127863   2.148   3.431  16.292  1.2796  0.2651 -0.9721
 5468SOL    HW227864   2.147   3.543  16.199  3.8005  1.6404  2.1611
 5469SOL     OW27865   4.213   3.559   7.495 -0.0214 -0.1665 -0.6219
 5469SOL    HW127866   4.225   3.651   7.472 -0.9927  0.1516  0.1372
 5469SOL    HW227867   4.293   3.546   7.546 -0.2034 -1.8203 -0.7845
 5470SOL     OW27868   3.848   4.239   3.469  0.5975  0.0917  0.5509
 5470SOL    HW127869   3.826   4.173   3.535 -0.4218 -1.8737 -1.7513
 5470SOL    HW227870   3.899   4.191   3.404  1.2492  2.0559 -0.3880
 5471SOL     OW27871   1.877   1.283   8.704  0.2712 -0.3429  0.2044
 5471SOL    HW127872   1.852   1.361   8.754 -0.3846 -0.1604 -0.4164
 5471SOL    HW227873   1.829   1.292   8.622  4.1871  1.8472 -1.8604
 5472SOL     OW27874   3.447   3.328  12.388  0.2417 -0.6425  0.4999
 5472SOL    HW127875   3.530   3.282  12.375 -1.1265 -3.0322  0.1806
 5472SOL    HW227876   3.478   3.418  12.401 -0.3609 -0.3282 -0.2606
 5473SOL     OW27877   2.482   0.888   7.609 -0.3204 -0.3200 -0.2604
 5473SOL    HW127878   2.474   0.795   7.590 -0.0583 -0.5819  0.8872
 5473SOL    HW227879   2.419   0.893   7.681 -0.0632 -0.8883  0.0038
 5474SOL     OW27880   1.481   4.462  16.639  0.2404 -0.3729  0.1175
 5474SOL    HW127881   1.467   4.383  16.586  0.5336 -1.3725  1.5153
 5474SOL    HW227882   1.435   4.524  16.582  1.1197 -0.9559 -1.2239
 5475SOL     OW27883   3.381   3.812   0.603  0.4782 -0.5967 -0.0364
 5475SOL    HW127884   3.297   3.849   0.632  0.7664 -0.3834  0.5221
 5475SOL    HW227885   3.351   3.734   0.557  0.1188 -0.1100 -0.6389
 5476SOL     OW27886   1.268   0.467   1.006 -0.2820  0.5533  0.3951
 5476SOL    HW127887   1.359   0.457   0.976  0.2975  2.6428  1.4782
 5476SOL    HW227888   1.219   0.483   0.926 -0.6632 -0.7644  0.3747
 5477SOL     OW27889   2.112   0.454  12.046 -0.6282  0.4132 -0.0971
 5477SOL    HW127890   2.097   0.477  12.138 -0.7416  0.2026 -0.0618
 5477SOL    HW227891   2.110   0.539  12.002 -0.3399  0.4265 -0.0863
 5478SOL     OW27892   3.202   2.689  17.076 -0.3456  0.2556 -0.8777
 5478SOL    HW127893   3.201   2.702  16.981 -3.0699  0.1461 -0.8714
 5478SOL    HW227894   3.255   2.609  17.069 -1.7246 -0.6611 -0.9903
 5479SOL     OW27895   0.152   1.050   4.381  0.0738  0.4986 -0.1243
 5479SOL    HW127896   0.133   1.058   4.475 -2.8595  0.8327 -0.7560
 5479SOL    HW227897   0.102   1.121   4.343  0.8075 -0.9455 -3.7376
 5480SOL     OW27898   1.701   2.325  11.692 -0.5333  0.5022 -0.1946
 5480SOL    HW127899   1.796   2.337  11.697 -0.5584  1.7078 -3.0145
 5480SOL    HW227900   1.685   2.352  11.783 -2.3432 -0.8051 -0.1393
 5481SOL     OW27901   3.027   4.474   7.790  0.8119 -0.1466 -0.2098
 5481SOL    HW127902   2.957   4.439   7.846  0.1475 -3.5599 -3.1509
 5481SOL    HW227903   3.111   4.454   7.832  1.0272 -0.6445 -0.8811
 5482SOL     OW27904   4.689   0.029   5.117  0.3554  0.2948  0.3043
 5482SOL    HW127905   0.038   4.699   5.094  1.7391  3.6621 -3.3751
 5482SOL    HW227906   4.639   4.711   5.186 -1.1758  1.7140  0.0807
 5483SOL     OW27907   1.387   0.686  12.770 -0.5639  0.2359  0.2832
 5483SOL    HW127908   1.459   0.626  12.790  0.6978  1.8612  0.5954
 5483SOL    HW227909   1.435   0.762  12.738 -2.1179  0.4056 -1.5927
 5484SOL     OW27910   4.147   2.213   6.535  0.0745  0.3886  0.1286
 5484SOL    HW127911   4.211   2.179   6.598  1.5639 -1.3232 -2.2830
 5484SOL    HW227912   4.106   2.132   6.505  0.4675  0.5228 -0.7505
 5485SOL     OW27913   1.752   3.713   1.989  0.4349  0.1325  0.2066
 5485SOL    HW127914   1.802   3.636   2.016 -1.2904 -0.3484  2.0257
 5485SOL    HW227915   1.794   3.731   1.905  1.1209  2.1272  0.9992
 5486SOL     OW27916   2.038   0.451   6.975 -0.0572  0.5705  0.2306
 5486SOL    HW127917   2.088   0.505   7.037  0.9067 -2.2145  1.9299
 5486SOL    HW227918   1.982   0.407   7.039  2.1832 -1.8674  0.5345
 5487SOL     OW27919   3.583   0.158  11.264  0.0521  0.0195  0.2214
 5487SOL    HW127920   3.617   0.134  11.350  0.7742 -0.6828 -0.2581
 5487SOL    HW227921   3.498   0.185  11.299  0.2292 -1.7432  2.0115
 5488SOL     OW27922   1.451   1.129  16.582  0.7010  0.3926 -0.0870
 5488SOL    HW127923   1.407   1.044  16.583 -0.9417  1.2351 -0.0322
 5488SOL    HW227924   1.421   1.164  16.498  0.4685 -0.9215 -0.5435
 5489SOL     OW27925   1.671   1.179   6.522 -0.2618 -0.3002 -0.4809
 5489SOL    HW127926   1.666   1.092   6.563 -0.2789 -0.0304  0.0756
 5489SOL    HW227927   1.733   1.146   6.457  1.8845  2.8789 -0.0331
 5490SOL     OW27928   0.034   4.112   5.737  0.4575 -0.2558 -0.5870
 5490SOL    HW127929   4.714   4.189   5.705  2.4449  0.7268 -1.0222
 5490SOL    HW227930   0.030   4.050   5.663  1.8212  0.2976 -1.1276
 5491SOL     OW27931   0.617   0.615  11.997 -0.1274 -0.6435 -0.0421
 5491SOL    HW127932   0.630   0.681  12.065  0.2944 -0.1248 -0.6349
 5491SOL    HW227933   0.693   0.632  11.942 -0.2349 -2.7859 -0.8547
 5492SOL     OW27934   1.819   0.987   4.179  0.3472 -0.2729 -0.1628
 5492SOL    HW127935   1.780   0.984   4.091 -0.6805 -0.6958  0.3104
 5492SOL    HW227936   1.836   0.897   4.206  0.3381 -0.1231  0.3417
 5493SOL     OW27937   3.976   1.110  11.585 -0.6220 -0.6223  0.0103
 5493SOL    HW127938   3.889   1.083  11.558  0.0674 -0.7979 -2.0241
 5493SOL    HW227939   3.963   1.141  11.675 -0.2264  0.8306 -0.4271
 5494SOL     OW27940   3.699   2.068  12.821 -0.0313  0.2013 -0.0519
 5494SOL    HW127941   3.713   2.082  12.915 -0.9574  0.0455  0.1033
 5494SOL    HW227942   3.788   2.045  12.795  0.5172 -0.7322  2.5712
 5495SOL     OW27943   1.784   3.065   5.893  0.0107  0.1348  0.4750
 5495SOL    HW127944   1.725   3.141   5.898  2.0288  1.7211  0.1238
 5495SOL    HW227945   1.872   3.104   5.890  0.1681 -0.2327  0.3298
 5496SOL     OW27946   4.264   2.981  12.656 -0.1308  0.2593 -0.7648
 5496SOL    HW127947   4.208   3.020  12.588 -0.5522 -1.2853 -1.3063
 5496SOL    HW227948   4.227   3.010  12.739 -1.2105 -1.0910 -0.7696
 5497SOL     OW27949   4.234   3.272   8.019 -0.3496 -0.0066  0.0245
 5497SOL    HW127950   4.278   3.265   8.103  0.9495 -2.2186 -0.8508
 5497SOL    HW227951   4.262   3.361   7.995  0.7094 -0.3587 -0.0525
 5498SOL     OW27952   1.562   0.965  16.902  0.3175 -0.4656  0.5133
 5498SOL    HW127953   1.558   1.011  16.986 -2.6493  0.7587 -0.2981
 5498SOL    HW227954   1.515   1.021  16.840 -1.7657 -0.4121  2.1395
 5499SOL     OW27955   1.268   0.123   0.875  0.0383 -0.4404  0.8147
 5499SOL    HW127956   1.353   0.079   0.875 -0.5685 -1.6181 -1.2162
 5499SOL    HW227957   1.238   0.107   0.785 -0.6123  0.1568  0.9282
 5500SOL     OW27958   2.524   1.830   4.653  0.2300  0.1133 -0.0727
 5500SOL    HW127959   2.516   1.734   4.651  0.1718  0.0905  0.9389
 5500SOL    HW227960   2.474   1.852   4.732  0.4708 -3.0790  0.9693
 5501SOL     OW27961   2.039   2.664  11.099 -0.2406 -0.4454 -0.0313
 5501SOL    HW127962   1.995   2.743  11.066  0.2155  0.8990  2.5157
 5501SOL    HW227963   2.129   2.688  11.123 -0.7721  0.1047  1.4382
 5502SOL     OW27964   1.095   0.377   5.736 -0.0253  0.2387  0.3849
 5502SOL    HW127965   1.006   0.354   5.710  0.2282  2.2027 -2.1827
 5502SOL    HW227966   1.079   0.465   5.770 -0.3513  0.6519 -0.8313
 5503SOL     OW27967   3.158   3.545   9.954  0.6680 -0.0069  0.2103
 5503SOL    HW127968   3.229   3.608   9.960  1.3925 -0.6396 -1.8960
 5503SOL    HW227969   3.103   3.565  10.030  0.2663 -2.3966  0.5684
 5504SOL     OW27970   2.683   1.710   6.957 -0.3093 -0.0925 -0.0372
 5504SOL    HW127971   2.743   1.784   6.947 -1.9706  1.4184  1.1840
 5504SOL    HW227972   2.634   1.740   7.033 -0.4802 -0.2223 -0.0969
 5505SOL     OW27973   4.513   0.899   8.853  0.2633  0.0311  0.2770
 5505SOL    HW127974   4.570   0.935   8.921 -0.1097  0.6185  0.2703
 5505SOL    HW227975   4.441   0.867   8.907 -0.2072 -1.2796 -1.1303
 5506SOL     OW27976   0.924   1.969   3.312 -0.0526 -0.0391 -0.4267
 5506SOL    HW127977   0.865   2.015   3.252  1.0048  0.3086 -1.1868
 5506SOL    HW227978   0.938   2.026   3.388  0.7701  0.3285 -0.8549
 5507SOL     OW27979   0.261   2.954   3.097 -0.1409  0.1302 -0.4608
 5507SOL    HW127980   0.340   2.999   3.127  0.7903 -1.4003 -0.6389
 5507SOL    HW227981   0.249   2.891   3.168  3.5818  0.2531  0.2553
 5508SOL     OW27982   2.114   0.637   8.105  0.0925  0.6119 -0.1247
 5508SOL    HW127983   2.031   0.685   8.095 -0.1577  0.8007  3.0394
 5508SOL    HW227984   2.091   0.575   8.174  1.1531 -1.7311 -1.8713
 5509SOL     OW27985   4.611   4.197   7.046 -0.0948 -0.0884  0.4768
 5509SOL    HW127986   4.699   4.235   7.042  1.5324 -3.9551 -0.7901
 5509SOL    HW227987   4.617   4.124   6.985  1.5073 -1.6908  2.5382
 5510SOL     OW27988   4.583   0.717   6.629  0.0502 -0.0036  0.1007
 5510SOL    HW127989   4.504   0.728   6.682  0.4651  2.3526  0.2208
 5510SOL    HW227990   4.637   0.668   6.691 -0.9350  0.8048  1.6085
 5511SOL     OW27991   2.820   4.109   6.932 -0.2863 -0.4325  0.1410
 5511SOL    HW127992   2.816   4.181   6.869  0.0746 -0.2806  0.2932
 5511SOL    HW227993   2.827   4.029   6.879 -3.9157 -0.6695 -0.0209
 5512SOL     OW27994   0.403   4.711   4.039 -0.8103  0.8032  0.5401
 5512SOL    HW127995   0.324   0.005   3.989 -1.2214  1.7236  1.5378
 5512SOL    HW227996   0.434   0.076   4.051 -0.2971  0.6453  0.4057
 5513SOL     OW27997   0.892   1.607   9.358  0.2679 -0.1186  0.4855
 5513SOL    HW127998   0.938   1.682   9.321 -0.2087 -0.9777 -1.8380
 5513SOL    HW227999   0.838   1.657   9.419  0.2724  1.4197 -0.7614
 5514SOL     OW28000   0.019   1.346   8.922  0.1687  0.1064 -0.4443
 5514SOL    HW128001   4.720   1.417   8.982  2.6252 -0.0741  0.7814
 5514SOL    HW228002   0.102   1.383   8.890 -1.1014  1.3505 -2.2413
 5515SOL     OW28003   4.044   2.351   8.105 -0.6104  0.8277 -0.2535
 5515SOL    HW128004   4.074   2.441   8.094 -0.3964  0.6696 -0.9526
 5515SOL    HW228005   4.123   2.298   8.099  0.3506  2.0351  1.7621
 5516SOL     OW28006   1.135   0.926   3.406  0.3972 -0.2352  0.8101
 5516SOL    HW128007   1.106   0.835   3.417 -1.8686  0.3551 -0.2332
 5516SOL    HW228008   1.169   0.931   3.316 -1.4327  0.2621  0.1603
 5517SOL     OW28009   3.997   2.447   4.172 -0.2892  0.1611 -0.2347
 5517SOL    HW128010   3.929   2.445   4.239  0.5343 -1.0914  0.5750
 5517SOL    HW228011   4.043   2.523   4.208  2.3875 -1.0909 -1.0175
 5518SOL     OW28012   1.680   4.233   8.632  0.6300  0.5716 -0.2320
 5518SOL    HW128013   1.760   4.194   8.666  1.0386  2.8268  1.3654
 5518SOL    HW228014   1.662   4.302   8.696  1.9825 -0.6756  1.4838
 5519SOL     OW28015   3.940   2.246   3.809 -0.0256  0.2657 -0.5809
 5519SOL    HW128016   3.869   2.251   3.745  0.6109  0.9249 -1.2255
 5519SOL    HW228017   3.895   2.281   3.886  0.9318  0.6110 -0.1895
 5520SOL     OW28018   1.854   2.198   0.711  0.2274 -0.2130 -0.0152
 5520SOL    HW128019   1.865   2.113   0.668  3.4413 -0.7472  1.8286
 5520SOL    HW228020   1.944   2.203   0.743  0.4491 -2.8947 -0.1783
 5521SOL     OW28021   1.135   3.206   7.229  0.5634  0.4854  0.0139
 5521SOL    HW128022   1.040   3.197   7.232  0.4847  2.0264  1.6990
 5521SOL    HW228023   1.147   3.297   7.256 -1.2414  0.5220  0.7075
 5522SOL     OW28024   3.950   0.723   2.432 -0.2254 -0.3954 -0.1415
 5522SOL    HW128025   3.881   0.663   2.461  0.5377 -2.0158 -1.6492
 5522SOL    HW228026   4.020   0.697   2.491  0.3037 -0.0273 -0.5981
 5523SOL     OW28027   0.705   0.582  13.722  0.2678  0.0410 -0.1384
 5523SOL    HW128028   0.707   0.487  13.731 -0.1578  0.0509  0.0325
 5523SOL    HW228029   0.667   0.610  13.805 -0.7708  1.3997 -1.0737
 5524SOL     OW28030   0.716   3.973   8.137 -0.4995  0.6492  0.0072
 5524SOL    HW128031   0.738   4.032   8.209  1.0933  1.5555 -1.2047
 5524SOL    HW228032   0.629   4.008   8.116 -0.5444 -0.0784 -1.0030
 5525SOL     OW28033   0.478   1.016   2.325 -0.1613 -0.2525  0.5238
 5525SOL    HW128034   0.566   1.032   2.292 -0.1985 -1.6471 -0.2564
 5525SOL    HW228035   0.470   1.069   2.404  1.2736  1.4379 -0.4828
 5526SOL     OW28036   1.391   2.779   2.147  0.3268 -0.3818 -0.0294
 5526SOL    HW128037   1.375   2.758   2.239 -1.9502 -0.7895 -0.5131
 5526SOL    HW228038   1.397   2.875   2.138  1.5405 -0.5476 -0.9794
 5527SOL     OW28039   2.361   4.121   8.933 -0.0379 -0.4282 -0.1650
 5527SOL    HW128040   2.277   4.149   8.897  0.5020  1.1350 -0.1718
 5527SOL    HW228041   2.384   4.188   8.997 -1.8055  0.9353 -0.9738
 5528SOL     OW28042   0.283   4.144   6.219  0.0755  0.0706 -0.4948
 5528SOL    HW128043   0.264   4.102   6.135 -1.6297  0.4305 -0.2972
 5528SOL    HW228044   0.328   4.073   6.265 -0.6744 -0.3845 -0.4502
 5529SOL     OW28045   1.079   1.219  16.095  0.9633 -0.5438  0.1347
 5529SOL    HW128046   1.094   1.137  16.047 -0.2668 -0.1348 -0.9498
 5529SOL    HW228047   1.171   1.243  16.111  0.9863 -0.5523  0.0132
 5530SOL     OW28048   0.976   1.356   9.442  0.4503 -0.5082  0.2767
 5530SOL    HW128049   0.890   1.315   9.446  0.3927 -0.2974  1.1791
 5530SOL    HW228050   0.951   1.447   9.426  1.4477 -0.2088  0.4306
 5531SOL     OW28051   0.603   0.108   7.521  0.2577 -0.1421  0.2669
 5531SOL    HW128052   0.520   0.149   7.497  1.6137  1.4894 -1.5365
 5531SOL    HW228053   0.662   0.182   7.512  0.8430 -0.6464 -0.0461
 5532SOL     OW28054   4.620   1.409   6.636 -0.2949  0.1929  0.0399
 5532SOL    HW128055   4.642   1.500   6.614 -2.2544 -0.6733 -5.4321
 5532SOL    HW228056   4.638   1.360   6.556 -0.5053  0.7944 -0.3779
 5533SOL     OW28057   3.587   2.895   4.277  0.0549 -0.3943 -0.2543
 5533SOL    HW128058   3.621   2.810   4.305  0.9206  0.2047  0.5110
 5533SOL    HW228059   3.582   2.883   4.182 -2.2568  0.7608 -0.2999
 5534SOL     OW28060   3.469   1.652   5.579 -0.2161 -0.1304 -0.0945
 5534SOL    HW128061   3.464   1.709   5.502 -0.3391  2.3437  1.7343
 5534SOL    HW228062   3.562   1.630   5.568 -0.3759 -0.9111  0.1052
 5535SOL     OW28063   0.303   1.823  14.496 -0.0052 -0.6300  0.8139
 5535SOL    HW128064   0.307   1.802  14.403 -2.5193 -1.1803  0.8214
 5535SOL    HW228065   0.262   1.908  14.481  0.6733 -0.3944  0.3210
 5536SOL     OW28066   1.771   2.897   3.416 -0.2561 -0.2341  0.3459
 5536SOL    HW128067   1.721   2.844   3.355 -0.7521  3.5162 -2.5102
 5536SOL    HW228068   1.773   2.838   3.492  0.4230 -0.2662  0.3106
 5537SOL     OW28069   3.045   0.758   3.150 -0.3690 -0.5529  0.1890
 5537SOL    HW128070   3.133   0.776   3.119  0.1841  1.4251  2.8733
 5537SOL    HW228071   2.985   0.816   3.103 -1.0218 -1.2983  0.0993
 5538SOL     OW28072   3.197   1.494   2.274  0.0894  0.5875  0.3735
 5538SOL    HW128073   3.110   1.533   2.282 -0.5805 -1.0887  1.2949
 5538SOL    HW228074   3.189   1.423   2.210  2.9177  0.6486 -0.0428
 5539SOL     OW28075   4.197   1.631   0.506 -0.0632 -0.1849 -0.5497
 5539SOL    HW128076   4.113   1.616   0.462 -0.0695  0.5769 -0.7888
 5539SOL    HW228077   4.248   1.653   0.428  0.4445 -0.0833 -0.1854
 5540SOL     OW28078   3.238   2.859   9.343 -0.3568 -0.4175  0.3865
 5540SOL    HW128079   3.325   2.871   9.305 -1.6063  2.7959 -1.4047
 5540SOL    HW228080   3.179   2.913   9.292  3.0331  0.4674 -2.5846
 5541SOL     OW28081   4.446   3.732   0.753  0.2467  0.1292 -0.3368
 5541SOL    HW128082   4.397   3.769   0.679  0.1741 -1.2027 -0.9571
 5541SOL    HW228083   4.439   3.802   0.818 -1.7849 -1.5241  1.2199
 5542SOL     OW28084   4.045   0.602   5.216 -0.8577  0.3010  0.3687
 5542SOL    HW128085   3.950   0.603   5.224 -0.8437  1.0368  0.5402
 5542SOL    HW228086   4.049   0.690   5.178 -0.9145 -0.4992 -1.4570
 5543SOL     OW28087   2.655   4.260   4.620  0.0372  0.5474 -0.0606
 5543SOL    HW128088   2.585   4.195   4.631 -1.0049  1.5649 -0.6213
 5543SOL    HW228089   2.615   4.306   4.545  1.1381 -1.9938 -2.2218
 5544SOL     OW28090   1.005   0.981  13.248  0.1552 -0.2631 -0.3218
 5544SOL    HW128091   1.038   1.057  13.297  2.8094 -0.2803 -2.0571
 5544SOL    HW228092   0.912   0.982  13.271 -0.8752 -0.3278 -4.4994
 5545SOL     OW28093   2.147   1.975  10.295  0.4578  0.6659 -0.0717
 5545SOL    HW128094   2.052   1.962  10.286  1.1605 -3.6307 -0.8242
 5545SOL    HW228095   2.147   2.065  10.261  1.0080  1.5301  2.1965
 5546SOL     OW28096   4.620   1.823   3.527  0.1897 -0.0524 -0.0186
 5546SOL    HW128097   4.672   1.868   3.593 -1.7933  0.5245  1.1601
 5546SOL    HW228098   4.607   1.735   3.563 -0.7719 -0.5494 -1.6112
 5547SOL     OW28099   4.467   1.859  16.363  0.3831  1.0709 -0.4202
 5547SOL    HW128100   4.507   1.870  16.277  2.1102 -1.7065  0.0139
 5547SOL    HW228101   4.378   1.887  16.340  0.2558 -0.5359 -1.8630
 5548SOL     OW28102   2.430   3.078   3.751 -0.2931 -0.2645  0.1200
 5548SOL    HW128103   2.435   3.004   3.811 -1.6273  0.9289  1.6949
 5548SOL    HW228104   2.361   3.061   3.687  0.0442 -0.5417 -0.1672
 5549SOL     OW28105   1.708   1.099   1.616 -0.0047 -0.2308 -0.2642
 5549SOL    HW128106   1.734   1.066   1.702 -0.3855  0.5925  0.1580
 5549SOL    HW228107   1.615   1.121   1.615 -0.5050 -2.3791 -1.6334
 5550SOL     OW28108   3.641   1.279   9.184 -0.1381 -0.8015 -0.4076
 5550SOL    HW128109   3.686   1.252   9.264  1.4017  0.5056 -0.8345
 5550SOL    HW228110   3.548   1.269   9.206 -0.9903  0.5586 -3.3249
 5551SOL     OW28111   2.631   2.613  17.202  0.2891 -0.0252  0.8821
 5551SOL    HW128112   2.594   2.589  17.117  3.8746 -3.2264  0.2555
 5551SOL    HW228113   2.677   2.693  17.178  0.8108 -0.9809 -1.1964
 5552SOL     OW28114   1.840   2.500  11.360  0.2692  0.0215  0.2608
 5552SOL    HW128115   1.801   2.435  11.302  1.2895  0.2062 -0.6223
 5552SOL    HW228116   1.770   2.561  11.382 -0.7894 -0.6113 -1.4364
 5553SOL     OW28117   2.432   3.330  11.621 -0.0102 -0.9726  0.1308
 5553SOL    HW128118   2.474   3.371  11.696  1.4663  0.8076 -1.6603
 5553SOL    HW228119   2.410   3.245  11.658  1.5843 -1.7457 -0.6785
 5554SOL     OW28120   0.686   1.523   5.933  0.2415  0.0520  0.3083
 5554SOL    HW128121   0.675   1.439   5.977 -2.5893 -0.0251 -0.5618
 5554SOL    HW228122   0.764   1.565   5.969  0.4367 -0.3802  0.3806
 5555SOL     OW28123   3.304   0.297   7.876  0.0818 -0.6774  0.0863
 5555SOL    HW128124   3.344   0.378   7.906  0.9047 -1.6701  1.7279
 5555SOL    HW228125   3.247   0.271   7.948 -0.7398  1.0397  0.0446
 5556SOL     OW28126   4.083   0.636  10.435  0.5811  0.0325  0.3753
 5556SOL    HW128127   4.136   0.561  10.409 -0.5464 -0.2863 -1.0625
 5556SOL    HW228128   4.107   0.639  10.527 -1.0602  2.5571  0.7352
 5557SOL     OW28129   3.260   1.364   4.617 -0.5105 -0.0176  0.0472
 5557SOL    HW128130   3.198   1.378   4.546 -0.2426 -3.7382 -0.9085
 5557SOL    HW228131   3.204   1.330   4.686 -1.3724 -1.2451 -1.2577
 5558SOL     OW28132   2.489   3.903  13.696  0.0103  0.6693  0.4772
 5558SOL    HW128133   2.473   3.835  13.760 -0.9124 -1.1529 -1.6920
 5558SOL    HW228134   2.400   3.934  13.681 -0.2086  0.1616  0.7445
 5559SOL     OW28135   2.857   2.893   4.056  0.1787  0.0692  0.2990
 5559SOL    HW128136   2.811   2.944   4.124 -1.3121  1.3931 -1.6627
 5559SOL    HW228137   2.786   2.832   4.036 -0.8826  0.6700  2.2029
 5560SOL     OW28138   4.458   0.778   8.039 -0.0862  0.0761 -0.0094
 5560SOL    HW128139   4.388   0.794   8.103  1.1284  3.1517  0.5273
 5560SOL    HW228140   4.467   0.860   7.991 -0.5050  0.5997  0.8093
 5561SOL     OW28141   0.492   1.308  17.265  0.7968 -0.0110  0.4963
 5561SOL    HW128142   0.442   1.294  17.345 -0.2317  0.1183 -0.1323
 5561SOL    HW228143   0.490   1.224  17.219 -0.4159  0.1473  0.2642
 5562SOL     OW28144   2.192   2.940  14.281  0.0229  0.7006  0.9356
 5562SOL    HW128145   2.145   2.996  14.219 -1.0934  0.4766  1.5649
 5562SOL    HW228146   2.267   2.906  14.232  0.5706  0.4869  1.9194
 5563SOL     OW28147   1.864   0.239   7.909  0.2687 -0.4702  0.4833
 5563SOL    HW128148   1.861   0.199   7.996  1.2887 -1.2696  0.1418
 5563SOL    HW228149   1.958   0.230   7.899  0.5132  0.2301  2.0120
 5564SOL     OW28150   1.866   1.012  10.356 -0.1343  0.0331  0.0479
 5564SOL    HW128151   1.837   1.021  10.447  0.4738 -0.8709  0.3322
 5564SOL    HW228152   1.950   0.970  10.370 -0.9468 -1.3043  0.9824
 5565SOL     OW28153   3.819   3.422   3.624 -0.0860 -0.0609 -0.5418
 5565SOL    HW128154   3.825   3.496   3.563  0.1281  0.7073  0.4103
 5565SOL    HW228155   3.733   3.392   3.596 -0.4837  1.4914 -0.9810
 5566SOL     OW28156   0.941   1.562   5.048 -0.0302 -0.0535 -0.6204
 5566SOL    HW128157   0.864   1.611   5.078  0.7660  0.9037 -0.1734
 5566SOL    HW228158   0.894   1.480   5.027 -0.3175 -0.2783  0.9255
 5567SOL     OW28159   2.028   0.682  12.998 -0.1505  0.5198  0.1422
 5567SOL    HW128160   2.049   0.747  13.065  2.0864 -0.2044  0.1601
 5567SOL    HW228161   2.115   0.675  12.959  1.3720  0.3201  3.5421
 5568SOL     OW28162   4.323   2.171   9.106 -0.5126  0.4847 -0.0078
 5568SOL    HW128163   4.238   2.166   9.063 -0.5747 -1.4350  0.3323
 5568SOL    HW228164   4.371   2.133   9.033 -1.0366 -2.3347  1.1049
 5569SOL     OW28165   1.841   3.002   4.687 -0.1502 -0.2645 -0.4982
 5569SOL    HW128166   1.936   3.014   4.686 -0.2703  0.7834  1.0195
 5569SOL    HW228167   1.832   2.910   4.714  0.9272  0.0116  0.7969
 5570SOL     OW28168   3.477   4.055  14.586 -1.0842  0.4288  0.1237
 5570SOL    HW128169   3.500   4.148  14.587 -0.4319  0.2382  2.1531
 5570SOL    HW228170   3.480   4.031  14.493  1.5186  3.0673 -0.4625
 5571SOL     OW28171   0.564   2.106   5.556 -0.1717  0.1241  0.2552
 5571SOL    HW128172   0.650   2.077   5.525 -1.0078 -3.0691  1.0126
 5571SOL    HW228173   0.600   2.161   5.626 -1.2394  0.9053  0.1904
 5572SOL     OW28174   1.539   1.558   6.692 -0.1298 -0.2831  0.4253
 5572SOL    HW128175   1.481   1.614   6.744  1.4408  3.2160 -1.6084
 5572SOL    HW228176   1.472   1.510   6.644 -1.0277  0.5675  0.8205
 5573SOL     OW28177   1.539   3.075  16.511 -0.1531 -0.3362 -0.0400
 5573SOL    HW128178   1.514   3.116  16.428  2.1385  1.9651  0.4005
 5573SOL    HW228179   1.484   3.124  16.571 -0.0093  0.2227 -0.3670
 5574SOL     OW28180   4.075   2.315   4.673  0.3585  0.1777 -0.3712
 5574SOL    HW128181   4.148   2.335   4.614 -1.1655  1.8551 -1.6537
 5574SOL    HW228182   4.072   2.398   4.720  0.7757  0.2348 -0.4408
 5575SOL     OW28183   4.391   4.303   3.891 -0.5750  0.2157 -0.6365
 5575SOL    HW128184   4.483   4.276   3.888 -0.5740 -0.0915  2.6842
 5575SOL    HW228185   4.354   4.250   3.820 -4.7910  0.0134  1.7319
 5576SOL     OW28186   2.580   1.929   4.378 -0.2098 -0.0007 -0.0753
 5576SOL    HW128187   2.637   1.873   4.325  0.6347  1.6219 -0.9098
 5576SOL    HW228188   2.551   1.874   4.450  0.3104  1.3409  1.1647
 5577SOL     OW28189   4.347   3.012   8.302 -0.6129  0.0027 -0.4697
 5577SOL    HW128190   4.291   3.013   8.380 -1.1358  1.3927 -0.8710
 5577SOL    HW228191   4.374   3.104   8.297 -0.0839 -0.0088  1.9976
 5578SOL     OW28192   2.411   3.960   0.307 -0.6920  0.2161 -0.0258
 5578SOL    HW128193   2.446   3.871   0.312 -2.5223 -0.4995  0.0455
 5578SOL    HW228194   2.328   3.953   0.353 -1.0469  0.7737 -0.5879
 5579SOL     OW28195   3.587   3.016   1.487  0.1625  0.0151  0.1756
 5579SOL    HW128196   3.595   2.979   1.399 -0.5826 -0.8372  0.4722
 5579SOL    HW228197   3.602   3.110   1.477 -2.7695  0.3332 -1.2490
 5580SOL     OW28198   2.744   0.170   2.647 -0.1698 -0.1517  0.0789
 5580SOL    HW128199   2.707   0.083   2.632 -0.8871  0.4791 -1.8481
 5580SOL    HW228200   2.783   0.187   2.561  0.2245  0.6422  0.4167
 5581SOL     OW28201   2.510   1.935   7.766  0.3284 -0.3941 -0.3226
 5581SOL    HW128202   2.516   1.929   7.671  1.7376 -2.1082 -0.1309
 5581SOL    HW228203   2.542   2.023   7.780 -1.8427  0.2412  0.7366
 5582SOL     OW28204   3.517   1.704   4.173  0.6156 -0.4107 -0.0096
 5582SOL    HW128205   3.481   1.660   4.096  0.0847 -0.3547  0.2115
 5582SOL    HW228206   3.472   1.788   4.160  0.0772 -0.6121  0.5649
 5583SOL     OW28207   2.552   2.658   9.133 -0.2704 -0.2493 -0.2566
 5583SOL    HW128208   2.558   2.746   9.170 -1.5951  0.2678 -1.2866
 5583SOL    HW228209   2.551   2.614   9.218  0.0385 -3.5810 -1.9788
 5584SOL     OW28210   3.812   3.943   6.874  0.2791  0.2729 -0.1104
 5584SOL    HW128211   3.745   3.888   6.915 -0.9229  2.9000  1.4296
 5584SOL    HW228212   3.854   3.974   6.954  1.8039 -0.0505 -0.7768
 5585SOL     OW28213   1.561   1.695   4.613 -0.0935 -0.1714  0.0471
 5585SOL    HW128214   1.655   1.712   4.605  0.2504 -1.7657  0.5809
 5585SOL    HW228215   1.524   1.758   4.674 -0.4223  1.9643 -2.3890
 5586SOL     OW28216   0.651   4.284  11.549  0.0352  0.3271 -0.4322
 5586SOL    HW128217   0.602   4.365  11.562  0.1480  0.2451  0.4853
 5586SOL    HW228218   0.600   4.227  11.607  2.3668  0.1069  1.3697
 5587SOL     OW28219   3.019   0.056   8.889 -0.3506 -0.1860  0.0990
 5587SOL    HW128220   3.096   0.087   8.936 -0.6991 -1.0889  1.2831
 5587SOL    HW228221   2.951   0.079   8.952 -0.4577 -0.8063  0.2035
 5588SOL     OW28222   1.385   0.220   6.774 -0.5613  0.0537  0.6434
 5588SOL    HW128223   1.465   0.263   6.804  1.8806 -1.9233 -3.0358
 5588SOL    HW228224   1.324   0.291   6.788 -1.3979 -0.6454  0.5610
 5589SOL     OW28225   4.596   0.931   3.158 -0.1284  0.6817 -0.2760
 5589SOL    HW128226   4.557   0.918   3.072 -1.3555 -1.2532  0.5770
 5589SOL    HW228227   4.657   1.001   3.134  1.3080 -0.2711  0.6409
 5590SOL     OW28228   3.013   2.218   9.823 -0.1490  0.1083 -0.0936
 5590SOL    HW128229   2.976   2.305   9.842 -1.0482  0.2310 -2.2810
 5590SOL    HW228230   3.065   2.199   9.900  0.9390  1.2530 -0.5512
 5591SOL     OW28231   0.193   4.159   2.773  0.5620 -0.3465 -0.3973
 5591SOL    HW128232   0.230   4.148   2.685  0.9359  2.0491 -0.5510
 5591SOL    HW228233   0.263   4.121   2.827 -2.2555 -1.2538  2.6137
 5592SOL     OW28234   3.822   2.276   4.789 -0.2321 -0.9240  0.2642
 5592SOL    HW128235   3.826   2.318   4.875 -1.0437 -0.0643 -0.1180
 5592SOL    HW228236   3.911   2.267   4.756  0.5956  1.8510  1.7642
 5593SOL     OW28237   4.025   2.959  12.865 -0.2777  0.7892 -0.0490
 5593SOL    HW128238   3.967   3.022  12.908 -3.2288 -1.4888 -0.6860
 5593SOL    HW228239   4.055   2.912  12.943 -1.3030 -0.9223 -0.6587
 5594SOL     OW28240   2.272   2.940   5.676 -0.0847  0.8364  0.1065
 5594SOL    HW128241   2.185   2.911   5.703  0.0474 -0.0794 -0.4303
 5594SOL    HW228242   2.311   2.859   5.708  0.6230  1.5459  1.0304
 5595SOL     OW28243   0.196   4.588   5.196  0.0386 -0.3980 -0.1450
 5595SOL    HW128244   0.259   4.608   5.265 -0.3759 -0.3938  0.2264
 5595SOL    HW228245   0.112   4.596   5.241 -0.3686 -4.1132 -0.2224
 5596SOL     OW28246   1.482   0.644  14.706 -0.2762  0.3437  0.5040
 5596SOL    HW128247   1.540   0.576  14.672  1.4316  1.0581  2.0404
 5596SOL    HW228248   1.397   0.628  14.664  0.9555 -0.6710 -1.5895
 5597SOL     OW28249   1.655   1.866  10.755  0.1627  0.7258  0.7061
 5597SOL    HW128250   1.732   1.828  10.797 -0.0692  1.9004  2.2133
 5597SOL    HW228251   1.589   1.845  10.822 -2.7815  0.4363 -2.2662
 5598SOL     OW28252   4.038   4.055  11.053 -0.2301 -0.0795 -0.1559
 5598SOL    HW128253   4.029   4.111  10.976 -0.6542 -1.9417 -1.4723
 5598SOL    HW228254   4.091   4.112  11.108  2.1898 -3.2350  0.7617
 5599SOL     OW28255   1.860   3.319   3.580 -0.2850 -0.1246  0.0863
 5599SOL    HW128256   1.938   3.300   3.631  0.2003 -0.9152 -0.9416
 5599SOL    HW228257   1.896   3.386   3.522  0.9163  1.6604  2.8824
 5600SOL     OW28258   1.926   3.936   7.952 -0.7858  0.1780 -0.3075
 5600SOL    HW128259   1.938   3.918   7.859  1.6224  0.1804  0.0141
 5600SOL    HW228260   2.016   3.936   7.984  0.6350 -1.1082 -4.2566
 5601SOL     OW28261   3.819   1.139  17.634  0.4316  0.3221  0.2760
 5601SOL    HW128262   3.752   1.104  17.693 -1.2356  2.3336 -0.4361
 5601SOL    HW228263   3.798   1.232  17.627  1.1187  0.4776  0.2926
 5602SOL     OW28264   3.928   2.257   1.887 -0.6884 -0.4691 -0.1506
 5602SOL    HW128265   3.861   2.246   1.820  0.0986  4.0206 -1.7242
 5602SOL    HW228266   3.913   2.189   1.952 -0.3796  0.4384  0.8692
 5603SOL     OW28267   0.995   0.630   5.842 -0.1590 -0.0554 -0.0681
 5603SOL    HW128268   0.934   0.597   5.907 -1.0722  1.2218 -0.2789
 5603SOL    HW228269   0.936   0.691   5.797  0.3098  0.4186 -0.0516
 5604SOL     OW28270   1.040   0.343   5.320 -0.3241  0.6213 -0.3939
 5604SOL    HW128271   1.000   0.428   5.340 -1.6532 -0.1026  0.0589
 5604SOL    HW228272   1.070   0.312   5.405  0.0607 -0.7386 -1.0325
 5605SOL     OW28273   1.658   2.376  13.099 -0.0940  0.9560  0.5475
 5605SOL    HW128274   1.695   2.417  13.178 -0.1605  1.6643  0.2058
 5605SOL    HW228275   1.641   2.288  13.133 -2.1570  1.0129 -0.3420
 5606SOL     OW28276   3.142   1.837   4.024  0.0188 -0.0993  0.0401
 5606SOL    HW128277   3.209   1.899   3.995 -1.0849  1.9698  1.8913
 5606SOL    HW228278   3.119   1.794   3.941 -1.8969  1.0053 -0.0077
 5607SOL     OW28279   3.597   3.846   7.829 -0.6589 -0.2591  0.0597
 5607SOL    HW128280   3.563   3.788   7.898 -2.4962  0.6196 -0.1076
 5607SOL    HW228281   3.521   3.903   7.817  0.2225  0.9029  0.1363
 5608SOL     OW28282   4.246   2.748   3.856 -0.3175  0.5398  0.6407
 5608SOL    HW128283   4.181   2.688   3.820 -0.1763  0.8375 -0.0948
 5608SOL    HW228284   4.320   2.745   3.796 -0.7305 -2.7136  0.2669
 5609SOL     OW28285   2.037   0.036   2.932 -0.4273  0.3571 -0.2233
 5609SOL    HW128286   1.978   0.085   2.874  0.4289  2.1605  0.4180
 5609SOL    HW228287   2.123   0.057   2.895 -0.3045  0.5076  0.1454
 5610SOL     OW28288   0.736   0.744  16.271 -0.6392  0.3810 -0.2172
 5610SOL    HW128289   0.827   0.748  16.241 -0.1191  1.0335  1.4225
 5610SOL    HW228290   0.718   0.836  16.254 -0.4016  0.2252 -1.2678
 5611SOL     OW28291   3.536   0.210  10.959  0.1560  0.2321  0.0086
 5611SOL    HW128292   3.480   0.142  10.997  0.2654  0.5974  0.8174
 5611SOL    HW228293   3.624   0.174  10.963  0.4047  1.1083  2.2768
 5612SOL     OW28294   2.617   0.043   8.784 -0.4266 -0.0118  0.2450
 5612SOL    HW128295   2.611   4.687   8.734  1.2353  0.1318 -0.1773
 5612SOL    HW228296   2.527   0.071   8.768 -1.1823 -0.6008  3.3848
 5613SOL     OW28297   3.971   2.323  12.501  0.3517  0.4565  0.1976
 5613SOL    HW128298   3.973   2.286  12.590 -1.1516 -0.8582 -0.3148
 5613SOL    HW228299   4.027   2.399  12.512  0.7743  0.3009 -0.9085
 5614SOL     OW28300   0.561   3.656  14.018  0.0496  0.4623 -0.0753
 5614SOL    HW128301   0.569   3.718  14.090  0.4468 -2.2613  2.2461
 5614SOL    HW228302   0.474   3.618  14.032  0.1378  0.4840  0.5479
 5615SOL     OW28303   1.933   2.004  13.934 -0.1364 -0.1916  0.0283
 5615SOL    HW128304   1.957   2.017  14.026 -1.5608  0.3098  0.3266
 5615SOL    HW228305   1.990   1.932  13.905  1.0039  0.4570  0.6249
 5616SOL     OW28306   0.485   0.953   5.366 -0.2589 -0.2353 -0.2224
 5616SOL    HW128307   0.435   1.030   5.342 -0.5807  0.1943  1.8672
 5616SOL    HW228308   0.464   0.883   5.304 -3.2339 -1.0454  1.7274
 5617SOL     OW28309   4.274   2.602  15.850  0.5533  0.6004  0.1505
 5617SOL    HW128310   4.368   2.593  15.840  0.2641 -0.5410 -1.5722
 5617SOL    HW228311   4.248   2.581  15.760  1.4980  0.2094 -0.0296
 5618SOL     OW28312   3.867   3.199   8.863 -0.0544 -0.0077 -0.1745
 5618SOL    HW128313   3.935   3.221   8.928 -0.2268  0.2596 -0.0815
 5618SOL    HW228314   3.796   3.165   8.918  0.3285  0.3567  0.5507
 5619SOL     OW28315   2.503   4.115   8.713  0.0546 -0.1738  0.1790
 5619SOL    HW128316   2.489   4.209   8.713 -2.0310 -0.4803  0.8576
 5619SOL    HW228317   2.440   4.082   8.778 -0.2700  0.1661  0.0353
 5620SOL     OW28318   0.613   0.491   9.414  0.1966 -0.3793  0.8314
 5620SOL    HW128319   0.594   0.409   9.459 -0.9090 -0.3006  0.4938
 5620SOL    HW228320   0.598   0.461   9.324 -2.2736  4.0441 -0.2448
 5621SOL     OW28321   0.219   0.691  15.875  0.4489 -0.1903  0.0881
 5621SOL    HW128322   0.264   0.741  15.807  0.1497  1.8849  1.4244
 5621SOL    HW228323   0.174   0.624  15.824  2.0484 -1.7779  0.7143
 5622SOL     OW28324   4.458   2.878   5.945 -0.3321 -0.2743 -0.5835
 5622SOL    HW128325   4.383   2.866   6.003  1.0340 -0.7089  1.0925
 5622SOL    HW228326   4.424   2.825   5.873  1.6937 -1.1607 -0.8954
 5623SOL     OW28327   4.318   4.012   7.835  0.0050  0.3242  0.1909
 5623SOL    HW128328   4.226   4.034   7.847 -0.2236  0.1303 -1.2765
 5623SOL    HW228329   4.306   3.980   7.746  1.4669  1.0623 -0.2696
 5624SOL     OW28330   0.944   4.126   4.328 -0.1613  0.0936  0.2151
 5624SOL    HW128331   0.908   4.170   4.250  1.5151  0.7650 -0.1734
 5624SOL    HW228332   1.002   4.195   4.360 -1.8836  2.1129 -0.9679
 5625SOL     OW28333   4.368   3.138   5.049 -0.2565  0.4190 -0.2375
 5625SOL    HW128334   4.337   3.054   5.083  2.7834  0.0125  1.4888
 5625SOL    HW228335   4.308   3.189   5.103 -0.4120  1.3393 -1.2874
 5626SOL     OW28336   3.421   3.320   2.633 -0.3001  0.7807 -0.8667
 5626SOL    HW128337   3.426   3.314   2.729  1.0084  1.5182 -0.8945
 5626SOL    HW228338   3.515   3.321   2.618  0.3041  0.9776  2.8048
 5627SOL     OW28339   3.869   2.818   1.485 -0.0600 -0.1566  0.0221
 5627SOL    HW128340   3.779   2.789   1.501 -0.3012  0.7972  0.4126
 5627SOL    HW228341   3.916   2.776   1.557 -0.8595 -0.1577  0.5500
 5628SOL     OW28342   1.269   1.792   4.762  0.5522 -0.1554  0.0821
 5628SOL    HW128343   1.224   1.724   4.812  1.5374 -0.6415  0.3180
 5628SOL    HW228344   1.223   1.783   4.679  0.1340 -3.7988  0.7241
 5629SOL     OW28345   3.039   0.758   8.404  0.4347  0.1324  0.5777
 5629SOL    HW128346   2.966   0.706   8.439  2.0667 -0.6462  2.8219
 5629SOL    HW228347   3.055   0.704   8.326  0.9100  1.2314 -0.0733
 5630SOL     OW28348   4.559   4.601  10.794 -0.3540 -0.0228 -0.6093
 5630SOL    HW128349   4.533   4.658  10.721 -1.1142 -1.0115 -1.1081
 5630SOL    HW228350   4.650   4.581  10.771 -0.3614  1.7383 -2.2172
 5631SOL     OW28351   2.117   1.611  17.532 -0.2017  0.4872 -0.8014
 5631SOL    HW128352   2.063   1.560  17.472  1.5963 -2.4144  0.0233
 5631SOL    HW228353   2.194   1.629  17.477  0.9427  1.7053  1.1870
 5632SOL     OW28354   3.618   0.465   9.890  0.7457 -0.9480  0.6902
 5632SOL    HW128355   3.587   0.513   9.814 -0.6352 -1.9704  0.6166
 5632SOL    HW228356   3.639   0.534   9.953  0.1894  0.5588 -0.7985
 5633SOL     OW28357   2.321   2.723   8.530  0.0176  0.2945  0.7451
 5633SOL    HW128358   2.247   2.686   8.482 -0.0248 -0.4172  1.3516
 5633SOL    HW228359   2.377   2.645   8.533  1.5928  1.4706  2.0468
 5634SOL     OW28360   4.342   3.950   4.348  0.5232 -0.1179  0.0835
 5634SOL    HW128361   4.257   3.986   4.374 -0.0327 -2.0833  0.9603
 5634SOL    HW228362   4.369   3.889   4.416  2.7631  1.6716  0.7788
 5635SOL     OW28363   0.851   1.987   7.784 -0.2112  0.5199  0.2446
 5635SOL    HW128364   0.764   1.947   7.792 -0.4662  1.1912  0.8238
 5635SOL    HW228365   0.875   2.009   7.874  2.9187 -2.8491  0.2463
 5636SOL     OW28366   3.095   1.757  13.753  0.0861  0.0790  0.6494
 5636SOL    HW128367   3.052   1.678  13.788  1.6961 -1.2389 -0.3708
 5636SOL    HW228368   3.169   1.715  13.709 -0.5702  0.9993 -1.3193
 5637SOL     OW28369   3.360   1.022   5.333  0.0559  0.0307 -0.5623
 5637SOL    HW128370   3.371   0.949   5.273  0.7763 -0.6365  0.3782
 5637SOL    HW228371   3.265   1.021   5.340  0.1319 -1.1234  0.3518
 5638SOL     OW28372   4.070   4.507   6.813  0.7453 -0.2545  0.9903
 5638SOL    HW128373   4.049   4.493   6.721 -0.1551 -0.8796  1.2930
 5638SOL    HW228374   4.037   4.425   6.849 -2.6620  0.1230 -1.2267
 5639SOL     OW28375   1.017   4.667   4.715  0.6052 -0.3472  0.0161
 5639SOL    HW128376   0.989   4.616   4.639  1.1705 -1.0245  0.2569
 5639SOL    HW228377   0.970   4.612   4.779 -3.2017 -0.2277 -2.6675
 5640SOL     OW28378   2.358   4.200   0.217 -0.0458 -0.4417  0.3931
 5640SOL    HW128379   2.397   4.117   0.244 -0.0924 -1.0561 -1.4057
 5640SOL    HW228380   2.382   4.248   0.296 -0.3290  1.4317 -0.6540
 5641SOL     OW28381   4.136   2.181   5.821  0.3596  0.3128 -0.0417
 5641SOL    HW128382   4.224   2.200   5.790 -0.0086  0.9995 -0.6611
 5641SOL    HW228383   4.121   2.112   5.758  0.7017  1.7011 -1.6338
 5642SOL     OW28384   2.961   0.772   8.759  0.2471 -0.2564  0.2687
 5642SOL    HW128385   3.031   0.799   8.819  0.9628 -1.8229  0.1343
 5642SOL    HW228386   3.002   0.703   8.707 -0.5162 -1.4587  1.2739
 5643SOL     OW28387   3.910   1.001   5.750  0.4411  0.5148 -0.2712
 5643SOL    HW128388   3.839   1.051   5.709 -0.7130 -0.3315  0.6911
 5643SOL    HW228389   3.870   0.952   5.822  0.4905  0.9810  0.0736
 5644SOL     OW28390   4.011   4.434   3.601 -0.5529 -0.0699  0.1232
 5644SOL    HW128391   4.009   4.408   3.693  0.5852 -0.0329  0.1536
 5644SOL    HW228392   3.941   4.384   3.559 -0.0259 -0.6287 -0.0964
 5645SOL     OW28393   1.742   4.493   2.702  0.1608 -0.2376  0.4097
 5645SOL    HW128394   1.680   4.490   2.630 -0.3133 -2.9888  0.9275
 5645SOL    HW228395   1.813   4.541   2.660 -0.8409  0.4056 -0.5172
 5646SOL     OW28396   3.118   3.674   3.678 -0.5161  0.3381  0.1368
 5646SOL    HW128397   3.086   3.690   3.590  0.4579  1.1941 -0.0632
 5646SOL    HW228398   3.134   3.580   3.676 -0.5902  0.3326 -0.1360
 5647SOL     OW28399   3.050   3.327   9.743 -0.2761  0.4319  0.7072
 5647SOL    HW128400   3.024   3.312   9.652  1.9313 -1.5311  0.4011
 5647SOL    HW228401   2.998   3.403   9.770  1.6507  1.2925  2.0020
 5648SOL     OW28402   2.283   2.943   5.196  0.4250 -0.1000  0.2710
 5648SOL    HW128403   2.333   2.879   5.146 -1.1605  1.3197 -3.1162
 5648SOL    HW228404   2.317   2.924   5.283  0.5013  0.0959  0.2839
 5649SOL     OW28405   1.554   0.441   6.899 -0.3381 -0.4494 -0.2246
 5649SOL    HW128406   1.606   0.442   6.979  0.1125 -0.9668 -0.5105
 5649SOL    HW228407   1.483   0.499   6.924  0.9239  1.4311 -0.9880
 5650SOL     OW28408   1.560   0.853   7.079  0.0745 -0.3796 -0.3173
 5650SOL    HW128409   1.516   0.893   7.153  0.0121 -2.6982  0.8676
 5650SOL    HW228410   1.486   0.818   7.029 -1.2292  3.4279 -1.0213
 5651SOL     OW28411   0.499   1.086   5.810  0.1394  0.5775 -0.0080
 5651SOL    HW128412   0.488   1.173   5.771 -1.7928  0.7325  0.8904
 5651SOL    HW228413   0.586   1.086   5.852 -0.6743 -0.7342  1.6715
 5652SOL     OW28414   0.228   3.368   6.317  0.5600 -0.3838  0.5031
 5652SOL    HW128415   0.141   3.342   6.286 -0.0022  0.7219  1.1643
 5652SOL    HW228416   0.223   3.435   6.385 -0.0757  0.6509 -0.5621
 5653SOL     OW28417   1.785   3.415   0.468 -0.5004  0.0192 -0.0224
 5653SOL    HW128418   1.806   3.489   0.525 -1.7579 -0.4575  1.0603
 5653SOL    HW228419   1.849   3.412   0.397 -2.3629 -0.3484 -1.6844
 5654SOL     OW28420   1.960   2.646   8.171  0.1828  0.3735  0.4012
 5654SOL    HW128421   1.911   2.726   8.187  1.1721  0.8720  0.9223
 5654SOL    HW228422   1.968   2.650   8.076 -0.6219  1.8348  0.4045
 5655SOL     OW28423   4.515   1.697  14.959  0.2838  0.3447 -0.1194
 5655SOL    HW128424   4.423   1.710  14.935  0.3086 -0.9207 -0.9302
 5655SOL    HW228425   4.546   1.656  14.878  0.3898  0.6991 -0.2558
 5656SOL     OW28426   2.225   3.577   3.771 -0.0392  0.6738  0.5535
 5656SOL    HW128427   2.256   3.617   3.690 -1.7529  1.0188  0.0774
 5656SOL    HW228428   2.130   3.579   3.759 -0.0750 -0.5855  0.6731
 5657SOL     OW28429   3.654   0.444   1.744 -0.5089 -0.0934 -0.0681
 5657SOL    HW128430   3.657   0.534   1.777 -1.2871 -0.1524  0.1713
 5657SOL    HW228431   3.709   0.397   1.807 -1.0380  0.4618  0.8180
 5658SOL     OW28432   3.177   1.407  11.121 -0.3702 -0.2464  0.0037
 5658SOL    HW128433   3.134   1.334  11.166 -1.9252 -0.0665 -1.1620
 5658SOL    HW228434   3.118   1.444  11.055  0.5335  1.7566  0.3299
 5659SOL     OW28435   2.383   2.240   5.767 -0.0349 -0.1766 -0.0389
 5659SOL    HW128436   2.379   2.151   5.802 -0.3545  0.0366  0.4635
 5659SOL    HW228437   2.290   2.248   5.743  0.1128  0.5605 -0.3456
 5660SOL     OW28438   3.782   2.545  12.496  0.7081  0.4546  0.3068
 5660SOL    HW128439   3.859   2.487  12.502  1.2803  1.0447 -1.2507
 5660SOL    HW228440   3.750   2.565  12.584  1.0034  0.4168  0.4241
 5661SOL     OW28441   2.385   0.562  14.178  0.0127 -0.6911 -0.1595
 5661SOL    HW128442   2.376   0.541  14.085 -1.3339  1.5762 -0.5297
 5661SOL    HW228443   2.295   0.593  14.188  0.6534  0.8352  0.8757
 5662SOL     OW28444   0.886   1.339   3.944  0.0898 -0.5587 -0.4701
 5662SOL    HW128445   0.970   1.293   3.946  0.6383  0.4461 -0.2740
 5662SOL    HW228446   0.835   1.289   3.880 -1.4196  1.0537 -0.5108
 5663SOL     OW28447   1.700   2.734   6.407 -0.1858  0.5875  0.0069
 5663SOL    HW128448   1.612   2.713   6.438  0.1110  0.4946  0.7883
 5663SOL    HW228449   1.747   2.700   6.483  0.9612  0.5054 -0.7421
 5664SOL     OW28450   0.040   3.140   9.153  0.5133  0.1442  0.5495
 5664SOL    HW128451   4.712   3.181   9.085 -0.2706  0.4927  1.3708
 5664SOL    HW228452   4.706   3.111   9.223 -0.9372  0.5744 -0.4757
 5665SOL     OW28453   2.038   3.557   4.954  0.4012  0.1897 -0.2020
 5665SOL    HW128454   2.012   3.589   4.868 -1.8895 -2.4617 -0.4997
 5665SOL    HW228455   1.954   3.561   5.000  1.4284 -0.1996  1.6958
 5666SOL     OW28456   1.280   0.841  14.537  0.1544  0.0557  0.0569
 5666SOL    HW128457   1.373   0.862  14.531 -0.3631  1.7638 -2.2255
 5666SOL    HW228458   1.295   0.747  14.524 -0.3451 -0.2722  1.8506
 5667SOL     OW28459   0.673   4.264   6.947  0.1819 -0.0019 -0.0575
 5667SOL    HW128460   0.580   4.285   6.932  0.2849  2.3338  2.7295
 5667SOL    HW228461   0.678   4.270   7.042  0.2694  1.6181 -0.1721
 5668SOL     OW28462   4.475   1.597   6.943 -0.9192 -0.3881  0.5587
 5668SOL    HW128463   4.425   1.530   6.896 -0.6905 -0.7102  0.7691
 5668SOL    HW228464   4.445   1.680   6.907  1.9921 -0.7183 -2.5658
 5669SOL     OW28465   2.177   2.827  13.707 -0.1375  0.3679 -1.2191
 5669SOL    HW128466   2.227   2.857  13.631 -1.3638  1.4937 -1.5931
 5669SOL    HW228467   2.134   2.905  13.743  0.9894 -0.0101  0.9855
 5670SOL     OW28468   1.601   0.924  11.851 -0.0692 -0.4897  0.1740
 5670SOL    HW128469   1.680   0.936  11.903  0.6562 -0.3885 -0.9462
 5670SOL    HW228470   1.616   0.966  11.766  1.0076  1.5547  1.3717
 5671SOL     OW28471   1.176   2.818   4.582 -0.3210  0.1638  0.4879
 5671SOL    HW128472   1.174   2.871   4.503  1.7063 -0.0150  0.3037
 5671SOL    HW228473   1.267   2.786   4.586 -0.1895  0.6436  1.5369
 5672SOL     OW28474   2.164   2.278  11.310  0.0340 -0.2326 -0.2232
 5672SOL    HW128475   2.130   2.361  11.345  0.0862  0.0461 -0.8336
 5672SOL    HW228476   2.118   2.212  11.361  1.2126 -0.6875  0.2473
 5673SOL     OW28477   4.627   2.850   0.703  0.4361 -0.1500 -0.3300
 5673SOL    HW128478   4.677   2.804   0.635  0.4066 -1.5001  0.5636
 5673SOL    HW228479   4.690   2.917   0.728 -0.5326  2.4996 -4.9556
 5674SOL     OW28480   1.495   0.629   9.356  0.6198  0.2981 -0.1955
 5674SOL    HW128481   1.543   0.665   9.281 -0.8698  0.2784 -1.1682
 5674SOL    HW228482   1.405   0.653   9.333  0.0370 -0.4437  1.3441
 5675SOL     OW28483   0.505   0.861  14.798 -0.6597  0.0486 -0.1631
 5675SOL    HW128484   0.431   0.915  14.771  0.6734  0.5324 -2.8489
 5675SOL    HW228485   0.464   0.775  14.805 -0.2155 -0.1793 -0.3254
 5676SOL     OW28486   3.681   3.986   5.012  0.2416 -0.3444 -0.0938
 5676SOL    HW128487   3.627   3.932   5.070 -0.2493 -1.2934 -1.4365
 5676SOL    HW228488   3.611   4.043   4.978  0.1376 -0.5807 -0.2788
 5677SOL     OW28489   1.346   0.963   7.803 -0.4215  0.2352 -0.5321
 5677SOL    HW128490   1.385   0.878   7.826 -0.8533  0.5040  1.1648
 5677SOL    HW228491   1.400   1.033   7.840 -2.2996  0.4605  1.7596
 5678SOL     OW28492   0.385   4.064   5.714 -0.4713  0.1379 -0.2804
 5678SOL    HW128493   0.448   4.050   5.644  1.4108  1.2640  1.2098
 5678SOL    HW228494   0.338   4.142   5.686 -1.5487 -0.2647  0.3755
 5679SOL     OW28495   1.094   0.990  14.375  0.4857 -0.1358  0.1172
 5679SOL    HW128496   1.036   0.922  14.410  0.7302  0.4603  1.7052
 5679SOL    HW228497   1.179   0.954  14.400  0.6843  1.0176  1.0897
 5680SOL     OW28498   0.287   3.349  14.489 -0.3108  0.3310  0.3862
 5680SOL    HW128499   0.198   3.331  14.459 -0.2542  1.2630 -0.3259
 5680SOL    HW228500   0.338   3.318  14.415 -0.7278 -1.7428  0.9762
 5681SOL     OW28501   2.186   4.384   1.506  0.0818 -0.0222 -0.2630
 5681SOL    HW128502   2.147   4.471   1.496 -1.3398 -0.6921 -0.4793
 5681SOL    HW228503   2.176   4.361   1.414  0.8545 -1.3813 -0.0069
 5682SOL     OW28504   3.962   1.752   7.433 -0.1800 -0.5425 -0.5507
 5682SOL    HW128505   3.992   1.842   7.427  1.1728 -1.0049 -0.7411
 5682SOL    HW228506   4.002   1.728   7.517 -0.4750  0.0733 -0.2362
 5683SOL     OW28507   4.003   1.454   9.961  0.5491 -0.0223 -0.1364
 5683SOL    HW128508   4.060   1.471   9.885  1.8259 -2.7011  0.2064
 5683SOL    HW228509   4.054   1.484  10.036 -0.8754  2.3760 -0.1451
 5684SOL     OW28510   1.623   2.207   4.449  0.0085  0.5642  0.0305
 5684SOL    HW128511   1.585   2.133   4.403 -2.8911  1.0412  1.6226
 5684SOL    HW228512   1.571   2.279   4.414 -0.6550 -0.4029 -0.9810
 5685SOL     OW28513   4.612   3.836   2.788 -0.3083 -0.0057  0.1823
 5685SOL    HW128514   4.615   3.743   2.811  1.3678  0.0008  0.0119
 5685SOL    HW228515   4.579   3.830   2.699  0.1004 -0.6931  0.0791
 5686SOL     OW28516   0.108   3.722  10.432  0.4864 -0.5785 -0.4128
 5686SOL    HW128517   0.201   3.706  10.447  0.5336  0.0518 -0.0171
 5686SOL    HW228518   0.078   3.664  10.502 -0.8555 -0.8274 -1.2076
 5687SOL     OW28519   2.087   1.023   9.048 -0.2405 -0.3227 -0.5329
 5687SOL    HW128520   2.064   1.018   8.955 -0.8530 -1.0808 -0.3370
 5687SOL    HW228521   2.056   0.941   9.085  0.5314 -0.5940 -0.4957
 5688SOL     OW28522   0.067   0.143  16.618 -0.2184  0.3097  0.1291
 5688SOL    HW128523   0.081   0.238  16.619  1.7302  0.0099  2.1344
 5688SOL    HW228524   0.134   0.117  16.554  1.5632  0.6342  1.8732
 5689SOL     OW28525   0.158   0.088   2.260 -0.6952 -0.0868 -0.4229
 5689SOL    HW128526   0.235   0.144   2.272  0.7389 -2.0312 -0.4231
 5689SOL    HW228527   0.152   0.088   2.164  1.7019  1.1393 -0.5757
 5690SOL     OW28528   3.220   0.644   3.847 -0.3808  0.1273 -0.4923
 5690SOL    HW128529   3.161   0.595   3.903  1.8707 -0.2145  1.5710
 5690SOL    HW228530   3.301   0.635   3.896  0.0506 -2.2007 -1.6388
 5691SOL     OW28531   0.669   2.505   6.002 -1.3547  0.7883  0.6115
 5691SOL    HW128532   0.601   2.448   6.037 -1.3925  0.9806  0.8536
 5691SOL    HW228533   0.743   2.452   6.031 -2.0082  1.1563  2.9488
 5692SOL     OW28534   2.963   3.863   0.955  0.9695  0.4341 -0.8532
 5692SOL    HW128535   2.872   3.873   0.928  0.4849 -2.2301 -0.1763
 5692SOL    HW228536   2.961   3.835   1.047  0.4351 -3.2115 -1.9722
 5693SOL     OW28537   1.249   0.806  15.124  0.0765 -0.2437  0.4602
 5693SOL    HW128538   1.287   0.774  15.206 -0.5300  0.1336  0.8862
 5693SOL    HW228539   1.281   0.896  15.126 -1.7239  0.4331 -1.8181
 5694SOL     OW28540   3.284   2.302   0.750 -0.0498  0.1440  0.7574
 5694SOL    HW128541   3.364   2.254   0.728  1.3726  1.4755  3.0671
 5694SOL    HW228542   3.225   2.230   0.768  1.4066 -0.8022  1.7110
 5695SOL     OW28543   4.303   0.780   9.032 -0.1101  0.0571  0.6932
 5695SOL    HW128544   4.229   0.725   9.009  0.6441  0.3756 -2.5373
 5695SOL    HW228545   4.365   0.727   9.082 -0.5416 -0.6369  0.4889
 5696SOL     OW28546   1.999   0.835   4.998  0.5318  0.4890  0.3202
 5696SOL    HW128547   2.077   0.794   5.036  0.5123  0.0751 -0.0886
 5696SOL    HW228548   1.959   0.859   5.082  0.3614 -1.3429  0.7652
 5697SOL     OW28549   0.095   2.728   7.712 -0.2713  0.1033 -0.3340
 5697SOL    HW128550   0.068   2.649   7.758  0.7689  0.2281  0.4961
 5697SOL    HW228551   0.018   2.784   7.707  0.2913  1.0312  1.1488
 5698SOL     OW28552   4.356   4.719   8.105 -0.3407 -0.6908 -0.7233
 5698SOL    HW128553   4.260   4.714   8.109 -0.4424  0.4655 -1.9840
 5698SOL    HW228554   4.373   0.027   8.194 -0.0149  0.9011 -1.3720
 5699SOL     OW28555   3.750   1.498   1.345  0.1381  0.9598  0.0870
 5699SOL    HW128556   3.738   1.518   1.437 -0.0688  0.2588  0.2065
 5699SOL    HW228557   3.813   1.426   1.342 -0.2971  0.6716 -2.4540
 5700SOL     OW28558   1.756   2.149   8.708 -0.4231 -0.0192  0.2817
 5700SOL    HW128559   1.715   2.223   8.663  2.7384  1.3886 -0.2452
 5700SOL    HW228560   1.843   2.186   8.719  0.3779 -1.9776  0.5586
 5701SOL     OW28561   2.789   4.226   7.183 -0.0382  0.2964 -0.0660
 5701SOL    HW128562   2.795   4.168   7.107  0.7676  0.3026 -0.0058
 5701SOL    HW228563   2.727   4.186   7.244 -0.7883  1.4953 -0.0205
 5702SOL     OW28564   2.078   4.104   6.414  0.2700 -0.2441  0.2336
 5702SOL    HW128565   2.093   4.020   6.455 -0.0799  0.3965  1.6615
 5702SOL    HW228566   2.022   4.145   6.480 -1.4089  0.4128 -1.5629
 5703SOL     OW28567   3.293   3.361  11.014  0.1301  0.2880  0.1184
 5703SOL    HW128568   3.247   3.424  10.959 -1.2077 -1.5299 -0.8564
 5703SOL    HW228569   3.369   3.417  11.027  1.8243 -2.4023  1.9606
 5704SOL     OW28570   0.170   3.328   4.198  0.3669  0.2932 -0.0107
 5704SOL    HW128571   0.249   3.381   4.206  0.9659 -0.2692 -2.1263
 5704SOL    HW228572   0.204   3.260   4.139 -0.5629 -0.8220  0.7261
 5705SOL     OW28573   4.521   1.755   3.066  0.1708  0.5118  0.7480
 5705SOL    HW128574   4.613   1.757   3.093  0.7379 -0.8564 -1.0867
 5705SOL    HW228575   4.478   1.784   3.147 -2.6025 -0.0998 -0.5149
 5706SOL     OW28576   1.385   1.516  13.760  0.3177  0.4761 -0.0938
 5706SOL    HW128577   1.360   1.562  13.680  0.2429  0.7612  0.0948
 5706SOL    HW228578   1.398   1.430  13.720  1.2860  1.5333 -2.0605
 5707SOL     OW28579   4.439   2.722   3.057 -0.1494  0.3712 -0.2673
 5707SOL    HW128580   4.478   2.695   3.140  2.2128 -0.6781 -1.7045
 5707SOL    HW228581   4.364   2.663   3.048 -0.6918  1.0440 -0.1436
 5708SOL     OW28582   3.817   1.214   5.295 -0.2985 -0.3258  0.5873
 5708SOL    HW128583   3.863   1.210   5.379 -0.6759 -0.7704  0.7746
 5708SOL    HW228584   3.727   1.238   5.316 -0.2762  0.9450 -0.7530
 5709SOL     OW28585   2.668   3.137   0.367 -0.1702 -0.2728 -0.1059
 5709SOL    HW128586   2.606   3.066   0.388 -2.4763  2.0145  0.8303
 5709SOL    HW228587   2.731   3.130   0.439  0.5273  0.4169 -0.6576
 5710SOL     OW28588   4.300   0.194   7.452  0.3033 -0.2594  0.2578
 5710SOL    HW128589   4.361   0.168   7.520  1.0949 -0.6211 -0.5834
 5710SOL    HW228590   4.280   0.112   7.407  0.1015  0.4763 -1.0105
 5711SOL     OW28591   0.178   3.727   5.688  0.2601  0.1063  0.1043
 5711SOL    HW128592   0.195   3.788   5.761  0.3690  1.3167 -0.9299
 5711SOL    HW228593   0.208   3.649   5.734 -0.9304 -0.7161 -0.5230
 5712SOL     OW28594   1.575   4.639   3.497 -0.2052 -0.1982 -0.1033
 5712SOL    HW128595   1.540   4.591   3.422  1.3283  1.2689 -1.7733
 5712SOL    HW228596   1.534   4.722   3.473 -1.4379 -0.2759  1.7269
 5713SOL     OW28597   1.657   1.475   2.662  0.1642 -0.7199  0.2877
 5713SOL    HW128598   1.697   1.561   2.670  0.7888 -1.1051  1.2988
 5713SOL    HW228599   1.682   1.449   2.573  1.3208 -0.1002  0.4297
 5714SOL     OW28600   0.769   4.431   3.983 -0.7059  0.3325  0.4328
 5714SOL    HW128601   0.805   4.440   4.072 -1.8275 -0.5746  0.9805
 5714SOL    HW228602   0.731   4.517   3.966 -0.4378  0.1172 -1.1976
 5715SOL     OW28603   1.262   1.860   1.999 -0.2118 -0.6653 -0.1766
 5715SOL    HW128604   1.354   1.889   1.997  0.0036 -1.3414 -0.1405
 5715SOL    HW228605   1.235   1.860   1.907  1.1549 -1.9990 -0.5958
 5716SOL     OW28606   1.550   3.205   8.369  0.2976  0.3958  0.2355
 5716SOL    HW128607   1.555   3.300   8.384 -1.4298  0.8708 -2.0759
 5716SOL    HW228608   1.555   3.194   8.274  1.0641  0.2076  0.2971
 5717SOL     OW28609   1.792   3.759   2.342 -0.4303  0.5257  0.0021
 5717SOL    HW128610   1.869   3.816   2.347 -0.0081 -0.0143 -0.2892
 5717SOL    HW228611   1.830   3.697   2.404 -0.7528  1.5744  1.2456
 5718SOL     OW28612   3.567   0.496   8.522 -0.0762  0.1210  0.3032
 5718SOL    HW128613   3.574   0.401   8.512  0.0687  0.1259  0.3553
 5718SOL    HW228614   3.493   0.515   8.464 -0.6726 -1.9861  0.3765
 5719SOL     OW28615   3.248   3.043   8.214 -0.2499  0.0375  0.3769
 5719SOL    HW128616   3.312   3.109   8.187 -0.1441  0.1660  0.9368
 5719SOL    HW228617   3.253   3.052   8.309  1.4613  2.6067  0.0544
 5720SOL     OW28618   4.653   0.369  16.785 -0.7305 -0.1126 -0.0317
 5720SOL    HW128619   4.661   0.437  16.718  0.4627 -0.2898 -0.0623
 5720SOL    HW228620   4.652   0.430  16.859  0.9373  1.1904 -1.0972
 5721SOL     OW28621   4.252   3.404   7.270 -0.3162  0.3357  0.0180
 5721SOL    HW128622   4.245   3.447   7.355  0.0889 -0.4840  0.4740
 5721SOL    HW228623   4.340   3.366   7.275 -0.0597  1.2298  2.1102
 5722SOL     OW28624   2.855   0.663   2.887 -0.1634 -0.0460  0.3787
 5722SOL    HW128625   2.769   0.688   2.854  0.4314  0.1365 -1.0580
 5722SOL    HW228626   2.840   0.599   2.957 -1.1911 -0.4782 -0.2332
 5723SOL     OW28627   3.733   4.366   3.911  0.2388 -0.0921  0.2347
 5723SOL    HW128628   3.644   4.338   3.892 -0.5222  2.6779 -0.3614
 5723SOL    HW228629   3.728   4.461   3.926 -1.6825 -0.3276  1.0364
 5724SOL     OW28630   0.525   0.148  14.915 -0.3073  0.4136  0.1797
 5724SOL    HW128631   0.606   0.182  14.954  1.2842 -1.1071 -1.7573
 5724SOL    HW228632   0.548   0.122  14.826 -0.9199 -1.5028  0.5869
 5725SOL     OW28633   3.939   4.081   2.011 -0.5257  0.6033 -0.5912
 5725SOL    HW128634   3.997   4.153   2.035  0.0610 -1.5910  4.3779
 5725SOL    HW228635   3.939   4.084   1.915  3.5165 -0.7421 -0.5964
 5726SOL     OW28636   4.519   0.764   4.324 -0.1936 -0.1285  0.9188
 5726SOL    HW128637   4.523   0.834   4.389  1.4235  0.1518  0.5042
 5726SOL    HW228638   4.604   0.776   4.283 -1.3718  1.6213 -0.9834
 5727SOL     OW28639   3.935   4.066   3.261 -0.3647 -0.0421 -0.1056
 5727SOL    HW128640   4.011   4.012   3.282 -0.1247 -0.7395 -2.7539
 5727SOL    HW228641   3.922   4.041   3.169 -0.6623 -0.4828  0.0569
 5728SOL     OW28642   4.338   2.264   2.086  0.5800 -0.4978 -0.2210
 5728SOL    HW128643   4.318   2.342   2.034  1.3732  0.8931  1.5436
 5728SOL    HW228644   4.409   2.214   2.046  1.0336  0.3133 -0.4198
 5729SOL     OW28645   1.351   3.740   8.205 -0.4281  0.2361 -0.6599
 5729SOL    HW128646   1.293   3.790   8.262 -0.4926 -0.8144  0.1942
 5729SOL    HW228647   1.308   3.655   8.198  0.5470 -0.2348 -0.8253
 5730SOL     OW28648   4.070   0.095   5.731  0.4347 -0.1623  0.3619
 5730SOL    HW128649   3.991   0.115   5.782  0.3637  2.4954 -0.7865
 5730SOL    HW228650   4.076   0.170   5.673  1.1429  0.2557  0.9639
 5731SOL     OW28651   1.738   1.906   9.068  0.2996  0.1268 -0.3640
 5731SOL    HW128652   1.743   1.993   9.029  1.2344 -0.5088 -1.6864
 5731SOL    HW228653   1.819   1.908   9.120  0.9734 -2.3274 -1.3019
 5732SOL     OW28654   0.290   4.124   5.358 -0.3341 -0.1862  0.5010
 5732SOL    HW128655   0.364   4.110   5.417  0.4532 -2.1338 -0.9385
 5732SOL    HW228656   0.314   4.060   5.290  0.5282  0.4931  0.1715
 5733SOL     OW28657   1.268   3.224   0.793 -0.0446 -0.1410  0.0756
 5733SOL    HW128658   1.227   3.227   0.706  2.2167 -0.6673 -1.0383
 5733SOL    HW228659   1.346   3.277   0.776  1.0710 -2.2186 -1.2828
 5734SOL     OW28660   0.352   2.180   0.395  0.1305 -0.2154  0.0294
 5734SOL    HW128661   0.311   2.160   0.479 -0.1322 -5.5504 -1.4209
 5734SOL    HW228662   0.318   2.270   0.386 -2.0803 -1.0183  0.3148
 5735SOL     OW28663   4.540   0.105   2.214  0.2766  0.2763 -0.3347
 5735SOL    HW128664   4.618   0.139   2.169  1.4657 -2.3856 -0.3234
 5735SOL    HW228665   4.552   0.137   2.303  1.1319 -1.4569  0.1651
 5736SOL     OW28666   0.313   3.552   2.158 -0.5305  0.2827  0.3966
 5736SOL    HW128667   0.282   3.571   2.070  1.1326 -0.1361 -0.2706
 5736SOL    HW228668   0.269   3.620   2.210 -0.9178  0.0152  0.4180
 5737SOL     OW28669   4.292   0.003   5.536 -0.0304 -0.1984 -0.2108
 5737SOL    HW128670   4.314   0.039   5.450 -2.3138 -4.2527 -2.5209
 5737SOL    HW228671   4.240   0.077   5.567  1.8998  0.9810  0.1967
 5738SOL     OW28672   4.348   3.939   3.517  0.1566  0.6201  0.1703
 5738SOL    HW128673   4.386   3.994   3.450 -1.7796  2.7572  0.8106
 5738SOL    HW228674   4.366   3.851   3.485 -1.3972  1.3742 -2.7452
 5739SOL     OW28675   2.577   4.427   8.973 -0.4538  0.0203 -0.3975
 5739SOL    HW128676   2.584   4.436   8.878  0.3457  0.5613 -0.2844
 5739SOL    HW228677   2.618   4.509   9.000  0.4885 -0.1922 -1.1746
 5740SOL     OW28678   3.194   1.660   2.651 -0.0377  0.7297  0.2326
 5740SOL    HW128679   3.256   1.731   2.668 -0.5208  1.2487 -0.1717
 5740SOL    HW228680   3.258   1.591   2.666 -1.3633 -0.6837 -0.5568
 5741SOL     OW28681   0.144   4.574   8.266 -0.9707 -0.0088 -0.4156
 5741SOL    HW128682   0.179   4.662   8.279  0.3504 -0.7959  1.4499
 5741SOL    HW228683   0.175   4.534   8.347 -0.1851  0.4414 -0.4989
 5742SOL     OW28684   3.510   4.034   8.641  0.1546  0.0802  0.0760
 5742SOL    HW128685   3.444   3.970   8.669  1.2982 -0.0360  2.4995
 5742SOL    HW228686   3.485   4.055   8.551  0.2318 -1.3196 -0.2714
 5743SOL     OW28687   3.543   1.137   5.981  0.2439  0.5126 -0.2243
 5743SOL    HW128688   3.595   1.196   5.927 -1.1000  2.9407  1.0780
 5743SOL    HW228689   3.564   1.053   5.941 -0.5189  0.6747 -0.9660
 5744SOL     OW28690   3.952   4.266   5.304 -0.6127  0.1188 -0.0984
 5744SOL    HW128691   4.000   4.229   5.378  1.2158  0.6648 -1.0145
 5744SOL    HW228692   3.860   4.243   5.315 -0.3130 -0.1955  1.7050
 5745SOL     OW28693   3.421   4.462   6.060 -0.4400  0.5395 -0.2507
 5745SOL    HW128694   3.490   4.490   6.120  1.3131  0.3037 -2.1507
 5745SOL    HW228695   3.453   4.506   5.981 -0.4465  1.9508  0.5413
 5746SOL     OW28696   2.540   0.214   2.267  0.3664  0.6493 -0.0659
 5746SOL    HW128697   2.557   0.202   2.173 -0.3177 -1.7539  0.1156
 5746SOL    HW228698   2.558   0.121   2.286  0.3978  0.8214  0.7220
 5747SOL     OW28699   1.709   0.989   2.684  0.1568 -0.1718 -0.3591
 5747SOL    HW128700   1.648   0.994   2.758  0.3070  0.0076 -0.2468
 5747SOL    HW228701   1.777   1.050   2.712 -2.3459  2.6393 -0.3698
 5748SOL     OW28702   2.455   0.529  10.532  0.4481  0.1182  0.8958
 5748SOL    HW128703   2.390   0.597  10.551 -0.5528 -0.6505  0.1880
 5748SOL    HW228704   2.427   0.502  10.445 -0.2578  0.6598  0.9565
 5749SOL     OW28705   3.490   2.172  13.455  0.0321  0.2851  0.2228
 5749SOL    HW128706   3.565   2.150  13.511 -0.1685 -0.2278  0.2842
 5749SOL    HW228707   3.423   2.106  13.466 -0.1422  0.3230 -0.5855
 5750SOL     OW28708   4.220   1.112   5.800 -0.1131 -0.1410  0.2399
 5750SOL    HW128709   4.173   1.137   5.720  1.3669 -0.2046 -0.6565
 5750SOL    HW228710   4.151   1.120   5.866 -1.0218 -0.6356 -0.6446
 5751SOL     OW28711   0.749   0.310   5.889  0.3857  0.2165  0.3664
 5751SOL    HW128712   0.754   0.225   5.931 -0.5845 -0.2839 -0.5202
 5751SOL    HW228713   0.789   0.296   5.803  1.1051 -0.7685  0.8733
 5752SOL     OW28714   2.312   1.213   6.686 -0.5381 -0.3473 -0.1376
 5752SOL    HW128715   2.407   1.215   6.694 -0.6340  2.1137  0.3582
 5752SOL    HW228716   2.294   1.263   6.765 -0.5619 -1.1878  0.3860
 5753SOL     OW28717   2.328   1.475  17.369 -0.1790  0.5242 -0.6214
 5753SOL    HW128718   2.266   1.408  17.343 -0.5955  0.0455  1.6038
 5753SOL    HW228719   2.300   1.554  17.323  0.2129 -1.5196 -4.3132
 5754SOL     OW28720   2.899   0.598  14.856 -0.2871  0.2022  0.0484
 5754SOL    HW128721   2.954   0.636  14.924  1.2004  0.6901 -1.4074
 5754SOL    HW228722   2.888   0.673  14.796  0.3164 -0.4184 -0.8419
 5755SOL     OW28723   4.176   1.088   6.331 -0.1189  0.3271  0.0222
 5755SOL    HW128724   4.149   1.028   6.262 -1.5127 -0.0243  0.8657
 5755SOL    HW228725   4.200   1.166   6.281  3.2718  0.8999  2.5456
 5756SOL     OW28726   2.600   0.973   4.627 -0.3039  0.3474 -0.0304
 5756SOL    HW128727   2.548   1.037   4.674 -0.3950  0.0339  0.3005
 5756SOL    HW228728   2.669   1.030   4.593  0.2552  0.6118  1.5652
 5757SOL     OW28729   4.671   3.790  11.387 -0.3819 -0.1489  0.1145
 5757SOL    HW128730   0.014   3.857  11.386  1.4217 -1.9661  1.7505
 5757SOL    HW228731   4.661   3.792  11.482 -1.0146 -0.2222  0.0511
 5758SOL     OW28732   4.549   2.406  12.469  0.3792 -0.6423  0.2265
 5758SOL    HW128733   4.504   2.329  12.503 -2.1446 -0.3650 -2.4908
 5758SOL    HW228734   4.572   2.381  12.379  3.6461 -1.8907  1.3837
 5759SOL     OW28735   2.577   0.713   6.300  0.1074  0.1770  0.3984
 5759SOL    HW128736   2.543   0.628   6.271  0.5465  0.6969 -1.6883
 5759SOL    HW228737   2.619   0.748   6.221  0.1062 -3.5560 -1.2603
 5760SOL     OW28738   4.244   4.557   4.217 -0.4203  0.1593 -0.4595
 5760SOL    HW128739   4.149   4.554   4.212 -0.5690 -0.4680  2.6904
 5760SOL    HW228740   4.250   4.619   4.290 -0.6889  2.5869 -2.4962
 5761SOL     OW28741   4.172   1.969   7.478 -0.2244  0.0151  0.2820
 5761SOL    HW128742   4.211   2.055   7.490 -1.0543  0.1020  2.4074
 5761SOL    HW228743   4.225   1.938   7.404 -1.1888  0.1542 -0.4673
 5762SOL     OW28744   0.689   1.076   7.451  0.5741 -0.3195 -0.2593
 5762SOL    HW128745   0.780   1.047   7.446 -0.2568 -2.7065 -1.3637
 5762SOL    HW228746   0.699   1.165   7.415 -0.6004 -0.1292 -0.1161
 5763SOL     OW28747   4.095   2.601  14.128  0.6989  0.1075  0.0316
 5763SOL    HW128748   4.014   2.586  14.079  2.3333  0.7518 -2.8749
 5763SOL    HW228749   4.055   2.635  14.208  1.9566  0.3201  0.5629
 5764SOL     OW28750   1.472   3.471  17.182 -0.3424  0.0270 -0.3531
 5764SOL    HW128751   1.393   3.489  17.131 -0.1045  1.7166 -0.1447
 5764SOL    HW228752   1.496   3.384  17.152  3.0914  0.8617 -0.1111
 5765SOL     OW28753   3.449   4.088   8.385  0.2240 -0.7440 -0.1176
 5765SOL    HW128754   3.386   4.158   8.368  1.5087  0.5183  0.3422
 5765SOL    HW228755   3.451   4.037   8.304 -2.1020  1.2420 -1.4290
 5766SOL     OW28756   3.530   2.860   6.584  0.4255 -0.6749  0.4399
 5766SOL    HW128757   3.466   2.918   6.544  2.2231 -0.7262 -2.4662
 5766SOL    HW228758   3.498   2.781   6.540  0.8880 -0.5737 -0.0744
 5767SOL     OW28759   0.330   1.893   3.885 -0.3354  0.2102  0.1970
 5767SOL    HW128760   0.394   1.855   3.825 -0.4068 -3.4414  2.4475
 5767SOL    HW228761   0.373   1.881   3.969  0.2567  1.6894  0.1107
 5768SOL     OW28762   0.340   4.582   8.588 -0.3094 -0.4429  0.6385
 5768SOL    HW128763   0.327   4.546   8.676  0.1014  1.4300  1.4566
 5768SOL    HW228764   0.357   4.505   8.534 -0.8576  0.2384 -0.5016
 5769SOL     OW28765   0.732   1.790   4.039  0.3305 -0.1940  0.6833
 5769SOL    HW128766   0.774   1.834   4.114 -0.4588  2.7073 -0.5617
 5769SOL    HW228767   0.807   1.730   4.037 -1.4970 -2.4498  0.3355
 5770SOL     OW28768   0.165   2.863   0.121 -0.1443  0.1045  0.4584
 5770SOL    HW128769   0.219   2.924   0.171 -0.4184  1.3266 -0.7202
 5770SOL    HW228770   0.142   2.789   0.176 -1.2734  1.0031  1.2054
 5771SOL     OW28771   1.507   3.161  16.222 -0.1473 -0.0587 -0.0706
 5771SOL    HW128772   1.590   3.193  16.187  0.5245 -2.4011 -0.6443
 5771SOL    HW228773   1.507   3.072  16.187  1.8300 -0.8084  1.8640
 5772SOL     OW28774   2.764   4.705   2.924 -0.1077 -0.0272 -0.0818
 5772SOL    HW128775   2.757   0.075   2.915 -2.4871 -0.1086  0.7166
 5772SOL    HW228776   2.678   4.680   2.889 -0.2733  0.3361  0.0658
 5773SOL     OW28777   0.839   2.135   5.438 -0.2423 -0.3051  0.4773
 5773SOL    HW128778   0.844   2.205   5.374 -1.4943 -2.5135 -2.0135
 5773SOL    HW228779   0.886   2.063   5.396 -0.0012 -1.0215  1.9557
 5774SOL     OW28780   3.762   0.515   6.339 -0.0257  0.8527  0.1871
 5774SOL    HW128781   3.672   0.536   6.313 -0.0084  0.5383 -0.1325
 5774SOL    HW228782   3.777   0.575   6.412 -1.5806  0.3204  0.9483
 5775SOL     OW28783   4.151   0.337   1.374  0.8934 -0.0317  0.1434
 5775SOL    HW128784   4.152   0.259   1.429  1.5683 -1.3772 -1.7491
 5775SOL    HW228785   4.066   0.374   1.396  1.1756 -1.0141  2.8421
 5776SOL     OW28786   1.462   4.600   1.777 -0.4055  0.5036 -0.3767
 5776SOL    HW128787   1.479   4.610   1.683  2.8769 -0.7842  0.1030
 5776SOL    HW228788   1.546   4.572   1.813 -0.1308  0.1110 -1.3190
 5777SOL     OW28789   4.207   3.626   5.963 -0.3557 -0.0520 -0.0313
 5777SOL    HW128790   4.270   3.580   6.018 -0.8777 -3.1147 -2.0049
 5777SOL    HW228791   4.251   3.711   5.965 -0.7451  0.1115  2.2772
 5778SOL     OW28792   3.153   4.713   1.277 -0.9873 -0.5034 -0.1062
 5778SOL    HW128793   3.235   0.034   1.261 -0.2549 -1.4961  0.7439
 5778SOL    HW228794   3.087   0.057   1.277 -1.2645 -0.7689  2.1842
 5779SOL     OW28795   3.945   3.898   9.197  0.6486  0.3144 -0.0405
 5779SOL    HW128796   3.967   3.951   9.120  0.4116 -0.1451 -0.4260
 5779SOL    HW228797   3.861   3.857   9.176  1.3244 -1.3268  0.4868
 5780SOL     OW28798   3.604   2.318   3.052 -0.3820 -0.3625 -0.4800
 5780SOL    HW128799   3.595   2.408   3.085 -0.7834 -0.2183 -0.9808
 5780SOL    HW228800   3.669   2.330   2.983  1.0241 -0.9540  0.7478
 5781SOL     OW28801   4.567   3.558   2.546 -0.2073  0.7273  0.3228
 5781SOL    HW128802   4.485   3.532   2.587  0.6355 -2.1534  0.2176
 5781SOL    HW228803   4.546   3.631   2.489 -0.9517  0.2718  0.0131
 5782SOL     OW28804   0.145   1.366   4.497  0.1147 -0.1080 -0.0759
 5782SOL    HW128805   0.173   1.320   4.418 -0.7883 -2.3028  0.8474
 5782SOL    HW228806   0.200   1.442   4.511  1.5326 -1.0498 -0.5716
 5783SOL     OW28807   3.318   1.994   9.722  0.2509  0.7486 -0.0000
 5783SOL    HW128808   3.258   2.055   9.680 -0.8154  1.3179  2.3710
 5783SOL    HW228809   3.402   2.015   9.680  1.0710 -1.2203  0.6586
 5784SOL     OW28810   4.297   3.236   6.633 -0.2297  0.3643 -0.1732
 5784SOL    HW128811   4.293   3.331   6.626 -1.5830  0.1614 -2.2140
 5784SOL    HW228812   4.386   3.225   6.668 -0.5414  0.0608  0.5319
 5785SOL     OW28813   2.975   2.460   4.709  0.4836 -0.0003  1.1539
 5785SOL    HW128814   2.990   2.403   4.633 -0.9693  0.3236  0.6240
 5785SOL    HW228815   3.050   2.519   4.708 -0.6485  1.3927 -1.2935
 5786SOL     OW28816   0.275   2.518   6.031 -0.4223  0.0966  0.0516
 5786SOL    HW128817   0.351   2.463   6.050 -0.2893  0.2922  0.0922
 5786SOL    HW228818   0.301   2.556   5.947  0.1337  2.1475  1.1599
 5787SOL     OW28819   0.591   3.057  16.595 -0.5348  0.2475  0.1668
 5787SOL    HW128820   0.587   2.976  16.542 -0.6741 -0.0840  0.6842
 5787SOL    HW228821   0.521   3.113  16.561 -1.7446  0.0497  2.3411
 5788SOL     OW28822   1.562   1.633   7.948  0.2219 -0.2415  0.5094
 5788SOL    HW128823   1.621   1.598   7.882  0.5681  2.2559 -0.5222
 5788SOL    HW228824   1.616   1.684   8.008 -0.8664  0.4455  0.9048
 5789SOL     OW28825   4.352   1.690  14.638  0.0174  0.0018  0.5760
 5789SOL    HW128826   4.432   1.660  14.681  0.3590 -0.2611 -0.2455
 5789SOL    HW228827   4.386   1.759  14.582 -0.8868  0.3199  0.4196
 5790SOL     OW28828   0.132   1.045  12.736  0.4728 -0.3371 -0.0310
 5790SOL    HW128829   0.172   0.982  12.676 -1.0165 -1.0498 -0.3015
 5790SOL    HW228830   0.038   1.023  12.734  0.0703  1.3479  0.5913
 5791SOL     OW28831   0.555   3.475  14.322 -0.2983 -0.1784 -0.1044
 5791SOL    HW128832   0.500   3.552  14.309  1.7202  1.2907  0.1957
 5791SOL    HW228833   0.491   3.404  14.316 -2.1965  1.4744  0.5503
 5792SOL     OW28834   1.850   1.608   4.828  0.4217  0.1288  0.3243
 5792SOL    HW128835   1.791   1.680   4.848  0.4982  0.3818 -0.3689
 5792SOL    HW228836   1.892   1.588   4.912 -0.1881  0.0158  0.6034
 5793SOL     OW28837   1.166   0.842  12.890  0.5290 -1.0079  0.5669
 5793SOL    HW128838   1.246   0.791  12.880  0.4721 -0.7166 -1.3701
 5793SOL    HW228839   1.184   0.887  12.972  1.3479 -1.9973  0.9214
 5794SOL     OW28840   3.321   4.070   6.064 -0.7040 -0.2261 -0.3737
 5794SOL    HW128841   3.415   4.052   6.061 -0.4230  0.9556  1.4705
 5794SOL    HW228842   3.289   4.032   6.146  1.8626  1.5957  1.4933
 5795SOL     OW28843   4.400   1.564   3.356  0.3456 -0.1982 -0.1611
 5795SOL    HW128844   4.453   1.543   3.434  0.1701  2.4790  0.7021
 5795SOL    HW228845   4.417   1.657   3.341 -1.6320  0.1697 -0.1370
 5796SOL     OW28846   0.907   3.349   8.687 -0.2050 -0.1443 -0.6828
 5796SOL    HW128847   0.851   3.346   8.765  1.0420  0.8717  0.2374
 5796SOL    HW228848   0.877   3.283   8.625  1.2433 -0.6758 -0.8008
 5797SOL     OW28849   3.229   4.643   6.483 -0.3146 -0.2448  0.1018
 5797SOL    HW128850   3.226   4.550   6.507 -0.6466 -0.3127 -0.2001
 5797SOL    HW228851   3.249   4.687   6.566 -1.2993  0.9767 -0.3126
 5798SOL     OW28852   0.633   3.108   6.142 -0.0983 -0.0154 -0.8423
 5798SOL    HW128853   0.618   3.058   6.063  1.5959  1.4462 -2.0940
 5798SOL    HW228854   0.552   3.158   6.153 -0.6486 -0.5668 -2.5044
 5799SOL     OW28855   1.768   0.891   8.969  0.2637 -0.3982 -0.7239
 5799SOL    HW128856   1.715   0.830   9.020 -2.2298  1.5635 -0.9572
 5799SOL    HW228857   1.709   0.957   8.932  4.1179  1.5770 -3.3553
 5800SOL     OW28858   1.877   2.613  15.774 -0.0044 -0.2507 -0.6883
 5800SOL    HW128859   1.835   2.589  15.692 -1.4069  2.4040 -0.7651
 5800SOL    HW228860   1.813   2.673  15.813 -0.0643 -1.1526  0.6184
 5801SOL     OW28861   1.554   3.979   9.078 -0.7448 -0.0801  0.1743
 5801SOL    HW128862   1.546   4.074   9.071  0.8520 -0.0110 -0.9106
 5801SOL    HW228863   1.627   3.966   9.017 -2.8901  3.0090 -3.0844
 5802SOL     OW28864   3.669   4.296   7.686  0.0496  0.1418 -0.3932
 5802SOL    HW128865   3.594   4.285   7.745 -0.1079  0.5800 -0.5082
 5802SOL    HW228866   3.708   4.376   7.721  0.0023  0.0617 -0.1560
 5803SOL     OW28867   2.148   2.484   9.992  0.0744  0.3351 -0.0301
 5803SOL    HW128868   2.204   2.418   9.951 -1.3733  0.8219 -2.7759
 5803SOL    HW228869   2.107   2.532   9.920  1.6533 -0.3540 -1.3955
 5804SOL     OW28870   2.974   4.612   7.031 -0.8059  0.2943  0.8256
 5804SOL    HW128871   2.908   4.565   7.082 -1.7056  1.0131  0.3310
 5804SOL    HW228872   2.957   4.705   7.040  0.5969  0.5847  0.4477
 5805SOL     OW28873   2.844   4.102   8.863 -0.0467 -0.4274 -0.4463
 5805SOL    HW128874   2.867   4.095   8.771  0.2854  1.8657 -0.5170
 5805SOL    HW228875   2.869   4.014   8.893  1.1104 -0.3456 -1.2087
 5806SOL     OW28876   0.908   3.204   1.307  0.0688 -0.5559  0.0843
 5806SOL    HW128877   0.845   3.216   1.236 -0.8191 -0.0931  0.9450
 5806SOL    HW228878   0.974   3.161   1.252 -0.9443 -0.1099 -1.4712
 5807SOL     OW28879   3.139   3.305  16.547  0.4164 -0.5226 -0.0020
 5807SOL    HW128880   3.120   3.331  16.637 -0.7393 -2.5326  0.3397
 5807SOL    HW228881   3.072   3.236  16.542 -0.0700  0.0313 -1.3389
 5808SOL     OW28882   3.475   0.627   6.661  0.1092  0.0554  0.2805
 5808SOL    HW128883   3.445   0.540   6.633  0.7382  0.3853 -1.4426
 5808SOL    HW228884   3.537   0.641   6.589 -0.3966 -0.0557 -0.1799
 5809SOL     OW28885   3.474   0.043  10.683  0.1098  0.1758 -0.3766
 5809SOL    HW128886   3.507   0.081  10.764 -0.4559 -0.9493  0.3886
 5809SOL    HW228887   3.556   0.053  10.635 -0.6148  1.1693 -1.3986
 5810SOL     OW28888   0.756   3.983  14.863  0.8412  0.1444 -0.1459
 5810SOL    HW128889   0.673   3.940  14.844 -1.3274  4.2798 -0.0060
 5810SOL    HW228890   0.819   3.913  14.846  3.0112  1.9122  0.5048
 5811SOL     OW28891   1.777   4.431   3.419 -0.2829 -0.0193  0.4395
 5811SOL    HW128892   1.836   4.502   3.444 -2.1130  0.8191  2.3165
 5811SOL    HW228893   1.699   4.462   3.464 -1.1362  0.0026 -1.0546
 5812SOL     OW28894   3.924   0.778   8.888 -0.0647 -0.1198  0.3022
 5812SOL    HW128895   3.895   0.799   8.799 -0.0217  2.1364  0.8368
 5812SOL    HW228896   4.000   0.836   8.900  2.0150 -2.3924 -1.7926
 5813SOL     OW28897   3.776   3.627   4.549  0.2766 -0.2391  0.5815
 5813SOL    HW128898   3.834   3.686   4.597 -0.9837  1.8092 -0.3694
 5813SOL    HW228899   3.693   3.673   4.568  0.5072  0.1430  0.6700
 5814SOL     OW28900   3.121   1.655  16.798 -0.0834  0.5813  0.0750
 5814SOL    HW128901   3.066   1.723  16.758  0.5645  0.7493 -0.5251
 5814SOL    HW228902   3.184   1.713  16.841 -0.9765  2.9911 -1.8018
 5815SOL     OW28903   4.553   3.844  12.757 -0.2399  0.0731  0.5109
 5815SOL    HW128904   4.605   3.768  12.730 -0.2258  0.0509  0.6010
 5815SOL    HW228905   4.474   3.801  12.787  0.2320 -0.7820  0.5337
 5816SOL     OW28906   3.624   2.862   1.246  0.0031  0.5850  0.5524
 5816SOL    HW128907   3.627   2.879   1.152  0.3794 -1.2368  0.2294
 5816SOL    HW228908   3.702   2.913   1.269  1.9497 -1.8255 -0.7000
 5817SOL     OW28909   1.370   3.177   3.611  0.1555  0.1935  0.0723
 5817SOL    HW128910   1.465   3.175   3.603  0.0415 -1.0331 -1.0056
 5817SOL    HW228911   1.347   3.235   3.538  1.8943 -1.3002 -1.6583
 5818SOL     OW28912   0.227   3.975   8.315  0.3445 -0.8687 -0.0058
 5818SOL    HW128913   0.152   3.981   8.255  0.1277  0.4102  0.3983
 5818SOL    HW228914   0.216   3.890   8.358 -0.5941  0.7308  2.9442
 5819SOL     OW28915   3.579   0.555   4.318  0.0283  0.0297  0.1813
 5819SOL    HW128916   3.671   0.529   4.326 -0.2097 -0.7540  0.3509
 5819SOL    HW228917   3.595   0.633   4.265 -0.5491  1.1301  1.6290
 5820SOL     OW28918   2.548   1.467  16.550  0.6176 -0.1814 -0.4707
 5820SOL    HW128919   2.540   1.484  16.643 -2.3874 -4.2741  0.0344
 5820SOL    HW228920   2.561   1.555  16.513 -1.5835  0.0877 -0.6433
 5821SOL     OW28921   4.433   0.065  11.897  0.1975 -0.5854  0.0186
 5821SOL    HW128922   4.515   0.091  11.855  0.1568  0.6863  0.7370
 5821SOL    HW228923   4.372   0.121  11.847  0.2260 -0.7976 -0.2529
 5822SOL     OW28924   0.487   0.475   6.807 -0.2896  0.4448  0.4122
 5822SOL    HW128925   0.403   0.446   6.843 -1.8500  2.6516 -1.4371
 5822SOL    HW228926   0.489   0.567   6.834  0.8719  0.3724  0.5681
 5823SOL     OW28927   0.807   2.901   3.422  0.0379  0.0621 -0.1922
 5823SOL    HW128928   0.870   2.968   3.450  0.7992 -1.4419  1.6645
 5823SOL    HW228929   0.821   2.900   3.328  3.0444 -1.3773  0.2566
 5824SOL     OW28930   2.606   4.302   3.907  0.1035 -0.0101  0.1321
 5824SOL    HW128931   2.552   4.229   3.939 -0.4096  0.9587  1.4831
 5824SOL    HW228932   2.682   4.288   3.963 -0.0451 -0.6015  0.1874
 5825SOL     OW28933   3.153   1.088   6.167 -0.3893  0.8697 -0.4517
 5825SOL    HW128934   3.107   1.105   6.249  0.8842 -0.3598  0.5122
 5825SOL    HW228935   3.139   0.994   6.163 -0.2837  0.7678  1.7396
 5826SOL     OW28936   1.666   4.633   2.417 -0.0011  0.3082  0.3914
 5826SOL    HW128937   1.750   4.655   2.377 -0.4104  3.3138  1.1359
 5826SOL    HW228938   1.618   4.714   2.438  1.9779  1.1498  1.6598
 5827SOL     OW28939   4.040   3.790   8.821  0.4681  0.6097 -0.0475
 5827SOL    HW128940   4.067   3.732   8.893  1.3394  1.6623  0.4938
 5827SOL    HW228941   3.992   3.860   8.866 -0.2127  0.6688 -0.8829
 5828SOL     OW28942   1.779   3.494   2.477  0.5268 -0.2017  0.0199
 5828SOL    HW128943   1.826   3.482   2.395  0.4570  1.0362 -0.1992
 5828SOL    HW228944   1.781   3.403   2.508 -2.2197 -0.4710 -0.6162
 5829SOL     OW28945   1.225   3.251   3.856 -0.5183 -0.5365 -0.4521
 5829SOL    HW128946   1.289   3.249   3.784 -0.8237  1.4972 -0.7901
 5829SOL    HW228947   1.253   3.326   3.909 -0.6906  0.5664 -1.8999
 5830SOL     OW28948   1.702   4.032   6.197  0.1510 -0.0713 -0.1422
 5830SOL    HW128949   1.732   4.035   6.287  1.6774 -2.4861 -0.5784
 5830SOL    HW228950   1.752   4.104   6.159  0.6709  0.5332  1.7383
 5831SOL     OW28951   2.966   1.031   3.732 -0.2128 -0.1125 -0.2250
 5831SOL    HW128952   2.975   0.943   3.697 -0.5862 -0.6146  0.9313
 5831SOL    HW228953   2.879   1.059   3.705 -0.3437 -0.8917 -0.6125
 5832SOL     OW28954   0.124   0.071   7.362 -0.0419  0.1450  0.3628
 5832SOL    HW128955   0.143   4.707   7.332 -3.1709 -0.9103  1.5188
 5832SOL    HW228956   0.048   0.052   7.416 -0.1962  1.3217  0.5628
 5833SOL     OW28957   4.337   0.531   5.735  0.1876  0.6253 -0.1954
 5833SOL    HW128958   4.389   0.536   5.815 -0.3135 -1.0443  0.2322
 5833SOL    HW228959   4.396   0.564   5.667  1.6488 -0.0886  0.7296
 5834SOL     OW28960   0.831   0.183  14.738 -0.4531 -0.0725 -0.1662
 5834SOL    HW128961   0.832   0.278  14.723  0.6126 -0.0991 -0.2592
 5834SOL    HW228962   0.745   0.165  14.700 -0.1604 -1.3674 -0.2221
 5835SOL     OW28963   2.689   0.895   8.964 -0.2154 -0.4007 -0.3287
 5835SOL    HW128964   2.639   0.872   9.042  3.0410 -1.4418  1.4166
 5835SOL    HW228965   2.731   0.814   8.934  0.6607  1.2447 -3.5334
 5836SOL     OW28966   2.895   0.461   8.821 -0.3022  0.0372  0.1743
 5836SOL    HW128967   2.940   0.520   8.881 -0.2569  0.3487 -0.1721
 5836SOL    HW228968   2.964   0.430   8.763 -0.9569 -1.1107  0.0073
 5837SOL     OW28969   1.056   0.964   8.339  0.1781 -0.2559 -0.3419
 5837SOL    HW128970   1.031   0.953   8.431 -0.9225 -0.8829 -0.7054
 5837SOL    HW228971   0.984   1.022   8.314  0.6187  0.3197 -0.2726
 5838SOL     OW28972   0.966   1.803   4.798  0.5058 -0.0553 -0.5574
 5838SOL    HW128973   0.917   1.777   4.720  0.7148 -0.3848 -0.5759
 5838SOL    HW228974   0.901   1.787   4.867  0.0434  0.5350 -0.8496
 5839SOL     OW28975   2.263   3.204   7.463 -0.3471 -0.2419 -0.2340
 5839SOL    HW128976   2.225   3.118   7.442 -2.1319  0.2662  0.9255
 5839SOL    HW228977   2.183   3.257   7.465  2.1074  3.3791  1.1439
 5840SOL     OW28978   2.737   2.360  17.150 -0.4495  0.8351 -0.2421
 5840SOL    HW128979   2.721   2.454  17.159 -1.6255  0.4348  1.8706
 5840SOL    HW228980   2.796   2.341  17.223 -0.8067  1.1310  0.1209
 5841SOL     OW28981   1.355   3.100   2.411  0.2047  0.1865 -0.4025
 5841SOL    HW128982   1.295   3.142   2.472  2.9499  1.7141  1.2162
 5841SOL    HW228983   1.323   3.123   2.324  0.4620  0.7744 -0.3398
 5842SOL     OW28984   1.393   1.823   7.518  0.9015 -0.5727 -0.3956
 5842SOL    HW128985   1.353   1.909   7.508  0.6606 -0.5314  0.8607
 5842SOL    HW228986   1.315   1.769   7.504 -0.5365  1.6728 -1.0425
 5843SOL     OW28987   0.359   1.240   0.612 -0.4586 -0.2391 -0.4957
 5843SOL    HW128988   0.395   1.183   0.680 -0.9839  0.1921  0.1439
 5843SOL    HW228989   0.268   1.209   0.611 -0.5151 -0.1075  0.6945
 5844SOL     OW28990   0.521   1.521   3.066 -0.0413 -0.2569 -0.0366
 5844SOL    HW128991   0.597   1.465   3.080  1.0214  1.2910  0.4109
 5844SOL    HW228992   0.451   1.457   3.076 -0.8055  0.1377 -2.9280
 5845SOL     OW28993   3.547   2.632   8.366 -0.1864  0.0431  0.0250
 5845SOL    HW128994   3.627   2.673   8.333 -0.0261 -0.5634 -0.3456
 5845SOL    HW228995   3.540   2.553   8.313  0.3101  1.1755 -1.7360
 5846SOL     OW28996   4.650   3.287   9.554  0.7072  0.2196  0.5744
 5846SOL    HW128997   4.611   3.300   9.640 -0.4566  0.1341  0.0605
 5846SOL    HW228998   0.003   3.342   9.562  0.4247  0.2638  2.8669
 5847SOL     OW28999   1.416   3.484   7.565 -0.3124  0.1199 -0.2194
 5847SOL    HW129000   1.413   3.544   7.640  0.7186 -0.7090  0.4950
 5847SOL    HW229001   1.432   3.402   7.611  1.3631  1.7326  2.1457
 5848SOL     OW29002   0.009   3.657   6.811 -0.2001  0.0750 -0.0739
 5848SOL    HW129003   0.053   3.650   6.896  1.4658 -1.7335 -1.0906
 5848SOL    HW229004   4.679   3.578   6.814 -1.0160  0.5576 -2.8171
 5849SOL     OW29005   3.990   0.004   3.582 -0.3121 -0.5798 -0.7130
 5849SOL    HW129006   4.036   4.702   3.661  0.0238  0.4055 -0.5659
 5849SOL    HW229007   3.978   4.648   3.533 -1.5928 -1.2166  0.6568
 5850SOL     OW29008   2.318   1.396  14.102 -0.4617 -0.1073  0.0086
 5850SOL    HW129009   2.353   1.460  14.040 -0.2396  1.8404  2.1738
 5850SOL    HW229010   2.239   1.362  14.059  0.5311 -2.3505 -0.0331
 5851SOL     OW29011   0.300   1.273   3.522  0.2074 -0.1920 -0.0075
 5851SOL    HW129012   0.305   1.338   3.592  0.8944  1.5860 -1.7073
 5851SOL    HW229013   0.360   1.205   3.553  1.1732  0.3333 -0.7513
 5852SOL     OW29014   2.996   4.703   8.608  0.5156  0.2183  0.0292
 5852SOL    HW129015   3.072   4.658   8.644 -0.6648 -0.5925  1.5357
 5852SOL    HW229016   2.978   0.027   8.688 -0.7458  1.7871 -1.2240
 5853SOL     OW29017   0.016   2.611   1.873 -0.2011 -0.4190  0.1070
 5853SOL    HW129018   4.700   2.616   1.786  1.3158 -1.1870 -0.6539
 5853SOL    HW229019   0.014   2.517   1.885  1.2427 -0.2659  1.4710
 5854SOL     OW29020   0.571   1.108  17.117 -0.3117  0.0998  0.0692
 5854SOL    HW129021   0.581   1.014  17.132 -2.9685 -0.1692  0.2040
 5854SOL    HW229022   0.499   1.112  17.054 -0.0660  2.0594 -0.0789
 5855SOL     OW29023   3.239   0.403   7.606 -0.1063  0.2591  0.5995
 5855SOL    HW129024   3.191   0.332   7.650  2.1633 -2.1021 -0.7633
 5855SOL    HW229025   3.256   0.352   7.527 -1.4587  1.5787 -0.5615
 5856SOL     OW29026   2.667   4.686   5.548  0.7685  0.3621  0.0283
 5856SOL    HW129027   2.714   0.030   5.501  3.6033 -0.9686  0.8878
 5856SOL    HW229028   2.737   4.651   5.604  0.0938 -1.8573 -0.4969
 5857SOL     OW29029   1.578   0.472   4.555 -0.4248  0.2192  0.1217
 5857SOL    HW129030   1.616   0.499   4.639 -4.4379 -2.8587  2.9155
 5857SOL    HW229031   1.492   0.512   4.565 -1.0137 -1.4288  1.7291
 5858SOL     OW29032   2.582   1.912   6.075  0.2796  0.3539 -0.3394
 5858SOL    HW129033   2.583   1.856   6.153 -2.4043  0.6969 -0.0548
 5858SOL    HW229034   2.583   1.996   6.120  1.3419 -0.6702  1.5461
 5859SOL     OW29035   1.086   0.222   6.454 -0.1307 -0.0657 -0.3182
 5859SOL    HW129036   1.170   0.192   6.491 -0.9827 -0.7365  1.1085
 5859SOL    HW229037   1.041   0.137   6.453  1.0872 -0.7078 -0.8995
 5860SOL     OW29038   4.129   3.714   7.831 -0.6955 -0.0529 -0.1984
 5860SOL    HW129039   4.080   3.790   7.863  0.4268  1.2510 -1.5605
 5860SOL    HW229040   4.195   3.758   7.777  0.0514  0.0410  0.7817
 5861SOL     OW29041   2.363   0.675   7.995 -0.2070 -0.1611 -0.0612
 5861SOL    HW129042   2.275   0.659   8.027 -0.9641 -0.4266 -2.2524
 5861SOL    HW229043   2.347   0.745   7.931  1.0510  0.8356  0.7184
 5862SOL     OW29044   3.982   0.311   8.997  0.7551 -0.0060 -0.2371
 5862SOL    HW129045   3.973   0.327   9.091  2.9217  0.7012 -0.1512
 5862SOL    HW229046   4.044   0.378   8.967  0.5776  0.8388  1.2219
 5863SOL     OW29047   3.227   4.180   7.077  0.1659  0.3312  0.5160
 5863SOL    HW129048   3.257   4.224   6.997  0.2653 -1.0474 -0.1944
 5863SOL    HW229049   3.194   4.255   7.126 -2.9999 -0.8105  0.0742
 5864SOL     OW29050   3.464   3.009   2.777 -0.3222  0.1482 -0.6277
 5864SOL    HW129051   3.520   2.932   2.784 -0.9227 -0.2488 -0.1274
 5864SOL    HW229052   3.419   2.998   2.693 -0.0428  0.0469 -0.7622
 5865SOL     OW29053   1.844   0.631  14.643  0.6513  0.0533 -0.0131
 5865SOL    HW129054   1.763   0.585  14.623  0.8513  0.0389 -0.7827
 5865SOL    HW229055   1.905   0.557  14.640 -1.0151 -1.3470  0.7546
 5866SOL     OW29056   0.507   4.181   3.748  0.4699 -0.3684 -0.2723
 5866SOL    HW129057   0.507   4.268   3.709  1.2680 -0.2282  0.0262
 5866SOL    HW229058   0.561   4.192   3.827  0.0009  0.0935 -0.0155
 5867SOL     OW29059   1.213   3.767   4.412  0.7238  0.0436  0.1330
 5867SOL    HW129060   1.253   3.710   4.478 -1.7438 -1.0345  0.7224
 5867SOL    HW229061   1.125   3.777   4.449  0.6137  3.0474 -0.9622
 5868SOL     OW29062   3.835   2.728  15.937  0.3174  0.0701 -0.0888
 5868SOL    HW129063   3.759   2.786  15.927  1.0574  1.2810  1.2355
 5868SOL    HW229064   3.790   2.649  15.965 -0.1636  0.1666 -0.5900
 5869SOL     OW29065   1.214   1.892   4.100 -0.5280 -0.4985  0.0922
 5869SOL    HW129066   1.120   1.896   4.115 -0.2867  0.2999  1.3475
 5869SOL    HW229067   1.227   1.945   4.021 -0.8441 -0.6103 -0.0365
 5870SOL     OW29068   2.770   2.545   8.997 -0.4267 -0.3353 -0.0806
 5870SOL    HW129069   2.815   2.589   9.069 -0.3453 -0.1360 -0.2522
 5870SOL    HW229070   2.686   2.590   8.994 -0.1363  0.2596  0.7490
 5871SOL     OW29071   3.666   3.214   4.637 -0.2832 -0.2734  0.1641
 5871SOL    HW129072   3.753   3.249   4.617 -0.5734  0.2643 -0.1475
 5871SOL    HW229073   3.640   3.177   4.553  0.2977 -1.3537  0.4603
 5872SOL     OW29074   1.180   2.406   3.327  0.5863 -0.4288  0.2168
 5872SOL    HW129075   1.231   2.441   3.254 -1.0950  1.9658  0.1877
 5872SOL    HW229076   1.151   2.487   3.368 -0.7262 -0.7650 -0.0529
 5873SOL     OW29077   4.651   2.042   8.665  0.5525  0.2590  0.0273
 5873SOL    HW129078   0.006   2.063   8.712  0.9877 -0.1604 -0.5307
 5873SOL    HW229079   4.651   2.106   8.595  1.3936 -2.1259 -2.1595
 5874SOL     OW29080   2.603   2.536  12.896  0.4117  0.5897 -0.3143
 5874SOL    HW129081   2.664   2.549  12.824  2.1789  0.6145  1.1812
 5874SOL    HW229082   2.551   2.616  12.901  0.4564  0.4705  2.0792
 5875SOL     OW29083   4.101   0.025   8.363  0.0948  0.1869  0.0252
 5875SOL    HW129084   4.010   0.024   8.334  0.5997  1.9858 -1.6229
 5875SOL    HW229085   4.138   4.701   8.289 -0.0993 -0.4198  0.3248
 5876SOL     OW29086   1.509   3.807  11.620  0.7745  0.0648 -0.0068
 5876SOL    HW129087   1.542   3.892  11.589  1.5676 -0.2651 -0.0442
 5876SOL    HW229088   1.420   3.827  11.652  0.2528 -0.7977 -0.9308
 5877SOL     OW29089   4.485   3.731   6.217  0.4874  0.7898  0.0518
 5877SOL    HW129090   4.421   3.801   6.230 -0.3624  0.2951 -1.4505
 5877SOL    HW229091   4.433   3.652   6.202 -0.3576  1.4812 -0.6921
 5878SOL     OW29092   3.259   4.576   3.967 -0.3738 -0.2484  0.4154
 5878SOL    HW129093   3.347   4.588   4.003  0.7364 -1.6341 -1.8536
 5878SOL    HW229094   3.237   4.665   3.941 -2.0643 -1.5692 -2.7015
 5879SOL     OW29095   0.926   2.102   8.075  0.4790 -0.0848 -0.1026
 5879SOL    HW129096   0.883   2.127   8.157  0.1974  1.4127 -0.7223
 5879SOL    HW229097   0.984   2.175   8.054  0.5795  0.2257  1.2578
 5880SOL     OW29098   1.637   3.686  14.461  0.3879 -0.2060  0.3236
 5880SOL    HW129099   1.639   3.613  14.400  0.9700  0.6530 -0.6777
 5880SOL    HW229100   1.552   3.728  14.444  1.2334  1.7094  0.7735
 5881SOL     OW29101   1.258   1.722   2.591  0.2275  0.1124  0.3004
 5881SOL    HW129102   1.191   1.760   2.535  1.1656  2.3459  0.7206
 5881SOL    HW229103   1.197   1.690   2.659 -0.0339 -3.6022 -1.6673
 5882SOL     OW29104   2.962   1.817   7.016  0.0238 -0.2241  0.5273
 5882SOL    HW129105   2.968   1.753   7.087 -2.7387 -0.7242  0.3188
 5882SOL    HW229106   2.969   1.898   7.066  0.9988 -0.3264  0.5438
 5883SOL     OW29107   4.619   2.833   3.878  0.0378 -0.3996  0.1687
 5883SOL    HW129108   4.570   2.914   3.865  0.3674 -0.4548 -1.4252
 5883SOL    HW229109   4.703   2.878   3.891 -0.0416 -0.2379  0.1218
 5884SOL     OW29110   3.112   1.899   5.432  0.0160  0.3028 -0.4882
 5884SOL    HW129111   3.132   1.812   5.398  1.0857 -0.5521  2.2961
 5884SOL    HW229112   3.139   1.950   5.356 -0.1105 -1.1824 -1.5233
 5885SOL     OW29113   1.962   0.329  11.846  0.3608  0.4299 -0.2754
 5885SOL    HW129114   1.914   0.252  11.876 -0.1705  0.4610 -1.0478
 5885SOL    HW229115   1.990   0.364  11.931 -0.7243 -1.8651  1.0027
 5886SOL     OW29116   3.216   1.327   4.077 -0.0891  0.1071 -0.0313
 5886SOL    HW129117   3.238   1.279   3.997 -1.0717 -1.1400  0.4272
 5886SOL    HW229118   3.164   1.256   4.116 -0.6405  0.2728 -0.4590
 5887SOL     OW29119   3.761   3.663   3.187 -0.0001 -0.4402 -0.2660
 5887SOL    HW129120   3.747   3.731   3.253 -0.0706 -2.8379  2.1687
 5887SOL    HW229121   3.686   3.666   3.128 -1.6850  0.4747  1.9267
 5888SOL     OW29122   1.664   4.544  11.563 -0.8628  0.2117  0.0965
 5888SOL    HW129123   1.740   4.541  11.622 -1.2338  0.3382  0.5812
 5888SOL    HW229124   1.684   4.621  11.510  2.9298 -0.3093  0.7520
 5889SOL     OW29125   0.158   1.580   5.509  0.6792 -0.4927 -0.4145
 5889SOL    HW129126   0.195   1.492   5.513 -1.6036 -1.4551 -1.0864
 5889SOL    HW229127   0.068   1.572   5.540  0.7947 -1.1553 -0.2581
 5890SOL     OW29128   1.336   0.387   8.287  0.2800 -0.1963  0.1819
 5890SOL    HW129129   1.304   0.301   8.261  0.6137  0.0743 -1.0924
 5890SOL    HW229130   1.280   0.440   8.230  1.4334 -1.3540 -2.0230
 5891SOL     OW29131   1.407   4.029   7.263  0.0622  0.2912  0.5567
 5891SOL    HW129132   1.431   4.084   7.337  0.3918  1.4729 -0.4192
 5891SOL    HW229133   1.432   3.944   7.299  0.5439  0.0755 -0.2762
 5892SOL     OW29134   1.441   0.742  11.952  0.2363  0.1228 -0.0468
 5892SOL    HW129135   1.410   0.821  11.996 -1.2383  0.4152 -1.6050
 5892SOL    HW229136   1.505   0.783  11.894  1.2625 -0.5012  0.6499
 5893SOL     OW29137   2.924   3.006  16.937  0.4046 -0.2738  0.4204
 5893SOL    HW129138   2.925   3.017  16.842 -0.4914  1.1071  0.5642
 5893SOL    HW229139   2.997   3.058  16.971 -0.2869 -0.2162  1.8330
 5894SOL     OW29140   3.683   2.362   8.524 -0.6336 -0.0071 -0.0939
 5894SOL    HW129141   3.739   2.403   8.458  1.7900 -0.6432  1.5598
 5894SOL    HW229142   3.712   2.270   8.520  1.7370  0.6974  1.0350
 5895SOL     OW29143   2.861   2.744   6.793  0.8442  0.2333 -0.3741
 5895SOL    HW129144   2.841   2.693   6.715  1.9851 -0.1145 -0.4469
 5895SOL    HW229145   2.803   2.817   6.771  0.0768  0.0924  1.1583
 5896SOL     OW29146   1.315   0.504   7.408  0.2837  0.1626 -0.3337
 5896SOL    HW129147   1.229   0.470   7.385  0.8698 -1.0133 -0.7838
 5896SOL    HW229148   1.372   0.433   7.378  1.3894  0.6156  0.7022
 5897SOL     OW29149   3.939   1.244  11.830 -0.8092  0.2980  0.2741
 5897SOL    HW129150   3.945   1.193  11.911  0.3653  0.0593  0.0470
 5897SOL    HW229151   3.948   1.335  11.856  0.8159  0.2915 -0.2767
 5898SOL     OW29152   3.527   4.189   4.864 -0.1589 -0.3296  0.1972
 5898SOL    HW129153   3.570   4.250   4.804 -2.4117  1.9893  0.9318
 5898SOL    HW229154   3.462   4.141   4.812 -0.1295  0.2195 -0.3539
 5899SOL     OW29155   3.153   4.454   7.402 -0.6086 -0.1721  0.2090
 5899SOL    HW129156   3.207   4.528   7.374 -0.2332 -0.8327 -0.7735
 5899SOL    HW229157   3.211   4.381   7.381  0.4609  0.3460  1.3441
 5900SOL     OW29158   2.608   2.294  15.193  0.5216  0.9730  0.0091
 5900SOL    HW129159   2.620   2.272  15.286  1.7343  0.2021 -0.3178
 5900SOL    HW229160   2.547   2.224  15.172  0.9324  0.2106  1.3141
 5901SOL     OW29161   0.742   3.154  10.256 -0.0539 -0.4565 -1.1356
 5901SOL    HW129162   0.816   3.128  10.200  1.8581  0.3247  1.0446
 5901SOL    HW229163   0.684   3.079  10.241  1.1028 -1.0682 -2.6477
 5902SOL     OW29164   1.512   1.538  10.918  0.8260  0.2091 -0.5556
 5902SOL    HW129165   1.580   1.605  10.926  0.9100 -0.0370  0.7176
 5902SOL    HW229166   1.464   1.542  11.001 -2.2848  2.7160 -2.4820
 5903SOL     OW29167   0.969   0.578  10.554 -0.0634  0.0983 -0.7587
 5903SOL    HW129168   0.990   0.488  10.580  0.0782  0.6183  0.9344
 5903SOL    HW229169   1.056   0.602  10.524  0.6762 -2.0349 -0.3248
 5904SOL     OW29170   0.100   2.717  12.705 -0.1368  0.6938 -0.3467
 5904SOL    HW129171   0.081   2.722  12.611 -0.0935 -0.7374 -0.4348
 5904SOL    HW229172   0.139   2.802  12.723  1.3545  0.3327 -1.8121
 5905SOL     OW29173   4.591   0.061   0.696 -1.0939  0.3020  0.4949
 5905SOL    HW129174   4.537   0.084   0.772  2.3429 -0.4452  3.1627
 5905SOL    HW229175   4.527   0.064   0.625 -2.9856  0.6110  2.2170
 5906SOL     OW29176   2.590   3.662  10.118 -0.5391  0.4291 -0.3880
 5906SOL    HW129177   2.537   3.738  10.092 -3.1826 -1.3017 -0.0307
 5906SOL    HW229178   2.646   3.655  10.041 -0.4972 -0.2124 -0.2967
 5907SOL     OW29179   0.094   3.923   4.987  0.0134  0.3568  0.2711
 5907SOL    HW129180   0.152   3.994   4.961 -0.5260  0.4269 -0.7330
 5907SOL    HW229181   0.008   3.966   4.989 -0.5131 -0.6603 -0.8853
 5908SOL     OW29182   3.596   1.792   1.780  0.0645  0.1185  0.4247
 5908SOL    HW129183   3.596   1.888   1.777  2.9781  0.1573  1.5764
 5908SOL    HW229184   3.584   1.777   1.874 -1.4108 -1.5849 -0.0208
 5909SOL     OW29185   0.745   4.083  11.373 -0.1147  0.4327 -0.1132
 5909SOL    HW129186   0.714   4.144  11.441  0.7103  0.0622  0.6027
 5909SOL    HW229187   0.700   4.003  11.400  0.2454  0.3529  0.2555
 5910SOL     OW29188   2.110   1.967   8.839 -0.0066 -0.1821 -0.4055
 5910SOL    HW129189   2.130   1.876   8.820  0.6751 -0.5336  1.9438
 5910SOL    HW229190   2.194   1.997   8.804  0.6845 -0.2065  1.2303
 5911SOL     OW29191   1.838   1.956   6.899 -0.3986  0.4277  0.5483
 5911SOL    HW129192   1.873   1.959   6.810  1.7024  0.6260  1.3610
 5911SOL    HW229193   1.871   2.038   6.935 -0.4809  1.6453 -2.1720
 5912SOL     OW29194   0.170   0.267   7.190  0.7381  0.3181  0.3971
 5912SOL    HW129195   0.185   0.344   7.245 -1.4313  0.3065  1.0113
 5912SOL    HW229196   0.159   0.200   7.258  2.0205 -0.3882 -0.0930
 5913SOL     OW29197   3.380   2.538   9.316 -0.1398  0.3801 -0.6904
 5913SOL    HW129198   3.436   2.579   9.250  0.9470  0.2648  0.1590
 5913SOL    HW229199   3.399   2.603   9.385  0.9159 -2.1759  1.4413
 5914SOL     OW29200   1.545   2.960  14.270  0.5225 -0.8904  0.1244
 5914SOL    HW129201   1.598   2.928  14.198 -0.9163  1.2349 -1.8769
 5914SOL    HW229202   1.603   3.030  14.298  0.7865 -0.6997 -0.9242
 5915SOL     OW29203   1.482   3.476  13.189  0.3822 -0.0041 -0.0099
 5915SOL    HW129204   1.558   3.522  13.224  0.3102  0.4191 -0.4081
 5915SOL    HW229205   1.420   3.522  13.245  0.6598 -0.5557  0.7537
 5916SOL     OW29206   3.237   2.282   9.673  0.0133 -0.5167  0.1166
 5916SOL    HW129207   3.150   2.265   9.707  0.0743  1.9790  1.5678
 5916SOL    HW229208   3.232   2.371   9.636  2.5230  0.3549  1.8468
 5917SOL     OW29209   4.292   1.892   8.128 -0.0869 -0.5895 -0.2557
 5917SOL    HW129210   4.260   1.805   8.102 -2.2719  0.1792 -0.1174
 5917SOL    HW229211   4.216   1.921   8.180 -0.3143  0.2115 -1.0437
 5918SOL     OW29212   2.396   1.055   0.349 -0.0203 -0.1030  0.0401
 5918SOL    HW129213   2.305   1.082   0.363  0.5768  1.7248  0.4018
 5918SOL    HW229214   2.386   0.963   0.324  0.1017 -0.1649  0.2208
 5919SOL     OW29215   2.633   0.599   9.297  0.0623  0.3373 -0.1202
 5919SOL    HW129216   2.603   0.510   9.313  1.7112 -0.1066  0.5481
 5919SOL    HW229217   2.689   0.602   9.375  0.2817  0.3925 -0.2798
 5920SOL     OW29218   1.274   0.041   4.622  0.0966  0.2288  0.4173
 5920SOL    HW129219   1.182   0.041   4.646  0.0485  2.6077  0.2296
 5920SOL    HW229220   1.283   0.100   4.547  1.3881  1.5656  1.6164
 5921SOL     OW29221   2.933   1.622   0.633  0.4400  0.2990 -0.1768
 5921SOL    HW129222   2.944   1.635   0.727  0.9223  1.2573 -0.3620
 5921SOL    HW229223   2.869   1.552   0.644 -0.5003  1.4248  1.5835
 5922SOL     OW29224   0.008   2.836  14.245  0.4060  0.0213 -0.3578
 5922SOL    HW129225   0.030   2.851  14.153  0.0301  2.1921 -0.0901
 5922SOL    HW229226   4.699   2.748  14.226 -1.6562  0.7085  0.1581
 5923SOL     OW29227   0.059   3.593   8.147 -0.5012 -0.2259  0.3799
 5923SOL    HW129228   0.091   3.538   8.075 -1.4032  0.3091 -0.4160
 5923SOL    HW229229   4.692   3.595   8.124 -0.1786 -0.2382 -0.8882
 5924SOL     OW29230   0.071   2.957   5.361  0.2129 -0.1968 -0.0699
 5924SOL    HW129231   0.151   2.905   5.357  1.5012  1.6842  0.9777
 5924SOL    HW229232   0.085   3.039   5.314  0.2130 -0.1346  0.0363
 5925SOL     OW29233   0.404   1.935  11.080  0.1922 -0.8015  0.2166
 5925SOL    HW129234   0.393   1.862  11.141  0.1739 -0.0422  1.1220
 5925SOL    HW229235   0.315   1.932  11.043 -0.1208  1.3111  0.7698
 5926SOL     OW29236   1.284   4.099   2.018 -0.4447 -0.7904  0.0131
 5926SOL    HW129237   1.208   4.113   2.075 -0.1433  0.0042  0.2048
 5926SOL    HW229238   1.241   4.119   1.935 -1.5705 -2.6018  0.1457
 5927SOL     OW29239   0.165   3.970  13.243  0.2022 -0.2617  0.7684
 5927SOL    HW129240   0.118   3.925  13.173  0.9157 -1.3110  0.9708
 5927SOL    HW229241   0.208   4.040  13.194  1.5914  0.4555  2.9736
 5928SOL     OW29242   0.526   1.169  16.753 -0.3720  0.1710 -0.1893
 5928SOL    HW129243   0.455   1.127  16.802  0.9186  0.0995  1.6168
 5928SOL    HW229244   0.559   1.092  16.706  1.1461  0.0920  1.0019
 5929SOL     OW29245   0.561   2.141   7.959 -0.1669  0.0739  0.1037
 5929SOL    HW129246   0.585   2.108   8.045  1.8948  1.6056  0.1427
 5929SOL    HW229247   0.519   2.062   7.925  0.2002 -0.2823  0.4825
 5930SOL     OW29248   3.862   3.616  17.641  0.4505  0.3505  0.2147
 5930SOL    HW129249   3.937   3.675  17.630  2.4246 -2.5352 -1.6634
 5930SOL    HW229250   3.800   3.676  17.684  0.3351 -0.4133  1.0990
 5931SOL     OW29251   4.206   3.400   1.661  0.3030 -0.3483  0.2740
 5931SOL    HW129252   4.121   3.356   1.666 -0.1863  0.4561 -0.8990
 5931SOL    HW229253   4.256   3.330   1.618  0.2756 -0.5528  0.5723
 5932SOL     OW29254   1.573   2.318  12.591 -0.0944 -0.3214 -0.4631
 5932SOL    HW129255   1.620   2.366  12.523 -1.0324 -1.2308 -1.7414
 5932SOL    HW229256   1.491   2.294  12.547 -0.4008 -0.7240  0.3175
 5933SOL     OW29257   1.053   0.909   0.527 -0.5958 -0.3085 -0.5784
 5933SOL    HW129258   1.096   0.902   0.441 -0.2788 -2.3591 -0.2464
 5933SOL    HW229259   1.133   0.896   0.576 -2.5174 -1.2070  2.3111
 5934SOL     OW29260   3.229   2.166  17.069 -0.1274  0.2953 -0.0333
 5934SOL    HW129261   3.320   2.137  17.062 -0.4694 -0.6796 -0.3431
 5934SOL    HW229262   3.198   2.148  16.981 -1.8588  2.3057  0.1596
 5935SOL     OW29263   3.112   3.888  13.754  0.4026  0.9205 -0.3394
 5935SOL    HW129264   3.051   3.890  13.681 -1.2356 -0.0026  1.0049
 5935SOL    HW229265   3.139   3.796  13.749 -0.6315  0.6521 -0.8801
 5936SOL     OW29266   3.793   3.069   9.291  0.1451  0.0078 -0.5829
 5936SOL    HW129267   3.795   3.031   9.378 -1.7141 -1.0490 -0.9948
 5936SOL    HW229268   3.817   3.159   9.312 -0.6395  0.1186 -0.1549
 5937SOL     OW29269   3.391   0.008   9.290 -0.1377 -0.1628 -0.3818
 5937SOL    HW129270   3.450   0.081   9.272  0.5422 -0.1340  1.9321
 5937SOL    HW229271   3.310   0.043   9.252  1.4090  2.5468 -1.1738
 5938SOL     OW29272   0.115   4.393   2.946 -0.0486  0.6131 -0.9093
 5938SOL    HW129273   0.117   4.299   2.926 -0.3716  0.5707 -0.7486
 5938SOL    HW229274   0.147   4.400   3.036 -0.3013  0.1601 -0.7840
 5939SOL     OW29275   2.828   3.348  16.938 -0.2947 -0.4773  0.4314
 5939SOL    HW129276   2.811   3.257  16.915 -1.7278  0.4262 -2.0501
 5939SOL    HW229277   2.899   3.371  16.877 -1.7600  2.7064 -0.0771
 5940SOL     OW29278   4.346   2.881  11.015  0.2152  0.0260  0.1748
 5940SOL    HW129279   4.330   2.792  10.986  0.9187  0.5481 -1.7907
 5940SOL    HW229280   4.435   2.891  10.980 -0.0711  1.4530 -0.1651
 5941SOL     OW29281   3.515   4.450   8.291  0.8060 -0.0330 -0.0684
 5941SOL    HW129282   3.434   4.413   8.327  0.3627  1.3832  0.3760
 5941SOL    HW229283   3.561   4.459   8.375 -1.0616  2.1446  0.7102
 5942SOL     OW29284   1.366   1.920  13.390 -0.2419 -0.2599  0.1360
 5942SOL    HW129285   1.403   2.003  13.361  0.2277 -0.6417 -0.3561
 5942SOL    HW229286   1.276   1.938  13.359 -0.4751  1.1926  1.7015
 5943SOL     OW29287   4.497   2.830   8.455  0.1007  0.2965  0.0929
 5943SOL    HW129288   4.447   2.896   8.407  1.8819  1.6315  0.0846
 5943SOL    HW229289   4.439   2.756   8.437  0.3466  0.2176 -0.3613
 5944SOL     OW29290   1.764   0.601  13.360  0.1191  0.7005 -0.2853
 5944SOL    HW129291   1.675   0.631  13.378  0.1019  0.3386  0.2419
 5944SOL    HW229292   1.739   0.528  13.304 -2.1174 -0.0981  1.7443
 5945SOL     OW29293   1.506   0.123   8.465  0.2781  0.0710 -0.1434
 5945SOL    HW129294   1.419   0.106   8.500  1.5257 -0.9223  2.4531
 5945SOL    HW229295   1.526   0.189   8.532 -1.7125  0.8424 -0.3024
 5946SOL     OW29296   0.537   1.898  12.139  0.4472 -0.1366  0.0115
 5946SOL    HW129297   0.601   1.925  12.205  0.9926  1.0724 -1.0209
 5946SOL    HW229298   0.584   1.840  12.079 -0.4118  0.9611 -1.7035
 5947SOL     OW29299   3.236   4.258   2.295  0.1945  0.0516  0.2212
 5947SOL    HW129300   3.260   4.350   2.287  2.6383 -0.7156 -1.0479
 5947SOL    HW229301   3.302   4.219   2.239 -2.2008 -2.3643 -0.8998
 5948SOL     OW29302   2.393   0.812   3.290 -0.7354 -0.1969  0.1247
 5948SOL    HW129303   2.349   0.833   3.372 -3.3297 -2.7229 -0.6434
 5948SOL    HW229304   2.478   0.777   3.317 -1.1389 -1.4620 -0.2762
 5949SOL     OW29305   0.821   1.788   8.307  0.3812  0.3113  0.3066
 5949SOL    HW129306   0.850   1.799   8.217  0.8355 -0.1781  0.3938
 5949SOL    HW229307   0.726   1.796   8.300  0.4594  1.2815  0.3130
 5950SOL     OW29308   2.040   1.552   7.406  0.4781 -0.1104  0.1772
 5950SOL    HW129309   2.003   1.489   7.344 -0.6603  0.4193  0.3221
 5950SOL    HW229310   2.051   1.636   7.360 -0.1429  0.1047  0.4215
 5951SOL     OW29311   4.436   2.247  15.137 -0.1342  0.6531 -0.0315
 5951SOL    HW129312   4.440   2.155  15.161  0.8961  0.3354 -1.4656
 5951SOL    HW229313   4.361   2.273  15.190 -1.6527 -0.2146 -1.7709
 5952SOL     OW29314   3.345   3.201   2.914 -0.3226  0.9082 -0.1395
 5952SOL    HW129315   3.377   3.138   2.849 -0.8556 -0.4628  0.9328
 5952SOL    HW229316   3.433   3.219   2.948 -0.4444  1.3921 -0.0947
 5953SOL     OW29317   3.521   1.007   6.446 -0.0530  0.0830  0.2618
 5953SOL    HW129318   3.491   1.000   6.355  0.0253  1.3975  0.1256
 5953SOL    HW229319   3.613   0.988   6.428  0.2175  1.7820 -0.1746
 5954SOL     OW29320   1.493   1.870   3.430 -0.0059 -0.1879 -0.5642
 5954SOL    HW129321   1.474   1.862   3.337 -0.9709  0.4947 -0.4264
 5954SOL    HW229322   1.409   1.837   3.464 -0.5315  0.0907 -1.5991
 5955SOL     OW29323   4.468   4.357   4.947 -0.1271  0.2010  0.1294
 5955SOL    HW129324   4.538   4.355   4.882  0.4165  1.4507  0.6869
 5955SOL    HW229325   4.415   4.430   4.914  1.4478  1.0841 -0.4421
 5956SOL     OW29326   4.549   2.722   6.864  0.2412  0.5775 -0.1205
 5956SOL    HW129327   4.506   2.782   6.803  0.1549  0.7453  0.1069
 5956SOL    HW229328   4.582   2.659   6.800 -0.4580 -0.3062  0.3874
 5957SOL     OW29329   3.235   1.455   0.310 -0.0269  0.1639  0.4756
 5957SOL    HW129330   3.262   1.521   0.246  1.4736 -0.5049  0.4229
 5957SOL    HW229331   3.228   1.379   0.253 -1.4922 -0.1659  1.0824
 5958SOL     OW29332   0.699   0.204   9.026 -0.4394 -0.4156  0.1556
 5958SOL    HW129333   0.763   0.275   9.029  0.9958 -1.6869  0.0773
 5958SOL    HW229334   0.755   0.127   9.040  0.3721  0.3171  0.8941
 5959SOL     OW29335   0.545   2.375   8.956 -0.5130  0.3876  0.2021
 5959SOL    HW129336   0.561   2.281   8.951 -2.0427  0.2824 -2.2936
 5959SOL    HW229337   0.450   2.378   8.967 -0.3680  3.3927  0.7293
 5960SOL     OW29338   1.939   3.074   6.358 -0.2846  0.8945 -0.1386
 5960SOL    HW129339   1.978   3.013   6.421  1.1631  0.8035 -1.1269
 5960SOL    HW229340   1.957   3.018   6.282  0.7266  1.4148 -0.2858
 5961SOL     OW29341   0.430   0.092   5.996  0.2408  0.1830  0.4679
 5961SOL    HW129342   0.492   0.060   5.930  2.1602 -0.9319  2.7780
 5961SOL    HW229343   0.393   0.015   6.039  1.4842 -0.3061  0.6743
 5962SOL     OW29344   1.324   1.620   6.140 -0.0215 -0.0823  0.0959
 5962SOL    HW129345   1.380   1.697   6.149 -1.3682  0.6731  2.0819
 5962SOL    HW229346   1.367   1.559   6.200 -0.6914 -0.8147 -0.1794
 5963SOL     OW29347   3.840   2.170   8.101 -0.6368  0.0481 -0.2734
 5963SOL    HW129348   3.824   2.169   8.195 -1.8062 -0.8565 -0.4871
 5963SOL    HW229349   3.927   2.210   8.097 -0.5302  0.2381  3.7292
 5964SOL     OW29350   1.781   2.288   5.515 -0.3629  0.0621 -0.4616
 5964SOL    HW129351   1.764   2.379   5.541  1.3023  0.3528 -0.3681
 5964SOL    HW229352   1.697   2.247   5.496 -1.9382  3.0644 -0.0858
 5965SOL     OW29353   4.061   1.962   6.429 -0.1809 -0.1313  0.1336
 5965SOL    HW129354   4.033   1.903   6.498  0.0631  2.8515  2.7746
 5965SOL    HW229355   3.980   1.947   6.378 -0.6072 -1.4966  1.2212
 5966SOL     OW29356   3.795   2.132   5.696 -0.5799 -0.2127 -0.8742
 5966SOL    HW129357   3.724   2.114   5.634 -1.1283 -0.8084 -0.0833
 5966SOL    HW229358   3.853   2.056   5.688 -2.0227 -1.4250  0.0219
 5967SOL     OW29359   4.292   1.907  15.332 -0.6418  0.6862 -0.0625
 5967SOL    HW129360   4.203   1.933  15.308 -0.3699  1.4693 -0.2303
 5967SOL    HW229361   4.266   1.818  15.354  2.6321 -0.4465 -0.8023
 5968SOL     OW29362   0.209   0.664   7.224 -0.3168  0.5864 -0.0451
 5968SOL    HW129363   0.238   0.593   7.280 -1.3189 -1.8115 -2.5330
 5968SOL    HW229364   0.113   0.656   7.230 -0.0453 -1.9146  1.1397
 5969SOL     OW29365   2.362   4.704   1.789  0.1198  0.1252  0.4304
 5969SOL    HW129366   2.375   4.634   1.725  0.6547 -1.4586  2.2716
 5969SOL    HW229367   2.451   4.714   1.824 -0.2464 -1.7699  1.8858
 5970SOL     OW29368   0.605   0.900   5.634  0.3446 -0.9003  0.1711
 5970SOL    HW129369   0.551   0.959   5.687 -2.7889 -2.7123 -0.9954
 5970SOL    HW229370   0.579   0.917   5.543  1.8959  0.2626 -0.0655
 5971SOL     OW29371   2.120   0.229   7.918 -0.1983 -0.0267  0.0285
 5971SOL    HW129372   2.139   0.247   8.010 -0.5697 -1.7318  0.4483
 5971SOL    HW229373   2.186   0.164   7.895  0.1221  0.5523 -0.6893
 5972SOL     OW29374   2.825   3.231  12.221 -0.1910 -0.0775  0.1841
 5972SOL    HW129375   2.743   3.275  12.200  0.3639  1.5788  1.4437
 5972SOL    HW229376   2.891   3.293  12.189  2.0367 -3.1522 -1.2489
 5973SOL     OW29377   2.847   2.666  14.461  0.2556 -0.3904  0.1873
 5973SOL    HW129378   2.863   2.600  14.393 -1.6197 -1.1166  0.4283
 5973SOL    HW229379   2.781   2.721  14.418 -1.1155 -4.4902 -3.0073
 5974SOL     OW29380   4.221   1.072  16.428 -0.0317  0.0164 -0.2738
 5974SOL    HW129381   4.225   1.105  16.517 -2.6192  0.2889 -0.2806
 5974SOL    HW229382   4.262   1.143  16.378  2.7737  0.1908  2.3074
 5975SOL     OW29383   2.243   2.228   0.987 -0.2977  0.1145  0.1428
 5975SOL    HW129384   2.193   2.234   0.906 -1.6057  2.2130  1.1297
 5975SOL    HW229385   2.176   2.176   1.032 -0.7580 -1.7973 -2.7695
 5976SOL     OW29386   4.095   3.369  10.372  0.6879  0.1760  0.0461
 5976SOL    HW129387   4.118   3.289  10.326  3.6029 -0.0905  1.9500
 5976SOL    HW229388   4.143   3.440  10.329  0.1393  0.5322  0.0203
 5977SOL     OW29389   4.049   2.488   9.544  0.4665  1.2523 -0.6402
 5977SOL    HW129390   4.118   2.424   9.563  0.0400 -0.6692 -5.4888
 5977SOL    HW229391   3.997   2.490   9.624  0.5300  1.1948 -0.5979
 5978SOL     OW29392   1.116   1.370   2.585  0.5307  0.0997 -0.3866
 5978SOL    HW129393   1.103   1.425   2.663 -1.2184 -1.0165  0.1173
 5978SOL    HW229394   1.113   1.436   2.517 -0.3425 -0.1503 -0.5956
 5979SOL     OW29395   2.444   2.484  15.918 -0.0545  0.7359  0.1921
 5979SOL    HW129396   2.489   2.506  16.000 -1.3558  0.7873  0.8897
 5979SOL    HW229397   2.358   2.482  15.959 -2.1163 -1.4677 -4.2178
 5980SOL     OW29398   1.435   2.081   5.928 -0.4338  0.0880  0.5426
 5980SOL    HW129399   1.444   2.015   5.997  1.1341 -0.1939  0.0602
 5980SOL    HW229400   1.453   2.033   5.848 -2.0810  0.5689 -0.1296
 5981SOL     OW29401   2.882   2.527   7.039 -0.5987  0.2529 -0.0584
 5981SOL    HW129402   2.925   2.559   7.119  2.2108 -1.1239 -1.0546
 5981SOL    HW229403   2.879   2.605   6.983 -0.0134  0.3140 -0.0047
 5982SOL     OW29404   0.162   3.972   3.706  0.5923  0.3161  0.2642
 5982SOL    HW129405   0.073   3.998   3.682  0.0226 -1.4264  0.4821
 5982SOL    HW229406   0.207   4.056   3.705  3.0156 -0.9712 -0.1117
 5983SOL     OW29407   2.008   4.627   3.530 -0.3687 -0.2892  0.3961
 5983SOL    HW129408   2.030   4.616   3.438 -1.6368  0.9007 -0.0492
 5983SOL    HW229409   2.096   4.613   3.567  0.7581  2.9672 -1.0839
 5984SOL     OW29410   0.044   1.605   0.115  0.3035  0.2090  0.1570
 5984SOL    HW129411   4.688   1.651   0.136 -0.3691 -0.7750 -0.2546
 5984SOL    HW229412   0.033   1.529   0.172  0.5149 -0.3582 -0.5660
 5985SOL     OW29413   3.001   0.327   5.624 -0.2225  0.4262  0.1895
 5985SOL    HW129414   2.996   0.243   5.577  2.5072  1.6484 -2.2812
 5985SOL    HW229415   3.014   0.292   5.712  0.3680  1.5690  0.5548
 5986SOL     OW29416   2.909   2.107   9.080  0.8565 -0.0639  0.2301
 5986SOL    HW129417   2.847   2.102   9.007 -0.5217 -1.3943  1.4710
 5986SOL    HW229418   2.903   2.202   9.090 -2.2657 -0.6402  3.9055
 5987SOL     OW29419   1.772   4.267   0.611 -0.4589  0.9331 -0.6132
 5987SOL    HW129420   1.788   4.285   0.518  2.6876  0.8635 -0.0987
 5987SOL    HW229421   1.753   4.358   0.633 -3.3457  0.2231 -0.0789
 5988SOL     OW29422   2.429   3.120   5.802 -0.3134 -0.2353  0.4222
 5988SOL    HW129423   2.504   3.069   5.832 -0.5292 -0.5409  0.4473
 5988SOL    HW229424   2.385   3.058   5.743 -0.3576 -1.3176  1.5945
 5989SOL     OW29425   0.523   3.900   1.008  0.1903 -0.2331 -0.2182
 5989SOL    HW129426   0.547   3.835   1.075  0.9128 -0.8047 -1.0160
 5989SOL    HW229427   0.519   3.974   1.068  0.2854  1.2070 -1.9738
 5990SOL     OW29428   0.152   0.500  16.401  0.1157 -0.5553  0.2455
 5990SOL    HW129429   0.207   0.426  16.375  0.1810 -0.1339 -0.8244
 5990SOL    HW229430   0.146   0.481  16.495  1.7423 -0.4316  0.3722
 5991SOL     OW29431   2.294   2.436   2.268 -0.5968  0.1844  0.1518
 5991SOL    HW129432   2.382   2.409   2.241 -1.0695  1.1165 -2.3680
 5991SOL    HW229433   2.310   2.530   2.260  1.9136 -0.2827 -0.2561
 5992SOL     OW29434   4.661   2.639  16.415  0.5383 -0.4009  0.1420
 5992SOL    HW129435   4.664   2.731  16.442 -0.8929  0.6870 -3.4998
 5992SOL    HW229436   4.576   2.633  16.372  0.4224 -2.4076  0.6486
 5993SOL     OW29437   0.339   1.785   4.368  0.0282 -0.1113  0.0454
 5993SOL    HW129438   0.296   1.868   4.390 -0.9022 -0.9867  1.5124
 5993SOL    HW229439   0.414   1.815   4.317 -1.8048  1.4985 -1.7279
 5994SOL     OW29440   1.454   3.959   4.785  0.4994  0.0846  0.9113
 5994SOL    HW129441   1.421   4.043   4.755  2.5369  1.7438  3.2341
 5994SOL    HW229442   1.476   3.912   4.705  1.1125 -0.4319  1.3836
 5995SOL     OW29443   3.146   0.215   4.320  0.5514  0.2346 -0.2515
 5995SOL    HW129444   3.103   0.215   4.405 -0.8428  0.3031 -0.9538
 5995SOL    HW229445   3.225   0.171   4.350  1.3558  0.6778 -1.7029
 5996SOL     OW29446   3.725   0.185   8.878  0.4588  0.1650 -0.2952
 5996SOL    HW129447   3.808   0.226   8.904  0.6526 -1.5983  1.8555
 5996SOL    HW229448   3.676   0.246   8.823 -1.4284  0.2807  1.5623
 5997SOL     OW29449   0.463   2.093   1.090 -0.2840 -0.1163 -0.2688
 5997SOL    HW129450   0.541   2.147   1.104 -1.1092  0.8724  0.5054
 5997SOL    HW229451   0.494   2.015   1.136 -0.4489 -0.3739 -0.5898
 5998SOL     OW29452   2.225   0.976   4.438  0.3071 -0.2118 -0.0117
 5998SOL    HW129453   2.284   0.978   4.363  0.3976  0.0910  0.0679
 5998SOL    HW229454   2.278   0.949   4.513 -1.4741 -0.7852  1.0245
 5999SOL     OW29455   2.623   1.606   8.574 -0.8252  0.2113 -0.0064
 5999SOL    HW129456   2.676   1.532   8.545 -1.3145 -0.3510  0.5502
 5999SOL    HW229457   2.625   1.658   8.494 -0.1253  1.7912  1.0468
 6000SOL     OW29458   4.364   3.384   2.365 -0.0964  0.7914 -0.2228
 6000SOL    HW129459   4.335   3.369   2.455  2.2317  3.4442  0.9587
 6000SOL    HW229460   4.305   3.454   2.336 -0.1219  1.1727  0.7636
 6001SOL     OW29461   3.092   1.222   2.805 -0.2440  0.3960  0.4123
 6001SOL    HW129462   3.086   1.269   2.721 -0.0957  0.2252  0.3042
 6001SOL    HW229463   3.137   1.143   2.774  0.6849  0.9259  0.4176
 6002SOL     OW29464   2.604   4.222  16.864 -0.0454  0.5289  0.2085
 6002SOL    HW129465   2.523   4.173  16.851  0.2775  0.3833 -1.3219
 6002SOL    HW229466   2.573   4.312  16.870  0.9137  0.8660  0.0178
 6003SOL     OW29467   0.046   1.132   3.098  0.1593  0.4999  0.1094
 6003SOL    HW129468   0.021   1.213   3.053  2.6141  1.3978  0.3393
 6003SOL    HW229469   0.133   1.160   3.127  1.3632 -2.5239 -0.6466
 6004SOL     OW29470   2.279   0.232   1.884 -0.0164  0.3946 -0.3209
 6004SOL    HW129471   2.292   0.165   1.817  1.9655  1.0680 -0.6060
 6004SOL    HW229472   2.244   0.303   1.832 -1.6107  0.1000  0.3399
 6005SOL     OW29473   4.337   1.227   1.549 -0.2862 -1.1226 -0.1532
 6005SOL    HW129474   4.391   1.154   1.519  0.5101  0.0636 -1.6087
 6005SOL    HW229475   4.399   1.292   1.581  0.3484 -0.8355 -1.9983
 6006SOL     OW29476   4.701   3.558  11.243  0.2570 -0.3673  0.2704
 6006SOL    HW129477   4.611   3.526  11.240  0.0117  0.1786  1.9702
 6006SOL    HW229478   4.687   3.638  11.294 -2.7869 -1.4050  1.0502
 6007SOL     OW29479   3.824   3.593  11.782  0.4785 -0.6043  0.0013
 6007SOL    HW129480   3.804   3.594  11.876  0.1630  0.9848 -0.0756
 6007SOL    HW229481   3.761   3.652  11.741  0.2681 -1.1345 -0.4392
 6008SOL     OW29482   1.609   0.074   6.146  0.2985 -0.6247  0.1346
 6008SOL    HW129483   1.543   0.026   6.195  1.0522 -2.2068 -0.3738
 6008SOL    HW229484   1.687   0.025   6.172  1.5020 -0.1377 -2.5149
 6009SOL     OW29485   1.113   2.739   6.863  0.1074 -0.1944  0.1304
 6009SOL    HW129486   1.051   2.782   6.921  1.8049  0.9420  1.1186
 6009SOL    HW229487   1.140   2.669   6.922 -1.3380 -0.0359  0.9745
 6010SOL     OW29488   3.199   0.389  11.069 -0.2835  0.2704  0.6737
 6010SOL    HW129489   3.143   0.331  11.018 -0.3114  1.6864 -0.8842
 6010SOL    HW229490   3.168   0.475  11.042  0.0658  0.0535 -0.3913
 6011SOL     OW29491   3.854   0.715   4.425  0.3995  0.1836 -0.2910
 6011SOL    HW129492   3.907   0.751   4.354  1.0243 -1.4345 -0.6479
 6011SOL    HW229493   3.904   0.636   4.442 -0.3828 -0.3556 -0.5189
 6012SOL     OW29494   4.379   2.974   2.080 -0.2204  0.6170  0.0611
 6012SOL    HW129495   4.458   2.921   2.088 -0.3801  0.0762 -1.8649
 6012SOL    HW229496   4.321   2.898   2.069  1.4120 -0.7089  0.6728
 6013SOL     OW29497   0.489   2.264   1.414 -0.2768 -0.0066 -0.3435
 6013SOL    HW129498   0.441   2.181   1.417 -1.4183  0.5865 -2.4165
 6013SOL    HW229499   0.428   2.312   1.358  0.8885  1.9101  0.0460
 6014SOL     OW29500   0.192   1.429   8.344  0.0313  0.3658  0.4363
 6014SOL    HW129501   0.235   1.514   8.335 -2.4866  1.6062  0.0982
 6014SOL    HW229502   0.147   1.423   8.260 -1.0570 -0.1416  1.0652
 6015SOL     OW29503   1.881   2.115  17.280  0.3246  0.0635  0.5396
 6015SOL    HW129504   1.799   2.148  17.315 -0.1202 -2.0162  1.4435
 6015SOL    HW229505   1.889   2.041  17.340 -2.5585  0.6904  1.6756
 6016SOL     OW29506   3.001   1.292   3.850 -0.1586  0.1968  0.2600
 6016SOL    HW129507   3.091   1.313   3.824 -0.7402  2.1346 -0.2048
 6016SOL    HW229508   2.996   1.213   3.797  0.3642 -0.5113  1.2642
 6017SOL     OW29509   0.677   4.245   7.224  0.4154  0.4083  0.2448
 6017SOL    HW129510   0.616   4.173   7.239 -1.8031  1.2968 -4.2727
 6017SOL    HW229511   0.738   4.230   7.296  0.7788 -0.2341 -0.1998
 6018SOL     OW29512   0.912   2.435   7.128 -0.0604 -0.3351 -0.5727
 6018SOL    HW129513   0.913   2.390   7.213  1.3985 -0.9793 -0.9355
 6018SOL    HW229514   0.856   2.381   7.072 -1.9133  0.2142  0.7481
 6019SOL     OW29515   1.359   1.043  10.212  0.5255 -0.2178 -0.2415
 6019SOL    HW129516   1.360   1.127  10.166  1.4136  0.7477  1.5302
 6019SOL    HW229517   1.281   1.057  10.266  0.2517  1.9141 -1.1959
 6020SOL     OW29518   0.039   2.745  16.014 -0.2173 -0.6428  0.2524
 6020SOL    HW129519   4.669   2.742  16.024 -0.3877 -1.1351 -1.4033
 6020SOL    HW229520   0.070   2.671  16.065 -0.2665 -0.5950  0.3517
 6021SOL     OW29521   1.713   1.148   0.133  0.2179 -0.2154  0.5081
 6021SOL    HW129522   1.716   1.218   0.068 -0.7121 -2.0335 -1.5267
 6021SOL    HW229523   1.754   1.078   0.081  1.0039  1.1399 -0.6730
 6022SOL     OW29524   2.274   0.163   3.406  0.2249 -0.5027 -0.0722
 6022SOL    HW129525   2.190   0.199   3.377  0.1352  0.1570  1.0342
 6022SOL    HW229526   2.336   0.229   3.373  0.5701 -2.0905 -2.6064
 6023SOL     OW29527   3.785   2.940   7.204 -0.2451 -0.2139 -0.2390
 6023SOL    HW129528   3.838   2.865   7.231 -0.2244 -0.1312 -0.0501
 6023SOL    HW229529   3.722   2.888   7.154 -0.1973 -1.1953  0.7057
 6024SOL     OW29530   4.690   1.678   6.622 -0.0073 -0.0148  0.7116
 6024SOL    HW129531   4.718   1.750   6.565  0.4663  1.1664  2.4401
 6024SOL    HW229532   0.021   1.705   6.695  2.0088 -1.4787 -0.2711
 6025SOL     OW29533   4.401   0.174   5.341  0.0655  0.0986 -0.7795
 6025SOL    HW129534   4.388   0.159   5.248  0.1397  0.9379 -0.9255
 6025SOL    HW229535   4.448   0.257   5.347  0.1510  0.0466 -0.7289
 6026SOL     OW29536   4.420   0.906   3.986  0.2463 -0.2779  0.2413
 6026SOL    HW129537   4.492   0.862   3.941  0.5722 -1.3256  1.7769
 6026SOL    HW229538   4.438   0.990   3.944 -0.2325  0.0031  0.5878
 6027SOL     OW29539   3.758   2.282   9.658 -0.0405 -0.5127 -0.2823
 6027SOL    HW129540   3.830   2.219   9.656 -0.6199 -1.1937  0.5715
 6027SOL    HW229541   3.768   2.292   9.753  1.6720  2.0077 -0.7328
 6028SOL     OW29542   1.843   1.545   2.185 -0.0905 -0.1168  0.3020
 6028SOL    HW129543   1.788   1.586   2.251  0.1456  0.2864  0.2430
 6028SOL    HW229544   1.899   1.492   2.241 -2.2271 -1.0356  1.5989
 6029SOL     OW29545   4.707   0.728   8.119 -0.1033  0.0664  0.2958
 6029SOL    HW129546   4.612   0.725   8.108 -0.0874 -3.9872  1.3331
 6029SOL    HW229547   0.007   0.807   8.071 -0.7141 -1.1604 -2.0255
 6030SOL     OW29548   3.724   2.236  16.008 -0.3520  0.3001  0.2640
 6030SOL    HW129549   3.698   2.178  16.079 -1.3507 -0.4049 -0.6867
 6030SOL    HW229550   3.795   2.286  16.049  0.4002 -0.7779  0.2876
 6031SOL     OW29551   4.039   4.230   9.397  0.0679  0.2332 -0.3991
 6031SOL    HW129552   4.128   4.198   9.388 -0.5880 -1.4932 -0.7297
 6031SOL    HW229553   4.005   4.142   9.412 -1.8944  1.0136 -0.2339
 6032SOL     OW29554   3.419   1.986   4.230 -0.5822  0.1712 -0.0400
 6032SOL    HW129555   3.363   1.960   4.303 -0.9984 -0.5878 -0.6258
 6032SOL    HW229556   3.444   2.070   4.269 -0.9617 -0.5617  1.7582
 6033SOL     OW29557   2.723   1.172   6.961  0.6694  0.0556 -0.2587
 6033SOL    HW129558   2.801   1.163   6.907  1.2704 -0.0882  0.6503
 6033SOL    HW229559   2.747   1.226   7.035  1.3791 -0.5275 -0.0684
 6034SOL     OW29560   2.767   2.853   3.222  0.6628  0.1564  0.2829
 6034SOL    HW129561   2.824   2.778   3.237  1.0281 -0.1678 -2.5716
 6034SOL    HW229562   2.707   2.845   3.295  2.0597 -0.9738  1.3014
 6035SOL     OW29563   1.553   1.844  17.453  0.4955  0.2635 -0.2027
 6035SOL    HW129564   1.565   1.786  17.378  1.1395  1.9861 -1.4595
 6035SOL    HW229565   1.607   1.805  17.521 -1.4058  1.8650  2.2292
 6036SOL     OW29566   3.881   1.486   0.807 -0.1242  0.4046 -0.6975
 6036SOL    HW129567   3.878   1.424   0.880 -1.1988 -2.2001 -2.9386
 6036SOL    HW229568   3.797   1.458   0.771 -0.7019  2.0032 -0.5520
 6037SOL     OW29569   1.070   1.258   1.314 -0.3459  0.3562  0.2080
 6037SOL    HW129570   1.081   1.165   1.294 -0.0449  0.0145  1.9549
 6037SOL    HW229571   0.975   1.272   1.317 -0.0353  2.6312 -0.2938
 6038SOL     OW29572   3.232   1.633  15.451  0.4845  0.0675  0.3797
 6038SOL    HW129573   3.273   1.710  15.492  1.5330 -0.4637  0.3445
 6038SOL    HW229574   3.222   1.580  15.529  2.8820 -2.2854 -0.9119
 6039SOL     OW29575   3.924   1.346   4.653 -0.2847 -0.0365 -0.0610
 6039SOL    HW129576   3.956   1.257   4.661 -0.9552 -0.2940 -0.2047
 6039SOL    HW229577   3.962   1.408   4.715  0.2436  2.5088 -2.8899
 6040SOL     OW29578   2.717   2.145   7.682 -0.0421 -0.1877 -0.6423
 6040SOL    HW129579   2.753   2.228   7.712  0.7913  0.0831 -2.3627
 6040SOL    HW229580   2.662   2.173   7.608 -0.8513 -2.8219 -1.0455
 6041SOL     OW29581   1.887   3.415  17.593 -0.2422  0.2907  0.0368
 6041SOL    HW129582   1.816   3.351  17.591 -0.7059  0.8343 -0.7915
 6041SOL    HW229583   1.839   3.494  17.566 -0.1805  0.8565  1.5980
 6042SOL     OW29584   4.330   3.583   5.351 -0.3036 -1.1139 -0.0928
 6042SOL    HW129585   4.313   3.578   5.445  4.7525 -2.0130  0.7926
 6042SOL    HW229586   4.244   3.607   5.318  0.0964  2.4789  1.4741
 6043SOL     OW29587   3.493   2.300  15.469  0.3815 -0.5540 -0.2451
 6043SOL    HW129588   3.435   2.376  15.469  0.5058 -0.4503  2.7702
 6043SOL    HW229589   3.463   2.268  15.384 -0.0119 -0.9034  0.0224
 6044SOL     OW29590   0.834   3.119   0.807  0.7564  0.3977  0.5184
 6044SOL    HW129591   0.897   3.049   0.790 -1.4253 -1.5139  0.4685
 6044SOL    HW229592   0.880   3.200   0.783  0.2582  0.9301  1.3357
 6045SOL     OW29593   3.664   2.512   1.150 -0.4799 -0.5304 -0.7723
 6045SOL    HW129594   3.731   2.578   1.133  1.7645 -2.3377  1.0419
 6045SOL    HW229595   3.632   2.534   1.238 -1.0104  1.4346 -1.4542
 6046SOL     OW29596   1.101   3.794  13.212  0.0700 -0.0725  0.0752
 6046SOL    HW129597   1.077   3.728  13.148  0.3311  0.4471 -0.5592
 6046SOL    HW229598   1.026   3.852  13.198  0.4692  0.4661  0.1623
 6047SOL     OW29599   0.480   1.096   0.806 -0.0894  0.0150 -0.3852
 6047SOL    HW129600   0.548   1.136   0.860  0.7235 -0.3793 -1.1236
 6047SOL    HW229601   0.539   1.029   0.774 -1.4014 -0.7468 -1.1921
 6048SOL     OW29602   4.657   2.188  14.814  0.0768 -0.3336 -0.1844
 6048SOL    HW129603   4.563   2.196  14.830  0.0605 -3.2535  1.2701
 6048SOL    HW229604   4.655   2.185  14.719 -0.0820  0.4102 -0.2057
 6049SOL     OW29605   1.173   0.825  15.611  0.1034 -0.0995 -0.3716
 6049SOL    HW129606   1.149   0.913  15.642 -1.2136  0.1503 -2.0511
 6049SOL    HW229607   1.084   0.795  15.592 -0.3184 -0.1587  1.6756
 6050SOL     OW29608   3.822   3.370   6.362 -0.3649  0.1821 -0.0009
 6050SOL    HW129609   3.861   3.373   6.450  0.7242 -0.7829 -0.4541
 6050SOL    HW229610   3.900   3.359   6.308  0.0881 -2.0214  1.1238
 6051SOL     OW29611   4.546   0.962   9.180 -0.4685 -0.4283  0.5776
 6051SOL    HW129612   4.637   0.939   9.162 -0.3147  1.7174 -1.5169
 6051SOL    HW229613   4.494   0.882   9.187 -2.3614  0.5986 -1.3517
 6052SOL     OW29614   3.720   0.498  11.322  0.1761  0.2511  0.2121
 6052SOL    HW129615   3.745   0.463  11.408 -0.0192 -0.1184  0.1215
 6052SOL    HW229616   3.706   0.418  11.272 -0.5655  0.2364  0.4444
 6053SOL     OW29617   0.366   3.285   6.075  0.0221 -0.2179 -0.3389
 6053SOL    HW129618   0.356   3.327   6.160 -1.9772  0.3300 -0.8462
 6053SOL    HW229619   0.276   3.271   6.047 -0.0339  0.6031 -0.5593
 6054SOL     OW29620   4.410   1.076   4.200  0.4911 -0.0001 -0.0363
 6054SOL    HW129621   4.423   1.018   4.125  0.6997  0.0373 -0.0310
 6054SOL    HW229622   4.498   1.112   4.210  0.4451  0.2268 -0.4339
 6055SOL     OW29623   2.907   1.147   6.057  0.2619  0.6944  0.4386
 6055SOL    HW129624   2.988   1.143   6.108  1.5935 -0.2730 -1.7681
 6055SOL    HW229625   2.947   1.170   5.974  0.2788 -0.3336  0.1682
 6056SOL     OW29626   3.343   3.959   7.844  0.1077 -0.3915  0.3626
 6056SOL    HW129627   3.281   4.019   7.802  1.0271  0.8494  0.7587
 6056SOL    HW229628   3.320   3.968   7.937 -2.9671  2.7662 -0.7134
 6057SOL     OW29629   0.413   0.256   5.322 -0.2466 -0.7165 -0.1981
 6057SOL    HW129630   0.374   0.272   5.236  3.1657 -3.1198 -2.1919
 6057SOL    HW229631   0.352   0.302   5.379  2.1945 -0.0469  1.8429
 6058SOL     OW29632   0.979   2.412  13.834 -0.3965 -0.0657  0.4784
 6058SOL    HW129633   1.044   2.461  13.885 -0.1072  0.5344 -0.4678
 6058SOL    HW229634   1.025   2.396  13.752 -1.1936  2.8135 -0.5436
 6059SOL     OW29635   0.914   2.699   6.541 -0.1620  0.3862 -0.0091
 6059SOL    HW129636   0.840   2.656   6.497  1.2792  0.1289 -2.1812
 6059SOL    HW229637   0.868   2.745   6.611 -0.2447 -3.1032  2.2617
 6060SOL     OW29638   1.911   2.810  17.281 -0.0715  0.2763  0.2315
 6060SOL    HW129639   1.967   2.767  17.345  1.1505 -0.2223 -1.1607
 6060SOL    HW229640   1.978   2.853  17.228 -2.0805  2.7707 -0.2777
 6061SOL     OW29641   0.929   0.573   5.086 -0.3127  0.1099  0.0625
 6061SOL    HW129642   0.933   0.663   5.118  3.1473  0.7345 -2.1941
 6061SOL    HW229643   0.845   0.575   5.040 -0.5430  0.7199  0.5114
 6062SOL     OW29644   2.168   2.122   3.363  0.4767 -0.0339 -0.0502
 6062SOL    HW129645   2.247   2.069   3.366 -0.3334 -1.2294  0.4669
 6062SOL    HW229646   2.188   2.167   3.281  1.9013 -1.5414 -0.5242
 6063SOL     OW29647   1.005   3.809   7.756 -0.0170  0.1770 -0.2781
 6063SOL    HW129648   1.026   3.754   7.831  1.8414  1.7164  0.3369
 6063SOL    HW229649   0.946   3.870   7.801 -1.4570 -1.9048  0.6294
 6064SOL     OW29650   0.232   2.373   0.884  0.3511  0.1980 -0.0056
 6064SOL    HW129651   0.161   2.322   0.923 -0.8850  0.6028 -1.6936
 6064SOL    HW229652   0.196   2.461   0.894  1.4035  0.7446 -1.0278
 6065SOL     OW29653   0.786   1.277   3.377  0.4122 -0.3264 -0.6939
 6065SOL    HW129654   0.761   1.186   3.391 -0.9168  0.1256 -0.1716
 6065SOL    HW229655   0.726   1.326   3.432 -0.1037 -0.2475 -1.3252
 6066SOL     OW29656   1.902   0.006   2.321  0.0174  0.2968  0.4458
 6066SOL    HW129657   1.985   4.698   2.287 -0.5985  0.8212 -1.6161
 6066SOL    HW229658   1.856   0.023   2.238 -1.9214  1.2911  1.7324
 6067SOL     OW29659   4.379   4.181   2.796 -0.1343 -0.1169  0.0686
 6067SOL    HW129660   4.467   4.169   2.761 -0.5867 -1.2907 -0.6756
 6067SOL    HW229661   4.380   4.108   2.859  1.6960  0.2603  0.4518
 6068SOL     OW29662   3.635   4.641   8.863 -0.1653 -0.2768 -0.2162
 6068SOL    HW129663   3.660   0.007   8.876  0.5338 -0.3909 -0.7658
 6068SOL    HW229664   3.683   4.622   8.783  0.6951  2.3349 -0.3138
 6069SOL     OW29665   1.083   0.361  14.387  0.1470 -0.1835  0.0239
 6069SOL    HW129666   1.060   0.284  14.335 -3.1223  2.0070 -1.8116
 6069SOL    HW229667   1.003   0.413  14.391  0.3577 -0.0244  2.0456
 6070SOL     OW29668   1.853   4.216   6.042  0.3377 -0.0200 -0.2526
 6070SOL    HW129669   1.937   4.176   6.064  1.2744  0.8639 -2.2187
 6070SOL    HW229670   1.855   4.201   5.947 -4.0136 -0.8266 -0.2397
 6071SOL     OW29671   3.894   2.311   5.855 -0.3499  0.0994 -0.5183
 6071SOL    HW129672   3.985   2.282   5.842  0.7006  2.2317  1.9829
 6071SOL    HW229673   3.845   2.244   5.808  0.9372  0.7753 -2.8372
 6072SOL     OW29674   1.490   1.952  16.872 -0.5523 -0.1328 -0.2893
 6072SOL    HW129675   1.482   2.031  16.819 -0.9416  0.5399  0.7614
 6072SOL    HW229676   1.402   1.931  16.905 -1.2629  1.1411 -1.3979
 6073SOL     OW29677   1.382   3.234  16.694  0.4342  1.2365 -0.0662
 6073SOL    HW129678   1.378   3.213  16.788 -0.1929  0.2254 -0.3169
 6073SOL    HW229679   1.360   3.327  16.682  0.4665  1.1124 -1.0444
 6074SOL     OW29680   3.987   3.052  11.715  0.2104 -0.5840  0.1337
 6074SOL    HW129681   3.896   3.082  11.712  0.1853 -0.6837 -0.0622
 6074SOL    HW229682   3.989   3.012  11.802  1.5748 -0.9179 -0.0581
 6075SOL     OW29683   4.189   1.462   5.583  0.3752 -0.2926 -0.7133
 6075SOL    HW129684   4.108   1.503   5.613  2.3071  1.0459  2.6404
 6075SOL    HW229685   4.154   1.408   5.512 -0.1875 -0.5981 -0.2023
 6076SOL     OW29686   2.938   2.611   2.461  0.3000 -0.0732  0.0200
 6076SOL    HW129687   2.944   2.638   2.553  1.9481  0.5252 -0.2643
 6076SOL    HW229688   2.850   2.641   2.437  0.0455 -1.2660 -0.5505
 6077SOL     OW29689   3.517   4.036  15.470 -0.3114  0.0693 -0.2808
 6077SOL    HW129690   3.498   4.029  15.563 -0.1978 -0.8367 -0.3313
 6077SOL    HW229691   3.613   4.031  15.472 -0.2876  0.6890  0.4335
 6078SOL     OW29692   0.735   2.934   7.652  0.5379  0.4143  0.1852
 6078SOL    HW129693   0.669   3.001   7.669 -0.6215 -0.8873  0.8293
 6078SOL    HW229694   0.711   2.913   7.562  1.3397  2.0228 -0.3893
 6079SOL     OW29695   0.239   3.651  15.319  0.4548 -0.2013  0.0771
 6079SOL    HW129696   0.216   3.568  15.360 -1.1323  0.4106  0.4231
 6079SOL    HW229697   0.334   3.642  15.330  0.3437 -1.4890 -0.0755
 6080SOL     OW29698   1.718   1.335   1.748  0.0411  0.1211  0.4069
 6080SOL    HW129699   1.712   1.270   1.678 -0.2446  2.1258 -1.4592
 6080SOL    HW229700   1.767   1.281   1.809  0.2295  0.6603  0.7344
 6081SOL     OW29701   4.120   0.031  10.623 -0.1300  0.6211 -0.1607
 6081SOL    HW129702   4.201   0.062  10.665  0.9419  0.0757 -1.8146
 6081SOL    HW229703   4.055   0.045  10.692  1.3943 -0.8924  1.5653
 6082SOL     OW29704   0.765   2.605   3.262 -0.4935  0.3247 -0.2817
 6082SOL    HW129705   0.813   2.687   3.278 -0.5153  0.4078 -0.6584
 6082SOL    HW229706   0.830   2.546   3.225  1.0415  1.1707  1.0287
 6083SOL     OW29707   0.194   2.743  15.775  0.2129  0.2288 -0.7982
 6083SOL    HW129708   0.128   2.773  15.838  1.8054  1.6797  0.1765
 6083SOL    HW229709   0.245   2.823  15.766 -1.0908  0.9113 -2.0433
 6084SOL     OW29710   1.808   4.053   2.111 -0.0148  0.0539  0.4280
 6084SOL    HW129711   1.802   4.106   2.031  2.2120  1.5584  1.2404
 6084SOL    HW229712   1.904   4.054   2.113  0.0087 -0.8406 -0.0873
 6085SOL     OW29713   2.409   4.321   0.910 -0.1124  0.2537  0.3003
 6085SOL    HW129714   2.443   4.398   0.865  1.3134 -0.8853 -0.5737
 6085SOL    HW229715   2.361   4.349   0.988  1.2433  2.4378  0.3527
 6086SOL     OW29716   0.118   3.360  10.106 -0.4195  0.4552  0.7109
 6086SOL    HW129717   0.179   3.402  10.167 -0.7064  1.1461  0.5137
 6086SOL    HW229718   0.074   3.293  10.159 -0.3196 -0.8374 -0.8351
 6087SOL     OW29719   0.838   4.211   3.298  0.0314  0.0218 -0.0836
 6087SOL    HW129720   0.795   4.175   3.375 -1.4399 -0.2450 -1.0461
 6087SOL    HW229721   0.916   4.249   3.339 -1.4029  0.1006  2.5620
 6088SOL     OW29722   2.714   0.288  16.703  0.0168 -0.2272  0.0009
 6088SOL    HW129723   2.747   0.338  16.628  0.9587  1.4550  1.5503
 6088SOL    HW229724   2.733   0.197  16.679 -0.9266 -0.5026  0.3016
 6089SOL     OW29725   0.876   0.026   4.263 -0.2372 -0.1866  0.1030
 6089SOL    HW129726   0.842   0.093   4.322  0.2296  0.2649 -0.1510
 6089SOL    HW229727   0.942   0.080   4.220 -1.2266 -0.2382 -1.4839
 6090SOL     OW29728   4.473   0.303   8.028  0.1848 -0.0876 -0.3906
 6090SOL    HW129729   4.518   0.223   8.056 -0.4562 -1.0709 -2.1714
 6090SOL    HW229730   4.537   0.363   8.066  1.0377 -1.2201 -0.0328
 6091SOL     OW29731   2.439   1.176   2.786 -0.2137 -0.6266 -0.3867
 6091SOL    HW129732   2.503   1.114   2.821  1.1837  0.9617 -0.1184
 6091SOL    HW229733   2.402   1.121   2.718  1.0069 -2.6271  0.5685
 6092SOL     OW29734   1.533   0.520   7.633  0.2454 -0.8359  0.3483
 6092SOL    HW129735   1.472   0.464   7.584  0.2149  0.7359 -1.4136
 6092SOL    HW229736   1.471   0.587   7.662  0.2327 -0.7185  0.0466
 6093SOL     OW29737   1.969   0.021   4.710 -0.0275  0.5028 -0.2681
 6093SOL    HW129738   2.043   0.043   4.653  1.5343 -1.0536  1.1301
 6093SOL    HW229739   1.941   0.108   4.736 -0.3805  0.1090  0.6575
 6094SOL     OW29740   2.018   2.156   7.754 -0.5906 -0.2313  0.1274
 6094SOL    HW129741   2.051   2.142   7.842 -0.6417 -0.4373  0.1145
 6094SOL    HW229742   2.048   2.081   7.702  0.8657  1.9173 -2.1372
 6095SOL     OW29743   1.609   0.358   1.103 -0.1151 -0.1837 -0.0485
 6095SOL    HW129744   1.577   0.375   1.014  1.5831  0.0820 -0.6084
 6095SOL    HW229745   1.591   0.265   1.112  0.8976 -0.2541  1.3628
 6096SOL     OW29746   4.206   3.644   9.387 -0.0070  0.4957  0.0541
 6096SOL    HW129747   4.291   3.671   9.423  1.1248 -1.3413 -1.2538
 6096SOL    HW229748   4.219   3.641   9.292  1.0499 -3.9833  0.3401
 6097SOL     OW29749   3.293   3.529  16.507  0.1957  0.1352 -0.8066
 6097SOL    HW129750   3.267   3.437  16.506 -0.6241  0.3431  2.0681
 6097SOL    HW229751   3.207   3.567  16.523  0.4963  0.5900 -0.2593
 6098SOL     OW29752   3.779   2.914   7.693  0.0448  0.0604  0.1303
 6098SOL    HW129753   3.693   2.932   7.731 -0.5851  0.0675 -1.2765
 6098SOL    HW229754   3.752   2.845   7.631 -2.3145  1.7013 -0.6714
 6099SOL     OW29755   0.345   2.220   5.746  0.5564  0.1410 -0.3957
 6099SOL    HW129756   0.270   2.280   5.752 -0.7500 -1.5423 -0.1070
 6099SOL    HW229757   0.406   2.286   5.709  0.5563  0.6588  0.5300
 6100SOL     OW29758   4.224   0.198   0.677  0.1189  0.1337 -0.5095
 6100SOL    HW129759   4.302   0.250   0.700 -0.6872  0.3867  1.6991
 6100SOL    HW229760   4.171   0.220   0.754 -1.7357 -3.5722 -0.7369
 6101SOL     OW29761   1.144   4.115   0.480  0.1729  0.7632 -0.4508
 6101SOL    HW129762   1.188   4.141   0.399  0.5674  0.0392 -0.4680
 6101SOL    HW229763   1.050   4.131   0.472 -0.1164  0.1652  1.8499
 6102SOL     OW29764   2.957   3.302   2.325  0.8155  0.3173 -0.2034
 6102SOL    HW129765   2.992   3.261   2.246  0.0575  0.3197 -0.5407
 6102SOL    HW229766   3.031   3.289   2.384 -0.9293 -1.4870  1.5755
 6103SOL     OW29767   0.508   1.833   2.845  0.1214 -0.5086 -0.1760
 6103SOL    HW129768   0.413   1.844   2.847  0.3899  1.9668 -0.5508
 6103SOL    HW229769   0.525   1.928   2.842  1.1432 -0.6966 -0.4152
 6104SOL     OW29770   0.834   1.122   6.800  0.5717 -0.2229 -0.0054
 6104SOL    HW129771   0.816   1.102   6.708  0.0658 -3.2311  0.7737
 6104SOL    HW229772   0.891   1.199   6.792  0.5455 -0.1840  0.1949
 6105SOL     OW29773   3.043   0.537   4.556  0.3557 -0.1507  0.2035
 6105SOL    HW129774   3.040   0.590   4.636 -0.7699 -0.0842  0.1210
 6105SOL    HW229775   3.109   0.592   4.515  0.7769 -0.1343  0.8949
 6106SOL     OW29776   4.102   0.990   7.659 -0.0890 -0.4239 -0.4479
 6106SOL    HW129777   4.129   0.902   7.685  0.7169 -0.2926 -0.8418
 6106SOL    HW229778   4.131   1.039   7.736 -0.7460  1.2773 -1.2810
 6107SOL     OW29779   0.810   3.920  11.609 -0.3512  0.4731 -0.1348
 6107SOL    HW129780   0.766   3.903  11.692 -0.0167  2.1315  0.3801
 6107SOL    HW229781   0.744   3.909  11.541  0.4549 -0.9448 -0.6843
 6108SOL     OW29782   4.096   2.475  10.482 -0.0762 -0.3052 -0.4370
 6108SOL    HW129783   4.051   2.391  10.475  1.8077 -1.3812  0.2830
 6108SOL    HW229784   4.177   2.453  10.528  0.2100  2.6930  0.4828
 6109SOL     OW29785   0.547   1.574   4.034 -0.0310  0.3918  0.4283
 6109SOL    HW129786   0.623   1.521   4.010 -0.2548  0.2581  0.0301
 6109SOL    HW229787   0.591   1.659   4.033  1.9446 -0.6375 -0.4252
 6110SOL     OW29788   2.464   0.069   5.674  0.3814 -0.0490  0.3808
 6110SOL    HW129789   2.532   0.033   5.618  0.5415 -0.3336  0.7559
 6110SOL    HW229790   2.506   0.084   5.759  2.1873 -1.0916 -0.3484
 6111SOL     OW29791   2.669   1.614   3.563 -0.1242  0.3970  0.0911
 6111SOL    HW129792   2.608   1.568   3.621 -0.0399 -0.6344 -0.6456
 6111SOL    HW229793   2.677   1.559   3.485  1.7615  0.0461  0.5421
 6112SOL     OW29794   2.127   4.046   4.955  0.6196  0.8861  0.3801
 6112SOL    HW129795   2.173   4.006   4.881 -0.0381 -1.9187  1.4743
 6112SOL    HW229796   2.089   4.126   4.920 -2.2086 -1.6034 -2.2534
 6113SOL     OW29797   2.364   3.265  16.709 -0.1578  0.1412 -0.0476
 6113SOL    HW129798   2.335   3.183  16.669 -0.9292  0.3262  0.1301
 6113SOL    HW229799   2.293   3.327  16.689 -1.4958 -1.2896  0.2935
 6114SOL     OW29800   1.716   3.711  11.115  0.1358 -0.0234  0.0722
 6114SOL    HW129801   1.699   3.774  11.045  0.3103  0.0394  0.0856
 6114SOL    HW229802   1.779   3.657  11.066 -0.6272 -2.0476  1.3268
 6115SOL     OW29803   4.239   2.327   3.285 -0.3576  0.1451  0.1321
 6115SOL    HW129804   4.314   2.375   3.321  1.1243 -1.8952 -0.2297
 6115SOL    HW229805   4.265   2.239   3.314  0.4308 -0.4377 -2.3270
 6116SOL     OW29806   3.056   0.233  10.877 -0.2396 -0.5591 -0.1727
 6116SOL    HW129807   2.995   0.164  10.851 -1.1642  0.3577 -0.4638
 6116SOL    HW229808   3.053   0.295  10.804  0.1895  0.4549  0.6755
 6117SOL     OW29809   1.090   0.704   4.860 -0.5362 -0.1264 -0.3305
 6117SOL    HW129810   1.144   0.632   4.893  1.2873  1.8868  1.0489
 6117SOL    HW229811   1.026   0.651   4.812  1.4491 -0.8958 -2.1437
 6118SOL     OW29812   2.123   1.100  12.157 -0.4268  0.3649 -0.2720
 6118SOL    HW129813   2.215   1.120  12.136  0.1984 -0.7667  1.3832
 6118SOL    HW229814   2.111   1.009  12.131 -0.6758  0.7891 -1.6463
 6119SOL     OW29815   3.289   3.186   7.753  0.3806  0.4091  0.0144
 6119SOL    HW129816   3.205   3.229   7.772  0.6786  0.0206  2.1812
 6119SOL    HW229817   3.281   3.110   7.810 -2.4914  0.6111 -0.1216
 6120SOL     OW29818   2.870   3.289   2.965  0.1957 -0.6209  0.3118
 6120SOL    HW129819   2.813   3.346   2.914  1.7289  1.0126  0.4417
 6120SOL    HW229820   2.942   3.348   2.987  0.5429 -0.9165 -0.0390
 6121SOL     OW29821   1.142   2.273   1.822  0.1746 -0.1822 -0.4568
 6121SOL    HW129822   1.111   2.275   1.732 -0.5347  1.2300 -0.1759
 6121SOL    HW229823   1.059   2.268   1.869  0.5416 -1.4119  0.0545
 6122SOL     OW29824   4.621   1.313   5.159  0.2570  0.4106  0.5866
 6122SOL    HW129825   4.606   1.293   5.251 -1.5629 -0.4576  0.1002
 6122SOL    HW229826   4.606   1.408   5.161 -1.0640  0.2009  0.8433
 6123SOL     OW29827   0.567   1.306   4.800 -0.1426  0.6240  0.1621
 6123SOL    HW129828   0.499   1.247   4.767  0.7317 -0.7304  0.7916
 6123SOL    HW229829   0.620   1.307   4.720 -0.7432  0.9750 -0.2283
 6124SOL     OW29830   3.465   4.589   7.825 -0.0241  0.3257 -0.2497
 6124SOL    HW129831   3.464   4.683   7.806  0.5184  0.4430  0.2824
 6124SOL    HW229832   3.395   4.558   7.767 -1.5274 -0.2815  1.9224
 6125SOL     OW29833   3.319   1.685   1.722 -0.3162 -0.3478 -0.2988
 6125SOL    HW129834   3.347   1.645   1.639 -0.6785  0.6177 -0.8856
 6125SOL    HW229835   3.380   1.758   1.720 -1.5780  0.6889 -0.5699
 6126SOL     OW29836   4.376   2.514  12.780  0.1903 -0.0292  0.1986
 6126SOL    HW129837   4.443   2.563  12.732  0.3099 -0.1270  0.2640
 6126SOL    HW229838   4.427   2.436  12.802 -0.7304 -0.3072  1.3665
 6127SOL     OW29839   3.429   0.869   2.040  0.7349 -0.2940  0.3230
 6127SOL    HW129840   3.344   0.841   2.074 -0.1413  0.4189 -1.2710
 6127SOL    HW229841   3.410   0.873   1.946 -0.7708  0.2461  0.6553
 6128SOL     OW29842   0.463   4.523   9.935  0.1806  0.2149 -0.8880
 6128SOL    HW129843   0.401   4.540   9.864 -1.0401 -5.0046 -1.1389
 6128SOL    HW229844   0.544   4.539   9.887 -0.4021  1.9205 -1.2879
 6129SOL     OW29845   0.457   4.372   8.466  0.1741  0.0823  0.6537
 6129SOL    HW129846   0.438   4.372   8.372 -1.0233  1.6090  0.9001
 6129SOL    HW229847   0.431   4.285   8.496  0.4996  0.0147  0.7370
 6130SOL     OW29848   0.195   0.333  12.414 -0.0262 -0.3587 -0.4322
 6130SOL    HW129849   0.226   0.243  12.404  1.7104  0.2274 -0.2538
 6130SOL    HW229850   0.175   0.342  12.507  0.1599 -0.8120 -0.3489
 6131SOL     OW29851   3.852   2.288  17.072  0.1337  0.2529  0.3775
 6131SOL    HW129852   3.783   2.315  17.133 -0.2231 -0.6239  0.3659
 6131SOL    HW229853   3.823   2.307  16.983 -1.2285 -2.0185  0.3241
 6132SOL     OW29854   4.619   2.522   5.109  0.2726  0.4687  0.0072
 6132SOL    HW129855   4.588   2.457   5.173  1.1903  2.0508  2.0764
 6132SOL    HW229856   4.668   2.458   5.057  1.5050 -0.5337  2.3502
 6133SOL     OW29857   2.038   4.363   2.736  0.0143  0.2619 -0.5182
 6133SOL    HW129858   1.944   4.360   2.722 -0.5799 -0.8301  3.5342
 6133SOL    HW229859   2.063   4.423   2.666 -0.0459  0.8342 -0.0504
 6134SOL     OW29860   4.339   2.462  14.145  0.6222 -0.5128  0.4486
 6134SOL    HW129861   4.245   2.479  14.144  0.5023 -1.0934  2.3217
 6134SOL    HW229862   4.369   2.506  14.224 -3.0834 -0.6852  1.9522
 6135SOL     OW29863   3.868   4.525   7.406  0.0944  0.4074  0.1554
 6135SOL    HW129864   3.881   4.545   7.313  2.5090  0.8338  0.5899
 6135SOL    HW229865   3.775   4.500   7.407 -0.4477  2.4960  1.9257
 6136SOL     OW29866   0.560   4.239   3.266  0.1211  0.2365 -0.5774
 6136SOL    HW129867   0.573   4.327   3.232  0.4270  0.3394 -0.1894
 6136SOL    HW229868   0.651   4.210   3.268 -0.6826 -2.4462 -1.4183
 6137SOL     OW29869   2.373   1.695   8.638 -0.4119  0.8277 -0.4606
 6137SOL    HW129870   2.369   1.772   8.581  1.6434  0.9406 -0.4543
 6137SOL    HW229871   2.462   1.663   8.626 -0.3435  1.6352 -2.1479
 6138SOL     OW29872   0.981   2.369  14.158 -0.3030  0.1572 -0.7616
 6138SOL    HW129873   0.957   2.461  14.171 -1.2061 -0.2057  0.1145
 6138SOL    HW229874   1.007   2.362  14.066 -3.0693  1.4710 -1.6523
 6139SOL     OW29875   2.829   2.823   4.966  0.4396  0.0476 -0.9763
 6139SOL    HW129876   2.848   2.729   4.958 -0.0041 -0.1938  0.8227
 6139SOL    HW229877   2.884   2.851   4.893  0.9116  1.8129  0.0676
 6140SOL     OW29878   0.506   1.147   8.287 -0.2363  0.2819  0.6152
 6140SOL    HW129879   0.567   1.186   8.350 -1.4602  1.5760  0.9946
 6140SOL    HW229880   0.493   1.221   8.228  1.7044  0.9210  0.9878
 6141SOL     OW29881   3.448   3.419   6.857  0.0445 -0.3602  0.1101
 6141SOL    HW129882   3.486   3.428   6.944 -1.0877  2.5132  0.3049
 6141SOL    HW229883   3.511   3.467   6.802 -2.6319  1.2983 -1.4832
 6142SOL     OW29884   3.010   4.529  10.009 -0.3166 -0.3435  0.7501
 6142SOL    HW129885   2.937   4.589  10.021  0.9105  1.2829  0.0609
 6142SOL    HW229886   3.059   4.572   9.939 -2.1396 -0.4369 -0.5904
 6143SOL     OW29887   1.430   2.786   3.407  0.7005 -0.0087  0.0186
 6143SOL    HW129888   1.336   2.793   3.423  0.8533  0.6111  0.6904
 6143SOL    HW229889   1.471   2.773   3.492 -1.1941 -0.3436  0.8926
 6144SOL     OW29890   3.757   4.627   4.684 -0.2291 -0.3697 -0.2883
 6144SOL    HW129891   3.724   4.701   4.734  0.7453 -0.6220  0.7541
 6144SOL    HW229892   3.694   4.559   4.708  0.2461 -1.6971 -2.8358
 6145SOL     OW29893   2.829   3.579   7.061  0.6101  0.3653  0.0419
 6145SOL    HW129894   2.788   3.665   7.076 -0.2814 -0.2399  1.0529
 6145SOL    HW229895   2.919   3.610   7.054  0.0482  1.8639 -0.5734
 6146SOL     OW29896   1.265   3.347   9.136  0.2501  0.0115  0.2075
 6146SOL    HW129897   1.341   3.310   9.180 -0.0166  1.9458  2.3206
 6146SOL    HW229898   1.274   3.304   9.051  0.3132  0.4293  0.0064
 6147SOL     OW29899   0.091   4.599   6.647  0.0235  0.2535  0.3662
 6147SOL    HW129900   0.123   4.524   6.697  0.8647 -0.2441 -0.8951
 6147SOL    HW229901   0.108   4.572   6.556 -0.9404  2.2482 -0.4111
 6148SOL     OW29902   3.517   4.006  12.985 -0.1223 -0.3358 -0.3599
 6148SOL    HW129903   3.594   3.949  12.986  1.6188  2.0804  0.1870
 6148SOL    HW229904   3.447   3.950  12.950  1.2088 -1.2545 -1.5615
 6149SOL     OW29905   0.577   0.451   6.556  0.7711 -0.5388 -0.0095
 6149SOL    HW129906   0.654   0.394   6.558  1.2895  0.1910  0.7058
 6149SOL    HW229907   0.556   0.452   6.649 -0.5911  1.3233 -0.3476
 6150SOL     OW29908   4.403   2.635   6.230 -0.1383  0.9293 -0.0149
 6150SOL    HW129909   4.340   2.575   6.269 -0.4614 -0.3165 -2.4078
 6150SOL    HW229910   4.452   2.570   6.180  0.9803  1.4610  0.4062
 6151SOL     OW29911   3.284   0.992  14.574  0.2800  0.0871 -0.2056
 6151SOL    HW129912   3.203   0.951  14.602 -0.0609  0.9013 -0.0038
 6151SOL    HW229913   3.310   0.927  14.508  0.0254  1.2095 -1.4060
 6152SOL     OW29914   3.808   3.307  10.886 -0.3712  0.5321 -0.0419
 6152SOL    HW129915   3.816   3.295  10.792  2.1298 -1.1767  0.4006
 6152SOL    HW229916   3.720   3.270  10.897 -0.2265  0.1831 -0.0646
 6153SOL     OW29917   1.720   0.205  16.121  0.1462  0.2838 -0.3607
 6153SOL    HW129918   1.798   0.255  16.096  0.8741 -1.6807 -2.0008
 6153SOL    HW229919   1.693   0.248  16.202  0.4413 -0.6821  0.2494
 6154SOL     OW29920   1.357   4.717   8.022  0.1055  0.7990 -0.4462
 6154SOL    HW129921   1.404   0.071   7.997  2.5543 -0.0072  1.6348
 6154SOL    HW229922   1.424   4.699   8.088 -0.1053 -0.1798 -0.5046
 6155SOL     OW29923   3.611   0.136  13.198 -0.3285  0.4590 -0.4039
 6155SOL    HW129924   3.635   0.219  13.240  1.4462 -0.9542  1.4148
 6155SOL    HW229925   3.677   0.073  13.229 -0.9801  0.1020  0.2612
 6156SOL     OW29926   1.086   4.433   5.222  0.0691  0.7938  0.3682
 6156SOL    HW129927   1.166   4.467   5.183  1.2137  0.5348  2.4378
 6156SOL    HW229928   1.123   4.410   5.308 -0.2066 -0.7179  0.0775
 6157SOL     OW29929   1.885   2.886  11.030 -0.3925 -0.0557  0.6879
 6157SOL    HW129930   1.907   2.966  10.983  1.7334 -1.4305 -0.6478
 6157SOL    HW229931   1.862   2.924  11.115  0.9173 -0.1595  1.0909
 6158SOL     OW29932   4.170   0.859   8.612 -0.2301  0.4056  0.3540
 6158SOL    HW129933   4.131   0.904   8.537  2.1124 -3.0848 -2.9617
 6158SOL    HW229934   4.098   0.802   8.639 -0.0878  0.3987  0.7156
 6159SOL     OW29935   1.993   2.015   2.954 -0.4113 -0.0880  0.6067
 6159SOL    HW129936   2.042   2.000   2.874 -0.2362  0.0511  0.6882
 6159SOL    HW229937   1.938   1.936   2.954 -0.8800  0.2421 -2.4636
 6160SOL     OW29938   2.320   1.376   0.943 -0.1058 -0.2312  0.4453
 6160SOL    HW129939   2.288   1.465   0.931  3.4867  0.8157 -1.2912
 6160SOL    HW229940   2.309   1.366   1.038 -0.2139 -0.2037  0.4359
 6161SOL     OW29941   2.101   2.500  11.397  0.0941 -0.2819 -0.2384
 6161SOL    HW129942   2.019   2.520  11.351  0.8869 -0.8828 -1.9052
 6161SOL    HW229943   2.148   2.583  11.387  0.7554 -0.9899 -2.9171
 6162SOL     OW29944   3.164   4.425   9.292 -0.0797  0.4745  0.0720
 6162SOL    HW129945   3.237   4.377   9.254  2.3420  4.0575  0.1281
 6162SOL    HW229946   3.101   4.359   9.320  0.9942 -1.5070 -2.2334
 6163SOL     OW29947   2.068   2.435   0.860 -0.0872  0.1660  0.0868
 6163SOL    HW129948   1.988   2.459   0.813 -0.1573 -1.5670 -0.7011
 6163SOL    HW229949   2.089   2.347   0.830  0.4151  1.3565 -3.0515
 6164SOL     OW29950   1.512   2.514   3.807  0.3023 -0.5649 -0.1201
 6164SOL    HW129951   1.551   2.430   3.782  0.8125 -0.0887 -0.9362
 6164SOL    HW229952   1.468   2.478   3.884  1.4330 -2.1871 -0.2435
 6165SOL     OW29953   0.043   1.637   3.192  0.0838  0.5905  0.1203
 6165SOL    HW129954   0.059   1.558   3.243  0.0969  0.2687 -0.3927
 6165SOL    HW229955   0.132   1.674   3.186 -0.0999  0.9515 -0.3609
 6166SOL     OW29956   2.790   3.694   8.851 -0.3505  0.0230  0.1380
 6166SOL    HW129957   2.715   3.669   8.905  0.2182 -1.9489  0.0103
 6166SOL    HW229958   2.747   3.741   8.779  2.1500 -1.3815 -2.2453
 6167SOL     OW29959   3.738   2.916   6.784  0.5889 -0.0788  0.1065
 6167SOL    HW129960   3.717   2.824   6.800 -3.3606  0.6504 -0.7354
 6167SOL    HW229961   3.669   2.935   6.720 -1.0648 -0.1559  1.8705
 6168SOL     OW29962   4.274   4.433   2.790  0.3674  0.6095  0.1788
 6168SOL    HW129963   4.285   4.426   2.695 -1.4351 -0.9994  0.1140
 6168SOL    HW229964   4.321   4.357   2.824  3.2384  2.1341 -0.2902
 6169SOL     OW29965   0.675   3.575   2.912 -0.4370  0.1428  0.4011
 6169SOL    HW129966   0.747   3.514   2.926 -0.5158 -0.2044 -0.7124
 6169SOL    HW229967   0.722   3.658   2.920 -1.2367  0.5182  1.2345
 6170SOL     OW29968   0.559   2.106  15.421  0.0116 -0.1054  0.3143
 6170SOL    HW129969   0.521   2.047  15.486 -1.8392 -0.4064 -1.0411
 6170SOL    HW229970   0.493   2.098  15.352 -1.8461  0.9683  1.9577
 6171SOL     OW29971   0.212   1.548   6.250 -0.1989  0.3178 -0.3774
 6171SOL    HW129972   0.258   1.608   6.191 -1.1107  2.3915  1.0297
 6171SOL    HW229973   0.118   1.567   6.253 -0.1627  0.4519 -0.0815
 6172SOL     OW29974   1.306   1.316   1.936 -0.5499  0.1259 -0.4113
 6172SOL    HW129975   1.212   1.297   1.941 -0.4052 -0.4772  0.0563
 6172SOL    HW229976   1.341   1.243   1.986 -0.8406  0.4835  0.3147
 6173SOL     OW29977   4.227   0.555   1.730 -0.1122 -0.2513  0.8024
 6173SOL    HW129978   4.226   0.537   1.824 -1.3511 -0.2856  0.7816
 6173SOL    HW229979   4.313   0.522   1.706 -0.9490  0.4665 -3.1000
 6174SOL     OW29980   1.691   2.823  11.372  0.6827  0.5900 -1.1293
 6174SOL    HW129981   1.656   2.896  11.423  0.0771  0.3054 -1.1338
 6174SOL    HW229982   1.610   2.775  11.358  0.4678  0.8006 -0.6144
 6175SOL     OW29983   0.951   2.351   6.821 -0.4587 -0.2754 -0.3418
 6175SOL    HW129984   0.906   2.290   6.879  0.6065 -0.1973  0.5799
 6175SOL    HW229985   0.881   2.408   6.790 -0.5868  0.3310  1.0483
 6176SOL     OW29986   1.981   2.404   0.516 -0.2897  0.1179  0.4691
 6176SOL    HW129987   2.039   2.331   0.538 -0.2790  0.4829  1.6812
 6176SOL    HW229988   1.980   2.398   0.421 -3.5458 -1.6164  0.5824
 6177SOL     OW29989   0.623   2.084  10.697 -0.0652  0.4654  0.3383
 6177SOL    HW129990   0.648   2.086  10.605  0.0981  2.3326  0.4106
 6177SOL    HW229991   0.551   2.021  10.694 -0.0483  0.4029  1.2587
 6178SOL     OW29992   3.045   3.500   5.812 -0.3831 -0.0789  0.2902
 6178SOL    HW129993   3.004   3.586   5.802 -1.3343 -0.3337  1.9163
 6178SOL    HW229994   2.973   3.447   5.778  0.4724 -0.3001 -1.1522
 6179SOL     OW29995   2.994   2.203  10.967 -0.2454  0.0507 -0.0397
 6179SOL    HW129996   2.932   2.240  11.031  1.9516  0.9210  1.5877
 6179SOL    HW229997   3.030   2.288  10.940 -0.5981  0.3468  0.4112
 6180SOL     OW29998   3.314   0.430   6.152 -0.0921  0.6768 -0.1305
 6180SOL    HW129999   3.255   0.382   6.209 -0.8746  1.4272 -0.3021
 6180SOL    HW230000   3.385   0.367   6.141  1.1917  1.4994  3.5417
 6181SOL     OW30001   0.845   1.760   0.700 -0.2936  0.0113 -0.1233
 6181SOL    HW130002   0.923   1.705   0.690 -0.5456 -0.2245 -0.7868
 6181SOL    HW230003   0.795   1.738   0.621  0.4168  0.6447 -0.7529
 6182SOL     OW30004   0.603   0.408  16.975 -0.3479  0.4116 -0.1863
 6182SOL    HW130005   0.693   0.379  16.961 -1.1422 -1.5638 -1.1603
 6182SOL    HW230006   0.581   0.354  17.050 -1.1026  2.6898  1.2511
 6183SOL     OW30007   2.504   2.933   2.559 -0.1503  0.1433 -0.3766
 6183SOL    HW130008   2.459   2.933   2.643  1.8226  1.1762  0.6832
 6183SOL    HW230009   2.444   2.873   2.516 -1.6225  1.6161 -0.3903
 6184SOL     OW30010   3.659   0.811   4.207  0.2575  0.2253  0.1675
 6184SOL    HW130011   3.653   0.839   4.298  2.0828  0.8780  0.0892
 6184SOL    HW230012   3.754   0.821   4.199  0.2450  0.2996  0.1107
 6185SOL     OW30013   0.224   2.540   4.402  0.3277 -0.0676  0.0273
 6185SOL    HW130014   0.222   2.605   4.472 -0.6736 -2.0775  1.8812
 6185SOL    HW230015   0.288   2.576   4.341 -0.6022 -1.1424 -1.5841
 6186SOL     OW30016   2.807   2.305   3.635 -0.7630 -0.3004  0.4745
 6186SOL    HW130017   2.768   2.254   3.706  0.4413 -0.8056  0.7800
 6186SOL    HW230018   2.728   2.335   3.592  1.3577  1.0718 -2.4842
 6187SOL     OW30019   2.371   1.922   3.402 -0.7533  0.8227  0.2627
 6187SOL    HW130020   2.465   1.913   3.384 -0.6183  0.7512  1.0098
 6187SOL    HW230021   2.368   1.921   3.498  0.5274  0.0746  0.3016
 6188SOL     OW30022   1.817   4.657   6.238  0.4971  0.0440  0.7295
 6188SOL    HW130023   1.903   4.691   6.260  0.3087  0.2431  1.1565
 6188SOL    HW230024   1.812   4.573   6.284  1.7414 -0.4765 -0.0882
 6189SOL     OW30025   0.808   2.837  17.081 -0.2854  0.2942  0.2438
 6189SOL    HW130026   0.781   2.859  16.992  2.1065  2.0539 -0.0336
 6189SOL    HW230027   0.743   2.881  17.135 -0.9226 -0.7167  0.3078
 6190SOL     OW30028   2.861   2.372   7.777  0.0104  0.0711 -0.2969
 6190SOL    HW130029   2.942   2.322   7.769 -0.4818 -0.9197  1.0383
 6190SOL    HW230030   2.896   2.461   7.778  0.0984  0.0540 -1.4388
 6191SOL     OW30031   0.771   1.744   6.830  0.2291 -0.7132  0.4351
 6191SOL    HW130032   0.757   1.795   6.910 -0.7934  1.1711 -0.9350
 6191SOL    HW230033   0.734   1.663   6.863  2.1003 -1.8957 -0.3143
 6192SOL     OW30034   0.172   3.515   6.534 -0.2973  1.0128  0.6348
 6192SOL    HW130035   0.132   3.599   6.555  0.7298  1.3776  1.1041
 6192SOL    HW230036   0.232   3.499   6.606 -1.8285 -3.9388  0.8891
 6193SOL     OW30037   3.418   3.080   9.671  0.5680  0.1135  0.4445
 6193SOL    HW130038   3.451   3.026   9.599  2.5955  0.1560  1.3576
 6193SOL    HW230039   3.490   3.141   9.687 -0.3766  1.5137 -0.5665
 6194SOL     OW30040   0.919   1.161   2.520 -1.0617  0.4664 -0.4187
 6194SOL    HW130041   0.990   1.222   2.539 -1.7865  0.7855  1.2475
 6194SOL    HW230042   0.965   1.101   2.460  1.3976  0.5157  1.4237
 6195SOL     OW30043   0.998   2.336   4.623  0.1905  0.1061 -0.2231
 6195SOL    HW130044   1.019   2.247   4.593  1.6895  0.4872 -0.3219
 6195SOL    HW230045   0.920   2.318   4.675 -0.3534  1.9857 -0.3890
 6196SOL     OW30046   1.050   2.119   8.974 -0.0104 -0.0046  0.1882
 6196SOL    HW130047   1.062   2.030   9.007 -0.5138 -0.4326 -0.7873
 6196SOL    HW230048   0.971   2.145   9.021 -0.4302  1.0184 -1.0872
 6197SOL     OW30049   3.106   0.072   5.550  0.1151  0.2863 -0.1742
 6197SOL    HW130050   3.199   0.088   5.535  0.2989  0.9559  1.8087
 6197SOL    HW230051   3.103   4.716   5.601 -0.8946  1.9530  2.3973
 6198SOL     OW30052   3.062   4.376   6.563 -0.3637 -0.0002  0.2082
 6198SOL    HW130053   3.146   4.356   6.522 -0.6098 -0.9004  0.1301
 6198SOL    HW230054   3.097   4.411   6.645  1.1504  1.1748 -0.9618
 6199SOL     OW30055   2.512   4.565  15.385 -0.4497  0.1492 -0.1923
 6199SOL    HW130056   2.483   4.531  15.300 -1.1409 -0.1609  0.1675
 6199SOL    HW230057   2.445   4.630  15.403 -0.0376  0.9143 -1.3910
 6200SOL     OW30058   3.204   3.916  16.820  0.1337 -0.1028 -0.1489
 6200SOL    HW130059   3.176   3.987  16.877 -0.2725 -2.1526  2.2167
 6200SOL    HW230060   3.266   3.962  16.763  0.6408 -0.1745  0.3361
 6201SOL     OW30061   2.072   2.556  16.693  0.3755 -0.4915 -0.5301
 6201SOL    HW130062   1.990   2.583  16.733 -0.3493 -0.5921 -1.9310
 6201SOL    HW230063   2.063   2.461  16.680  3.2069 -0.6614 -1.4479
 6202SOL     OW30064   4.425   0.605  11.819 -0.2719  0.4889 -0.2860
 6202SOL    HW130065   4.455   0.558  11.741  0.7547  1.6151 -0.5608
 6202SOL    HW230066   4.399   0.690  11.783  0.5927  1.2861  1.0063
 6203SOL     OW30067   1.418   2.089   9.042 -0.1578 -0.6338  0.0185
 6203SOL    HW130068   1.386   2.175   9.013  2.0934 -0.3239 -1.5296
 6203SOL    HW230069   1.511   2.103   9.028  0.3045 -2.0928  1.5885
 6204SOL     OW30070   3.093   0.598   2.743 -0.0249  0.4869  0.3686
 6204SOL    HW130071   3.020   0.636   2.791  1.6874 -0.6315  3.8245
 6204SOL    HW230072   3.067   0.621   2.653 -0.3834 -1.4020  0.0019
 6205SOL     OW30073   2.572   2.496   1.328  0.5104  0.2740 -0.0323
 6205SOL    HW130074   2.481   2.476   1.309  0.9571 -1.8432  0.0399
 6205SOL    HW230075   2.602   2.479   1.239 -1.9884  0.4258 -0.8840
 6206SOL     OW30076   4.585   4.223   3.018  0.2740  0.1545  0.1907
 6206SOL    HW130077   4.639   4.160   3.066  1.0011  0.2990 -0.4410
 6206SOL    HW230078   4.638   4.231   2.938 -1.8749 -0.4674 -1.2845
 6207SOL     OW30079   0.673   2.246   1.139 -0.1447 -0.2394 -0.1162
 6207SOL    HW130080   0.731   2.248   1.215 -2.8940  2.6442  1.8982
 6207SOL    HW230081   0.678   2.332   1.098  0.7417 -0.6758 -0.9216
 6208SOL     OW30082   4.023   3.144  10.127 -0.4094  0.4100  0.1043
 6208SOL    HW130083   3.930   3.128  10.107 -0.7326 -0.0944  2.0017
 6208SOL    HW230084   4.010   3.105  10.213 -1.4315  1.3798  0.3834
 6209SOL     OW30085   2.140   0.466  11.332 -0.0261 -0.1370  0.8363
 6209SOL    HW130086   2.111   0.458  11.423  1.9834 -0.7115  1.4255
 6209SOL    HW230087   2.055   0.447  11.292  0.5120  0.2383 -0.4488
 6210SOL     OW30088   0.076   2.807   5.603 -0.1053 -0.1089 -0.2149
 6210SOL    HW130089   0.016   2.873   5.638 -0.1630 -0.7664  0.9104
 6210SOL    HW230090   0.086   2.844   5.515  0.9262  1.4130  0.5328
 6211SOL     OW30091   2.796   0.517   3.925  0.0334 -0.4712  0.2840
 6211SOL    HW130092   2.826   0.517   3.834 -1.0172  1.5006 -0.0481
 6211SOL    HW230093   2.810   0.429   3.960 -4.0169 -1.2151 -0.0082
 6212SOL     OW30094   4.566   0.909  11.844  0.0133  0.4482 -0.5878
 6212SOL    HW130095   4.485   0.884  11.890  1.0244  0.2084  1.0515
 6212SOL    HW230096   4.532   0.972  11.780  0.4005 -0.3370 -1.5772
 6213SOL     OW30097   4.491   1.376  11.585 -0.1208 -0.2293  0.3546
 6213SOL    HW130098   4.462   1.458  11.544  0.0110  0.6932  2.0735
 6213SOL    HW230099   4.576   1.374  11.543 -0.8293 -0.5898 -1.0780
 6214SOL     OW30100   1.927   0.697   2.957 -0.5835 -0.7179 -0.0667
 6214SOL    HW130101   1.844   0.677   2.915 -0.5532 -1.9109  0.4369
 6214SOL    HW230102   1.906   0.779   3.001 -0.0245 -0.1350 -0.8947
 6215SOL     OW30103   3.986   1.638   7.879 -0.4428 -0.0314  0.3774
 6215SOL    HW130104   3.901   1.661   7.842 -0.2411  1.7673  1.0771
 6215SOL    HW230105   4.043   1.633   7.802 -1.7105 -0.9751 -0.5089
 6216SOL     OW30106   3.747   1.517   8.060 -1.0772 -0.2761 -0.4180
 6216SOL    HW130107   3.658   1.526   8.093 -0.7718 -0.4136  0.4355
 6216SOL    HW230108   3.763   1.611   8.052 -1.1140 -0.2204  0.1633
 6217SOL     OW30109   4.324   4.633   0.080  0.6018 -0.1378 -0.5292
 6217SOL    HW130110   4.261   4.569   0.047  1.2306 -0.3937 -1.2348
 6217SOL    HW230111   4.386   4.576   0.126 -0.4517  1.5750  3.0705
 6218SOL     OW30112   2.080   1.088   3.274  0.2702  0.1946  0.5137
 6218SOL    HW130113   2.004   1.111   3.328 -1.4228  1.7593 -2.5190
 6218SOL    HW230114   2.115   1.170   3.240  0.5526  0.1595  0.7188
 6219SOL     OW30115   4.448   3.182   5.814 -0.0338  0.1903 -0.0008
 6219SOL    HW130116   4.376   3.166   5.875 -0.2545  0.7733 -0.1099
 6219SOL    HW230117   4.500   3.235   5.875 -1.3569  1.0218  0.3976
 6220SOL     OW30118   3.157   0.832   6.059 -0.2074 -0.5718 -0.2825
 6220SOL    HW130119   3.101   0.754   6.063 -0.5454 -0.3136  0.0346
 6220SOL    HW230120   3.149   0.848   5.965 -1.0947 -2.1210 -0.4752
 6221SOL     OW30121   1.719   2.145  11.500  0.2819 -0.2700 -0.0955
 6221SOL    HW130122   1.664   2.092  11.558  0.5971 -0.9634 -0.4256
 6221SOL    HW230123   1.719   2.231  11.541 -2.7856  0.3928 -1.5320
 6222SOL     OW30124   1.581   3.790   5.639 -0.1569 -0.4029  0.2587
 6222SOL    HW130125   1.628   3.802   5.722 -0.7157 -0.4425  0.5797
 6222SOL    HW230126   1.505   3.736   5.660  1.1989 -1.5163  2.2402
 6223SOL     OW30127   2.189   0.938   6.348 -0.5362 -0.1967 -1.0276
 6223SOL    HW130128   2.115   0.966   6.402  0.9453  0.9846  0.4142
 6223SOL    HW230129   2.208   1.022   6.307 -0.4716  2.0677  3.5351
 6224SOL     OW30130   0.792   1.703  10.203  0.6219  0.3814 -0.8963
 6224SOL    HW130131   0.772   1.797  10.209 -0.2892  0.1893 -1.0534
 6224SOL    HW230132   0.833   1.692  10.118  2.5014 -1.8930  0.3116
 6225SOL     OW30133   2.118   4.595   3.266 -0.3162  0.2030  0.2771
 6225SOL    HW130134   2.182   4.526   3.249 -0.0504  0.9868 -1.8049
 6225SOL    HW230135   2.158   4.673   3.227  1.2211 -0.5368  0.3614
 6226SOL     OW30136   0.860   1.712   3.273 -0.6726 -0.1218  0.6281
 6226SOL    HW130137   0.929   1.674   3.220  0.3756  2.9587 -0.2316
 6226SOL    HW230138   0.893   1.800   3.292  0.5278 -0.0602 -1.7632
 6227SOL     OW30139   0.838   4.411   6.294  0.6538  0.2425 -0.5771
 6227SOL    HW130140   0.817   4.317   6.290 -0.3121  0.4088  0.5045
 6227SOL    HW230141   0.890   4.422   6.215 -2.0160  0.6767 -2.2572
 6228SOL     OW30142   4.456   4.276  10.070  0.2812 -0.1030  0.1327
 6228SOL    HW130143   4.546   4.245  10.064  0.6041  0.8788 -0.1746
 6228SOL    HW230144   4.443   4.235  10.155  2.2798 -0.0596  0.4590
 6229SOL     OW30145   3.885   1.829   8.454  0.3630  0.6989 -0.0613
 6229SOL    HW130146   3.885   1.842   8.549  0.7085  3.2753 -0.3959
 6229SOL    HW230147   3.829   1.752   8.448 -0.7631  1.4787  0.5023
 6230SOL     OW30148   0.308   1.776  12.292 -0.3193 -0.7314  1.1021
 6230SOL    HW130149   0.372   1.845  12.275 -0.2017 -0.8357  1.1120
 6230SOL    HW230150   0.291   1.732  12.209 -1.8765 -1.3607  1.7661
 6231SOL     OW30151   3.997   3.153   4.786  0.3636  0.0237 -0.2699
 6231SOL    HW130152   3.974   3.232   4.737  0.2767  0.8012  1.0177
 6231SOL    HW230153   3.991   3.190   4.875  1.5249  1.2577 -0.7155
 6232SOL     OW30154   4.350   0.156  15.241 -0.6954 -0.9463  0.4033
 6232SOL    HW130155   4.374   0.230  15.296 -2.2218  0.3827 -0.7335
 6232SOL    HW230156   4.256   0.169  15.253 -0.9238 -1.6121 -0.6321
 6233SOL     OW30157   3.056   2.042   7.130 -0.3797 -0.5063 -0.0131
 6233SOL    HW130158   2.992   2.113   7.129 -0.6160 -0.7011  1.8081
 6233SOL    HW230159   3.094   2.061   7.215  0.8393  0.8574 -0.8677
 6234SOL     OW30160   3.568   2.570   4.686 -0.2609 -0.2922  0.4999
 6234SOL    HW130161   3.652   2.616   4.679 -0.9511  0.8591 -0.1571
 6234SOL    HW230162   3.504   2.636   4.711  0.6799  1.4572 -1.7617
 6235SOL     OW30163   2.203   2.059   7.080  0.9907 -0.0805 -0.0237
 6235SOL    HW130164   2.216   2.049   6.986 -0.9736  1.9189 -0.5008
 6235SOL    HW230165   2.113   2.028   7.093  1.4307 -0.9049  1.0830
 6236SOL     OW30166   1.091   0.072   4.016  0.2379  0.4766  0.3945
 6236SOL    HW130167   1.152   0.015   4.063 -1.0582 -0.9170  0.3995
 6236SOL    HW230168   1.084   0.153   4.067  0.4446  0.1093  1.0047
 6237SOL     OW30169   0.830   2.157   2.241  0.4495 -0.2275  0.4002
 6237SOL    HW130170   0.801   2.112   2.320  2.3326  0.0950  1.2750
 6237SOL    HW230171   0.798   2.246   2.254  1.5359  0.4082 -1.1956
 6238SOL     OW30172   1.105   0.134   1.332  0.7394 -0.2337 -0.2255
 6238SOL    HW130173   1.182   0.098   1.376 -0.0438 -1.7605 -0.1269
 6238SOL    HW230174   1.142   0.163   1.249  0.7194  1.6621  0.4130
 6239SOL     OW30175   3.337   4.095   2.489  0.0333  0.9857  0.1906
 6239SOL    HW130176   3.425   4.120   2.520 -0.0452  0.9260  0.4564
 6239SOL    HW230177   3.317   4.174   2.439 -1.5565  1.4877  1.6194
 6240SOL     OW30178   2.941   2.972  10.727 -0.6569 -0.6790 -0.4365
 6240SOL    HW130179   2.963   2.976  10.634  0.3639 -1.3464 -0.2171
 6240SOL    HW230180   2.855   3.015  10.732 -0.7437 -0.8342 -0.5745
 6241SOL     OW30181   2.470   3.822  13.977  0.2041  0.7465 -0.1649
 6241SOL    HW130182   2.546   3.793  14.027  0.7552 -0.6926 -1.8340
 6241SOL    HW230183   2.411   3.755  14.011 -2.0950  2.0963 -1.4595
 6242SOL     OW30184   0.096   0.803   3.644 -0.2547  0.1721 -0.0079
 6242SOL    HW130185   0.191   0.804   3.659 -0.0968 -2.5457 -0.7947
 6242SOL    HW230186   0.089   0.722   3.593 -1.0280 -0.2037  0.7025
 6243SOL     OW30187   2.271   3.680  13.341 -0.2762  0.2506  0.1310
 6243SOL    HW130188   2.357   3.649  13.312 -1.8770 -3.7558 -0.3396
 6243SOL    HW230189   2.277   3.681  13.437 -1.3521  0.0944  0.1961
 6244SOL     OW30190   4.194   0.414  10.636 -0.0848  0.2654 -0.1592
 6244SOL    HW130191   4.223   0.357  10.707  3.3964  0.7731 -1.2020
 6244SOL    HW230192   4.166   0.494  10.680 -0.2130  1.3552 -2.2230
 6245SOL     OW30193   1.500   1.585   7.306  0.2292  0.5363  0.3512
 6245SOL    HW130194   1.547   1.510   7.269 -1.6083  0.4450 -1.8143
 6245SOL    HW230195   1.416   1.540   7.318  1.1560 -0.9212  1.3398
 6246SOL     OW30196   4.394   1.784  16.615  0.0641  0.2106  0.3734
 6246SOL    HW130197   4.433   1.758  16.532 -1.2582 -2.0149  0.4253
 6246SOL    HW230198   4.435   1.870  16.614  1.8630 -0.6741 -1.2854
 6247SOL     OW30199   1.446   0.260   4.762  0.0894 -0.2046  0.3494
 6247SOL    HW130200   1.410   0.290   4.679 -1.5446 -0.7120  0.8877
 6247SOL    HW230201   1.394   0.186   4.794 -1.1291  0.6262  0.2939
 6248SOL     OW30202   4.274   4.539   9.087  0.0826  0.1099  0.3181
 6248SOL    HW130203   4.215   4.464   9.096  0.9327 -0.9374 -2.8202
 6248SOL    HW230204   4.296   4.518   8.996  1.6798  1.9462  0.2755
 6249SOL     OW30205   0.193   4.155   4.678 -0.1395  0.4341  0.0374
 6249SOL    HW130206   0.120   4.094   4.685  0.0508  0.2798  0.7056
 6249SOL    HW230207   0.202   4.151   4.583  2.3191  0.7839  0.2518
 6250SOL     OW30208   1.596   0.332  15.899  0.4819 -0.4179  0.6249
 6250SOL    HW130209   1.652   0.280  15.840 -1.7958 -2.2460  0.0636
 6250SOL    HW230210   1.652   0.332  15.976  2.8692  0.9073 -1.0897
 6251SOL     OW30211   1.047   3.780   8.795 -0.4555  0.0367  0.0047
 6251SOL    HW130212   1.085   3.868   8.803  0.8379 -0.5138 -0.0793
 6251SOL    HW230213   1.123   3.726   8.815 -0.6040 -0.4312 -0.6950
 6252SOL     OW30214   2.813   1.378   8.526  0.5898 -0.6100 -0.4903
 6252SOL    HW130215   2.840   1.440   8.459 -1.6334 -0.5038 -1.2589
 6252SOL    HW230216   2.863   1.296   8.520  1.4872 -0.0687 -0.5000
 6253SOL     OW30217   4.012   1.352   7.468 -0.2308  0.6228  0.3848
 6253SOL    HW130218   3.997   1.419   7.401 -0.4918  1.5583  1.3812
 6253SOL    HW230219   4.081   1.395   7.519  0.8278 -1.1081  0.3897
 6254SOL     OW30220   1.862   0.893   5.221 -0.4576 -0.3169  0.1621
 6254SOL    HW130221   1.770   0.897   5.194 -0.8018 -1.2922  1.1969
 6254SOL    HW230222   1.852   0.851   5.307 -0.5830 -0.2184  0.1970
 6255SOL     OW30223   1.850   3.274   8.382 -0.1013  0.0665 -0.1838
 6255SOL    HW130224   1.806   3.232   8.308 -1.4559  1.5169 -0.1820
 6255SOL    HW230225   1.934   3.289   8.338  0.3246 -2.9897 -0.4320
 6256SOL     OW30226   1.034   1.260  17.197  0.3339  0.2310 -0.2805
 6256SOL    HW130227   0.949   1.225  17.225  1.0896 -0.4545  1.1415
 6256SOL    HW230228   1.013   1.352  17.187  1.7459  0.6688  0.9071
 6257SOL     OW30229   3.546   4.323  14.608 -0.1791  0.2950  0.1849
 6257SOL    HW130230   3.573   4.371  14.686  0.3550  0.1005  0.1203
 6257SOL    HW230231   3.517   4.400  14.558 -0.1348 -0.3221 -0.8016
 6258SOL     OW30232   1.941   1.872  17.423 -0.0342 -0.0111 -0.0399
 6258SOL    HW130233   1.956   1.780  17.401  3.7319  0.8838 -1.1277
 6258SOL    HW230234   1.902   1.882  17.510  1.8968 -1.7967  1.0299
 6259SOL     OW30235   0.147   0.238   6.102  0.2608 -0.1853  0.1401
 6259SOL    HW130236   0.136   0.200   6.189 -2.1990 -0.3965 -0.2540
 6259SOL    HW230237   0.172   0.325   6.131 -0.0480 -0.9076  2.5688
 6260SOL     OW30238   0.299   0.953   1.395 -0.5236  0.3343 -0.0818
 6260SOL    HW130239   0.335   0.903   1.322 -1.2969  0.4902 -0.5699
 6260SOL    HW230240   0.358   0.932   1.468 -1.9001 -0.9133  0.6614
 6261SOL     OW30241   2.434   0.243   3.041  0.3083  0.1666 -0.1650
 6261SOL    HW130242   2.350   0.287   3.057  0.4532  0.3859 -0.0095
 6261SOL    HW230243   2.429   0.160   3.088 -0.0992  0.3570  0.1306
 6262SOL     OW30244   1.137   2.749   7.971 -0.0111  0.8452 -0.7201
 6262SOL    HW130245   1.156   2.763   8.064  0.2519  0.1339 -0.6694
 6262SOL    HW230246   1.042   2.749   7.967 -0.0564 -0.8646  0.4594
 6263SOL     OW30247   3.783   0.501   7.259  0.1293  0.5858  0.0046
 6263SOL    HW130248   3.842   0.427   7.250 -0.3127  0.4749 -1.9929
 6263SOL    HW230249   3.696   0.471   7.287  0.1719 -0.9767 -1.5554
 6264SOL     OW30250   1.443   2.152  13.325 -0.2449  0.5893  0.0054
 6264SOL    HW130251   1.519   2.131  13.272 -0.7065 -0.9067 -0.0518
 6264SOL    HW230252   1.396   2.205  13.260 -1.7466  0.5880  1.0894
 6265SOL     OW30253   1.217   0.477   7.006 -0.2181  0.4159 -0.1204
 6265SOL    HW130254   1.130   0.486   7.044 -0.6126 -1.2829 -0.6105
 6265SOL    HW230255   1.211   0.441   6.917  1.4801 -0.7189  0.2203
 6266SOL     OW30256   2.152   0.613  11.805  0.9522 -0.3070  0.0410
 6266SOL    HW130257   2.125   0.545  11.743  0.8468 -3.1465  3.2333
 6266SOL    HW230258   2.210   0.668  11.751 -0.3617  0.7540 -0.3071
 6267SOL     OW30259   3.786   2.056   0.948  0.4873  0.3264 -0.3792
 6267SOL    HW130260   3.813   2.013   0.867 -0.9000  0.6866 -1.0210
 6267SOL    HW230261   3.721   1.989   0.968  0.5105  0.2359 -0.6038
 6268SOL     OW30262   0.456   0.781  15.126 -0.5347 -0.1666  0.1598
 6268SOL    HW130263   0.428   0.745  15.042 -2.1007 -0.6562  0.8811
 6268SOL    HW230264   0.534   0.828  15.098 -1.1886 -0.3703 -1.9925
 6269SOL     OW30265   4.243   4.076  17.661  0.2080 -0.2130  0.7079
 6269SOL    HW130266   4.233   4.170  17.648  0.0857 -0.0340  2.0859
 6269SOL    HW230267   4.156   4.040  17.676  0.1088 -0.0781  0.4527
 6270SOL     OW30268   1.762   4.702   7.442 -0.0015  0.4382 -0.4237
 6270SOL    HW130269   1.849   0.015   7.434  0.8866 -2.1179 -2.6396
 6270SOL    HW230270   1.744   4.707   7.536 -1.0539  2.1884 -0.7179
 6271SOL     OW30271   2.267   1.432   4.727  0.5850  0.4098 -0.1289
 6271SOL    HW130272   2.226   1.424   4.641 -3.6467  2.7363  1.6260
 6271SOL    HW230273   2.238   1.518   4.760  2.8170  0.6616  1.2211
 6272SOL     OW30274   0.300   0.891   0.555 -0.0821 -0.1585 -0.0706
 6272SOL    HW130275   0.256   0.967   0.593  0.2004 -0.7337  1.3968
 6272SOL    HW230276   0.369   0.926   0.498 -1.9734  0.5481 -1.9166
 6273SOL     OW30277   4.070   3.136  11.364 -0.1722  0.0498 -0.0038
 6273SOL    HW130278   4.127   3.127  11.287  1.6898  0.8641  1.2778
 6273SOL    HW230279   4.104   3.067  11.421 -2.4988  1.2577  2.7995
 6274SOL     OW30280   2.039   3.210  17.695  0.2801  0.1676  0.4700
 6274SOL    HW130281   2.066   3.227   0.084 -2.6187 -0.3505  1.4152
 6274SOL    HW230282   2.025   3.298  17.662  0.0186  0.7243  2.0719
 6275SOL     OW30283   3.299   1.950  14.934  0.1629  0.3604 -0.0914
 6275SOL    HW130284   3.266   1.953  15.024  0.7810  1.9891  0.0923
 6275SOL    HW230285   3.219   1.914  14.897 -0.2047 -0.1078  1.1375
 6276SOL     OW30286   3.792   3.751  16.549 -0.1168 -0.1534  0.0031
 6276SOL    HW130287   3.713   3.697  16.537 -0.3911  0.6331 -1.6645
 6276SOL    HW230288   3.856   3.717  16.486 -1.8878 -0.0248 -1.8957
 6277SOL     OW30289   1.201   3.258  12.983  0.2364 -0.5189 -0.2561
 6277SOL    HW130290   1.143   3.182  12.992 -1.5612  0.9155  0.4851
 6277SOL    HW230291   1.167   3.323  12.922 -1.6618 -0.4370  0.8920
 6278SOL     OW30292   0.775   1.346   1.837  0.2481 -0.0092 -0.1108
 6278SOL    HW130293   0.838   1.375   1.772  1.2791 -0.8384  0.5404
 6278SOL    HW230294   0.821   1.373   1.917 -0.4559  1.2205 -0.1059
 6279SOL     OW30295   0.798   0.073  11.233 -0.4941  0.2896  0.4005
 6279SOL    HW130296   0.728   0.111  11.286  0.1946  0.3906  1.2428
 6279SOL    HW230297   0.848   0.154  11.234 -1.7110  1.0177  2.0652
 6280SOL     OW30298   4.016   1.865  15.233  0.1740 -0.4005 -0.3902
 6280SOL    HW130299   3.958   1.820  15.172 -1.7856  1.8225 -0.1851
 6280SOL    HW230300   3.968   1.857  15.315  0.5660  0.0158 -0.1183
 6281SOL     OW30301   3.477   3.971   1.372 -0.0044  0.2836  0.5397
 6281SOL    HW130302   3.569   3.946   1.382 -0.9204 -2.8302  1.0914
 6281SOL    HW230303   3.470   4.040   1.438 -1.0149 -0.4232  1.1619
 6282SOL     OW30304   1.616   2.453   7.472 -0.5250  0.4228  0.1159
 6282SOL    HW130305   1.620   2.486   7.562  0.7558  3.4359 -1.0591
 6282SOL    HW230306   1.705   2.473   7.442 -2.8874  2.4021 -5.4949
 6283SOL     OW30307   4.692   3.636   7.756 -0.0645  0.1547 -0.2497
 6283SOL    HW130308   0.017   3.554   7.757  0.5823  0.5352 -0.8733
 6283SOL    HW230309   0.038   3.698   7.739  2.5904 -2.8927 -0.3253
 6284SOL     OW30310   1.070   4.161   2.201 -0.3853 -0.0940  0.3866
 6284SOL    HW130311   1.079   4.240   2.255  3.8269  0.1548 -0.6799
 6284SOL    HW230312   1.074   4.089   2.264 -2.8060 -0.4815  0.0732
 6285SOL     OW30313   1.831   0.785   5.482  0.0268 -0.1209  0.4218
 6285SOL    HW130314   1.911   0.798   5.533 -0.2700 -0.3000  0.9281
 6285SOL    HW230315   1.778   0.723   5.531 -0.4368 -0.1399 -0.1105
 6286SOL     OW30316   2.046   0.113   8.459  0.4625 -0.1683  0.7500
 6286SOL    HW130317   1.956   0.081   8.457 -0.5420  2.6767  1.1357
 6286SOL    HW230318   2.075   0.083   8.545  0.6129  1.9249  1.4197
 6287SOL     OW30319   2.074   2.808   6.946 -0.6226  0.1381 -0.1282
 6287SOL    HW130320   2.089   2.725   6.901 -1.8064  0.2067 -0.6581
 6287SOL    HW230321   2.102   2.880   6.889 -0.3417  0.4214  0.3727
 6288SOL     OW30322   4.404   3.353  10.745 -0.2632  0.1800  0.0063
 6288SOL    HW130323   4.401   3.262  10.777 -0.6919  0.0656 -0.3608
 6288SOL    HW230324   4.394   3.388  10.834  0.9420  0.4274  0.0488
 6289SOL     OW30325   2.124   1.038  10.679  0.0188  0.2233 -0.0840
 6289SOL    HW130326   2.058   0.970  10.667  0.6462 -0.4450  0.2756
 6289SOL    HW230327   2.064   1.112  10.675  0.5974  0.6243 -1.2822
 6290SOL     OW30328   2.005   2.195   5.340  0.0890 -0.0486 -0.3936
 6290SOL    HW130329   2.100   2.182   5.343  0.3734  2.1584 -0.0796
 6290SOL    HW230330   1.978   2.133   5.408  0.1631  0.0810 -0.2488
 6291SOL     OW30331   4.437   1.095   2.696  0.1850 -0.1837  0.0650
 6291SOL    HW130332   4.479   1.011   2.678  0.8831  0.4347 -1.1454
 6291SOL    HW230333   4.491   1.151   2.641 -0.6616  0.3201 -0.2455
 6292SOL     OW30334   1.853   1.330  12.636  0.0039 -0.0475  0.5040
 6292SOL    HW130335   1.870   1.392  12.564  0.7140  2.1205  2.5378
 6292SOL    HW230336   1.935   1.280  12.638  0.5095  0.6884 -1.5898
 6293SOL     OW30337   0.653   3.635   2.628 -0.2496 -0.6330  0.2288
 6293SOL    HW130338   0.679   3.595   2.711  1.5688 -0.3146 -0.1860
 6293SOL    HW230339   0.618   3.559   2.582  0.8829 -0.1181 -1.5037
 6294SOL     OW30340   4.295   3.009   8.959 -0.5063 -0.6986  0.3924
 6294SOL    HW130341   4.256   3.082   9.006 -0.9625 -0.5211 -0.2654
 6294SOL    HW230342   4.335   2.963   9.033 -1.1154 -0.4375  0.8777
 6295SOL     OW30343   1.134   3.420   2.501  0.1583  0.5882 -0.4036
 6295SOL    HW130344   1.078   3.497   2.492 -0.2810  0.4089  0.7509
 6295SOL    HW230345   1.125   3.379   2.415 -0.8138 -2.0941  0.9804
 6296SOL     OW30346   3.943   0.882  17.553 -0.3998 -0.3435  0.0104
 6296SOL    HW130347   3.886   0.953  17.583 -0.1981 -0.4370  0.6138
 6296SOL    HW230348   3.881   0.810  17.564 -0.0201 -0.5158  0.9839
 6297SOL     OW30349   0.382   4.136   3.515  0.1265  0.3936 -0.5560
 6297SOL    HW130350   0.408   4.149   3.606 -0.4039 -1.8616 -0.0837
 6297SOL    HW230351   0.440   4.195   3.467  0.9444  0.2915  0.3223
 6298SOL     OW30352   3.707   2.674   4.359 -0.4569 -0.0191 -1.0532
 6298SOL    HW130353   3.695   2.689   4.453  0.5771 -0.4674 -0.8542
 6298SOL    HW230354   3.801   2.687   4.346 -0.4309  0.9872  0.0859
 6299SOL     OW30355   1.923   2.747   5.629 -0.3537  0.3621  0.0571
 6299SOL    HW130356   1.977   2.767   5.705  0.8434 -3.1948  0.1427
 6299SOL    HW230357   1.847   2.779   5.677 -1.0883 -0.3422 -0.6237
 6300SOL     OW30358   3.034   2.588   9.972  0.8156  0.1444  0.6914
 6300SOL    HW130359   2.953   2.558   9.930  0.1271  2.1556  0.5504
 6300SOL    HW230360   3.013   2.620  10.060 -0.2078 -0.1109  0.5393
 6301SOL     OW30361   4.131   1.341  12.801  0.0989 -0.7520  0.1384
 6301SOL    HW130362   4.043   1.377  12.789  0.2318  0.1445  1.8453
 6301SOL    HW230363   4.165   1.365  12.715 -0.6526  2.4356  0.7420
 6302SOL     OW30364   3.228   0.561  11.850 -0.1542 -0.4434  0.1829
 6302SOL    HW130365   3.213   0.480  11.800  2.8841 -0.1053 -1.2605
 6302SOL    HW230366   3.169   0.536  11.921 -2.0112 -1.5337 -1.7352
 6303SOL     OW30367   1.881   1.069   8.534  0.0236 -0.0832  0.0184
 6303SOL    HW130368   1.788   1.063   8.553 -0.1040 -2.9447 -1.5579
 6303SOL    HW230369   1.910   1.108   8.616  0.4797 -1.5801  0.5503
 6304SOL     OW30370   0.926   0.490   7.968 -0.3308 -0.1049 -0.0461
 6304SOL    HW130371   0.836   0.511   7.993 -0.5044  0.4303 -1.1476
 6304SOL    HW230372   0.915   0.395   7.967  0.5230 -0.1940 -0.9140
 6305SOL     OW30373   2.513   0.142  15.651  0.0540  0.3448 -0.2482
 6305SOL    HW130374   2.586   0.203  15.650  0.5350 -0.2483 -1.4047
 6305SOL    HW230375   2.550   0.069  15.702 -0.9676  0.5590  0.8035
 6306SOL     OW30376   1.472   4.239   7.794 -0.2955  0.3283  0.2877
 6306SOL    HW130377   1.455   4.193   7.876  1.9834  1.7672  1.5688
 6306SOL    HW230378   1.422   4.319   7.811 -0.0138  0.7979 -1.1223
 6307SOL     OW30379   1.741   1.877   4.773 -0.2368 -0.3956 -0.0277
 6307SOL    HW130380   1.766   1.963   4.741 -0.1641 -0.9405 -1.4267
 6307SOL    HW230381   1.656   1.902   4.809  0.3904  0.7571  0.6436
 6308SOL     OW30382   0.418   1.808  11.825 -0.0614 -0.2383  0.1062
 6308SOL    HW130383   0.448   1.780  11.739 -0.3063  0.3184 -0.1595
 6308SOL    HW230384   0.500   1.795  11.872  0.0426  0.7604  0.2001
 6309SOL     OW30385   1.535   0.994   4.580 -0.4079  0.5307  0.1404
 6309SOL    HW130386   1.486   1.053   4.522 -0.8998  0.6825  0.7125
 6309SOL    HW230387   1.621   1.032   4.559 -0.0954 -1.9978 -3.0593
 6310SOL     OW30388   0.686   0.004  11.524  0.4353  0.2948 -0.2687
 6310SOL    HW130389   0.591   0.005  11.523  0.4289  0.7288  1.1062
 6310SOL    HW230390   0.705   0.089  11.485  0.4410  0.0274 -0.8443
 6311SOL     OW30391   2.343   0.153   8.786  0.3916 -0.0502  0.1522
 6311SOL    HW130392   2.269   0.109   8.745 -0.1745 -0.3222  1.4782
 6311SOL    HW230393   2.309   0.242   8.799  0.6950 -0.0033  0.6192
 6312SOL     OW30394   4.285   2.192   8.014  0.0663 -0.5450 -0.3886
 6312SOL    HW130395   4.310   2.121   7.954  0.3600 -0.3506 -0.4986
 6312SOL    HW230396   4.365   2.184   8.066  0.0118 -1.4304 -0.4357
 6313SOL     OW30397   1.517   0.048   0.675 -0.0225  0.5382  0.1698
 6313SOL    HW130398   1.531   0.039   0.770 -0.6286  2.0185  0.4002
 6313SOL    HW230399   1.544   4.684   0.652 -0.8855  0.7946 -1.8609
 6314SOL     OW30400   4.479   1.743  17.012  0.2515  0.1521  0.3529
 6314SOL    HW130401   4.452   1.678  16.946 -1.6324  2.3313 -1.0240
 6314SOL    HW230402   4.468   1.828  16.970  1.9964  0.0290 -0.3688
 6315SOL     OW30403   0.745   3.912   4.069  0.6550 -0.1984 -0.2794
 6315SOL    HW130404   0.692   3.927   4.147  0.9266 -1.8923  0.2499
 6315SOL    HW230405   0.700   3.838   4.029  0.0786  0.0655 -0.1117
 6316SOL     OW30406   2.440   2.318   6.365 -0.6363  0.0814 -0.2472
 6316SOL    HW130407   2.391   2.308   6.446  1.2354  0.4796  0.9316
 6316SOL    HW230408   2.502   2.390   6.377 -0.6392  0.0402  0.0161
 6317SOL     OW30409   4.693   1.889   5.719  0.1462  0.0201  0.3823
 6317SOL    HW130410   0.020   1.967   5.703 -0.1986  0.5272  1.7289
 6317SOL    HW230411   0.037   1.825   5.703  1.7966  1.7769  0.5814
 6318SOL     OW30412   1.387   4.019   4.031  0.1332 -0.5256  0.4688
 6318SOL    HW130413   1.308   4.044   4.078 -0.0201  2.5584 -1.4326
 6318SOL    HW230414   1.378   3.924   4.034  0.2186 -0.5622 -0.8250
 6319SOL     OW30415   3.717   1.625   5.374 -0.0898 -0.0521  0.0836
 6319SOL    HW130416   3.713   1.637   5.280 -2.6261 -1.7660 -0.0101
 6319SOL    HW230417   3.707   1.714   5.409  1.7907  0.8920 -1.7656
 6320SOL     OW30418   3.995   2.994   8.134  0.0830 -0.2399 -0.0545
 6320SOL    HW130419   3.938   3.014   8.060  1.1007 -1.0566 -1.0482
 6320SOL    HW230420   4.021   3.080   8.168 -0.0583 -1.0751  2.1519
 6321SOL     OW30421   2.324   1.255  11.772  0.2229 -0.7185 -0.2848
 6321SOL    HW130422   2.345   1.275  11.681  2.9583 -3.5904 -0.2719
 6321SOL    HW230423   2.410   1.233  11.810  0.2379 -0.6460 -0.2755
 6322SOL     OW30424   3.001   1.674   2.463 -0.5166 -0.2078 -0.1386
 6322SOL    HW130425   3.077   1.691   2.519  0.5339  0.1114 -1.6644
 6322SOL    HW230426   2.962   1.603   2.514 -0.3407 -0.6947 -0.6956
 6323SOL     OW30427   4.450   3.523   1.461 -0.2157  0.1937 -0.6750
 6323SOL    HW130428   4.379   3.551   1.403 -0.1180 -0.1954 -0.9795
 6323SOL    HW230429   4.400   3.513   1.543 -1.1359  2.0100 -1.0165
 6324SOL     OW30430   3.114   0.346   3.801  0.0412 -0.3329 -0.3126
 6324SOL    HW130431   3.145   0.391   3.722  1.9317 -0.8170  0.1586
 6324SOL    HW230432   3.045   0.293   3.761  1.3554 -0.1064 -2.9477
 6325SOL     OW30433   1.832   3.112   3.002 -0.4331  0.0868 -0.2111
 6325SOL    HW130434   1.890   3.177   2.964 -1.3614 -0.5172 -2.6741
 6325SOL    HW230435   1.879   3.080   3.079  0.0930 -1.8061 -1.3211
 6326SOL     OW30436   2.399   4.345   9.138 -0.0320  0.0739  0.2475
 6326SOL    HW130437   2.442   4.355   9.223  3.3159 -1.5318 -1.2841
 6326SOL    HW230438   2.471   4.371   9.081  0.9239 -1.8172  0.5994
 6327SOL     OW30439   3.465   1.871   3.745  0.1975  0.4153  0.4051
 6327SOL    HW130440   3.415   1.915   3.676  1.0508 -0.3732 -0.7104
 6327SOL    HW230441   3.448   1.919   3.826 -2.2869  0.6312 -0.2490
 6328SOL     OW30442   1.682   0.695   2.839 -0.3543  0.0722  0.0965
 6328SOL    HW130443   1.690   0.735   2.752 -2.4366 -0.8913 -0.5262
 6328SOL    HW230444   1.671   0.607   2.802 -3.7265  0.5425  0.0254
 6329SOL     OW30445   1.852   1.515   7.210  0.1543  0.3154 -0.1044
 6329SOL    HW130446   1.854   1.557   7.124  4.3142 -1.7983 -1.0039
 6329SOL    HW230447   1.778   1.454   7.204  0.0866  0.2731  1.0863
 6330SOL     OW30448   4.598   3.201  10.150  0.4316  0.4204  0.6334
 6330SOL    HW130449   4.573   3.226  10.239  2.1587  2.6382  0.4843
 6330SOL    HW230450   4.557   3.115  10.154 -1.7105  1.3203 -2.1573
 6331SOL     OW30451   0.500   2.051  13.483  0.1397  0.1326 -0.6202
 6331SOL    HW130452   0.485   2.063  13.577  2.1175  1.1302 -0.4310
 6331SOL    HW230453   0.586   2.093  13.472  0.4840 -0.7198 -1.1716
 6332SOL     OW30454   3.008   3.943   7.111 -0.1292  0.2583  0.1519
 6332SOL    HW130455   2.913   3.956   7.105 -0.1915 -0.2692  0.0149
 6332SOL    HW230456   3.045   3.958   7.025  0.6809  0.0460  0.4598
 6333SOL     OW30457   1.626   3.829  10.878  0.6453  0.4250 -0.4738
 6333SOL    HW130458   1.534   3.815  10.857  1.1431 -2.4619 -0.6837
 6333SOL    HW230459   1.642   3.909  10.829  2.0466  0.0986 -0.5665
 6334SOL     OW30460   0.864   2.626   8.055 -0.1822 -0.0800 -0.9621
 6334SOL    HW130461   0.847   2.676   7.975  3.6406  0.3359 -1.5037
 6334SOL    HW230462   0.855   2.542   8.009 -0.9207 -0.2406 -0.5183
 6335SOL     OW30463   2.119   2.557   4.117 -0.8791  0.1879  0.3465
 6335SOL    HW130464   2.153   2.624   4.057 -0.5705  0.0013  0.3104
 6335SOL    HW230465   2.197   2.503   4.128 -0.7549  1.0384  3.7370
 6336SOL     OW30466   0.388   2.069  15.205  0.1654 -0.1848  0.1193
 6336SOL    HW130467   0.368   1.980  15.233 -0.3280 -0.1608 -0.1412
 6336SOL    HW230468   0.350   2.076  15.117 -1.8870  1.1095  1.1024
 6337SOL     OW30469   2.256   2.442   8.930 -0.2475  0.0796  0.2467
 6337SOL    HW130470   2.190   2.374   8.941 -0.3011 -0.0830 -1.1228
 6337SOL    HW230471   2.309   2.423   9.008 -0.7247  0.1796  0.5953
 6338SOL     OW30472   0.056   2.408   8.253  0.5696 -0.3464 -0.5194
 6338SOL    HW130473   4.705   2.465   8.266  0.4946 -0.0013 -2.4799
 6338SOL    HW230474   0.121   2.474   8.233  1.5054 -0.6580  1.4995
 6339SOL     OW30475   2.403   2.973   3.313 -0.0072 -0.4637  0.2324
 6339SOL    HW130476   2.460   3.001   3.384 -0.2001  0.0050  0.2005
 6339SOL    HW230477   2.460   2.974   3.236 -1.3375  0.8198 -0.7275
 6340SOL     OW30478   2.838   2.253   0.952 -0.0351  0.3736 -0.0610
 6340SOL    HW130479   2.837   2.169   0.906 -0.3850  0.3660 -0.0427
 6340SOL    HW230480   2.748   2.278   0.975 -0.0790 -2.5884  2.8806
 6341SOL     OW30481   4.380   3.187   7.477  0.2931  0.4213  0.2219
 6341SOL    HW130482   4.458   3.232   7.510  1.5903 -0.6867 -1.3196
 6341SOL    HW230483   4.421   3.144   7.402 -2.1481  3.2185 -2.6830
 6342SOL     OW30484   2.886   4.496  10.727  0.2300 -0.1425 -0.0978
 6342SOL    HW130485   2.836   4.473  10.805  0.3816  0.1598  0.0893
 6342SOL    HW230486   2.855   4.429  10.666 -1.4394  0.2312  0.3469
 6343SOL     OW30487   2.414   1.932   6.551 -0.0086 -0.8384  0.0380
 6343SOL    HW130488   2.399   1.923   6.457 -1.7194 -2.4701  0.4535
 6343SOL    HW230489   2.410   1.842   6.584 -1.9993 -0.9685 -0.5435
 6344SOL     OW30490   4.385   2.737   1.875 -0.3790 -0.1000  0.2021
 6344SOL    HW130491   4.468   2.782   1.885  0.1442 -1.6652  3.0698
 6344SOL    HW230492   4.360   2.729   1.967 -0.3553  2.4441  0.4307
 6345SOL     OW30493   1.181   1.660   7.931  0.2079  0.8256  0.4807
 6345SOL    HW130494   1.144   1.700   7.852 -0.8792 -0.3119  0.4190
 6345SOL    HW230495   1.179   1.569   7.901  0.2901  0.8177  0.4987
 6346SOL     OW30496   0.276   2.988   8.736 -0.3086 -0.7886 -0.0856
 6346SOL    HW130497   0.232   2.903   8.727  0.9590 -1.5076  0.4721
 6346SOL    HW230498   0.260   3.010   8.644  0.9436  2.4270  0.4781
 6347SOL     OW30499   3.010   3.302   6.608  0.1142 -0.2344 -0.1830
 6347SOL    HW130500   3.037   3.310   6.517 -1.8932 -0.5215 -0.8065
 6347SOL    HW230501   2.921   3.268   6.601 -0.9733  2.2151  1.5820
 6348SOL     OW30502   2.586   1.283   6.695  0.9384  0.4780 -0.4239
 6348SOL    HW130503   2.640   1.250   6.767 -1.0430  0.2981  0.9820
 6348SOL    HW230504   2.563   1.370   6.728 -1.9551 -0.0256 -1.1279
 6349SOL     OW30505   3.505   0.098  12.543 -0.6205 -0.0714 -0.1185
 6349SOL    HW130506   3.541   0.027  12.596  1.5086  2.4374  1.7892
 6349SOL    HW230507   3.413   0.075  12.530 -0.7523 -1.1874  2.7771
 6350SOL     OW30508   0.013   0.648   4.517 -0.2502 -0.1516 -0.1536
 6350SOL    HW130509   0.004   0.565   4.563  1.4724  0.7725  1.8598
 6350SOL    HW230510   4.650   0.683   4.529  0.3442  1.4231 -0.3631
 6351SOL     OW30511   3.692   0.969   2.097 -0.2272  0.5298 -0.0041
 6351SOL    HW130512   3.692   1.006   2.009 -0.6372 -0.1273 -0.2830
 6351SOL    HW230513   3.600   0.942   2.109 -0.3344  0.9782  0.1894
 6352SOL     OW30514   0.841   3.557  15.600 -0.0384  0.5025 -0.6358
 6352SOL    HW130515   0.882   3.608  15.669  0.3769  1.5336 -1.6432
 6352SOL    HW230516   0.852   3.466  15.629  0.2894 -0.2481 -3.1229
 6353SOL     OW30517   1.817   0.357  15.133 -0.0260  0.1840  0.3446
 6353SOL    HW130518   1.824   0.445  15.171  2.1643 -0.4564  1.4198
 6353SOL    HW230519   1.793   0.381  15.044  0.9390  0.6555  0.2163
 6354SOL     OW30520   4.498   2.535   9.305  0.7799  0.0583 -0.4830
 6354SOL    HW130521   4.440   2.542   9.229  0.5010  2.5378 -0.0489
 6354SOL    HW230522   4.502   2.623   9.343  0.9257 -0.4875  0.7575
 6355SOL     OW30523   2.417   1.011   4.244  0.1639 -0.3517 -0.1514
 6355SOL    HW130524   2.496   1.059   4.270  0.7066 -0.6665 -1.1915
 6355SOL    HW230525   2.443   0.977   4.158 -2.0465 -0.0703 -0.9378
 6356SOL     OW30526   1.534   3.350  13.520 -0.9077 -0.1220  0.5293
 6356SOL    HW130527   1.580   3.422  13.477 -1.1755 -1.6343 -2.3070
 6356SOL    HW230528   1.456   3.396  13.548  0.8565  1.1039  3.3563
 6357SOL     OW30529   1.230   3.771  14.784  0.2953  0.9023  0.3439
 6357SOL    HW130530   1.303   3.816  14.828  0.8467  1.2618 -0.9247
 6357SOL    HW230531   1.266   3.683  14.772 -2.2498 -0.3988  2.4356
 6358SOL     OW30532   3.890   2.406   0.836 -0.2448 -0.1695  0.4788
 6358SOL    HW130533   3.943   2.397   0.757  2.3864  0.3734  2.1577
 6358SOL    HW230534   3.934   2.344   0.895  2.6579 -0.0562 -1.5206
 6359SOL     OW30535   3.520   0.200  10.019 -0.4772 -0.1335  0.0669
 6359SOL    HW130536   3.600   0.164  10.057  0.0780 -1.8260 -2.7249
 6359SOL    HW230537   3.544   0.293  10.009 -3.5255  0.8398  1.7856
 6360SOL     OW30538   1.079   4.019  11.226 -0.2757 -0.1735  0.2885
 6360SOL    HW130539   1.119   3.937  11.196  0.7907 -0.1320  1.5883
 6360SOL    HW230540   1.161   4.069  11.217 -0.5945  0.7342  2.4663
 6361SOL     OW30541   2.464   2.104   4.604 -0.3678  0.2987  0.4727
 6361SOL    HW130542   2.496   2.027   4.650  0.7391  0.3242 -0.2713
 6361SOL    HW230543   2.453   2.174   4.668  2.7424  0.5538  0.7203
 6362SOL     OW30544   0.037   0.186   7.747  0.1067 -0.6676 -0.0621
 6362SOL    HW130545   0.048   0.228   7.832  1.4305 -1.0360 -0.0614
 6362SOL    HW230546   0.063   0.099   7.777  3.4670  0.2085 -0.4727
 6363SOL     OW30547   1.420   4.302   2.158 -0.1646 -0.1901  0.0158
 6363SOL    HW130548   1.488   4.246   2.195 -1.5776 -1.6019  0.4316
 6363SOL    HW230549   1.374   4.241   2.102  1.3033 -0.7869 -0.5413
 6364SOL     OW30550   0.849   0.665   8.525  0.5379  0.0038  0.1816
 6364SOL    HW130551   0.821   0.754   8.503 -0.7579 -0.6506 -0.8385
 6364SOL    HW230552   0.875   0.671   8.617 -2.3965 -2.6490  1.1860
 6365SOL     OW30553   0.522   0.941   0.420  0.1380  0.2537  0.4323
 6365SOL    HW130554   0.591   0.874   0.415 -0.6848 -0.5839  0.2721
 6365SOL    HW230555   0.576   1.019   0.431  1.1703 -0.4740  0.5213
 6366SOL     OW30556   4.187   2.276   6.891 -0.2390 -0.2644 -0.1319
 6366SOL    HW130557   4.224   2.216   6.827  2.1345 -1.0026  1.9159
 6366SOL    HW230558   4.265   2.323   6.922 -0.6553  1.0764 -1.1143
 6367SOL     OW30559   3.047   0.595   6.946 -0.5696 -0.2634  0.7067
 6367SOL    HW130560   3.087   0.673   6.983 -1.0792 -0.3532  1.4535
 6367SOL    HW230561   2.959   0.624   6.920 -0.6512 -0.5484  0.6626
 6368SOL     OW30562   4.443   3.252   6.159  0.0199 -0.6224 -0.0716
 6368SOL    HW130563   4.418   3.219   6.246  0.7707  2.3493  1.2858
 6368SOL    HW230564   4.373   3.208   6.111 -0.7699 -1.4529  1.8277
 6369SOL     OW30565   3.700   2.595   0.857 -0.7039  0.7233  0.1997
 6369SOL    HW130566   3.770   2.530   0.850  0.1703  1.6860 -0.0088
 6369SOL    HW230567   3.745   2.660   0.804  2.6406 -1.7454 -0.0353
 6370SOL     OW30568   1.809   2.638   6.665 -0.1888  0.4973 -0.7039
 6370SOL    HW130569   1.788   2.556   6.619  0.3490 -0.9127  1.5378
 6370SOL    HW230570   1.761   2.628   6.747 -1.6860  1.9504 -1.4077
 6371SOL     OW30571   3.574   0.497   7.647  0.2077  0.0922  0.0885
 6371SOL    HW130572   3.494   0.520   7.693  0.0980 -3.2564  1.5579
 6371SOL    HW230573   3.634   0.543   7.706  0.1515 -1.4711  1.3442
 6372SOL     OW30574   1.342   0.935  12.433 -0.3555  0.2611 -0.5313
 6372SOL    HW130575   1.363   0.990  12.508  0.7292 -0.2277 -0.4830
 6372SOL    HW230576   1.313   0.854  12.474 -1.4449  1.3228  0.7735
 6373SOL     OW30577   2.103   3.223   7.140 -0.0945  0.6086 -0.7231
 6373SOL    HW130578   2.134   3.133   7.131  0.8132  1.1292 -2.7871
 6373SOL    HW230579   2.055   3.229   7.223  2.3286  0.3547  0.7030
 6374SOL     OW30580   0.332   0.601  16.162  0.1170 -0.3494 -0.0001
 6374SOL    HW130581   0.310   0.626  16.073 -0.5336  2.6382  1.0209
 6374SOL    HW230582   0.309   0.508  16.160 -1.6376  0.0485  1.6394
 6375SOL     OW30583   1.011   1.440   3.462 -0.0762  0.1552 -0.1367
 6375SOL    HW130584   1.028   1.488   3.381 -0.3835 -1.2477 -1.0278
 6375SOL    HW230585   0.940   1.389   3.422  1.9656 -0.9622 -2.3215
 6376SOL     OW30586   0.742   0.314   4.108 -0.3152 -0.2595  0.0678
 6376SOL    HW130587   0.774   0.395   4.148  1.4456 -0.9387  0.0081
 6376SOL    HW230588   0.798   0.252   4.154 -0.5891 -0.6606 -0.1372
 6377SOL     OW30589   1.056   0.492   6.500 -0.1235  0.1436  0.1457
 6377SOL    HW130590   1.061   0.398   6.480  0.9168  0.2396 -0.0187
 6377SOL    HW230591   1.060   0.522   6.409 -0.9648  0.6978  0.2812
 6378SOL     OW30592   1.467   3.261  14.280 -0.6025 -0.4092  0.8226
 6378SOL    HW130593   1.456   3.297  14.191 -0.9293  0.0524  1.0493
 6378SOL    HW230594   1.550   3.303  14.301 -0.7772  0.3492  0.0222
 6379SOL     OW30595   2.504   3.717   7.722 -0.1793  0.4209  0.2101
 6379SOL    HW130596   2.424   3.757   7.757 -1.2656  0.2315 -2.0578
 6379SOL    HW230597   2.563   3.792   7.724 -2.3938  2.1109  1.7861
 6380SOL     OW30598   1.735   3.560   8.362  0.2482  0.1351  0.8521
 6380SOL    HW130599   1.648   3.519   8.368  0.4531 -0.4062  0.0466
 6380SOL    HW230600   1.709   3.651   8.352 -1.0474 -0.4024 -0.5934
 6381SOL     OW30601   3.181   4.713   7.824  0.4550  0.1042 -0.0732
 6381SOL    HW130602   3.087   4.704   7.837  0.4942  1.5437  1.2657
 6381SOL    HW230603   3.188   0.082   7.807  0.1916  0.3915  1.3911
 6382SOL     OW30604   2.818   0.268   3.990  0.0309 -0.6280 -0.5889
 6382SOL    HW130605   2.896   0.219   4.015  0.6226 -0.2751 -1.7293
 6382SOL    HW230606   2.786   0.216   3.915 -0.9033 -1.0510  0.0996
 6383SOL     OW30607   3.678   1.332  14.710 -0.2405  0.2882  0.1467
 6383SOL    HW130608   3.725   1.254  14.738  0.6008  1.0580  0.8765
 6383SOL    HW230609   3.677   1.320  14.615  3.0783 -0.5510  0.2092
 6384SOL     OW30610   1.498   3.875  14.914  0.0466  0.3545  0.4663
 6384SOL    HW130611   1.454   3.960  14.914 -2.3909 -0.9250 -0.9236
 6384SOL    HW230612   1.578   3.897  14.865  1.0155 -2.0740  0.9731
 6385SOL     OW30613   3.351   4.155   5.501  0.4091  0.1779 -0.3698
 6385SOL    HW130614   3.376   4.235   5.454  2.6246 -0.1563  0.2515
 6385SOL    HW230615   3.380   4.173   5.590 -2.8455  1.0267  0.5172
 6386SOL     OW30616   0.197   3.178   6.564 -0.0948  0.8757  0.3407
 6386SOL    HW130617   0.255   3.243   6.604  0.1611  0.5397  0.5284
 6386SOL    HW230618   0.180   3.201   6.473  0.7155  0.8925  0.1873
 6387SOL     OW30619   3.403   1.360  14.716 -0.2515 -0.6291  0.1199
 6387SOL    HW130620   3.375   1.314  14.637  2.0735 -2.8441  0.5755
 6387SOL    HW230621   3.497   1.346  14.727  0.5314  3.3262 -1.6306
 6388SOL     OW30622   3.336   3.932  14.336 -0.1374 -0.6558  0.1986
 6388SOL    HW130623   3.280   3.871  14.384 -1.4821 -0.5667 -1.2842
 6388SOL    HW230624   3.307   4.018  14.367 -1.5422 -1.4513  1.0812
 6389SOL     OW30625   1.033   4.286   7.859 -0.5157 -0.4819  0.4958
 6389SOL    HW130626   1.028   4.381   7.860 -1.6662 -0.5324 -0.7837
 6389SOL    HW230627   1.108   4.287   7.919 -0.2956  0.0963  0.2096
 6390SOL     OW30628   2.670   3.741   6.654 -0.3102 -0.2751  0.0102
 6390SOL    HW130629   2.584   3.749   6.695 -0.2142 -1.6417  0.4568
 6390SOL    HW230630   2.645   3.744   6.562 -0.3564  1.6776  0.0807
 6391SOL     OW30631   2.813   3.753  15.555  0.3633 -0.0560  0.0801
 6391SOL    HW130632   2.839   3.773  15.465  0.8217  0.1434  0.2559
 6391SOL    HW230633   2.843   3.662  15.548 -0.4582 -0.0398 -3.8035
 6392SOL     OW30634   1.826   0.405   6.106 -0.3747 -0.0718  0.1439
 6392SOL    HW130635   1.920   0.422   6.106 -0.2867 -0.5828  1.5126
 6392SOL    HW230636   1.805   0.454   6.186 -0.2351  1.8661 -0.9992
 6393SOL     OW30637   2.899   2.084   2.648  0.2706 -0.5571  0.4181
 6393SOL    HW130638   2.849   2.005   2.628  1.4597 -0.7360 -1.8431
 6393SOL    HW230639   2.930   2.074   2.738 -0.1759  0.0656  0.6447
 6394SOL     OW30640   3.137   4.197   8.592  0.5856 -0.4290 -0.1782
 6394SOL    HW130641   3.137   4.198   8.688  3.0943 -2.8284 -0.1569
 6394SOL    HW230642   3.135   4.108   8.557  2.1376 -0.7972  0.6858
 6395SOL     OW30643   4.412   2.153   4.320  0.2926 -0.1714 -0.4186
 6395SOL    HW130644   4.448   2.088   4.261 -1.5632 -1.6561  0.0732
 6395SOL    HW230645   4.471   2.225   4.298 -1.6581  1.6111  0.1600
 6396SOL     OW30646   0.283   2.139  14.271  0.0747  0.4390 -0.6670
 6396SOL    HW130647   0.375   2.126  14.249  0.2737  2.5281 -1.0692
 6396SOL    HW230648   0.278   2.233  14.252  1.0206  0.4993 -0.6152
 6397SOL     OW30649   3.374   0.271   0.570  0.2394  0.4025 -0.3943
 6397SOL    HW130650   3.398   0.326   0.495  1.6438 -1.3056 -1.2078
 6397SOL    HW230651   3.322   0.203   0.527 -0.2317  0.2847  0.3679
 6398SOL     OW30652   3.301   1.908   2.209  0.2104  0.4476 -0.1386
 6398SOL    HW130653   3.337   1.990   2.240 -1.0943 -0.1903  3.0960
 6398SOL    HW230654   3.379   1.853   2.201  0.7172  1.1541 -0.0469
 6399SOL     OW30655   2.757   3.819   7.335  0.5029  0.4760  0.1572
 6399SOL    HW130656   2.667   3.850   7.332 -0.0483 -1.3655 -2.4157
 6399SOL    HW230657   2.784   3.829   7.244 -0.8952 -2.1594 -0.5432
 6400SOL     OW30658   0.396   1.538   4.264  0.4369 -0.0621  0.2472
 6400SOL    HW130659   0.434   1.561   4.179 -0.1974 -1.5115 -0.4349
 6400SOL    HW230660   0.349   1.618   4.287  1.2423  0.1086  1.2747
 6401SOL     OW30661   1.040   4.140  12.119  1.0960  0.1385 -0.0607
 6401SOL    HW130662   1.021   4.201  12.047 -2.4148  0.1113  0.8662
 6401SOL    HW230663   0.951   4.115  12.143  1.5164 -1.5663 -0.2837
 6402SOL     OW30664   0.169   2.633   0.941 -0.1627 -0.2458  0.4656
 6402SOL    HW130665   0.189   2.689   1.016  0.2464 -2.6586  2.1613
 6402SOL    HW230666   0.083   2.605   0.970 -0.3873  0.3950  0.4179
 6403SOL     OW30667   3.812   1.563   8.759 -0.2726  0.1098 -0.4717
 6403SOL    HW130668   3.826   1.656   8.744 -0.4792  0.1627 -0.3322
 6403SOL    HW230669   3.723   1.558   8.725 -0.0894  1.0170 -1.0853
 6404SOL     OW30670   2.805   1.578   2.264 -0.1653 -0.2069  0.3039
 6404SOL    HW130671   2.729   1.596   2.319 -0.4101  0.0147 -0.1086
 6404SOL    HW230672   2.856   1.655   2.290  0.8222 -0.4995 -0.7704
 6405SOL     OW30673   1.922   3.080  10.650 -0.2938 -0.6319  0.5827
 6405SOL    HW130674   1.862   3.006  10.642 -2.1581  0.5722  3.0053
 6405SOL    HW230675   1.896   3.111  10.737 -0.0777 -1.6294  0.9928
 6406SOL     OW30676   1.707   0.702   3.859 -0.0156 -0.0135  0.6094
 6406SOL    HW130677   1.776   0.662   3.805  1.2370  0.7673  1.6157
 6406SOL    HW230678   1.756   0.775   3.897  0.2343  0.6952 -1.1004
 6407SOL     OW30679   0.083   3.488  14.964 -0.4679 -0.7984  0.1863
 6407SOL    HW130680   0.006   3.502  14.909 -0.0939  0.3585 -0.0624
 6407SOL    HW230681   0.125   3.414  14.921 -1.1092 -1.4358  0.6778
 6408SOL     OW30682   0.052   3.996   7.659  0.3022  0.4652 -0.2969
 6408SOL    HW130683   0.008   4.074   7.691  1.8608  1.2025  0.0602
 6408SOL    HW230684   0.112   3.984   7.732  1.2610 -1.5339 -1.3979
 6409SOL     OW30685   3.234   1.442   3.575 -0.4244  0.5046  0.0632
 6409SOL    HW130686   3.252   1.364   3.522 -1.4192 -0.0337  0.5228
 6409SOL    HW230687   3.145   1.465   3.549 -0.5871 -1.9047 -1.4669
 6410SOL     OW30688   3.250   0.548   5.857 -0.8773  0.5550 -0.6881
 6410SOL    HW130689   3.288   0.477   5.805  2.8011  1.5708  0.5939
 6410SOL    HW230690   3.219   0.512   5.941  2.9156 -0.9470  0.0943
 6411SOL     OW30691   0.001   2.686  11.626  0.1105  0.1781  0.0213
 6411SOL    HW130692   4.671   2.615  11.658  0.3801 -0.1373 -0.2055
 6411SOL    HW230693   0.026   2.645  11.543 -1.5099 -0.5209 -0.1218
 6412SOL     OW30694   2.187   1.345   4.432 -0.1903  0.0085 -0.4688
 6412SOL    HW130695   2.234   1.304   4.359 -0.3428 -0.1878 -0.4580
 6412SOL    HW230696   2.098   1.314   4.418  0.4578 -2.1470  0.1505
 6413SOL     OW30697   1.518   4.384  15.394  0.1278  0.4927  0.3596
 6413SOL    HW130698   1.437   4.405  15.439 -1.0677 -3.9285  0.2717
 6413SOL    HW230699   1.545   4.475  15.387 -1.0977  0.8689  0.5664
 6414SOL     OW30700   2.776   4.620   8.367  0.5097 -0.0579  0.2776
 6414SOL    HW130701   2.741   4.658   8.448  2.7730  1.1882  0.6851
 6414SOL    HW230702   2.722   4.541   8.366  2.3394 -1.3049 -0.9035
 6415SOL     OW30703   1.193   3.782  11.162  0.3499  0.1200 -0.2658
 6415SOL    HW130704   1.237   3.719  11.106 -3.4719 -2.0606 -0.8272
 6415SOL    HW230705   1.196   3.733  11.244 -0.0336  2.0187  0.8833
 6416SOL     OW30706   1.051   2.841   5.141  0.3312  0.1447 -0.8612
 6416SOL    HW130707   1.122   2.791   5.180 -0.4630  0.9447  1.5909
 6416SOL    HW230708   1.099   2.878   5.068  0.5892 -0.4398 -0.9860
 6417SOL     OW30709   4.406   0.055  14.024  0.1627  0.2806 -0.3856
 6417SOL    HW130710   4.402   0.077  14.117 -2.2924 -0.1943 -0.3797
 6417SOL    HW230711   4.500   0.072  14.012  0.2425  0.1432  0.0304
 6418SOL     OW30712   2.705   4.051   5.029  0.2988  0.3719  0.1494
 6418SOL    HW130713   2.628   4.013   5.071  1.1709 -0.4344  1.0255
 6418SOL    HW230714   2.753   3.969   5.022 -1.9271 -1.0103  1.2561
 6419SOL     OW30715   0.234   2.178  14.715  0.0957  0.1064 -0.1074
 6419SOL    HW130716   0.315   2.132  14.691 -0.7082 -0.9981 -0.7012
 6419SOL    HW230717   0.210   2.142  14.801 -0.0522  0.0529 -0.1717
 6420SOL     OW30718   1.935   2.867   4.196 -0.3158  0.7020  0.2387
 6420SOL    HW130719   1.886   2.829   4.123  0.0078  0.9697 -0.1134
 6420SOL    HW230720   2.007   2.806   4.211 -1.4047 -1.1107 -1.9117
 6421SOL     OW30721   2.142   3.422   7.632  0.0559 -0.1568  0.6034
 6421SOL    HW130722   2.091   3.452   7.707 -0.6048 -0.0301  0.1135
 6421SOL    HW230723   2.189   3.500   7.603 -3.9522  2.9313  2.3489
 6422SOL     OW30724   0.264   2.891   1.747  0.3083 -0.5668  0.0478
 6422SOL    HW130725   0.333   2.825   1.750  1.6456  0.7263 -2.0499
 6422SOL    HW230726   0.216   2.864   1.825  0.1858 -0.5644 -0.0249
 6423SOL     OW30727   2.083   1.184   7.827  0.4612  0.1002  0.1961
 6423SOL    HW130728   2.051   1.199   7.738 -2.1909  1.4777  1.4107
 6423SOL    HW230729   2.021   1.120   7.862  0.7633 -0.3182 -0.0298
 6424SOL     OW30730   2.881   3.683   2.911  0.0715 -0.2390 -0.3385
 6424SOL    HW130731   2.874   3.761   2.857 -0.2992 -0.3581 -0.4595
 6424SOL    HW230732   2.929   3.621   2.856 -1.1963 -1.7634  0.2588
 6425SOL     OW30733   1.503   0.930  12.706 -0.1505 -0.0709  0.2748
 6425SOL    HW130734   1.582   0.967  12.666 -1.5452  2.7120  0.1165
 6425SOL    HW230735   1.507   0.967  12.795 -1.0476 -0.1622  0.3471
 6426SOL     OW30736   3.084   3.216  14.589  0.1039 -0.3027  0.5151
 6426SOL    HW130737   3.099   3.209  14.683 -0.0060  3.3734  0.8103
 6426SOL    HW230738   3.158   3.268  14.560 -0.9784  1.4330  0.8727
 6427SOL     OW30739   4.539   3.253   2.214 -0.0126 -0.1897 -0.0367
 6427SOL    HW130740   4.490   3.299   2.282 -1.0541  0.0629 -0.9651
 6427SOL    HW230741   4.595   3.315   2.166  0.2897 -0.1057  0.4243
 6428SOL     OW30742   3.773   3.799   4.192 -0.5442 -0.1080 -0.0617
 6428SOL    HW130743   3.795   3.841   4.109  3.0675  1.2841  1.5713
 6428SOL    HW230744   3.858   3.797   4.236  0.1701 -0.6770 -1.4566
 6429SOL     OW30745   4.341   0.550  16.087  0.0492  0.3411 -0.0312
 6429SOL    HW130746   4.414   0.604  16.057  2.8591 -3.0041  0.7960
 6429SOL    HW230747   4.313   0.608  16.158 -0.6793 -2.9325  2.4071
 6430SOL     OW30748   1.916   3.117  15.161  0.0111  0.2637  0.0646
 6430SOL    HW130749   1.944   3.030  15.189 -0.9422  0.1784  0.7441
 6430SOL    HW230750   1.875   3.090  15.078 -1.6558  1.6738  0.4326
 6431SOL     OW30751   3.008   4.686  16.338  0.2254 -0.5039 -0.1276
 6431SOL    HW130752   3.012   0.054  16.361  1.0389 -0.8118  0.9325
 6431SOL    HW230753   3.085   4.686  16.281  0.3198  0.0643 -0.0020
 6432SOL     OW30754   1.690   2.942  15.339  0.1512 -0.2318 -0.6364
 6432SOL    HW130755   1.665   2.917  15.249  0.7744  1.9877 -1.4242
 6432SOL    HW230756   1.772   2.894  15.342 -0.8187 -1.8028  0.7256
 6433SOL     OW30757   4.383   4.224   2.425  0.4126 -0.3305  0.2364
 6433SOL    HW130758   4.466   4.209   2.380  0.2187 -0.0764 -0.1994
 6433SOL    HW230759   4.363   4.134   2.450 -0.8867 -0.4499 -1.2897
 6434SOL     OW30760   1.313   1.170   8.804 -0.2239 -0.0926  0.3597
 6434SOL    HW130761   1.231   1.176   8.854 -0.7560  0.9351 -0.6431
 6434SOL    HW230762   1.357   1.247   8.840  0.0133  0.4994 -1.2276
 6435SOL     OW30763   0.907   2.477  14.445  0.3584  0.4776  0.4874
 6435SOL    HW130764   0.923   2.568  14.422 -0.7272  0.1050 -1.7826
 6435SOL    HW230765   0.855   2.497  14.523 -0.4977  0.8926 -0.1978
 6436SOL     OW30766   1.910   3.019   6.730 -0.5858 -0.0888 -0.4659
 6436SOL    HW130767   1.924   3.096   6.786  0.1511  0.0863 -0.8934
 6436SOL    HW230768   1.814   3.012   6.731 -0.6151  0.3284  0.0616
 6437SOL     OW30769   4.173   4.670   3.763  0.3462  0.0355 -0.7156
 6437SOL    HW130770   4.206   0.016   3.818 -1.8736 -0.0816  0.7909
 6437SOL    HW230771   4.251   4.642   3.716  1.1814  0.8840  0.1458
 6438SOL     OW30772   1.512   2.351   4.760  0.2326 -0.1531 -1.1215
 6438SOL    HW130773   1.505   2.387   4.848 -0.8498  2.6092 -2.3199
 6438SOL    HW230774   1.418   2.344   4.743  0.2233 -1.2100 -0.5874
 6439SOL     OW30775   1.149   2.898   0.509  0.1445  0.4483 -0.5040
 6439SOL    HW130776   1.157   2.914   0.416 -2.5949 -1.3431 -1.0556
 6439SOL    HW230777   1.238   2.865   0.523 -0.3447 -0.7923 -0.3048
 6440SOL     OW30778   3.716   2.230   1.411  0.2474 -0.2118  0.2180
 6440SOL    HW130779   3.750   2.316   1.384 -3.2163  1.4452  1.0870
 6440SOL    HW230780   3.667   2.209   1.332  0.2800  2.3588 -0.5130
 6441SOL     OW30781   1.697   3.067   9.284 -0.0848  0.6187  0.3683
 6441SOL    HW130782   1.775   3.114   9.255  0.5820 -1.2527 -0.9013
 6441SOL    HW230783   1.707   2.981   9.243  2.0837  0.5753  0.9929
 6442SOL     OW30784   2.368   1.590   8.979 -0.1579 -0.2951  0.0883
 6442SOL    HW130785   2.414   1.520   9.026 -1.4026 -0.2890  1.2909
 6442SOL    HW230786   2.354   1.650   9.052 -2.3049  0.4261 -0.9144
 6443SOL     OW30787   0.888   2.124   5.963  0.3318 -0.0508 -0.1517
 6443SOL    HW130788   0.838   2.048   5.993 -1.0978  0.2137 -1.8375
 6443SOL    HW230789   0.894   2.124   5.867 -2.4536  0.7164 -0.3300
 6444SOL     OW30790   4.636   1.230   5.434 -0.2974  0.5050  0.0440
 6444SOL    HW130791   4.602   1.242   5.523  1.5575  2.3984  0.5156
 6444SOL    HW230792   4.614   1.139   5.414 -1.8581  0.9807 -0.4172
 6445SOL     OW30793   2.320   0.919  13.698 -0.1837 -0.5448  0.1535
 6445SOL    HW130794   2.313   1.012  13.721  0.1734 -0.6125  0.5508
 6445SOL    HW230795   2.262   0.920  13.623  2.5598 -1.8073 -1.9706
 6446SOL     OW30796   3.594   1.931   2.966 -0.9031 -0.4315 -0.4456
 6446SOL    HW130797   3.573   1.969   3.051  1.9048  0.1135  0.0043
 6446SOL    HW230798   3.525   1.979   2.920 -0.6922  0.2383 -0.0607
 6447SOL     OW30799   2.472   3.288   8.637  0.1937  0.0050  0.3885
 6447SOL    HW130800   2.415   3.232   8.585  0.1308 -0.9638  1.5091
 6447SOL    HW230801   2.493   3.217   8.698  0.4658 -0.5928 -0.4110
 6448SOL     OW30802   3.569   3.454   2.894  0.2921 -0.3662  0.1095
 6448SOL    HW130803   3.621   3.474   2.816  0.8460  2.5221  1.2299
 6448SOL    HW230804   3.619   3.399   2.954 -1.2711  0.3436  2.0678
 6449SOL     OW30805   1.428   1.148   1.578  0.1303 -0.1018  0.0236
 6449SOL    HW130806   1.370   1.078   1.610 -1.3057  0.6716 -0.8800
 6449SOL    HW230807   1.444   1.117   1.489  0.2430 -2.0857  0.7270
 6450SOL     OW30808   1.332   0.730   2.001 -0.2895  0.4978  0.2920
 6450SOL    HW130809   1.335   0.749   1.907 -1.0811  2.7061  0.7072
 6450SOL    HW230810   1.249   0.776   2.016  0.0513  0.7548  1.4077
 6451SOL     OW30811   3.018   2.976  11.334  0.5469 -0.4146  0.8081
 6451SOL    HW130812   3.018   3.046  11.269  0.0364 -1.3605 -0.2327
 6451SOL    HW230813   2.927   2.950  11.322 -0.0529  1.6543  0.9460
 6452SOL     OW30814   2.537   3.405   7.213  0.2470 -0.4915  0.1695
 6452SOL    HW130815   2.569   3.478   7.266  4.1681 -0.9414 -1.5642
 6452SOL    HW230816   2.442   3.417   7.221  0.2206  1.4548 -3.2235
 6453SOL     OW30817   1.324   3.483  11.198 -0.1056 -0.4436  0.5109
 6453SOL    HW130818   1.324   3.537  11.119 -1.4675 -1.2368 -0.0382
 6453SOL    HW230819   1.401   3.524  11.236 -2.7255  1.0685  4.1618
 6454SOL     OW30820   1.919   1.585   8.753 -0.3134 -0.0736 -0.5770
 6454SOL    HW130821   1.967   1.668   8.751 -1.4022  0.4858 -3.0523
 6454SOL    HW230822   1.992   1.529   8.782 -0.9952  0.6704  2.5025
 6455SOL     OW30823   2.926   0.586   6.308  0.2428 -0.0742 -0.1653
 6455SOL    HW130824   2.966   0.549   6.387  0.3814 -1.2625 -0.7953
 6455SOL    HW230825   2.912   0.676   6.338  0.4953  0.5813 -2.0195
 6456SOL     OW30826   0.904   3.862   6.945 -0.0005 -0.2496  0.0627
 6456SOL    HW130827   0.893   3.957   6.942 -1.2188 -0.3552  1.7021
 6456SOL    HW230828   0.997   3.852   6.965  0.2258  1.9874  0.1637
 6457SOL     OW30829   4.545   1.235   7.056  0.5224 -0.0167  0.2004
 6457SOL    HW130830   4.462   1.283   7.068  1.3240  1.7407 -1.2879
 6457SOL    HW230831   4.550   1.196   7.143  2.1031  0.8301  0.4910
 6458SOL     OW30832   2.839   3.521   7.705  0.2814 -0.0867  0.0030
 6458SOL    HW130833   2.876   3.607   7.685  1.1028 -0.3972  0.2146
 6458SOL    HW230834   2.860   3.467   7.629 -2.1525 -0.3300 -0.5111
 6459SOL     OW30835   3.500   0.069   3.061 -0.1325  0.5984  0.2994
 6459SOL    HW130836   3.497   0.163   3.042  0.8384  0.2927 -1.3260
 6459SOL    HW230837   3.476   0.063   3.154  0.0660  0.3170  0.3331
 6460SOL     OW30838   1.295   0.579  15.443 -0.4448 -0.3847  0.5470
 6460SOL    HW130839   1.333   0.655  15.400  1.6169 -1.9340 -0.3813
 6460SOL    HW230840   1.298   0.610  15.534  1.4736  1.4872 -0.1774
 6461SOL     OW30841   0.646   2.856   1.372  0.8136  0.7037  0.4499
 6461SOL    HW130842   0.705   2.901   1.431  0.2130 -0.7361  2.1747
 6461SOL    HW230843   0.601   2.923   1.320 -0.6060 -0.4760  0.1268
 6462SOL     OW30844   2.344   2.674  13.906  0.0232 -0.4237 -0.3643
 6462SOL    HW130845   2.343   2.578  13.906 -0.8273 -0.4132  0.3268
 6462SOL    HW230846   2.308   2.691  13.819 -0.7869 -1.0848 -0.1680
 6463SOL     OW30847   3.400   3.103   4.807  0.9594  0.1624  0.0861
 6463SOL    HW130848   3.363   3.073   4.724 -0.1876  0.7306  0.3959
 6463SOL    HW230849   3.397   3.198   4.797  1.7697  0.2240  0.4076
 6464SOL     OW30850   3.539   2.079   9.596 -0.1868  0.0705 -0.2255
 6464SOL    HW130851   3.605   2.147   9.611  1.0694 -0.9911 -0.9120
 6464SOL    HW230852   3.491   2.121   9.524 -1.9803  0.0295  0.9427
 6465SOL     OW30853   1.192   3.318   7.940 -0.0308  0.2392  0.4143
 6465SOL    HW130854   1.153   3.268   7.868 -0.6767  1.3503 -0.0050
 6465SOL    HW230855   1.195   3.405   7.901  0.0108 -0.1505 -0.4624
 6466SOL     OW30856   2.682   1.437   3.359  0.3263 -0.1863 -0.1038
 6466SOL    HW130857   2.592   1.439   3.328 -0.2001 -0.7430  1.3752
 6466SOL    HW230858   2.718   1.363   3.311  0.9738  1.2623 -1.8544
 6467SOL     OW30859   2.180   1.669   6.944 -0.2174 -0.1206  0.2830
 6467SOL    HW130860   2.183   1.741   6.880  3.0873  0.5082  1.1136
 6467SOL    HW230861   2.205   1.698   7.032 -1.4188  1.0197  0.2514
 6468SOL     OW30862   3.997   3.936   8.449 -0.5265 -0.7351  0.0909
 6468SOL    HW130863   3.965   4.010   8.501  1.6187  0.2988 -0.0644
 6468SOL    HW230864   3.935   3.945   8.377 -1.4601 -0.4415  0.9229
 6469SOL     OW30865   2.940   4.131  16.584  0.7514  0.1778  0.3163
 6469SOL    HW130866   3.019   4.162  16.628 -0.3641  0.2012  2.3048
 6469SOL    HW230867   2.982   4.099  16.504 -0.3480  1.1648 -0.6483
 6470SOL     OW30868   3.116   3.808   5.626 -0.6696  0.0359 -0.3097
 6470SOL    HW130869   3.157   3.851   5.701  1.5211 -0.9686 -0.9202
 6470SOL    HW230870   3.187   3.747   5.605 -1.8717 -1.9525  1.3749
 6471SOL     OW30871   3.126   0.567   8.994 -0.0189  0.1846  0.4054
 6471SOL    HW130872   3.181   0.635   8.957 -0.7450  1.4849  1.7007
 6471SOL    HW230873   3.147   0.499   8.930 -1.0577 -0.0214  0.2721
 6472SOL     OW30874   0.247   0.837  11.063  0.1813  0.1664 -0.0403
 6472SOL    HW130875   0.287   0.859  11.147 -1.9637  0.5147  0.8795
 6472SOL    HW230876   0.263   0.918  11.015  3.0729  1.4817  3.1546
 6473SOL     OW30877   3.749   1.709  12.852  0.4075  0.2773 -0.2078
 6473SOL    HW130878   3.813   1.774  12.821  2.2228 -0.8691  1.1227
 6473SOL    HW230879   3.675   1.743  12.802  0.8721  0.4593 -0.7848
 6474SOL     OW30880   4.489   3.875   6.687 -0.6697  0.1192 -0.5436
 6474SOL    HW130881   4.406   3.908   6.720 -1.3912 -0.3563 -1.8534
 6474SOL    HW230882   4.455   3.788   6.663  1.3604 -0.9349  0.4298
 6475SOL     OW30883   1.067   2.019   2.239 -0.3541 -0.7302 -0.2766
 6475SOL    HW130884   0.984   2.066   2.228 -0.5796 -1.4394 -1.6927
 6475SOL    HW230885   1.059   1.961   2.163  0.7865 -1.2250 -0.0116
 6476SOL     OW30886   0.769   2.848   6.710  0.1183 -0.1177  0.1955
 6476SOL    HW130887   0.682   2.877   6.681 -1.0273 -0.2967  3.4688
 6476SOL    HW230888   0.807   2.928   6.744 -0.9498 -0.2374  1.6775
 6477SOL     OW30889   2.576   1.060   1.008 -0.7194  0.0473  0.0271
 6477SOL    HW130890   2.590   1.132   1.070 -1.6464  0.1342  0.1376
 6477SOL    HW230891   2.655   1.008   1.020 -0.3042  0.0697 -2.6217
 6478SOL     OW30892   0.345   3.482   6.729  0.4671  0.1093 -0.2601
 6478SOL    HW130893   0.433   3.449   6.712  1.6979  1.2352  3.9105
 6478SOL    HW230894   0.361   3.526   6.812  0.4707  0.1446 -0.2799
 6479SOL     OW30895   1.669   0.789   1.788  0.4953 -0.2929  0.2614
 6479SOL    HW130896   1.579   0.807   1.760  0.6317  2.1049  1.3763
 6479SOL    HW230897   1.643   0.747   1.870  0.6677 -0.4571  0.2313
 6480SOL     OW30898   4.192   1.121   2.216  0.1659  0.0760  0.3501
 6480SOL    HW130899   4.185   1.068   2.295  0.8236  1.3659  1.2785
 6480SOL    HW230900   4.104   1.158   2.209  0.4169  0.3069 -1.5733
 6481SOL     OW30901   2.620   3.102   3.473 -0.2850 -0.1492  0.4148
 6481SOL    HW130902   2.682   3.117   3.402 -1.7634  1.5386 -0.5280
 6481SOL    HW230903   2.589   3.190   3.495 -0.1658 -0.3981  1.5836
 6482SOL     OW30904   4.313   0.652   9.455 -0.1104  0.1830 -0.3306
 6482SOL    HW130905   4.392   0.654   9.508 -0.8479 -1.1352  0.8093
 6482SOL    HW230906   4.296   0.744   9.432 -0.4687 -0.0714 -1.0923
 6483SOL     OW30907   1.069   0.666   8.347 -0.0913 -0.4636 -0.1025
 6483SOL    HW130908   1.008   0.661   8.421  0.4762 -1.0694  0.3217
 6483SOL    HW230909   1.086   0.760   8.353 -0.2059 -0.5712  2.0202
 6484SOL     OW30910   4.302   2.733   5.778  0.1833 -0.3661 -0.1304
 6484SOL    HW130911   4.239   2.692   5.837 -0.5451  0.1820 -0.5316
 6484SOL    HW230912   4.329   2.660   5.721  2.3030 -0.0022  0.4168
 6485SOL     OW30913   0.097   4.482  10.752 -0.1921  0.1655  0.0097
 6485SOL    HW130914   0.146   4.449  10.827  0.3608 -2.5153 -1.5496
 6485SOL    HW230915   0.135   4.434  10.678  1.1619  0.8159  0.2969
 6486SOL     OW30916   3.244   4.316   8.382  0.3547 -0.2940  0.7012
 6486SOL    HW130917   3.175   4.379   8.359  1.2502  0.0583 -1.0512
 6486SOL    HW230918   3.221   4.292   8.472 -0.1243 -1.3600  0.3009
 6487SOL     OW30919   4.366   1.615   1.233  0.2341  0.1666  0.0300
 6487SOL    HW130920   4.339   1.616   1.325  1.1610  1.3748  0.2831
 6487SOL    HW230921   4.461   1.626   1.234  0.1077  1.1007  2.3183
 6488SOL     OW30922   1.967   2.602   9.075  0.0898  0.2559 -0.0225
 6488SOL    HW130923   1.971   2.518   9.121 -2.3005  0.4552  0.5248
 6488SOL    HW230924   1.903   2.573   9.011 -1.7320 -1.2329  2.4466
 6489SOL     OW30925   0.333   0.043  17.432 -0.0741  0.3623  0.3018
 6489SOL    HW130926   0.248   0.078  17.457  0.0331 -0.4429  1.8021
 6489SOL    HW230927   0.383   0.059  17.512 -0.4158 -1.9272  0.9884
 6490SOL     OW30928   3.849   4.034   6.567 -0.0285  0.1751 -0.1221
 6490SOL    HW130929   3.842   3.964   6.633 -2.0886 -0.1501 -0.6941
 6490SOL    HW230930   3.943   4.047   6.555 -0.0240  0.0460 -0.2374
 6491SOL     OW30931   2.723   3.377   8.522 -0.4857  0.6744 -0.2710
 6491SOL    HW130932   2.670   3.319   8.577  0.2385  1.1875  0.9671
 6491SOL    HW230933   2.656   3.427   8.476 -0.8349 -0.2531 -0.7634
 6492SOL     OW30934   2.709   2.028  15.304 -0.1041  0.4502 -0.0415
 6492SOL    HW130935   2.631   2.067  15.343  0.1685  1.0474 -0.1029
 6492SOL    HW230936   2.703   1.936  15.333 -0.6258  0.0694 -1.3793
 6493SOL     OW30937   1.584   1.163  17.102 -0.0289  0.7734 -0.0698
 6493SOL    HW130938   1.602   1.225  17.173  1.6762  0.7041 -0.4382
 6493SOL    HW230939   1.525   1.203  17.038 -1.1264  0.9734  1.0717
 6494SOL     OW30940   0.421   1.730   6.704 -0.3827  0.2363 -0.2987
 6494SOL    HW130941   0.456   1.812   6.668 -1.7598  0.6809 -0.6215
 6494SOL    HW230942   0.408   1.679   6.624  1.6641 -1.5750  0.5304
 6495SOL     OW30943   3.024   2.623  10.248 -0.3130  0.4592  0.8832
 6495SOL    HW130944   2.967   2.696  10.269  0.2038  0.6895  1.4748
 6495SOL    HW230945   3.018   2.561  10.321 -0.8342 -1.5959 -0.9013
 6496SOL     OW30946   3.895   3.625   7.328  0.0453 -0.0341 -0.1112
 6496SOL    HW130947   3.942   3.619   7.411 -2.4672 -2.5401  1.1248
 6496SOL    HW230948   3.911   3.541   7.285  3.2452  1.2204 -1.4200
 6497SOL     OW30949   0.498   0.658  16.992 -0.2176 -0.1623  1.0176
 6497SOL    HW130950   0.532   0.571  17.012 -1.0853 -0.4527  1.2326
 6497SOL    HW230951   0.410   0.622  16.981 -0.3025  0.1917  0.5034
 6498SOL     OW30952   0.103   2.305   3.085 -0.5248  0.1599  0.3692
 6498SOL    HW130953   0.046   2.287   3.010  0.8574 -0.2961 -0.5838
 6498SOL    HW230954   0.159   2.228   3.079 -1.0646  0.0092 -3.0696
 6499SOL     OW30955   3.677   0.067   2.106 -0.3171  0.2280 -0.0428
 6499SOL    HW130956   3.742   0.005   2.142 -1.0521 -1.0599 -0.9355
 6499SOL    HW230957   3.620   0.084   2.181  1.9450 -0.3678  1.8082
 6500SOL     OW30958   2.479   1.966   8.409 -0.1524  0.7371 -0.3826
 6500SOL    HW130959   2.567   1.977   8.444 -0.8482  2.2330  0.9261
 6500SOL    HW230960   2.464   1.876   8.381  1.7522  0.7969 -1.5744
 6501SOL     OW30961   2.378   2.795  14.132 -0.4968 -0.9223 -0.2367
 6501SOL    HW130962   2.434   2.851  14.079 -1.4677  2.7325  2.6185
 6501SOL    HW230963   2.345   2.741  14.060 -1.1318  0.9996 -1.3700
 6502SOL     OW30964   4.685   1.003   1.739  0.7315 -0.2281  0.2391
 6502SOL    HW130965   4.688   1.083   1.791 -0.9507 -0.1701  0.2468
 6502SOL    HW230966   0.042   1.007   1.690  0.0077 -0.5160 -1.0138
 6503SOL     OW30967   4.705   3.768   3.432  0.5001 -0.2552  0.6346
 6503SOL    HW130968   0.069   3.732   3.425 -0.0053 -0.9199 -2.4940
 6503SOL    HW230969   4.661   3.698   3.479 -0.9985 -0.1144 -0.5595
 6504SOL     OW30970   3.734   0.528   5.604 -0.1316  0.0363 -0.1322
 6504SOL    HW130971   3.791   0.590   5.559 -1.4515  2.6108  1.6619
 6504SOL    HW230972   3.712   0.471   5.530 -0.3651 -0.5919  0.4169
 6505SOL     OW30973   3.918   1.199   9.938 -0.0941 -0.4257  0.5930
 6505SOL    HW130974   3.940   1.291   9.956  1.3668 -1.0880  2.2320
 6505SOL    HW230975   3.962   1.164  10.016  2.8197  1.7008 -0.0670
 6506SOL     OW30976   1.572   1.049   8.582  0.4339 -0.4854 -0.2978
 6506SOL    HW130977   1.567   1.042   8.677  2.5975 -0.6873 -0.2037
 6506SOL    HW230978   1.577   0.959   8.549  0.3964 -0.1090 -1.3348
 6507SOL     OW30979   0.861   0.775   7.022 -0.5873 -0.3910  0.2097
 6507SOL    HW130980   0.918   0.805   7.093 -1.9965  0.1482  1.1408
 6507SOL    HW230981   0.820   0.858   6.997 -2.0441 -1.8004 -2.0826
 6508SOL     OW30982   2.762   4.571  16.336 -0.5305  0.3045 -0.0600
 6508SOL    HW130983   2.857   4.578  16.325 -0.8430 -1.1337 -3.9686
 6508SOL    HW230984   2.757   4.492  16.389  2.0966  0.4104  0.3415
 6509SOL     OW30985   4.680   4.318   2.562  0.3503 -0.1955 -0.1197
 6509SOL    HW130986   4.682   4.393   2.622  2.4469  1.1218 -1.8058
 6509SOL    HW230987   4.648   4.244   2.614  3.4354 -0.6788  1.0971
 6510SOL     OW30988   2.092   2.584   8.733  0.6477 -0.6623 -0.2010
 6510SOL    HW130989   2.165   2.528   8.762  1.2587 -0.1286 -0.7202
 6510SOL    HW230990   2.062   2.630   8.811  0.0345  0.8584 -1.3536
 6511SOL     OW30991   0.808   4.583   7.682 -0.0476  1.3938  0.4560
 6511SOL    HW130992   0.759   4.636   7.746  1.2107  1.1837  1.6000
 6511SOL    HW230993   0.765   4.498   7.690 -1.0952  1.9743  1.0193
 6512SOL     OW30994   1.263   3.994   5.500 -0.0279  0.5412  0.0412
 6512SOL    HW130995   1.335   3.950   5.456  1.1072  0.7958  1.6301
 6512SOL    HW230996   1.304   4.071   5.539 -0.8642  0.4203  1.1572
 6513SOL     OW30997   3.477   1.119   2.477  0.2362  0.1021 -0.3665
 6513SOL    HW130998   3.479   1.110   2.381  0.3705 -2.0987 -0.1643
 6513SOL    HW230999   3.415   1.192   2.480 -0.6027 -0.6946  1.3732
 6514SOL     OW31000   2.670   1.247   3.083  0.0639 -0.1360  0.1766
 6514SOL    HW131001   2.752   1.284   3.049 -0.6756  3.3106  2.1482
 6514SOL    HW231002   2.702   1.202   3.161 -0.1892  0.1633  0.4522
 6515SOL     OW31003   0.999   0.657  17.537  0.3396 -0.4295  0.9112
 6515SOL    HW131004   1.072   0.699  17.491 -0.7957  1.7433  1.0683
 6515SOL    HW231005   1.037   0.569  17.535 -1.9504 -1.3978 -0.2082
 6516SOL     OW31006   2.939   2.832   7.321  0.3288 -0.2461  0.0759
 6516SOL    HW131007   3.028   2.865   7.332  0.5254 -0.3360 -1.2820
 6516SOL    HW231008   2.891   2.905   7.280  0.7083  0.3305  0.6487
 6517SOL     OW31009   0.909   1.497  17.166  0.0480  0.7352 -0.0281
 6517SOL    HW131010   0.912   1.589  17.143  0.0110  0.9790  0.9677
 6517SOL    HW231011   0.869   1.497  17.253  1.5392  0.3617  0.6598
 6518SOL     OW31012   0.701   2.669  13.417  0.5646  0.1579  0.0793
 6518SOL    HW131013   0.725   2.639  13.504  0.6471  3.6034  1.2487
 6518SOL    HW231014   0.670   2.754  13.447 -0.9629 -0.5501  0.4870
 6519SOL     OW31015   2.035   0.325   5.411  0.2109  0.6136 -0.0772
 6519SOL    HW131016   1.976   0.295   5.342  0.0510 -1.7199  1.0635
 6519SOL    HW231017   2.114   0.280   5.383  0.6301  0.6513  1.0542
 6520SOL     OW31018   4.648   2.760   6.332  0.4042  0.8254 -0.5300
 6520SOL    HW131019   4.573   2.707   6.307  0.2293  0.8910 -0.1430
 6520SOL    HW231020   4.713   2.689   6.333  0.6089  1.0204 -0.0159
 6521SOL     OW31021   4.315   2.691   1.296  0.6612 -0.2227  0.2515
 6521SOL    HW131022   4.336   2.746   1.371 -1.2513 -0.1355  0.7296
 6521SOL    HW231023   4.312   2.603   1.335  0.2188  0.0595  0.8513
 6522SOL     OW31024   1.216   2.364   6.755 -0.2862  0.3925  0.2936
 6522SOL    HW131025   1.176   2.399   6.675 -0.2689 -1.5510 -0.5677
 6522SOL    HW231026   1.142   2.377   6.814  0.5810 -0.0776  1.4924
 6523SOL     OW31027   2.841   0.990  11.471 -0.2212 -0.3798  0.0791
 6523SOL    HW131028   2.869   0.899  11.482 -1.1681 -0.5237  1.3284
 6523SOL    HW231029   2.923   1.037  11.487 -0.6439 -0.0339  1.2647
 6524SOL     OW31030   1.294   1.319   4.103 -1.0711  0.1802 -0.5490
 6524SOL    HW131031   1.301   1.364   4.188 -0.1941  1.0472 -1.0741
 6524SOL    HW231032   1.252   1.378   4.040  1.6170  2.5748 -0.1236
 6525SOL     OW31033   1.640   0.304   2.586  0.1362  0.5814  0.9246
 6525SOL    HW131034   1.727   0.285   2.552 -0.8768 -2.3184 -0.1174
 6525SOL    HW231035   1.606   0.357   2.514 -2.4338 -0.2174  1.5435
 6526SOL     OW31036   1.509   2.665   7.263  0.0880 -0.8070  0.7679
 6526SOL    HW131037   1.547   2.577   7.270 -0.8154 -1.1194  1.8458
 6526SOL    HW231038   1.584   2.723   7.272 -1.8356  1.7269  0.3548
 6527SOL     OW31039   3.735   2.392  15.494 -0.2743 -0.1671 -0.0746
 6527SOL    HW131040   3.652   2.346  15.501 -0.3397 -0.0065  0.1960
 6527SOL    HW231041   3.750   2.411  15.587 -1.2939  0.4429 -0.0350
 6528SOL     OW31042   4.681   4.711   5.733 -0.3138  0.5029  0.3123
 6528SOL    HW131043   4.663   0.005   5.641 -0.1757 -0.4411  0.0910
 6528SOL    HW231044   0.018   4.638   5.730  0.0798  0.8139  0.9007
 6529SOL     OW31045   2.402   3.483   9.760 -0.1275 -0.6603  0.0344
 6529SOL    HW131046   2.483   3.436   9.779  1.9617  2.7731 -0.3103
 6529SOL    HW231047   2.349   3.470   9.838  0.5839 -0.6450  0.5232
 6530SOL     OW31048   1.718   3.499   7.903  0.1877 -0.1955 -0.3006
 6530SOL    HW131049   1.708   3.564   7.833 -0.7181 -0.0683 -0.0508
 6530SOL    HW231050   1.751   3.546   7.980 -2.6790 -0.4382  1.0582
 6531SOL     OW31051   4.375   2.177   5.336 -0.1748 -0.2561 -0.4156
 6531SOL    HW131052   4.396   2.121   5.262 -1.5638 -0.7219 -0.4597
 6531SOL    HW231053   4.401   2.118   5.406 -2.3764 -0.7411 -0.0159
 6532SOL     OW31054   0.847   1.109   8.235 -0.0251 -0.0607 -1.2889
 6532SOL    HW131055   0.917   1.146   8.181  2.3993  0.1996  1.9633
 6532SOL    HW231056   0.810   1.040   8.181  0.9785 -2.0364  0.5298
 6533SOL     OW31057   0.751   0.535   4.896  0.2391 -0.2525 -0.0045
 6533SOL    HW131058   0.829   0.537   4.840  1.0017 -1.2056  1.0248
 6533SOL    HW231059   0.707   0.460   4.855 -2.6231  2.4711 -1.9105
 6534SOL     OW31060   4.401   1.076   9.457 -0.0970  0.3920  0.0686
 6534SOL    HW131061   4.382   1.137   9.385  0.8224 -1.2390 -1.5327
 6534SOL    HW231062   4.495   1.070   9.441 -0.3317 -1.6546 -0.5275
 6535SOL     OW31063   3.924   0.662   9.239 -0.6335  0.4493 -0.5199
 6535SOL    HW131064   3.914   0.709   9.321 -0.8253 -0.3048 -0.1068
 6535SOL    HW231065   4.012   0.630   9.258 -0.2986  2.3198  1.0708
 6536SOL     OW31066   0.126   1.683   4.213  0.0391  0.2208  0.0663
 6536SOL    HW131067   0.181   1.749   4.257 -0.7699 -0.2517  1.7864
 6536SOL    HW231068   0.083   1.646   4.290  1.7711  1.1702  1.5063
 6537SOL     OW31069   2.925   4.390   2.489  0.2519 -0.3687 -0.1413
 6537SOL    HW131070   2.935   4.477   2.449  3.2886 -1.8913 -2.6889
 6537SOL    HW231071   2.895   4.334   2.417 -0.8255  2.0511 -1.6077
 6538SOL     OW31072   3.345   1.280  11.304 -0.0085 -0.0430  0.2658
 6538SOL    HW131073   3.266   1.227  11.292  0.5713 -0.1952 -3.0832
 6538SOL    HW231074   3.340   1.340  11.229  1.9163 -0.6275 -0.3397
 6539SOL     OW31075   2.403   1.424  13.723 -0.0659 -0.1032  0.0653
 6539SOL    HW131076   2.407   1.505  13.673  1.7755  0.3322  0.9211
 6539SOL    HW231077   2.431   1.453  13.810  0.5099 -0.0661 -0.1345
 6540SOL     OW31078   3.481   1.145   7.468  0.2104 -0.6461 -0.4218
 6540SOL    HW131079   3.498   1.079   7.535 -0.0201 -1.0243 -0.7312
 6540SOL    HW231080   3.398   1.106   7.439  0.6821 -1.0927 -1.1765
 6541SOL     OW31081   3.708   2.121  12.075 -0.0670  0.0232 -0.3620
 6541SOL    HW131082   3.733   2.169  12.153  0.3914 -0.1030 -0.4274
 6541SOL    HW231083   3.745   2.035  12.094  0.0075  0.2281  0.4061
 6542SOL     OW31084   1.706   0.140   4.176 -0.0143  0.1333 -0.2017
 6542SOL    HW131085   1.688   0.224   4.133  1.9910 -0.1450 -1.5554
 6542SOL    HW231086   1.757   0.100   4.106 -1.2528 -2.6303  0.4455
 6543SOL     OW31087   3.807   2.884  14.235  0.7356 -0.5339 -0.3022
 6543SOL    HW131088   3.896   2.899  14.204  1.5609 -1.2375  1.7369
 6543SOL    HW231089   3.768   2.969  14.211  0.8290 -0.3849  0.0767
 6544SOL     OW31090   0.012   4.622  11.557  0.0467  0.1491 -0.7354
 6544SOL    HW131091   0.066   4.691  11.595  0.3858 -1.0066  0.8789
 6544SOL    HW231092   4.656   4.671  11.543  0.9494  2.0348  0.6642
 6545SOL     OW31093   2.709   1.883   5.818 -0.0507 -0.1736 -0.1554
 6545SOL    HW131094   2.800   1.879   5.850 -0.2495 -2.5464  0.1579
 6545SOL    HW231095   2.667   1.885   5.903  1.3984  1.1664  0.5253
 6546SOL     OW31096   3.562   2.470   3.496  0.8958 -0.4543 -0.4043
 6546SOL    HW131097   3.530   2.499   3.410  1.6427 -1.5395 -1.0501
 6546SOL    HW231098   3.508   2.392   3.504 -0.2329  0.5952  2.2989
 6547SOL     OW31099   1.807   2.282   1.667  0.0820 -0.1386 -0.1320
 6547SOL    HW131100   1.728   2.297   1.615 -0.4947  0.0044  0.7639
 6547SOL    HW231101   1.857   2.355   1.631 -2.9644  1.2028 -1.7001
 6548SOL     OW31102   0.317   4.536  12.761 -0.0186 -0.4819  0.7091
 6548SOL    HW131103   0.344   4.615  12.714 -1.9233  0.0244  0.4832
 6548SOL    HW231104   0.400   4.489  12.768  1.1024  1.0209 -2.7642
 6549SOL     OW31105   0.538   3.636   2.291  0.0157 -0.3976 -0.0880
 6549SOL    HW131106   0.464   3.600   2.243 -0.7959  1.8607 -0.4980
 6549SOL    HW231107   0.555   3.701   2.223 -0.1252  0.3941  0.6420
 6550SOL     OW31108   2.101   0.239   4.964 -0.2524 -0.3987 -0.3849
 6550SOL    HW131109   2.066   0.291   4.891  1.1394  0.7286 -0.2624
 6550SOL    HW231110   2.041   0.167   4.950  0.1051 -0.8360  0.3186
 6551SOL     OW31111   0.532   3.692   4.003 -0.0152 -0.3002  0.1893
 6551SOL    HW131112   0.458   3.743   3.969  0.7307  0.0135 -0.9402
 6551SOL    HW231113   0.551   3.636   3.928  1.0444 -2.0014  1.7300
 6552SOL     OW31114   0.530   4.432   5.215 -0.3085 -0.5624  0.0101
 6552SOL    HW131115   0.479   4.495   5.266 -2.3587 -1.2851 -1.1478
 6552SOL    HW231116   0.588   4.386   5.276 -1.3456 -1.6582  0.1685
 6553SOL     OW31117   1.170   4.142   6.891  0.1864  0.6158 -0.3144
 6553SOL    HW131118   1.183   4.229   6.930 -1.2571  1.0457 -0.8132
 6553SOL    HW231119   1.078   4.137   6.865 -0.2236  2.6481  0.7552
 6554SOL     OW31120   3.801   3.182   5.677  0.2183 -0.5349 -0.6537
 6554SOL    HW131121   3.857   3.256   5.651  1.4423 -1.2385  0.0234
 6554SOL    HW231122   3.716   3.209   5.640  0.8972  1.4392 -0.7740
 6555SOL     OW31123   0.409   3.109  10.713  0.5331 -0.4661  0.7636
 6555SOL    HW131124   0.441   3.173  10.649  1.9741 -0.3175  1.6346
 6555SOL    HW231125   0.488   3.089  10.763  2.0707 -1.9264 -2.3015
 6556SOL     OW31126   1.076   0.430   1.773 -0.6502 -0.2343 -0.1415
 6556SOL    HW131127   1.119   0.353   1.809 -0.6478 -0.5747 -0.8697
 6556SOL    HW231128   1.012   0.398   1.709  0.3091  2.2742 -2.3854
 6557SOL     OW31129   0.100   1.364   6.834  0.3640  0.1125  0.0422
 6557SOL    HW131130   0.040   1.376   6.760  1.4606  0.1232 -0.8530
 6557SOL    HW231131   0.052   1.408   6.903  1.6197 -0.6214  1.3784
 6558SOL     OW31132   0.266   1.471   5.823 -0.4490 -0.3804  0.1080
 6558SOL    HW131133   0.266   1.530   5.898  1.0742  0.2522 -0.3883
 6558SOL    HW231134   0.230   1.392   5.864 -1.2011  0.2969  0.7291
 6559SOL     OW31135   4.317   4.571   4.834  0.8582  0.5293  0.0536
 6559SOL    HW131136   4.363   4.545   4.753 -2.9743  0.8512 -2.2134
 6559SOL    HW231137   4.256   4.639   4.806  0.9106 -0.7540 -3.2765
 6560SOL     OW31138   4.379   2.647   0.858 -0.3969  0.0979  0.0084
 6560SOL    HW131139   4.308   2.584   0.868 -0.7996  0.4238 -0.8107
 6560SOL    HW231140   4.391   2.675   0.949  2.4091 -2.0749  0.2913
 6561SOL     OW31141   0.271   0.704   6.662 -0.0093 -0.3724  0.0072
 6561SOL    HW131142   0.319   0.710   6.745 -0.2463 -1.2834  0.2099
 6561SOL    HW231143   0.239   0.614   6.664 -1.4244  0.1222 -0.4694
 6562SOL     OW31144   2.113   1.715   7.785 -0.1136 -0.5171 -0.0935
 6562SOL    HW131145   2.127   1.620   7.781  6.3397  0.5362 -1.8872
 6562SOL    HW231146   2.087   1.723   7.877 -1.8974 -2.0040 -0.4635
 6563SOL     OW31147   1.277   4.517   8.199  0.1187 -0.0579  0.2511
 6563SOL    HW131148   1.301   4.571   8.124 -3.7544  0.5308 -0.5407
 6563SOL    HW231149   1.185   4.494   8.186  0.2589 -1.7044  2.1685
 6564SOL     OW31150   3.653   0.517   3.376 -0.2753 -0.3176 -0.1408
 6564SOL    HW131151   3.696   0.483   3.298  0.6083 -0.3822  0.3711
 6564SOL    HW231152   3.731   0.537   3.428  0.5284  2.7013 -2.4846
 6565SOL     OW31153   2.840   0.910   6.817 -0.2055 -0.8201  0.3095
 6565SOL    HW131154   2.809   0.999   6.833  0.7697 -0.4875  0.3240
 6565SOL    HW231155   2.907   0.925   6.750  1.6799 -2.7064  1.7780
 6566SOL     OW31156   3.048   3.693  15.135  0.1160  0.0153  0.0463
 6566SOL    HW131157   3.000   3.746  15.072 -2.1779 -0.9095  1.0068
 6566SOL    HW231158   3.031   3.750  15.210  0.1026  1.0966 -0.7788
 6567SOL     OW31159   3.066   1.627   4.932  0.7402 -0.4447 -0.5649
 6567SOL    HW131160   3.150   1.583   4.920  0.5149 -1.3187  1.1189
 6567SOL    HW231161   3.057   1.624   5.027 -0.9946  1.8721 -0.6472
 6568SOL     OW31162   2.438   3.767   1.021 -0.1081 -0.0077 -0.1933
 6568SOL    HW131163   2.360   3.721   1.052  0.1658  0.6625  1.4902
 6568SOL    HW231164   2.459   3.713   0.945  1.5562  1.5698 -0.8618
 6569SOL     OW31165   0.059   0.275   1.109 -0.3201  0.1492  0.3365
 6569SOL    HW131166   0.041   0.253   1.017 -0.8126 -1.2124  0.7637
 6569SOL    HW231167   0.033   0.196   1.156 -0.1338 -0.1017  0.0194
 6570SOL     OW31168   3.182   2.007  15.195  0.1527  0.4033 -0.2657
 6570SOL    HW131169   3.144   1.923  15.223 -1.5800  1.1858 -0.2551
 6570SOL    HW231170   3.105   2.059  15.217  0.3910  0.7690 -0.3043
 6571SOL     OW31171   3.593   4.523   4.435 -0.5404  0.8005  0.0845
 6571SOL    HW131172   3.633   4.585   4.373 -2.0548  0.5712 -1.1242
 6571SOL    HW231173   3.503   4.556   4.430 -1.4675 -1.8206 -0.4678
 6572SOL     OW31174   0.943   3.199   5.124 -0.3881  0.0748  0.0818
 6572SOL    HW131175   0.852   3.193   5.094  0.2867  0.8923 -2.1360
 6572SOL    HW231176   0.990   3.177   5.043 -2.6118 -3.4258 -0.2735
 6573SOL     OW31177   2.618   0.667   3.415 -0.9258  0.1667  0.4583
 6573SOL    HW131178   2.595   0.648   3.506 -0.8955  0.6114  0.5568
 6573SOL    HW231179   2.696   0.721   3.426  0.0328 -0.9829 -0.5929
 6574SOL     OW31180   4.516   0.072  11.552 -0.1007 -0.1503 -0.1407
 6574SOL    HW131181   4.561   0.082  11.636  0.5641 -1.9294 -0.2817
 6574SOL    HW231182   4.428   0.055  11.585 -0.7209 -0.0357 -1.7040
 6575SOL     OW31183   3.091   1.054   3.099 -0.2253  0.1261 -0.5321
 6575SOL    HW131184   3.153   1.021   3.034 -1.1319  0.1893 -1.4235
 6575SOL    HW231185   3.013   1.033   3.047  0.5921 -0.1824 -1.6426
 6576SOL     OW31186   1.264   0.065   8.855  0.4829 -0.2806 -0.0820
 6576SOL    HW131187   1.169   0.080   8.854  0.5833  0.3653  0.2388
 6576SOL    HW231188   1.288   0.093   8.943 -2.5628  2.0716 -0.0277
 6577SOL     OW31189   3.536   1.352   8.616 -0.2635 -0.1021  0.8781
 6577SOL    HW131190   3.605   1.299   8.656 -0.4048 -1.0812 -0.2106
 6577SOL    HW231191   3.530   1.436   8.663  1.3500 -0.2926  1.4172
 6578SOL     OW31192   0.660   2.180   2.664  0.6858  0.1105 -0.0563
 6578SOL    HW131193   0.589   2.178   2.728 -0.0124 -1.5606 -0.8910
 6578SOL    HW231194   0.689   2.270   2.678  0.6400  0.1756 -0.3756
 6579SOL     OW31195   4.302   4.105   3.211 -0.2558 -0.8523 -0.0585
 6579SOL    HW131196   4.242   4.031   3.215  1.7879 -2.4077  2.2401
 6579SOL    HW231197   4.387   4.061   3.221 -0.2583 -0.5886  1.1844
 6580SOL     OW31198   3.769   2.545   3.174  0.2119  0.5063 -0.2815
 6580SOL    HW131199   3.819   2.590   3.106 -1.0390 -0.4113 -1.8135
 6580SOL    HW231200   3.835   2.501   3.227  2.4927  1.3913 -2.4006
 6581SOL     OW31201   1.037   1.584   4.329  0.9776  0.3478  0.4863
 6581SOL    HW131202   1.119   1.538   4.348  0.8333  0.0625  0.4148
 6581SOL    HW231203   1.008   1.537   4.251 -0.7397  0.4818  1.0500
 6582SOL     OW31204   1.370   2.081  11.725 -0.2423 -0.0177 -0.0449
 6582SOL    HW131205   1.464   2.068  11.716 -0.6047 -2.2694 -0.3621
 6582SOL    HW231206   1.342   2.004  11.678 -0.6294 -0.7408  1.3667
 6583SOL     OW31207   3.496   1.275   5.364  0.4917  0.0687 -0.3221
 6583SOL    HW131208   3.450   1.194   5.342 -1.0070  0.5443  0.9717
 6583SOL    HW231209   3.477   1.274   5.458  1.6794 -1.5977 -0.1205
 6584SOL     OW31210   4.135   2.493  12.614 -0.0381  0.7395  0.2923
 6584SOL    HW131211   4.102   2.580  12.639 -0.7552  0.4157  0.4721
 6584SOL    HW231212   4.206   2.495  12.679 -1.2504 -0.2292  1.6579
 6585SOL     OW31213   0.068   3.051   1.927  0.1329 -0.1761 -0.6649
 6585SOL    HW131214   0.117   3.045   2.009  0.4953 -1.2392 -0.9534
 6585SOL    HW231215   0.131   3.078   1.860 -0.5811 -1.6572 -1.9518
 6586SOL     OW31216   0.910   0.817   2.644 -0.0259 -0.7700 -0.0060
 6586SOL    HW131217   0.938   0.732   2.679 -0.5068 -1.6487 -1.7688
 6586SOL    HW231218   0.817   0.817   2.667  0.3909  1.4408  1.6268
 6587SOL     OW31219   4.277   4.104   7.188  0.3692 -0.0301 -0.0864
 6587SOL    HW131220   4.263   4.027   7.132  0.2532  0.8291 -1.2415
 6587SOL    HW231221   4.289   4.174   7.124 -1.3439  1.2529  0.9878
 6588SOL     OW31222   0.683   0.381  13.442 -0.5229  0.4769 -0.5767
 6588SOL    HW131223   0.725   0.304  13.480  0.4524  0.0417 -2.5732
 6588SOL    HW231224   0.605   0.333  13.414 -0.9973  0.6766  0.3977
 6589SOL     OW31225   3.221   1.694  11.076  0.2966 -0.2426 -0.9592
 6589SOL    HW131226   3.223   1.782  11.039 -0.7467  0.2728  0.1974
 6589SOL    HW231227   3.135   1.663  11.048  0.1092 -2.3215  1.8584
 6590SOL     OW31228   2.224   0.811   5.876 -0.5792 -0.3569  0.5368
 6590SOL    HW131229   2.214   0.716   5.868 -2.4529 -0.2710  1.9590
 6590SOL    HW231230   2.319   0.814   5.863 -0.8315  3.2805 -0.3231
 6591SOL     OW31231   2.794   1.187   3.330  0.3284 -0.1870  0.5233
 6591SOL    HW131232   2.736   1.133   3.383 -0.9687 -0.8408 -1.5331
 6591SOL    HW231233   2.873   1.136   3.345  0.5594  0.3585  1.1550
 6592SOL     OW31234   2.014   2.468   2.642  0.4358  0.1206 -0.3139
 6592SOL    HW131235   1.968   2.387   2.619  0.4024  0.3118 -0.9167
 6592SOL    HW231236   2.097   2.424   2.662  1.2948  2.6517  1.7804
 6593SOL     OW31237   3.852   4.304  10.013 -0.0997 -0.5274  0.1003
 6593SOL    HW131238   3.840   4.382  10.068  0.6135  0.8598 -1.7083
 6593SOL    HW231239   3.854   4.344   9.926  1.0584 -2.4645 -0.7602
 6594SOL     OW31240   1.521   0.365   7.282  0.2379  0.1262 -0.1434
 6594SOL    HW131241   1.566   0.282   7.297 -0.4573 -0.2923 -0.3819
 6594SOL    HW231242   1.585   0.428   7.317 -0.0816 -0.5270  1.6311
 6595SOL     OW31243   3.771   0.302  11.118  0.8853 -0.1570  0.2931
 6595SOL    HW131244   3.722   0.233  11.164  0.6929  0.7933  1.5350
 6595SOL    HW231245   3.771   0.259  11.033  1.2707  1.1414 -0.3566
 6596SOL     OW31246   3.576   3.960   2.272  0.1639 -0.5853  0.3015
 6596SOL    HW131247   3.657   3.998   2.237 -0.1332 -1.5847 -1.4890
 6596SOL    HW231248   3.514   4.019   2.230  0.9439 -0.3738 -0.5670
 6597SOL     OW31249   3.757   2.801  14.480 -0.2247  0.0212  0.1310
 6597SOL    HW131250   3.672   2.836  14.508 -1.1944 -0.7966 -1.7514
 6597SOL    HW231251   3.766   2.850  14.398 -0.5788 -1.2477 -0.6604
 6598SOL     OW31252   0.824   4.673   3.338 -0.2722 -0.1279  0.6430
 6598SOL    HW131253   0.834   4.647   3.247 -0.1123  0.6878  0.4296
 6598SOL    HW231254   0.729   4.685   3.333 -0.2487  0.5880  1.8581
 6599SOL     OW31255   4.599   0.417   4.029  0.1615  0.2482 -0.1351
 6599SOL    HW131256   4.516   0.429   3.984  0.3400  2.2650  0.0757
 6599SOL    HW231257   4.574   0.433   4.120  1.4579  3.7000 -0.3813
 6600SOL     OW31258   1.016   0.212   6.152  0.2110  0.0641 -0.1976
 6600SOL    HW131259   1.099   0.210   6.199 -1.1526  1.9348  2.3307
 6600SOL    HW231260   1.038   0.168   6.070  0.9710  2.2285 -1.1583
 6601SOL     OW31261   2.086   3.910   3.698 -0.1521  0.1172 -0.1677
 6601SOL    HW131262   2.080   3.815   3.690  2.2102  0.0690 -1.5915
 6601SOL    HW231263   2.076   3.939   3.607  0.3483  2.1656  0.4282
 6602SOL     OW31264   0.916   3.640   8.007  0.1915  0.1152  0.3757
 6602SOL    HW131265   0.826   3.657   7.980  1.0369  0.8514 -1.9592
 6602SOL    HW231266   0.924   3.548   7.979  0.1943 -0.3813  2.0251
 6603SOL     OW31267   1.059   4.357  14.765  0.3001 -0.1336  0.2320
 6603SOL    HW131268   0.978   4.337  14.718 -0.7580  0.9230  1.6197
 6603SOL    HW231269   1.120   4.391  14.700 -0.2014  0.2484 -0.0329
 6604SOL     OW31270   2.309   1.390   5.384 -0.1606  0.0205 -0.6330
 6604SOL    HW131271   2.346   1.333   5.452  0.6170  2.3109  0.8654
 6604SOL    HW231272   2.229   1.414   5.429 -1.0005  3.1906 -3.8829
 6605SOL     OW31273   1.521   1.164   7.897  0.0781  0.1356  0.4640
 6605SOL    HW131274   1.616   1.154   7.911  0.4687  1.7429 -1.0727
 6605SOL    HW231275   1.483   1.168   7.985 -2.1636  1.0421 -0.5504
 6606SOL     OW31276   2.867   3.548   4.917  0.1632  1.3398  0.4392
 6606SOL    HW131277   2.932   3.576   4.852 -1.5677  4.5334  0.0798
 6606SOL    HW231278   2.874   3.453   4.902 -1.2917  1.3296 -0.1926
 6607SOL     OW31279   2.079   3.644   8.219 -0.3672 -0.2043 -0.0947
 6607SOL    HW131280   2.043   3.597   8.295  0.0230  2.0583  1.4897
 6607SOL    HW231281   2.148   3.699   8.256  0.0334 -0.0610 -1.0701
 6608SOL     OW31282   4.602   1.930   2.678  0.0275  0.1271 -0.2984
 6608SOL    HW131283   4.511   1.949   2.702  0.2111  0.0427  0.4855
 6608SOL    HW231284   4.635   1.926   2.768 -1.7051  2.9691  0.4750
 6609SOL     OW31285   0.178   3.720   4.447  0.1225  0.6566 -0.3256
 6609SOL    HW131286   0.181   3.650   4.512 -0.5014 -0.0296 -1.0296
 6609SOL    HW231287   0.160   3.789   4.511  0.9223  1.4544 -0.9590
 6610SOL     OW31288   4.544   0.311  14.520  0.2363  0.3087  0.3027
 6610SOL    HW131289   4.504   0.245  14.463  2.3033 -1.3704  0.8012
 6610SOL    HW231290   4.571   0.375  14.454  3.3078  0.8528  2.0824
 6611SOL     OW31291   3.679   0.466   8.913 -0.3634 -0.0153  0.0126
 6611SOL    HW131292   3.666   0.559   8.893 -0.9383 -0.2420 -0.7117
 6611SOL    HW231293   3.696   0.476   9.006 -0.8633 -0.8857  0.1925
 6612SOL     OW31294   3.619   0.695  11.541 -0.3926  0.2186 -0.4403
 6612SOL    HW131295   3.668   0.669  11.463 -1.0046  1.8564 -1.3749
 6612SOL    HW231296   3.572   0.613  11.555  1.4040 -0.5923  0.7558
 6613SOL     OW31297   0.325   2.897   5.605  0.4703  0.2020  0.0312
 6613SOL    HW131298   0.338   2.889   5.510 -0.3771  0.2626 -0.0834
 6613SOL    HW231299   0.239   2.857   5.616  0.9073 -0.8574 -0.3387
 6614SOL     OW31300   2.095   4.279  10.115 -0.4290  0.0649 -0.1512
 6614SOL    HW131301   2.166   4.338  10.140 -0.0616 -0.2889 -0.3603
 6614SOL    HW231302   2.044   4.330  10.053 -0.0271  0.4290 -0.1800
 6615SOL     OW31303   0.749   3.872  15.227  0.1785  0.0977 -0.2385
 6615SOL    HW131304   0.751   3.905  15.137  0.4096 -0.2915 -0.3735
 6615SOL    HW231305   0.837   3.835  15.232  0.1719  0.3795  2.0147
 6616SOL     OW31306   0.030   2.777  12.423 -0.3840  0.6515  0.5085
 6616SOL    HW131307   0.018   2.869  12.397  1.9967  0.6557 -0.5542
 6616SOL    HW231308   4.661   2.759  12.418 -0.0330 -0.6325 -1.7102
 6617SOL     OW31309   3.240   1.914   7.526  0.4385 -0.6641  0.3455
 6617SOL    HW131310   3.284   1.835   7.495  0.5013 -0.2221 -0.7128
 6617SOL    HW231311   3.210   1.892   7.614  0.4039  1.7773  0.9710
 6618SOL     OW31312   0.474   4.503   5.619 -0.5137 -0.2122 -0.7501
 6618SOL    HW131313   0.469   4.409   5.600  3.5371 -0.7018  0.5248
 6618SOL    HW231314   0.566   4.510   5.644  0.1916 -0.4408 -3.2853
 6619SOL     OW31315   1.717   3.518   2.889  0.4581 -0.5712  0.4081
 6619SOL    HW131316   1.755   3.560   2.812  0.2225 -1.6522 -0.3026
 6619SOL    HW231317   1.628   3.553   2.898  1.6291  1.7528  2.8510
 6620SOL     OW31318   4.224   2.385   2.444 -1.0963 -0.0935  0.1329
 6620SOL    HW131319   4.129   2.385   2.457 -1.0104 -0.5124  0.7546
 6620SOL    HW231320   4.260   2.394   2.533  1.1694 -2.0067 -0.5982
 6621SOL     OW31321   4.625   4.228   2.299 -0.0398  0.1618  0.0582
 6621SOL    HW131322   4.667   4.280   2.367 -0.1975  0.4094 -0.0333
 6621SOL    HW231323   4.599   4.297   2.238 -2.0551 -0.9633 -0.3228
 6622SOL     OW31324   2.458   0.582  12.039 -0.5099 -0.0529 -0.6373
 6622SOL    HW131325   2.389   0.639  12.070 -0.1467 -0.8257  1.5760
 6622SOL    HW231326   2.512   0.656  12.011 -0.9154  0.4854  0.0313
 6623SOL     OW31327   3.767   1.337   1.018 -0.6623 -0.3212  0.7365
 6623SOL    HW131328   3.847   1.324   1.069 -0.1324 -0.4186 -0.1142
 6623SOL    HW231329   3.751   1.249   0.983 -1.1178 -0.1585  0.5409
 6624SOL     OW31330   1.355   0.679  14.060  0.6129  0.0694  0.2497
 6624SOL    HW131331   1.322   0.637  14.139 -2.8724  0.3023 -1.0820
 6624SOL    HW231332   1.442   0.640  14.052  0.2897 -0.9409  1.7742
 6625SOL     OW31333   0.318   2.520   1.327  0.0654 -0.3967  0.2623
 6625SOL    HW131334   0.299   2.445   1.271  0.9939 -0.3256 -0.1449
 6625SOL    HW231335   0.302   2.486   1.416 -2.2596  0.2381  0.0631
 6626SOL     OW31336   0.511   3.833  16.872  0.3905  0.2204  0.3738
 6626SOL    HW131337   0.588   3.855  16.819 -0.4240  0.5004 -0.7038
 6626SOL    HW231338   0.453   3.909  16.866  0.5200  0.2878 -0.0224
 6627SOL     OW31339   2.113   4.602   2.196 -0.2972  0.1673 -0.2641
 6627SOL    HW131340   2.177   4.586   2.126  0.5728 -0.5276  0.6949
 6627SOL    HW231341   2.044   4.541   2.170 -0.7931  1.0113 -0.9502
 6628SOL     OW31342   4.650   4.585   8.488  0.1166 -0.0996 -0.5115
 6628SOL    HW131343   0.020   4.583   8.487  0.1164  0.4433 -1.6767
 6628SOL    HW231344   4.620   4.501   8.521 -0.0439 -0.8228 -2.4830
 6629SOL     OW31345   4.492   3.826   5.560 -0.3851 -0.3258  0.3022
 6629SOL    HW131346   4.539   3.768   5.620 -2.2493 -0.8238  1.2802
 6629SOL    HW231347   4.551   3.900   5.547 -0.5431  0.2109  2.6910
 6630SOL     OW31348   4.595   2.091   0.877  0.4487  0.7444 -0.2439
 6630SOL    HW131349   4.531   2.140   0.826  1.0889  1.4952 -0.3161
 6630SOL    HW231350   4.624   2.027   0.811 -0.6773  1.3543 -1.3297
 6631SOL     OW31351   0.054   3.057   6.933  0.4136  0.5931 -0.3654
 6631SOL    HW131352   4.714   3.091   6.872  1.0436  1.4374 -0.5598
 6631SOL    HW231353   0.122   3.123   6.924  0.1297  0.8348 -0.7198
 6632SOL     OW31354   4.062   1.677   4.066 -0.4165 -0.3906  0.0070
 6632SOL    HW131355   3.986   1.704   4.118  1.1233 -1.0377  2.6366
 6632SOL    HW231356   4.110   1.622   4.129  2.1267 -0.1913 -1.7747
 6633SOL     OW31357   3.550   0.596   0.528  0.6810 -0.3604 -0.1132
 6633SOL    HW131358   3.511   0.542   0.459 -1.3206  1.0300 -0.0689
 6633SOL    HW231359   3.594   0.525   0.575 -2.5004 -1.3116  1.4317
 6634SOL     OW31360   4.673   1.562  15.473  0.2565 -0.6917 -0.0481
 6634SOL    HW131361   4.628   1.479  15.491 -1.8976  0.6156  0.5873
 6634SOL    HW231362   0.016   1.566  15.541  0.1002  0.2267  0.0619
 6635SOL     OW31363   4.060   1.586   9.550  0.1792 -0.2526  0.3325
 6635SOL    HW131364   4.116   1.642   9.496 -2.1153 -0.2921 -2.0981
 6635SOL    HW231365   4.039   1.640   9.627  1.7848  0.7130  0.1008
 6636SOL     OW31366   1.467   2.655   4.107 -0.3822 -0.4542 -0.3139
 6636SOL    HW131367   1.412   2.732   4.094 -1.8307 -1.0314  2.3669
 6636SOL    HW231368   1.516   2.690   4.182 -0.4307 -0.6102 -0.2102
 6637SOL     OW31369   2.143   3.392  11.637 -0.0824 -0.0725 -0.4227
 6637SOL    HW131370   2.119   3.316  11.691  2.8149 -0.2778  0.5432
 6637SOL    HW231371   2.230   3.364  11.609 -0.5350 -1.8465 -0.0563
 6638SOL     OW31372   2.313   1.455   5.781  0.5011 -0.7256  0.8915
 6638SOL    HW131373   2.335   1.499   5.863  0.6266  2.3346 -0.7568
 6638SOL    HW231374   2.351   1.368   5.795 -4.1155 -2.9821 -0.5521
 6639SOL     OW31375   3.892   1.818   8.728  0.3787  0.1324  0.7291
 6639SOL    HW131376   3.846   1.859   8.801 -0.2205  1.1858 -0.2307
 6639SOL    HW231377   3.972   1.797   8.775  1.6110 -0.5096 -1.6250
 6640SOL     OW31378   4.109   2.693   4.667 -0.4361  0.0467  0.5862
 6640SOL    HW131379   4.128   2.763   4.728 -1.1596 -0.0997  0.9794
 6640SOL    HW231380   4.142   2.730   4.585 -2.7500 -2.6286 -1.6036
 6641SOL     OW31381   2.742   1.437   6.372  0.2419 -0.2758 -0.1698
 6641SOL    HW131382   2.651   1.435   6.401 -0.7192  1.2152 -3.0835
 6641SOL    HW231383   2.727   1.424   6.278  1.3693 -2.4665 -0.0575
 6642SOL     OW31384   2.084   1.698  11.153  0.7031  0.1695 -0.2132
 6642SOL    HW131385   2.071   1.739  11.239  0.0926  1.6161 -0.9906
 6642SOL    HW231386   2.009   1.639  11.146  0.0269  0.7628  1.9837
 6643SOL     OW31387   1.193   1.674   5.071 -0.0396  0.4142 -0.8685
 6643SOL    HW131388   1.194   1.689   5.166  0.9991  1.6605 -1.0788
 6643SOL    HW231389   1.102   1.655   5.051  0.2833 -1.2452 -0.7337
 6644SOL     OW31390   3.020   1.679   7.259  0.1195  0.2611  0.6562
 6644SOL    HW131391   3.113   1.701   7.257  0.1847 -0.1193 -0.6722
 6644SOL    HW231392   3.025   1.615   7.330  0.2970 -1.2546 -0.7151
 6645SOL     OW31393   0.605   1.003   6.369 -0.1009 -0.1124  0.7681
 6645SOL    HW131394   0.576   0.968   6.284 -2.8450  1.3313  1.1170
 6645SOL    HW231395   0.699   1.016   6.356 -0.2073 -0.8648 -0.7721
 6646SOL     OW31396   2.684   1.162  14.674 -0.0296  0.0992  0.5206
 6646SOL    HW131397   2.769   1.119  14.665  0.4034  1.6409 -2.5924
 6646SOL    HW231398   2.666   1.193  14.585  0.5263  0.8611  0.6807
 6647SOL     OW31399   4.469   1.583   2.119 -0.1201  0.2675 -0.4048
 6647SOL    HW131400   4.483   1.673   2.148 -0.4560 -0.4678  2.0061
 6647SOL    HW231401   4.414   1.549   2.189  0.3235 -0.7934 -0.5801
 6648SOL     OW31402   2.359   1.144   9.524 -0.5886 -0.8233  0.1676
 6648SOL    HW131403   2.310   1.066   9.500 -0.8570 -1.3846  2.5634
 6648SOL    HW231404   2.351   1.208   9.452  1.1904  0.0093  0.7184
 6649SOL     OW31405   0.712   2.635   3.904  0.6700 -0.2952 -0.1373
 6649SOL    HW131406   0.716   2.631   3.808 -2.4729 -1.4282 -0.2101
 6649SOL    HW231407   0.679   2.547   3.923 -2.5451  1.3441  1.9420
 6650SOL     OW31408   3.763   3.637   5.179  0.1729  0.4610  0.4766
 6650SOL    HW131409   3.691   3.690   5.214  0.2821  1.7474 -1.2001
 6650SOL    HW231410   3.795   3.691   5.106  1.7855 -0.2988  0.6230
 6651SOL     OW31411   2.821   2.809  17.120 -0.5161 -0.5037 -0.2557
 6651SOL    HW131412   2.893   2.819  17.182  1.0054 -0.4272 -2.0482
 6651SOL    HW231413   2.833   2.880  17.057  1.6726 -0.8201 -0.1896
 6652SOL     OW31414   1.621   0.419  17.318 -0.4375 -0.0748  0.1503
 6652SOL    HW131415   1.623   0.515  17.319  1.6783 -0.1302 -0.0055
 6652SOL    HW231416   1.609   0.400  17.225 -0.6573  1.7469 -0.1964
 6653SOL     OW31417   0.553   0.034   5.740 -0.1507 -0.2050 -0.2163
 6653SOL    HW131418   0.587   4.673   5.716 -0.4982 -0.5164  0.4299
 6653SOL    HW231419   0.573   0.082   5.659  2.0439 -1.0747 -0.2078
 6654SOL     OW31420   4.031   3.652   8.088 -0.9167 -0.2398 -0.3985
 6654SOL    HW131421   3.991   3.565   8.084  0.9903 -1.0788 -1.5459
 6654SOL    HW231422   4.077   3.653   8.004 -0.6778 -0.2322 -0.2670
 6655SOL     OW31423   1.020   4.512   8.820 -0.3990 -0.1752 -0.0343
 6655SOL    HW131424   0.990   4.603   8.826 -0.1864 -0.2923  2.7399
 6655SOL    HW231425   0.964   4.474   8.888 -0.6578 -1.0217 -0.7290
 6656SOL     OW31426   4.017   2.452   1.698  0.2488  0.7209 -0.0393
 6656SOL    HW131427   4.015   2.415   1.610  0.1292  2.1906 -0.6625
 6656SOL    HW231428   3.976   2.379   1.743  0.9348  0.6479  0.4723
 6657SOL     OW31429   2.289   2.695   2.908  0.3437 -0.3602  0.1895
 6657SOL    HW131430   2.344   2.685   2.985  1.7663 -0.7264 -0.8763
 6657SOL    HW231431   2.264   2.787   2.908  3.4424  0.4797 -0.7329
 6658SOL     OW31432   3.490   4.344   7.174  0.7254 -0.0237 -0.4973
 6658SOL    HW131433   3.493   4.358   7.269 -0.2814 -1.7571 -0.2088
 6658SOL    HW231434   3.401   4.312   7.157  2.2407 -1.9130 -4.5734
 6659SOL     OW31435   3.610   3.711   8.463 -0.3783  0.5355  0.4822
 6659SOL    HW131436   3.681   3.687   8.521  1.2860  1.3929 -1.1950
 6659SOL    HW231437   3.623   3.639   8.401 -2.7596 -0.6221  1.3330
 6660SOL     OW31438   2.026   4.276   6.979  0.1794 -0.0150  0.0617
 6660SOL    HW131439   1.996   4.268   7.070 -1.0050 -2.7542 -0.5810
 6660SOL    HW231440   1.959   4.341   6.955  0.3033  0.1278  0.1027
 6661SOL     OW31441   2.078   3.700   7.034 -0.0967  0.4940 -0.0273
 6661SOL    HW131442   2.084   3.794   7.049  2.5957 -0.2385  3.3927
 6661SOL    HW231443   1.983   3.688   7.021 -0.2849  1.2513  0.6831
 6662SOL     OW31444   3.681   1.868   9.713 -0.2107 -0.2375  0.1687
 6662SOL    HW131445   3.627   1.921   9.654  1.3923  1.6731  0.4444
 6662SOL    HW231446   3.626   1.791   9.729  1.2492 -1.5659 -1.1359
 6663SOL     OW31447   2.662   3.538  10.815 -0.4258  0.3391  0.1922
 6663SOL    HW131448   2.602   3.612  10.803 -0.4755  0.3562  0.5408
 6663SOL    HW231449   2.605   3.462  10.803 -0.2993  0.5965 -2.0279
 6664SOL     OW31450   4.637   2.458   6.729 -0.1411  0.4165 -0.2850
 6664SOL    HW131451   4.713   2.511   6.706  0.8751 -0.8535  0.1477
 6664SOL    HW231452   4.600   2.451   6.640 -0.7011  0.2786 -0.0440
 6665SOL     OW31453   1.176   1.292  13.758 -0.4453 -0.2415  0.4235
 6665SOL    HW131454   1.166   1.255  13.846  0.2303  2.4964  1.6739
 6665SOL    HW231455   1.199   1.210  13.715 -0.0346 -0.6137  1.3561
 6666SOL     OW31456   3.735   1.809  12.545  0.0762  0.5403 -0.2814
 6666SOL    HW131457   3.653   1.770  12.576  1.7582 -2.2809  0.5928
 6666SOL    HW231458   3.779   1.742  12.493  1.7171  0.0839  1.6714
 6667SOL     OW31459   1.881   2.283   1.108  0.0586 -0.1149 -0.0750
 6667SOL    HW131460   1.800   2.282   1.056 -1.3787  1.7124  2.1567
 6667SOL    HW231461   1.850   2.330   1.185 -0.3842  0.8810 -0.8485
 6668SOL     OW31462   2.734   1.331   0.019  0.7326  0.3822  0.1211
 6668SOL    HW131463   2.738   1.249   0.069  0.4782 -1.0637 -2.2153
 6668SOL    HW231464   2.650   1.367   0.046  0.7374  0.2011  0.3828
 6669SOL     OW31465   2.272   2.736   7.503  0.0048 -0.3908  0.1066
 6669SOL    HW131466   2.272   2.674   7.431  0.1678  1.2508 -1.3030
 6669SOL    HW231467   2.263   2.677   7.578  0.8917 -0.9536 -0.2332
 6670SOL     OW31468   3.024   1.454   6.175  0.2306 -0.7397 -0.3609
 6670SOL    HW131469   2.935   1.424   6.157  0.0780 -1.1549  1.1015
 6670SOL    HW231470   3.043   1.507   6.097 -0.4550 -0.1275 -0.1156
 6671SOL     OW31471   2.938   2.188   7.488 -0.1008 -0.3987 -0.2462
 6671SOL    HW131472   2.880   2.158   7.558 -0.8055  0.2093 -0.5739
 6671SOL    HW231473   2.969   2.101   7.461  0.2349 -0.7380  1.2181
 6672SOL     OW31474   1.950   0.741   7.149  0.0795 -0.6434  0.3573
 6672SOL    HW131475   2.037   0.704   7.165  0.8643  0.6424 -0.9660
 6672SOL    HW231476   1.950   0.798   7.225  0.9884 -0.4817  0.2366
 6673SOL     OW31477   2.714   1.731   6.639  0.1995  0.2360 -0.2265
 6673SOL    HW131478   2.728   1.737   6.545 -0.5032 -1.0596 -0.4093
 6673SOL    HW231479   2.778   1.789   6.680  1.3635  1.4672 -3.8257
 6674SOL     OW31480   4.248   3.659   9.670  0.3165  0.0164 -0.1561
 6674SOL    HW131481   4.299   3.724   9.622 -1.0221  0.1235 -1.4318
 6674SOL    HW231482   4.312   3.590   9.655 -0.7661 -1.2060  0.7812
 6675SOL     OW31483   2.091   0.214   9.210 -0.3427  0.0718  0.0556
 6675SOL    HW131484   2.185   0.207   9.228  0.0775  2.0273 -1.3766
 6675SOL    HW231485   2.060   0.133   9.250 -0.5112 -0.2429 -0.7158
 6676SOL     OW31486   4.459   1.041   7.901 -0.3606 -0.4823 -0.4687
 6676SOL    HW131487   4.366   1.044   7.924 -0.4176  0.9013 -0.8317
 6676SOL    HW231488   4.491   1.094   7.974 -0.2695  0.0879 -0.9183
 6677SOL     OW31489   0.891   0.232   7.436 -0.2639  0.3249 -0.1880
 6677SOL    HW131490   0.808   0.226   7.388  0.7828  1.0521 -2.1124
 6677SOL    HW231491   0.942   0.165   7.390 -4.2491 -1.8466 -1.4616
 6678SOL     OW31492   3.086   2.551   1.649  0.1988  0.0585 -0.4306
 6678SOL    HW131493   3.023   2.539   1.578  0.2413  1.0153 -0.6231
 6678SOL    HW231494   3.082   2.644   1.671 -1.7296  0.2739 -1.6236
 6679SOL     OW31495   3.606   2.059   2.147  0.1343 -0.0117 -0.3290
 6679SOL    HW131496   3.617   2.111   2.227  1.1503 -1.9708  0.8138
 6679SOL    HW231497   3.547   2.112   2.093 -2.4521 -3.2501 -0.6779
 6680SOL     OW31498   2.839   2.998   8.792  0.4664 -0.5500 -0.2768
 6680SOL    HW131499   2.881   3.030   8.872  0.9101 -2.8869  0.4249
 6680SOL    HW231500   2.848   2.903   8.802  3.0921 -0.4409 -1.4924
 6681SOL     OW31501   2.151   2.251  10.260  0.4406  0.0288 -0.1252
 6681SOL    HW131502   2.222   2.309  10.285 -0.2718  1.1508 -0.7145
 6681SOL    HW231503   2.125   2.285  10.174  2.5441 -1.1188 -1.2126
 6682SOL     OW31504   3.939   4.395  13.421  0.7912  0.2394 -0.4278
 6682SOL    HW131505   3.878   4.404  13.348  2.1689  1.1383 -1.4780
 6682SOL    HW231506   3.944   4.490  13.433 -0.5445  0.2762 -0.2098
 6683SOL     OW31507   4.466   1.476   1.623  0.2043  0.2661  0.3053
 6683SOL    HW131508   4.558   1.475   1.651  0.4658 -0.0879 -0.5671
 6683SOL    HW231509   4.430   1.520   1.701  1.4847 -0.5004  1.3288
 6684SOL     OW31510   2.103   2.003   3.793 -0.5228 -0.5879  0.3387
 6684SOL    HW131511   2.028   2.058   3.818 -0.7177 -2.2072  3.3980
 6684SOL    HW231512   2.137   2.068   3.731  0.2279 -1.1250  0.1943
 6685SOL     OW31513   4.108   1.281   5.106 -0.3821 -0.3719 -0.1912
 6685SOL    HW131514   4.022   1.280   5.065  0.2071 -0.6235 -1.4174
 6685SOL    HW231515   4.157   1.240   5.035  2.0731 -1.4186  2.1365
 6686SOL     OW31516   3.966   4.292   6.971  0.5949 -0.3819 -0.1489
 6686SOL    HW131517   3.888   4.325   7.016  1.3132  0.1327  0.7334
 6686SOL    HW231518   3.988   4.220   7.029 -3.1293 -0.9824  0.5152
 6687SOL     OW31519   4.105   1.313   5.385 -0.7327 -0.6747 -0.0087
 6687SOL    HW131520   4.096   1.227   5.426 -0.2719 -0.1971  1.0830
 6687SOL    HW231521   4.104   1.283   5.294  0.2973  0.6444 -0.4615
 6688SOL     OW31522   3.740   1.258   6.551 -0.6861  0.0574 -0.1724
 6688SOL    HW131523   3.816   1.221   6.506 -1.3184  1.2005 -2.1477
 6688SOL    HW231524   3.721   1.182   6.606  2.2319 -1.1365 -0.8131
 6689SOL     OW31525   0.945   0.537   4.426  0.4115 -0.0724 -0.3558
 6689SOL    HW131526   0.922   0.628   4.445 -0.5537 -0.4250  0.1495
 6689SOL    HW231527   0.907   0.528   4.339  0.5607  1.5173 -0.5940
 6690SOL     OW31528   2.747   4.456   2.204  0.7190  0.3962 -0.0021
 6690SOL    HW131529   2.723   4.409   2.124  0.7952 -0.9416  0.7667
 6690SOL    HW231530   2.707   4.406   2.275  0.5597  0.7558  0.1637
 6691SOL     OW31531   4.478   0.417  15.347 -0.4140 -0.4700  0.8336
 6691SOL    HW131532   4.513   0.439  15.261 -1.5472 -0.3485  0.4090
 6691SOL    HW231533   4.548   0.369  15.391  0.0532 -1.2020 -0.7212
 6692SOL     OW31534   0.828   4.370   5.889  0.2698 -0.3895 -0.0069
 6692SOL    HW131535   0.754   4.311   5.899 -1.8681  2.1793 -0.8158
 6692SOL    HW231536   0.853   4.378   5.981  2.4114  0.2247 -0.6291
 6693SOL     OW31537   3.212   1.685  17.645 -0.1990 -0.2404 -0.0350
 6693SOL    HW131538   3.142   1.637  17.689  0.1602  0.4444  1.2889
 6693SOL    HW231539   3.295   1.671  17.691 -0.0260 -0.4886 -0.4259
 6694SOL     OW31540   1.304   3.382  10.821  0.0867 -0.2531 -0.2733
 6694SOL    HW131541   1.267   3.345  10.742  2.4673 -0.3186 -1.3660
 6694SOL    HW231542   1.268   3.321  10.885 -1.0189  0.0657 -0.5895
 6695SOL     OW31543   0.198   3.190  14.815  0.6047 -0.7806  0.2697
 6695SOL    HW131544   0.150   3.136  14.752 -0.1406 -0.3907  0.5044
 6695SOL    HW231545   0.203   3.126  14.886 -0.3175 -0.3710  0.6998
 6696SOL     OW31546   0.199   2.201   1.788 -0.0571  0.2059  0.6263
 6696SOL    HW131547   0.249   2.255   1.727 -0.1104 -0.1354  0.2848
 6696SOL    HW231548   0.249   2.123   1.809  0.4615  0.6454  1.0463
 6697SOL     OW31549   2.463   4.590   7.757  0.3578  0.5894  0.0865
 6697SOL    HW131550   2.495   4.590   7.667  0.2442  0.5306  0.0474
 6697SOL    HW231551   2.458   4.497   7.779  1.1117 -0.0583 -2.4597
 6698SOL     OW31552   4.163   1.760   7.645  0.2059 -0.7864 -0.2810
 6698SOL    HW131553   4.159   1.813   7.724 -0.6492  0.9159 -1.4661
 6698SOL    HW231554   4.184   1.828   7.581 -0.3133  1.5241  2.0294
 6699SOL     OW31555   0.506   3.878   3.457 -0.4763 -0.4575  0.3370
 6699SOL    HW131556   0.433   3.935   3.482  0.1616  1.3615 -1.8951
 6699SOL    HW231557   0.487   3.852   3.367 -0.5203  0.6366  0.0245
 6700SOL     OW31558   0.234   3.589   6.155 -0.0356 -0.2477  0.2356
 6700SOL    HW131559   0.237   3.522   6.224  0.6563 -1.0777 -0.5936
 6700SOL    HW231560   0.142   3.600   6.134 -0.0970 -2.2849 -0.5899
 6701SOL     OW31561   3.262   4.092  10.853 -0.2988  0.4650  0.2053
 6701SOL    HW131562   3.238   4.050  10.935  3.0133  1.3793  1.6566
 6701SOL    HW231563   3.336   4.048  10.811  1.8119  2.1910  2.1275
 6702SOL     OW31564   3.504   3.550  11.051  0.3064  0.0713  0.2255
 6702SOL    HW131565   3.499   3.618  11.119  0.1126 -0.6221  0.9020
 6702SOL    HW231566   3.590   3.570  11.014  0.7449 -1.8248  0.2285
 6703SOL     OW31567   3.842   0.506   4.145 -0.2112  0.5517 -0.4685
 6703SOL    HW131568   3.856   0.598   4.124  1.2093  0.4321 -0.0495
 6703SOL    HW231569   3.779   0.470   4.082 -0.2812 -2.1029  1.0998
 6704SOL     OW31570   1.597   4.379  16.165  0.0371 -0.4479  0.3929
 6704SOL    HW131571   1.533   4.349  16.101  0.4526  1.3387 -0.8567
 6704SOL    HW231572   1.633   4.456  16.120  4.1239 -1.9149  1.1728
 6705SOL     OW31573   4.466   1.118   2.386 -0.2682 -0.5838  0.2173
 6705SOL    HW131574   4.417   1.036   2.380  1.4583 -1.6228  0.2835
 6705SOL    HW231575   4.545   1.083   2.427  0.4736 -0.4584 -1.1078
 6706SOL     OW31576   2.715   4.054  11.101 -0.1017 -0.0592 -0.0504
 6706SOL    HW131577   2.652   4.007  11.046 -0.9625 -0.1838  1.0314
 6706SOL    HW231578   2.656   4.083  11.171 -0.0627  0.7280 -0.3372
 6707SOL     OW31579   4.191   0.804   4.088 -0.0733  0.2596 -0.1592
 6707SOL    HW131580   4.146   0.823   4.005  0.6521 -1.0964 -0.8478
 6707SOL    HW231581   4.276   0.832   4.055 -0.1930 -0.9432 -1.4709
 6708SOL     OW31582   1.726   3.272   3.907  0.1610 -0.8763  0.3206
 6708SOL    HW131583   1.647   3.321   3.929  0.1685 -0.1297 -1.3240
 6708SOL    HW231584   1.746   3.307   3.820  1.2894 -0.5701  0.7066
 6709SOL     OW31585   2.257   0.060   2.782  0.2532  0.0512  0.2686
 6709SOL    HW131586   2.351   0.042   2.784  0.2823  0.0397 -1.3039
 6709SOL    HW231587   2.234   0.048   2.690 -3.6560 -1.5989  1.4651
 6710SOL     OW31588   4.210   2.466  12.329  0.3496  1.0206 -0.4864
 6710SOL    HW131589   4.169   2.482  12.414  1.2620  1.6126 -0.1610
 6710SOL    HW231590   4.152   2.520  12.275 -0.9783 -1.7475 -1.7992
 6711SOL     OW31591   2.199   4.123   5.228 -0.8178  0.2995 -0.2212
 6711SOL    HW131592   2.136   4.139   5.298  1.0813 -2.1095  2.0317
 6711SOL    HW231593   2.147   4.101   5.150  0.2191 -1.6353 -0.3607
 6712SOL     OW31594   1.696   1.510   0.139  0.2962  0.1814 -0.3534
 6712SOL    HW131595   1.717   1.494   0.231 -1.6568 -0.4365 -0.0071
 6712SOL    HW231596   1.610   1.549   0.152  0.3297 -0.1457  0.7886
 6713SOL     OW31597   2.620   3.298  16.616 -0.4030  0.0796 -0.1362
 6713SOL    HW131598   2.591   3.321  16.528 -1.5363 -0.1650  0.1718
 6713SOL    HW231599   2.536   3.313  16.660 -0.8868  0.5346 -1.2044
 6714SOL     OW31600   1.500   0.402   9.104 -0.2787 -0.2656  0.7525
 6714SOL    HW131601   1.421   0.367   9.063 -0.8256  0.9750  0.7531
 6714SOL    HW231602   1.472   0.389   9.195  0.6805 -0.5898  1.0062
 6715SOL     OW31603   3.100   2.829   1.679 -0.1642 -0.3918 -0.2890
 6715SOL    HW131604   3.084   2.832   1.774 -3.6087 -0.5965 -0.8586
 6715SOL    HW231605   3.089   2.919   1.649  0.2957  0.1087  1.0119
 6716SOL     OW31606   4.716   0.437   5.025  0.1777 -0.1637  0.2568
 6716SOL    HW131607   4.680   0.407   5.109 -0.1073  1.8933  0.8687
 6716SOL    HW231608   0.057   0.375   4.995  0.0934  0.3075 -0.8922
 6717SOL     OW31609   4.352   1.443   6.755  0.7505  0.1521 -0.0613
 6717SOL    HW131610   4.442   1.428   6.727  0.5401 -0.9986 -0.1416
 6717SOL    HW231611   4.307   1.373   6.708 -0.8971  0.7822  0.5822
 6718SOL     OW31612   0.818   4.067  10.065  0.6323  0.3652 -0.2416
 6718SOL    HW131613   0.851   4.144  10.112 -1.1802 -0.5638  2.5364
 6718SOL    HW231614   0.896   4.012  10.070  0.6644  0.1077 -3.6586
 6719SOL     OW31615   1.724   0.991   3.001  0.1709  0.1114  0.6741
 6719SOL    HW131616   1.658   0.922   2.990  2.0330 -1.1892 -2.1380
 6719SOL    HW231617   1.720   1.008   3.095 -0.8353 -2.5006  1.1196
 6720SOL     OW31618   2.839   2.185   4.776  0.1282 -0.2051 -0.0284
 6720SOL    HW131619   2.915   2.243   4.774 -1.0394  1.3223 -0.0826
 6720SOL    HW231620   2.839   2.149   4.687 -0.4679 -3.3028  1.2406
 6721SOL     OW31621   1.840   0.576  15.282  0.4402 -0.3339  0.5539
 6721SOL    HW131622   1.829   0.671  15.279  0.8262 -0.3699 -1.6459
 6721SOL    HW231623   1.785   0.553  15.357 -1.2751  1.1820 -0.2160
 6722SOL     OW31624   0.358   3.280   2.196  0.5377 -1.1353 -0.4437
 6722SOL    HW131625   0.321   3.368   2.202 -1.6849 -2.1431  0.7116
 6722SOL    HW231626   0.368   3.278   2.100 -0.0592 -2.0274 -0.4853
 6723SOL     OW31627   2.398   0.480   4.192 -0.2995  0.6465 -0.3551
 6723SOL    HW131628   2.347   0.473   4.111 -0.1485  0.0593 -0.4041
 6723SOL    HW231629   2.354   0.550   4.240 -0.1378 -0.4240  1.3266
 6724SOL     OW31630   3.560   1.259   3.788 -0.2662 -0.0955 -0.1002
 6724SOL    HW131631   3.606   1.264   3.705  0.2185 -0.8257  0.1215
 6724SOL    HW231632   3.603   1.328   3.838  0.7256 -0.1217 -0.9227
 6725SOL     OW31633   1.409   3.312   3.125 -0.4085  0.4647  0.1489
 6725SOL    HW131634   1.503   3.310   3.142 -0.1458 -0.3693 -1.3742
 6725SOL    HW231635   1.390   3.220   3.143  2.4023 -0.3775 -1.2048
 6726SOL     OW31636   3.553   0.847  12.290  0.0236 -0.2600 -0.0027
 6726SOL    HW131637   3.633   0.840  12.341 -0.1489  1.0645  0.4477
 6726SOL    HW231638   3.586   0.882  12.208  0.6768 -0.0785  0.3384
 6727SOL     OW31639   2.464   4.448   2.949  0.5787  0.0534 -0.3210
 6727SOL    HW131640   2.462   4.390   3.026 -0.1825 -0.2853 -0.6032
 6727SOL    HW231641   2.372   4.475   2.951  1.1139  1.9204 -1.6476
 6728SOL     OW31642   3.680   1.150   4.615 -0.5054 -0.3636  0.3746
 6728SOL    HW131643   3.770   1.123   4.630 -0.1480 -0.4037 -1.8928
 6728SOL    HW231644   3.693   1.236   4.655 -0.1303 -1.2100  2.1032
 6729SOL     OW31645   1.709   2.883   8.086  0.2772 -0.4567 -0.0867
 6729SOL    HW131646   1.723   2.975   8.105  0.0762 -0.1211 -1.5733
 6729SOL    HW231647   1.727   2.881   7.991  0.5085  1.3631 -0.0707
 6730SOL     OW31648   3.342   2.395  13.400  0.5575 -0.3509 -0.4129
 6730SOL    HW131649   3.405   2.324  13.409  2.2708  1.6418  3.5455
 6730SOL    HW231650   3.291   2.372  13.478 -2.4809 -2.7353 -3.1028
 6731SOL     OW31651   0.713   1.008   3.431 -0.2709  0.2613 -0.2731
 6731SOL    HW131652   0.772   0.975   3.499 -1.2441 -0.4518  0.2343
 6731SOL    HW231653   0.635   1.014   3.486 -1.7090  1.9508 -2.5373
 6732SOL     OW31654   3.972   2.729  17.283  0.1951  0.4888  0.0432
 6732SOL    HW131655   4.049   2.777  17.250  0.0112  0.9304  0.2597
 6732SOL    HW231656   3.926   2.796  17.333 -0.6413  0.1440 -0.2739
 6733SOL     OW31657   1.660   4.222   9.075  0.4240  0.4312 -0.3161
 6733SOL    HW131658   1.666   4.259   8.987  0.6677  0.2445 -0.3795
 6733SOL    HW231659   1.643   4.302   9.123  2.6133 -0.3090  1.6929
 6734SOL     OW31660   0.827   4.621   3.039  0.1379 -0.3328 -0.2862
 6734SOL    HW131661   0.765   4.624   2.966  0.0506 -0.7024 -0.2220
 6734SOL    HW231662   0.882   4.697   3.019  0.7506 -0.7135 -0.0288
 6735SOL     OW31663   3.142   1.000   5.752 -0.1348 -0.1809 -0.1619
 6735SOL    HW131664   3.196   0.967   5.679  2.2468  1.2791  0.9267
 6735SOL    HW231665   3.198   1.068   5.790 -0.6970 -0.3441  0.9554
 6736SOL     OW31666   3.547   0.877   3.244  0.2021 -0.1647 -0.8160
 6736SOL    HW131667   3.536   0.964   3.282 -0.4145  0.0597 -1.5006
 6736SOL    HW231668   3.563   0.902   3.153 -2.0308 -0.3127 -1.2480
 6737SOL     OW31669   2.901   2.694   9.720  0.6532 -0.7059  0.1999
 6737SOL    HW131670   2.920   2.774   9.769 -0.4271 -0.7219  0.6548
 6737SOL    HW231671   2.870   2.731   9.638  2.1507  1.9598  0.8394
 6738SOL     OW31672   1.068   0.940   0.875 -0.4316  0.2042 -0.5203
 6738SOL    HW131673   1.146   0.903   0.915 -1.6563 -1.0645  0.6933
 6738SOL    HW231674   1.029   0.981   0.952  0.1492 -3.3741  1.6630
 6739SOL     OW31675   2.810   3.042   8.489 -0.2600  0.1483  0.0028
 6739SOL    HW131676   2.905   3.030   8.491 -0.4555 -1.2458  0.6978
 6739SOL    HW231677   2.780   3.013   8.575 -0.3628 -0.0799 -0.1099
 6740SOL     OW31678   4.094   1.036  12.340  0.7305  0.5579  0.0376
 6740SOL    HW131679   4.180   1.074  12.356  0.4458 -0.2498  3.4993
 6740SOL    HW231680   4.066   1.079  12.260 -0.2706 -0.1681  0.0042
 6741SOL     OW31681   3.839   1.013   9.270  0.0516 -0.1425  0.1682
 6741SOL    HW131682   3.892   0.935   9.284  0.1879 -0.2683 -1.0578
 6741SOL    HW231683   3.755   0.966   9.271  0.5169 -0.9317  2.3853
 6742SOL     OW31684   2.146   2.884   8.687 -0.0113  0.4401 -0.3959
 6742SOL    HW131685   2.208   2.832   8.637  2.6946  1.7253  1.6556
 6742SOL    HW231686   2.133   2.834   8.768  1.4564 -0.0940 -0.4990
 6743SOL     OW31687   3.785   2.606   0.222 -0.0875  0.2115  0.0779
 6743SOL    HW131688   3.834   2.654   0.155 -0.5832  0.3557 -0.1851
 6743SOL    HW231689   3.716   2.664   0.254  1.3798  1.9509  0.0910
 6744SOL     OW31690   4.530   2.558   8.219 -0.0534 -0.5159  0.5328
 6744SOL    HW131691   4.479   2.595   8.291 -0.8053  1.1367 -0.8468
 6744SOL    HW231692   4.489   2.579   8.135  0.3472  2.6779  1.1179
 6745SOL     OW31693   2.856   0.368   1.080 -0.1084  0.1091 -0.5996
 6745SOL    HW131694   2.841   0.353   1.174  2.5437  0.4410 -0.1055
 6745SOL    HW231695   2.810   0.293   1.045  1.7144 -1.0053 -0.6355
 6746SOL     OW31696   3.137   1.187   4.863  0.1448 -0.0087  0.4460
 6746SOL    HW131697   3.054   1.148   4.889  1.2826 -2.0492  1.0195
 6746SOL    HW231698   3.161   1.123   4.796  2.1438  0.7510  0.4250
 6747SOL     OW31699   1.444   3.788   3.650 -0.2022 -0.7100 -0.2227
 6747SOL    HW131700   1.490   3.765   3.570  0.1166 -0.5171 -0.0964
 6747SOL    HW231701   1.490   3.866   3.680  0.8289 -1.0481 -0.9317
 6748SOL     OW31702   3.101   2.632   5.143  0.0233  0.0224 -0.3827
 6748SOL    HW131703   3.026   2.584   5.108  1.3993 -1.7096 -0.9348
 6748SOL    HW231704   3.164   2.613   5.073 -2.4476 -2.5203 -1.9632
 6749SOL     OW31705   4.463   1.689   4.163 -0.3245  0.2793  1.1374
 6749SOL    HW131706   4.394   1.631   4.196 -2.0166  0.9822 -1.2062
 6749SOL    HW231707   4.540   1.676   4.218  0.8664  1.3845 -0.2636
 6750SOL     OW31708   3.358   0.871   6.641 -0.3006 -0.2305  0.2378
 6750SOL    HW131709   3.406   0.795   6.673 -0.2920  0.6900  2.4468
 6750SOL    HW231710   3.435   0.907   6.596  0.5874  0.2974  2.1315
 6751SOL     OW31711   0.939   0.509   2.744  0.4896 -0.3988 -0.4020
 6751SOL    HW131712   0.984   0.431   2.712 -0.2033  0.1587 -2.7255
 6751SOL    HW231713   0.984   0.528   2.827  0.4343  1.3384 -0.7630
 6752SOL     OW31714   1.669   3.117   3.597  0.3006  0.1416 -0.1968
 6752SOL    HW131715   1.683   3.068   3.516 -1.3596  2.9940 -2.2181
 6752SOL    HW231716   1.743   3.178   3.600 -2.0082  2.9337  0.0386
 6753SOL     OW31717   3.538   3.425   3.934  0.0084 -0.5494 -0.0981
 6753SOL    HW131718   3.562   3.487   4.004 -0.5365 -1.6359  1.0420
 6753SOL    HW231719   3.624   3.397   3.903  0.1872 -0.3502  0.2131
 6754SOL     OW31720   0.857   0.249   5.649  0.6155 -0.4556  0.1148
 6754SOL    HW131721   0.795   0.259   5.576 -0.2205 -0.0184  0.8913
 6754SOL    HW231722   0.894   0.161   5.637  2.2131  0.2280  0.0922
 6755SOL     OW31723   3.221   4.391   6.206  0.1778 -0.6796  0.7757
 6755SOL    HW131724   3.249   4.376   6.297  4.8531 -0.0167 -0.5859
 6755SOL    HW231725   3.301   4.391   6.154 -0.2782  0.7612  0.0557
 6756SOL     OW31726   1.054   4.017   5.020 -0.0262 -0.6100  0.1289
 6756SOL    HW131727   1.096   4.095   4.984  0.9329 -0.9576  0.4944
 6756SOL    HW231728   1.106   3.950   4.977 -0.6127  0.0763 -1.6776
 6757SOL     OW31729   2.134   1.495   5.581 -0.0201  0.1335 -0.2053
 6757SOL    HW131730   2.075   1.556   5.627 -0.7890 -0.0793 -0.9129
 6757SOL    HW231731   2.186   1.458   5.652  1.2230  2.6447  0.1996
 6758SOL     OW31732   3.552   2.712   0.037  0.0877 -0.1152 -0.0529
 6758SOL    HW131733   3.640   2.749   0.034  0.3834 -0.7473  1.0527
 6758SOL    HW231734   3.528   2.709  17.646 -0.3425 -0.7356  0.0751
 6759SOL     OW31735   1.216   2.201  13.129  0.1544  0.4089 -0.3169
 6759SOL    HW131736   1.238   2.109  13.120 -4.8774 -0.9184  0.7936
 6759SOL    HW231737   1.130   2.190  13.088 -0.7830  0.1587  1.7457
 6760SOL     OW31738   3.995   0.951   2.882 -0.2898 -0.2918  0.1824
 6760SOL    HW131739   3.910   0.977   2.917  0.0701 -0.1647  0.9557
 6760SOL    HW231740   4.036   1.033   2.855 -0.8890  0.2591  0.9471
 6761SOL     OW31741   1.362   0.360   9.358  0.2489 -0.5659  0.4970
 6761SOL    HW131742   1.266   0.367   9.350  0.5488  1.5612 -1.3054
 6761SOL    HW231743   1.372   0.265   9.351 -1.2123 -0.6163 -0.9177
 6762SOL     OW31744   0.230   1.261  14.069 -0.0892  0.8506  0.1088
 6762SOL    HW131745   0.287   1.308  14.008  0.0050  0.2297 -0.2740
 6762SOL    HW231746   0.179   1.337  14.099 -3.2731 -0.8986 -0.8314
 6763SOL     OW31747   1.367   1.439   5.427 -0.6464 -0.4352  0.0022
 6763SOL    HW131748   1.445   1.409   5.473  1.1629  0.7896 -2.3053
 6763SOL    HW231749   1.394   1.521   5.385 -1.3463  0.8047  1.9503
 6764SOL     OW31750   0.848   2.172   4.324 -0.1304 -0.6642 -0.1882
 6764SOL    HW131751   0.911   2.149   4.391  1.2079  2.0058 -0.5461
 6764SOL    HW231752   0.902   2.173   4.245  1.1112  0.5190  0.6722
 6765SOL     OW31753   4.671   0.455   8.131 -0.3509  0.8783  0.2566
 6765SOL    HW131754   4.670   0.550   8.115 -1.1327  0.5904 -1.3365
 6765SOL    HW231755   4.706   0.459   8.220 -1.4821 -0.2336  0.7513
 6766SOL     OW31756   3.123   2.484   2.878 -0.5271  0.1779  0.1307
 6766SOL    HW131757   3.094   2.439   2.957  0.4294 -0.5800  0.0557
 6766SOL    HW231758   3.188   2.422   2.843 -0.6476 -1.1699  2.3229
 6767SOL     OW31759   1.314   2.081   9.284  0.7253 -0.0372 -0.3859
 6767SOL    HW131760   1.343   2.107   9.196 -0.2079  1.7644 -0.1782
 6767SOL    HW231761   1.361   1.999   9.293  1.5299  0.6242  1.4093
 6768SOL     OW31762   2.493   4.466   5.639 -0.0777 -0.1758 -0.1142
 6768SOL    HW131763   2.488   4.396   5.574  0.4008  0.4038 -0.7794
 6768SOL    HW231764   2.555   4.527   5.600 -0.4023 -1.1137 -2.1023
 6769SOL     OW31765   0.375   1.540  15.441 -0.4025 -0.4133  0.5470
 6769SOL    HW131766   0.395   1.589  15.361 -2.0578  0.1673  0.4815
 6769SOL    HW231767   0.456   1.566  15.483  0.6661 -0.2022 -1.6462
 6770SOL     OW31768   0.518   0.360   3.368 -0.2054  0.3550  0.4259
 6770SOL    HW131769   0.461   0.402   3.433 -0.9858 -0.2995  0.1601
 6770SOL    HW231770   0.470   0.283   3.337 -1.8938  1.1815  0.9828
 6771SOL     OW31771   3.964   3.412   5.585 -0.3954 -0.0283  0.2293
 6771SOL    HW131772   4.052   3.378   5.604 -0.3967  0.4983  1.1901
 6771SOL    HW231773   3.964   3.501   5.621  2.0709  0.0687  0.0158
 6772SOL     OW31774   1.090   3.361   4.551 -0.0187 -1.0980 -0.3791
 6772SOL    HW131775   1.150   3.352   4.477  0.2210 -0.4162 -0.2653
 6772SOL    HW231776   1.004   3.361   4.509 -0.4500  0.9279  0.5474
 6773SOL     OW31777   1.061   2.941   0.995 -0.1898  0.3421  0.1936
 6773SOL    HW131778   1.051   2.896   0.911 -0.8112 -0.5406  0.7316
 6773SOL    HW231779   1.143   2.904   1.026  1.9189  3.6592 -1.4876
 6774SOL     OW31780   2.882   2.599  17.377 -0.8047 -0.3678 -0.1448
 6774SOL    HW131781   2.942   2.599  17.452  1.7716 -0.1931 -2.2275
 6774SOL    HW231782   2.911   2.678  17.332 -0.2279  0.6541  1.9843
 6775SOL     OW31783   2.873   2.233   7.071  0.0249  0.2828 -0.2130
 6775SOL    HW131784   2.878   2.328   7.086 -2.5848  0.8473 -2.7797
 6775SOL    HW231785   2.897   2.227   6.978 -2.6097  1.4264 -0.9658
 6776SOL     OW31786   1.295   0.550  14.543  0.1412 -0.3445  0.5696
 6776SOL    HW131787   1.231   0.497  14.590 -3.2326  1.2529 -2.1351
 6776SOL    HW231788   1.357   0.487  14.506  0.2153 -1.5083  2.7184
 6777SOL     OW31789   2.009   3.317   2.980 -0.7011 -0.0275  0.2843
 6777SOL    HW131790   1.999   3.407   2.949 -1.3098 -0.8331 -1.8249
 6777SOL    HW231791   2.103   3.307   2.966 -0.5454 -2.0558  2.6600
 6778SOL     OW31792   0.439   3.640   4.342 -1.0096  0.5208 -0.6076
 6778SOL    HW131793   0.509   3.700   4.366  1.3317 -2.1853 -0.7202
 6778SOL    HW231794   0.356   3.678   4.371 -0.6324 -0.7638  2.1626
 6779SOL     OW31795   1.558   0.786   8.522  0.6265  0.1959 -0.5505
 6779SOL    HW131796   1.474   0.767   8.564  0.3715 -0.6920 -1.4557
 6779SOL    HW231797   1.577   0.709   8.469  0.2060 -1.1468  1.2533
 6780SOL     OW31798   0.484   1.439   2.356 -0.0288  0.1277 -0.1443
 6780SOL    HW131799   0.417   1.402   2.298 -0.9275  2.0858 -0.3663
 6780SOL    HW231800   0.564   1.405   2.317 -0.3937  0.9240 -1.5830
 6781SOL     OW31801   0.042   1.879  14.856  0.3600 -0.9551  0.1745
 6781SOL    HW131802   0.058   1.785  14.844  1.0327 -0.8365  0.1268
 6781SOL    HW231803   0.031   1.896  14.762  0.1981 -1.8663  0.0223
 6782SOL     OW31804   3.848   2.948   5.483  0.0006  0.3271 -0.0355
 6782SOL    HW131805   3.886   2.981   5.401 -0.8873 -1.3575 -1.1203
 6782SOL    HW231806   3.906   2.980   5.552 -2.2893  2.6445  0.8230
 6783SOL     OW31807   4.266   1.468   8.539 -0.5592  0.2133  0.2956
 6783SOL    HW131808   4.355   1.503   8.538 -0.2138 -0.8560 -5.0453
 6783SOL    HW231809   4.264   1.450   8.633 -1.5124  0.0320  0.2444
 6784SOL     OW31810   3.215   4.468  11.683  0.5685 -0.1358 -0.0163
 6784SOL    HW131811   3.211   4.414  11.604  0.0289  0.0011 -0.0829
 6784SOL    HW231812   3.271   4.407  11.730  2.7784  1.2698 -0.8097
 6785SOL     OW31813   2.361   2.359  11.125 -0.1309 -0.5927  0.3981
 6785SOL    HW131814   2.355   2.273  11.083 -1.2060 -0.0907 -0.4874
 6785SOL    HW231815   2.283   2.355  11.180  1.0877  0.1568  2.1786
 6786SOL     OW31816   1.469   0.095  10.579 -0.0816 -0.2694  0.4778
 6786SOL    HW131817   1.412   0.043  10.522  0.5512 -0.7630  0.2960
 6786SOL    HW231818   1.444   0.187  10.568 -1.8426 -0.6870  0.9693
 6787SOL     OW31819   0.625   0.411   4.468  0.3328  0.3208  0.1870
 6787SOL    HW131820   0.639   0.448   4.556 -0.5108 -0.9428  0.8518
 6787SOL    HW231821   0.690   0.462   4.420  1.7543 -1.9753 -0.2871
 6788SOL     OW31822   1.183   3.366   8.728  0.5610 -0.0323  0.4923
 6788SOL    HW131823   1.110   3.315   8.693  1.1768 -0.0877 -0.7138
 6788SOL    HW231824   1.264   3.356   8.677  0.3714  2.8235 -0.3312
 6789SOL     OW31825   1.798   0.982   3.915 -0.5388  0.0635  0.2862
 6789SOL    HW131826   1.730   1.025   3.863 -1.6444  0.3848  1.9956
 6789SOL    HW231827   1.864   0.970   3.847 -0.1457  3.4844  0.0439
 6790SOL     OW31828   0.598   3.058  14.825  0.1987  0.0896  0.1503
 6790SOL    HW131829   0.689   3.074  14.800  0.1678 -1.5251 -1.0373
 6790SOL    HW231830   0.557   3.130  14.777  2.3491  1.2385  0.0797
 6791SOL     OW31831   0.895   1.437   6.326  0.1086  0.1309 -0.4794
 6791SOL    HW131832   0.939   1.470   6.405 -0.4673  1.6322 -0.7855
 6791SOL    HW231833   0.837   1.370   6.362  0.9379  0.0455  0.7012
 6792SOL     OW31834   3.153   0.439   8.725  0.5792 -0.1802  0.1937
 6792SOL    HW131835   3.181   0.410   8.638  1.1346  1.4754 -0.1906
 6792SOL    HW231836   3.231   0.438   8.781  0.1005 -0.5665  0.8523
 6793SOL     OW31837   3.194   3.631   0.886  0.1936 -0.2882  0.0275
 6793SOL    HW131838   3.175   3.547   0.843 -1.9739 -0.2386  0.9148
 6793SOL    HW231839   3.165   3.694   0.820 -0.0119  0.9282  1.2827
 6794SOL     OW31840   0.312   0.349   5.062 -0.3000 -0.0640  0.0285
 6794SOL    HW131841   0.286   0.271   5.012  0.3091 -0.2747  0.0319
 6794SOL    HW231842   0.351   0.404   4.994  0.8597 -0.3805  0.4214
 6795SOL     OW31843   0.559   2.136   2.123  0.2448  0.1096  0.3521
 6795SOL    HW131844   0.537   2.085   2.201  2.1358  0.7788  1.3174
 6795SOL    HW231845   0.489   2.202   2.127  1.4116  1.2719  1.6443
 6796SOL     OW31846   3.204   3.789  14.523 -0.7072 -0.0542  0.3599
 6796SOL    HW131847   3.281   3.741  14.553 -4.1546 -5.3376  0.8317
 6796SOL    HW231848   3.180   3.837  14.602  0.3537  1.1623 -0.0662
 6797SOL     OW31849   3.585   2.192   8.843 -0.4082  0.2247  0.1445
 6797SOL    HW131850   3.512   2.150   8.887  0.2738 -0.8812  0.2300
 6797SOL    HW231851   3.572   2.280   8.881  0.7576  0.0084  1.0566
 6798SOL     OW31852   1.129   3.474  12.818 -0.4410 -0.5568 -0.2779
 6798SOL    HW131853   1.147   3.564  12.789  1.5393  0.1100  2.9373
 6798SOL    HW231854   1.094   3.434  12.739 -0.4399 -0.1930 -0.4647
 6799SOL     OW31855   0.186   4.464   4.945  0.2355  0.1389 -0.4666
 6799SOL    HW131856   0.268   4.419   4.925 -1.3440 -2.2157 -1.4857
 6799SOL    HW231857   0.211   4.495   5.033  1.5029  0.2296 -0.8560
 6800SOL     OW31858   1.590   2.104   3.963  0.6117  0.1480  0.1495
 6800SOL    HW131859   1.623   2.193   3.979 -0.8736  0.7074  0.1525
 6800SOL    HW231860   1.574   2.111   3.869 -1.5117  0.3060  0.5235
 6801SOL     OW31861   3.625   1.903  13.314  0.3755  0.1808  0.2487
 6801SOL    HW131862   3.627   1.808  13.306 -1.3196 -0.0302  2.4018
 6801SOL    HW231863   3.651   1.920  13.404 -0.8251  2.6893  0.1384
 6802SOL     OW31864   0.958   0.489  13.452 -0.4636 -0.0108  0.3203
 6802SOL    HW131865   0.877   0.439  13.438 -0.4124  0.4561 -1.5952
 6802SOL    HW231866   0.980   0.549  13.381 -3.1406  1.9727  1.1902
 6803SOL     OW31867   3.256   1.990  12.645  0.1023 -0.2548  0.5437
 6803SOL    HW131868   3.340   2.030  12.625 -1.4726  2.6467 -0.2850
 6803SOL    HW231869   3.258   1.994  12.741  0.5679 -1.4268  0.5836
 6804SOL     OW31870   0.385   0.768   1.193  0.0453  0.0277 -0.1996
 6804SOL    HW131871   0.391   0.716   1.273 -1.2663  0.7649  0.3650
 6804SOL    HW231872   0.311   0.726   1.149  0.5526 -1.1115  0.0416
 6805SOL     OW31873   4.220   3.359   9.347  0.1773 -0.7574  0.5715
 6805SOL    HW131874   4.306   3.364   9.305 -0.0055  0.1713  0.3202
 6805SOL    HW231875   4.232   3.430   9.410  2.3347  0.9702 -1.7709
 6806SOL     OW31876   2.618   3.054   7.042 -0.1611  0.3515 -0.1618
 6806SOL    HW131877   2.692   3.042   7.100  1.1667  1.5978 -1.5929
 6806SOL    HW231878   2.570   2.976   7.069 -0.1787  0.3013 -0.3383
 6807SOL     OW31879   4.456   3.029   3.804  0.3773  0.0028 -0.1442
 6807SOL    HW131880   4.439   3.090   3.876  0.3702 -0.4294  0.2221
 6807SOL    HW231881   4.377   2.975   3.810  1.3089 -1.4345 -0.9292
 6808SOL     OW31882   1.015   2.182   6.567 -0.0469  0.0901  0.1721
 6808SOL    HW131883   1.039   2.273   6.547 -1.5271  0.4852  0.1729
 6808SOL    HW231884   0.987   2.191   6.658  0.8421 -0.4810  0.4965
 6809SOL     OW31885   0.007   0.845   2.146 -0.5445 -0.0525 -0.1891
 6809SOL    HW131886   0.031   0.793   2.069  1.1970 -1.8732  1.5888
 6809SOL    HW231887   4.643   0.868   2.121 -0.8410  1.2444  2.0860
 6810SOL     OW31888   0.775   4.492   0.961 -0.8743 -0.2213 -0.2518
 6810SOL    HW131889   0.828   4.565   0.928 -0.8911  0.7493  1.8758
 6810SOL    HW231890   0.821   4.418   0.921  1.2019  0.6268  0.5663
 6811SOL     OW31891   1.840   2.022   5.044  0.0569 -0.3910 -0.2054
 6811SOL    HW131892   1.911   1.958   5.050  0.9729  0.7431  0.9528
 6811SOL    HW231893   1.766   1.962   5.049  0.4802 -0.8983 -0.0621
 6812SOL     OW31894   1.491   4.305   5.926  0.5678 -0.3957 -0.0744
 6812SOL    HW131895   1.519   4.237   5.864 -4.4939 -2.9250  0.4357
 6812SOL    HW231896   1.577   4.348   5.923  1.3606 -1.9872 -0.2528
 6813SOL     OW31897   0.794   1.555   8.453  0.1257 -0.1938 -0.3995
 6813SOL    HW131898   0.825   1.632   8.405  0.7473 -0.3329 -0.2192
 6813SOL    HW231899   0.763   1.501   8.379 -0.2013  2.5810 -2.3104
 6814SOL     OW31900   3.111   2.639   7.143  0.2381 -0.0914 -0.4573
 6814SOL    HW131901   3.089   2.726   7.176 -2.1275 -0.8154 -0.1578
 6814SOL    HW231902   3.126   2.602   7.230 -0.1724 -2.3842 -1.3596
 6815SOL     OW31903   4.228   0.950   0.579  0.8172  0.5754 -0.3862
 6815SOL    HW131904   4.222   0.856   0.567 -0.0817  0.4950  0.6656
 6815SOL    HW231905   4.160   0.976   0.518  1.4252  0.6136 -1.0505
 6816SOL     OW31906   0.835   2.630   5.222 -0.3535 -0.3142  0.0882
 6816SOL    HW131907   0.843   2.618   5.127 -3.4076 -2.4726  0.1184
 6816SOL    HW231908   0.753   2.585   5.240 -1.4967  1.6721 -0.2249
 6817SOL     OW31909   3.333   4.058   4.728  0.0084 -0.1236  0.1987
 6817SOL    HW131910   3.322   3.987   4.665  2.5438 -0.9326  0.6924
 6817SOL    HW231911   3.285   4.128   4.684  1.5003  1.8514  1.7056
 6818SOL     OW31912   3.766   0.142   3.548  0.3358  0.2625 -0.7135
 6818SOL    HW131913   3.766   0.165   3.455  1.8355 -0.6671 -0.9359
 6818SOL    HW231914   3.839   0.081   3.555  1.6825  1.6904 -2.1778
 6819SOL     OW31915   2.487   2.612   4.446  0.0290  0.4545 -0.0789
 6819SOL    HW131916   2.403   2.573   4.467 -0.0531 -1.1322 -3.3637
 6819SOL    HW231917   2.550   2.570   4.505 -1.0658  0.1996  0.8919
 6820SOL     OW31918   0.887   0.223  15.050  1.1135  0.0565 -0.4135
 6820SOL    HW131919   0.830   0.150  15.076 -0.6178  1.6965  0.4142
 6820SOL    HW231920   0.907   0.201  14.959  0.0885  0.7780 -0.8187
 6821SOL     OW31921   0.643   0.841   1.933  0.0809  0.3305  0.0708
 6821SOL    HW131922   0.688   0.887   1.862 -0.0281 -1.8299 -1.3693
 6821SOL    HW231923   0.712   0.842   2.000  0.8588  0.6673 -0.7188
 6822SOL     OW31924   2.054   4.145   4.512 -0.0609  0.0078  0.2705
 6822SOL    HW131925   2.020   4.067   4.555  1.9625 -1.5159 -0.8924
 6822SOL    HW231926   2.142   4.145   4.552  0.9422  0.1708 -1.9374
 6823SOL     OW31927   2.869   4.368   8.178 -0.2459 -0.3966 -0.1821
 6823SOL    HW131928   2.925   4.446   8.178  0.9421 -1.2667  0.6215
 6823SOL    HW231929   2.889   4.335   8.265 -0.3767 -0.8760 -0.3382
 6824SOL     OW31930   0.977   0.941   8.596  0.2951 -0.9107  0.1507
 6824SOL    HW131931   0.995   0.886   8.672 -2.2137 -1.8138  0.0834
 6824SOL    HW231932   0.901   0.989   8.629  0.9207 -0.9186  1.5973
 6825SOL     OW31933   3.477   4.660  15.598  0.4059  0.5275 -0.6743
 6825SOL    HW131934   3.466   0.024  15.630 -0.2487  0.8672 -1.8563
 6825SOL    HW231935   3.419   4.613  15.658  0.0595  0.5720 -0.9766
 6826SOL     OW31936   2.561   1.274   8.445  0.0335  0.2341  1.0751
 6826SOL    HW131937   2.632   1.326   8.483  0.1225 -0.8265  2.4146
 6826SOL    HW231938   2.569   1.201   8.507 -0.3459 -0.9065 -0.2175
 6827SOL     OW31939   0.464   3.315   2.964 -0.2569  0.6340 -0.3839
 6827SOL    HW131940   0.375   3.312   2.929  0.5628 -2.2211 -2.1850
 6827SOL    HW231941   0.507   3.387   2.919 -0.0792 -0.2273 -1.5888
 6828SOL     OW31942   1.253   0.628   6.244  0.2806 -0.3655  0.5863
 6828SOL    HW131943   1.331   0.573   6.247  0.3744 -0.1552  2.1955
 6828SOL    HW231944   1.195   0.564   6.203 -1.2118 -0.4866  2.9003
 6829SOL     OW31945   0.255   2.044   2.454  0.3584 -0.2686  0.8187
 6829SOL    HW131946   0.179   2.097   2.475 -1.3108 -2.3531  0.0678
 6829SOL    HW231947   0.219   1.961   2.487  0.3106 -1.0598 -1.2081
 6830SOL     OW31948   1.852   2.820   9.176  0.3501 -0.0065 -0.4035
 6830SOL    HW131949   1.788   2.818   9.105 -2.4241 -1.3054  2.1559
 6830SOL    HW231950   1.908   2.750   9.142  2.5128  0.9146  1.2211
 6831SOL     OW31951   0.276   0.465   5.475  0.3111  0.7421 -0.3705
 6831SOL    HW131952   0.216   0.487   5.546  3.8159  3.0959  1.8675
 6831SOL    HW231953   0.223   0.478   5.397  0.4952  0.2526 -0.5736
 6832SOL     OW31954   4.389   0.665   5.430 -0.0752  0.4578  0.1409
 6832SOL    HW131955   4.465   0.665   5.371  1.0300  2.1491  1.5600
 6832SOL    HW231956   4.421   0.708   5.510 -0.6619  3.0983 -1.0287
 6833SOL     OW31957   0.514   0.853  17.187 -0.0141  1.2454 -0.8289
 6833SOL    HW131958   0.505   0.791  17.115  1.6784 -1.5711  1.3841
 6833SOL    HW231959   0.509   0.788  17.257 -0.7129 -0.0943 -2.1285
 6834SOL     OW31960   1.640   3.820   9.603  0.3495 -0.1876  0.0477
 6834SOL    HW131961   1.673   3.863   9.524  0.2725  0.4105  0.3406
 6834SOL    HW231962   1.558   3.777   9.581 -0.9915  2.4232 -0.0275
 6835SOL     OW31963   0.716   1.673   8.757  0.3866 -0.9975 -0.0295
 6835SOL    HW131964   0.779   1.727   8.805  1.0117 -0.6096 -1.3090
 6835SOL    HW231965   0.776   1.653   8.685  0.2535 -1.9157  0.1173
 6836SOL     OW31966   1.012   4.383   3.003  0.9656 -0.2403  0.4144
 6836SOL    HW131967   0.948   4.450   3.029  3.1909  1.7778  0.7038
 6836SOL    HW231968   1.063   4.363   3.082  1.1585  1.9338  0.8441
 6837SOL     OW31969   3.293   3.569   7.285  0.2715  0.1009  0.0643
 6837SOL    HW131970   3.303   3.506   7.356 -1.2599  0.6157  0.7250
 6837SOL    HW231971   3.250   3.517   7.217  1.8934 -2.0677  0.7173
 6838SOL     OW31972   0.733   4.569   6.489  0.0686 -0.1710 -0.4696
 6838SOL    HW131973   0.767   4.519   6.414  0.6164 -1.6884  0.8003
 6838SOL    HW231974   0.743   4.508   6.562  1.1743 -1.7416 -1.9483
 6839SOL     OW31975   3.505   1.676  17.083 -0.2304  0.2193  0.3405
 6839SOL    HW131976   3.410   1.670  17.094 -0.0315 -2.5146  0.6898
 6839SOL    HW231977   3.515   1.697  16.990  0.9954 -0.1587  0.3921
 6840SOL     OW31978   0.517   0.496   3.002  0.4739 -0.2752 -0.0051
 6840SOL    HW131979   0.532   0.441   2.925  0.2736  2.0395 -1.7096
 6840SOL    HW231980   0.458   0.563   2.967  2.2548  0.6403 -1.2482
 6841SOL     OW31981   3.665   1.645  14.222 -0.8007 -0.4579  0.4905
 6841SOL    HW131982   3.585   1.644  14.275 -1.3555 -0.8214 -0.3520
 6841SOL    HW231983   3.730   1.611  14.284 -1.5644 -0.5010  1.2530
 6842SOL     OW31984   4.037   2.900  10.003  0.7065  0.2554 -0.5239
 6842SOL    HW131985   4.021   2.840  10.076  1.6672  1.0838  0.3578
 6842SOL    HW231986   4.070   2.978  10.047 -0.3674  0.4392 -0.0334
 6843SOL     OW31987   4.473   4.603   2.514  0.2614  0.1990  1.1867
 6843SOL    HW131988   4.456   4.615   2.420  0.6034  0.6522  1.1809
 6843SOL    HW231989   4.568   4.617   2.510  0.1499  0.7984  0.6515
 6844SOL     OW31990   1.236   4.120   3.092  0.3825  0.3963 -0.1621
 6844SOL    HW131991   1.211   4.093   3.180  0.1549  2.8594  0.5287
 6844SOL    HW231992   1.242   4.215   3.099  4.2601  0.0316  1.2042
 6845SOL     OW31993   3.368   1.249   4.974 -0.1093 -0.0454 -0.3299
 6845SOL    HW131994   3.278   1.238   4.944  0.0794 -0.1174 -0.8726
 6845SOL    HW231995   3.396   1.158   4.975  0.5702  0.1551 -1.7973
 6846SOL     OW31996   2.747   4.358   7.904 -0.5228  0.3936  0.4491
 6846SOL    HW131997   2.676   4.297   7.884  0.9512 -1.0213 -0.3905
 6846SOL    HW231998   2.786   4.327   7.986  0.5792 -0.3503 -0.3644
 6847SOL     OW31999   1.786   2.390   6.573  0.5885 -0.4407 -0.8719
 6847SOL    HW132000   1.824   2.341   6.500  0.3007  1.1343 -2.0651
 6847SOL    HW232001   1.707   2.338   6.588 -1.4935  3.0227  0.1008
 6848SOL     OW32002   1.147   1.961   6.161  0.3337 -0.9165  0.7257
 6848SOL    HW132003   1.111   2.045   6.188 -0.0688 -0.0716 -2.4142
 6848SOL    HW232004   1.102   1.903   6.222 -1.0201  1.1044  1.5999
 6849SOL     OW32005   1.075   3.095   6.983 -0.2568 -0.2104  0.3898
 6849SOL    HW132006   1.099   3.129   7.070 -0.9658 -2.1486  1.3360
 6849SOL    HW232007   1.038   3.011   7.010  0.8350 -1.2789 -1.4675
 6850SOL     OW32008   4.227   1.771   0.975  0.0494  0.3930 -0.7557
 6850SOL    HW132009   4.202   1.737   0.890 -1.6044 -0.5057  0.1075
 6850SOL    HW232010   4.271   1.699   1.020  1.0737  1.9552  0.7597
 6851SOL     OW32011   0.513   0.789   5.901  0.7708 -0.2604 -0.5510
 6851SOL    HW132012   0.522   0.822   5.812 -0.8304 -0.1683 -0.6750
 6851SOL    HW232013   0.530   0.699   5.871 -0.7990 -0.0041 -2.2157
 6852SOL     OW32014   1.985   1.526   4.598  0.7198  0.4307  0.0513
 6852SOL    HW132015   1.954   1.550   4.686 -0.2615 -0.7939  0.0435
 6852SOL    HW232016   1.947   1.439   4.585  1.1960  0.5797 -2.2944
 6853SOL     OW32017   2.866   3.482  15.511 -0.5451  1.0296 -0.2962
 6853SOL    HW132018   2.796   3.426  15.545  0.9399  0.3969  1.6804
 6853SOL    HW232019   2.853   3.467  15.417  3.0954 -1.7613 -0.3490
 6854SOL     OW32020   3.228   4.681   3.424 -0.4963  0.1094  0.3234
 6854SOL    HW132021   3.303   4.650   3.374  1.1910  3.4119  0.7409
 6854SOL    HW232022   3.159   4.633   3.379 -0.4139 -0.5382  0.8818
 6855SOL     OW32023   2.515   1.432   0.389  0.1805 -0.3950 -0.0790
 6855SOL    HW132024   2.585   1.481   0.347 -1.0620  0.8399 -0.7112
 6855SOL    HW232025   2.449   1.496   0.415 -1.4228 -1.4370 -1.5137
 6856SOL     OW32026   4.455   3.699  10.624  0.1705  0.6713 -0.0839
 6856SOL    HW132027   4.413   3.761  10.684 -1.1543 -1.4149  1.1524
 6856SOL    HW232028   4.421   3.733  10.541  0.2598 -4.5803 -2.2650
 6857SOL     OW32029   0.083   1.190   0.903  0.0354  0.4701 -0.0906
 6857SOL    HW132030   0.018   1.199   0.973  0.7267 -3.0221  1.0177
 6857SOL    HW232031   0.125   1.275   0.890  0.7869  0.4313  2.0088
 6858SOL     OW32032   2.286   3.416   0.472 -0.1842 -0.7075 -0.4764
 6858SOL    HW132033   2.376   3.447   0.460 -0.9906  1.7650 -0.2300
 6858SOL    HW232034   2.242   3.480   0.416 -1.9143 -1.2551  0.2436
 6859SOL     OW32035   4.100   1.449  17.254  0.0867 -0.1861  0.3263
 6859SOL    HW132036   4.127   1.357  17.256 -1.3066 -0.6169 -0.2905
 6859SOL    HW232037   4.103   1.463  17.159  0.8473 -0.2311  0.3423
 6860SOL     OW32038   1.505   1.039  15.884 -0.3018 -0.2235  0.3209
 6860SOL    HW132039   1.475   1.103  15.819 -0.7404 -2.2101 -1.4435
 6860SOL    HW232040   1.566   0.990  15.828 -1.0880 -0.9055  0.0562
 6861SOL     OW32041   3.659   2.623  15.139  0.1225 -0.4078 -0.2263
 6861SOL    HW132042   3.699   2.536  15.147  1.2689  0.2882  1.9523
 6861SOL    HW232043   3.567   2.600  15.150  0.3609 -1.4843 -0.5771
 6862SOL     OW32044   4.069   1.646   6.263 -0.0682 -0.1521 -0.3174
 6862SOL    HW132045   4.067   1.608   6.175  2.1903 -0.5631 -0.1954
 6862SOL    HW232046   4.078   1.735   6.229  0.9044 -0.9218 -2.1164
 6863SOL     OW32047   0.935   3.016   5.559 -0.2684 -0.0441 -0.2063
 6863SOL    HW132048   1.007   3.019   5.496  1.4720 -0.6719  1.7642
 6863SOL    HW232049   0.858   3.006   5.504  0.5130  1.3506 -1.5367
 6864SOL     OW32050   4.012   2.591  10.752 -0.1767 -0.4265 -0.3542
 6864SOL    HW132051   4.061   2.655  10.700 -0.9218  1.4227  1.2187
 6864SOL    HW232052   3.921   2.611  10.730  0.5816  2.4136 -0.9053
 6865SOL     OW32053   4.280   0.383   8.425 -0.3711  0.3034 -0.1102
 6865SOL    HW132054   4.223   0.447   8.382 -2.4479 -1.5331 -0.0753
 6865SOL    HW232055   4.326   0.435   8.492  0.0483 -0.7028  0.3867
 6866SOL     OW32056   4.176   2.470   0.942  0.8376  0.0726  0.3840
 6866SOL    HW132057   4.144   2.472   1.032 -1.6750 -0.4484 -0.4954
 6866SOL    HW232058   4.168   2.379   0.913 -0.4963  0.5554 -0.7657
 6867SOL     OW32059   3.691   0.735   9.053 -0.2250 -0.3596  0.0628
 6867SOL    HW132060   3.649   0.784   8.983 -0.5205  0.4338  0.7931
 6867SOL    HW232061   3.781   0.746   9.024  0.4349 -1.5799  1.6064
 6868SOL     OW32062   0.262   2.142   6.228 -0.4644  0.9452  0.4099
 6868SOL    HW132063   0.189   2.180   6.179 -1.3220  1.0795  1.7731
 6868SOL    HW232064   0.321   2.131   6.154 -1.5468 -0.9273 -0.1613
 6869SOL     OW32065   3.687   0.916   7.957  0.1287  0.0623  0.5714
 6869SOL    HW132066   3.665   0.954   8.042 -1.2095  0.4210  0.0711
 6869SOL    HW232067   3.736   0.987   7.915  0.0572  0.3380  0.9511
 6870SOL     OW32068   1.508   4.530   5.718 -0.3185 -0.1773  0.0852
 6870SOL    HW132069   1.574   4.520   5.786  2.1902  2.5509 -1.9959
 6870SOL    HW232070   1.566   4.565   5.651 -1.4097 -0.2258 -0.8788
 6871SOL     OW32071   2.821   1.736   1.743 -0.5096 -0.7411 -0.6285
 6871SOL    HW132072   2.859   1.702   1.824  0.5770  2.0649  0.0638
 6871SOL    HW232073   2.835   1.668   1.678 -0.5602 -1.2735 -0.0749
 6872SOL     OW32074   1.691   3.567   9.400 -0.0478  0.6568  0.4817
 6872SOL    HW132075   1.741   3.519   9.466  1.3922  0.5933 -0.6514
 6872SOL    HW232076   1.608   3.600   9.434 -0.7214 -1.3182  0.7435
 6873SOL     OW32077   1.750   2.675  11.802  0.6465 -0.0695 -0.1697
 6873SOL    HW132078   1.744   2.749  11.862  0.6190  0.3905 -0.7347
 6873SOL    HW232079   1.715   2.608  11.860  0.1677  1.8418  1.7613
 6874SOL     OW32080   1.614   0.427   9.949 -0.4000 -0.5864 -0.3153
 6874SOL    HW132081   1.647   0.516   9.961  0.3139 -1.0414  1.0594
 6874SOL    HW232082   1.610   0.390  10.038  0.3184  0.2881  0.0789
 6875SOL     OW32083   4.650   0.076   2.766 -0.0651  1.1935  0.2927
 6875SOL    HW132084   4.631   4.717   2.807 -0.4666  0.1244 -2.0868
 6875SOL    HW232085   4.567   0.101   2.726  0.2515  0.7066 -0.6748
 6876SOL     OW32086   0.943   3.812   6.214  0.1555  0.0554  0.8028
 6876SOL    HW132087   0.860   3.776   6.184  0.5233 -0.1134 -0.0267
 6876SOL    HW232088   0.967   3.877   6.148  1.1405  0.1504  1.2578
 6877SOL     OW32089   0.398   4.432   6.941 -1.6120  0.2388 -0.9503
 6877SOL    HW132090   0.373   4.453   7.031  1.4500 -0.3458  0.0114
 6877SOL    HW232091   0.409   4.338   6.955  1.6099  0.6578 -0.7036
 6878SOL     OW32092   4.113   1.181   2.854 -0.2486 -0.2496 -0.4765
 6878SOL    HW132093   4.114   1.275   2.838 -1.8578  0.2258  2.2174
 6878SOL    HW232094   4.196   1.161   2.896 -0.1720 -0.8894 -0.9314
 6879SOL     OW32095   1.328   0.361   4.408  0.0499 -0.0734 -0.6379
 6879SOL    HW132096   1.290   0.426   4.468  0.5212  0.1385 -0.5730
 6879SOL    HW232097   1.302   0.388   4.320  0.3324 -0.5574 -0.8633
 6880SOL     OW32098   3.554   2.372  15.803  0.2583  0.2085 -0.0164
 6880SOL    HW132099   3.638   2.376  15.759  0.2581  3.3535  0.2918
 6880SOL    HW232100   3.584   2.314  15.873  2.5976  1.7207  0.2321
 6881SOL     OW32101   1.221   4.548   5.844  0.6316  0.7840 -0.3986
 6881SOL    HW132102   1.258   4.629   5.809  2.0078  0.0657 -0.6286
 6881SOL    HW232103   1.292   4.485   5.828 -1.3899 -1.1713 -1.6381
 6882SOL     OW32104   1.193   2.161   8.397 -0.4961 -0.5063 -0.0030
 6882SOL    HW132105   1.230   2.247   8.416 -0.0350 -0.8764  0.7761
 6882SOL    HW232106   1.146   2.181   8.316 -1.0553 -0.5859  0.3026
 6883SOL     OW32107   4.201   0.252   7.203  0.2793  0.3684 -0.3994
 6883SOL    HW132108   4.268   0.187   7.226 -1.2714 -0.5893  1.3690
 6883SOL    HW232109   4.226   0.316   7.269 -2.7257  0.8386  0.2724
 6884SOL     OW32110   2.691   0.415   6.361  0.4315 -0.1942  0.1185
 6884SOL    HW132111   2.658   0.455   6.442 -2.4227 -1.6421 -0.3264
 6884SOL    HW232112   2.757   0.477   6.333  1.1658 -0.7262  0.6591
 6885SOL     OW32113   1.999   3.923   5.164 -0.4252  0.1475  0.6462
 6885SOL    HW132114   2.039   3.933   5.077 -0.3487 -0.7108  0.5869
 6885SOL    HW232115   1.955   4.008   5.169 -0.4623  0.1670 -0.0398
 6886SOL     OW32116   1.773   1.387   2.431 -0.2950  0.5970  0.0396
 6886SOL    HW132117   1.838   1.318   2.446 -0.8013  0.1235  0.0643
 6886SOL    HW232118   1.713   1.336   2.377 -2.6821  0.5516  2.7323
 6887SOL     OW32119   1.628   3.922   7.587  0.0638  0.2418  0.3100
 6887SOL    HW132120   1.586   3.919   7.673 -1.9440 -1.5847 -0.7179
 6887SOL    HW232121   1.674   4.006   7.584  0.1099  0.2522  1.1737
 6888SOL     OW32122   0.181   3.787   6.362  0.5486  0.0209  0.0143
 6888SOL    HW132123   0.147   3.821   6.444  0.5367 -1.7678  0.7328
 6888SOL    HW232124   0.118   3.827   6.301 -0.5435 -2.6756 -0.6359
 6889SOL     OW32125   0.369   1.938  10.578  0.7322  1.2015  0.3430
 6889SOL    HW132126   0.305   1.880  10.618  1.3813  0.3935  0.2029
 6889SOL    HW232127   0.430   1.875  10.540 -1.4852  0.5164 -2.0754
 6890SOL     OW32128   3.062   3.238   8.152 -0.5424  0.4972  0.2657
 6890SOL    HW132129   3.111   3.157   8.166  0.1440  0.5518 -1.7849
 6890SOL    HW232130   3.027   3.220   8.065 -1.6057 -0.0434  0.8159
 6891SOL     OW32131   1.496   3.818   4.566 -0.3094 -0.2278 -0.0115
 6891SOL    HW132132   1.506   3.851   4.477 -3.3511  1.8977  0.4290
 6891SOL    HW232133   1.458   3.731   4.555 -0.2057 -0.1687 -0.8066
 6892SOL     OW32134   2.839   2.649   7.487  0.5184  0.0738 -0.3260
 6892SOL    HW132135   2.900   2.577   7.472  1.6188  1.1145 -0.8023
 6892SOL    HW232136   2.884   2.719   7.440  1.1539 -0.4911 -0.5522
 6893SOL     OW32137   0.721   0.121   2.289  0.3803  0.7350 -0.0398
 6893SOL    HW132138   0.780   0.053   2.319  0.3386  0.7345  0.0397
 6893SOL    HW232139   0.755   0.197   2.336  1.7508  0.2610 -0.2598
 6894SOL     OW32140   1.163   0.868  17.460 -0.1358 -0.2999  1.1227
 6894SOL    HW132141   1.254   0.858  17.486 -0.3473 -1.0320  1.5742
 6894SOL    HW232142   1.163   0.952  17.413 -1.1812 -1.7383 -1.4731
 6895SOL     OW32143   1.123   2.661   5.780  0.0447 -0.0074 -0.5521
 6895SOL    HW132144   1.200   2.638   5.728 -0.4066  1.3024 -1.8012
 6895SOL    HW232145   1.118   2.584   5.837  0.2437  0.1603 -0.3037
 6896SOL     OW32146   3.838   2.937   4.514  0.5106  0.2685  0.5674
 6896SOL    HW132147   3.793   2.989   4.447  0.7998  1.8452  1.6108
 6896SOL    HW232148   3.927   2.971   4.514  0.7107 -0.2543  0.9893
 6897SOL     OW32149   0.011   3.339   7.763  0.3316  0.1087  0.1744
 6897SOL    HW132150   0.098   3.320   7.797 -0.2934 -1.7488  0.6897
 6897SOL    HW232151   4.684   3.289   7.826  0.3935 -1.3945 -0.9787
 6898SOL     OW32152   1.273   0.199  16.513 -0.2376 -0.5029 -0.7996
 6898SOL    HW132153   1.236   0.279  16.549 -0.7456 -2.6728  3.5145
 6898SOL    HW232154   1.326   0.237  16.442 -0.4891 -2.1258 -1.8556
 6899SOL     OW32155   3.352   3.491   3.066  0.1764  0.2932 -0.0331
 6899SOL    HW132156   3.414   3.463   2.998 -0.7719 -1.7231 -0.0356
 6899SOL    HW232157   3.406   3.565   3.094  2.1408 -1.1684  0.0704
 6900SOL     OW32158   2.973   4.105  15.745  0.1475 -0.0858 -0.1334
 6900SOL    HW132159   2.899   4.101  15.684 -1.2670  1.1301  1.4981
 6900SOL    HW232160   3.006   4.017  15.727 -2.1798 -0.8835 -0.5873
 6901SOL     OW32161   3.423   3.747  16.812 -0.2368  0.0431 -0.3688
 6901SOL    HW132162   3.336   3.786  16.809 -0.1146  0.3065 -0.4898
 6901SOL    HW232163   3.477   3.777  16.739  0.2320  0.5374  0.1871
 6902SOL     OW32164   1.111   1.620   6.980  0.0676 -0.2398  0.2407
 6902SOL    HW132165   1.095   1.548   7.042 -0.5497 -1.6639 -1.5714
 6902SOL    HW232166   1.206   1.627   6.991 -0.1388  0.9233  1.2704
 6903SOL     OW32167   0.855   4.095   5.747 -0.7932 -0.2568 -0.2259
 6903SOL    HW132168   0.938   4.141   5.760  0.3884 -2.1693 -0.8648
 6903SOL    HW232169   0.798   4.157   5.702  0.2638  1.2893  0.5583
 6904SOL     OW32170   4.058   2.941  12.474 -0.0650 -0.0431 -0.7411
 6904SOL    HW132171   4.015   2.913  12.393 -0.2880 -1.5011 -0.1087
 6904SOL    HW232172   4.090   3.027  12.444 -2.2169  1.0185 -0.0041
 6905SOL     OW32173   3.138   0.247   6.264  0.1251 -0.0772 -0.6396
 6905SOL    HW132174   3.133   0.230   6.358 -2.5842 -0.7391 -0.9024
 6905SOL    HW232175   3.174   0.168   6.225 -1.1404 -0.9614 -0.0173
 6906SOL     OW32176   3.928   0.289   1.125  0.3864 -0.7138  0.3915
 6906SOL    HW132177   3.867   0.326   1.062 -1.9715 -1.0953  2.4560
 6906SOL    HW232178   3.953   0.361   1.184  1.6889 -1.6474  0.9905
 6907SOL     OW32179   1.324   4.495   5.105 -0.2808 -0.8392 -0.3613
 6907SOL    HW132180   1.307   4.474   5.013  1.1092 -1.8645 -0.3754
 6907SOL    HW232181   1.343   4.588   5.098  0.6508 -1.2555 -3.2310
 6908SOL     OW32182   3.061   3.896   7.573  0.3045  0.1068 -0.1080
 6908SOL    HW132183   3.093   3.982   7.543  0.3482 -0.2816 -1.1640
 6908SOL    HW232184   3.064   3.848   7.490 -0.5481 -0.3366  0.1195
 6909SOL     OW32185   1.867   2.242  14.525  0.1685 -0.0978 -1.4648
 6909SOL    HW132186   1.916   2.186  14.585  0.2276 -0.6575 -2.0416
 6909SOL    HW232187   1.917   2.323  14.514 -0.0575  0.4633  1.4836
 6910SOL     OW32188   2.839   1.430   4.245  0.4087 -0.4171 -0.5972
 6910SOL    HW132189   2.826   1.340   4.217 -0.3105 -0.0590 -1.4279
 6910SOL    HW232190   2.806   1.432   4.334  0.3795  0.7756 -0.6295
 6911SOL     OW32191   1.464   4.270   3.422  0.2356  0.1172  0.7046
 6911SOL    HW132192   1.462   4.176   3.402  1.5445  0.3793 -0.5783
 6911SOL    HW232193   1.477   4.251   3.515 -0.5994  1.2375  1.0498
 6912SOL     OW32194   2.114   4.102   2.005  0.5899 -0.7983  0.0124
 6912SOL    HW132195   2.104   4.008   2.015 -1.2898 -0.4304  1.6177
 6912SOL    HW232196   2.130   4.118   1.911 -0.3789  1.7686  0.2653
 6913SOL     OW32197   1.194   1.499   8.198 -0.6634  0.1006  0.4446
 6913SOL    HW132198   1.163   1.588   8.217  1.7659  0.9511  0.4158
 6913SOL    HW232199   1.287   1.515   8.185 -0.5810 -1.1826 -0.4831
 6914SOL     OW32200   2.156   1.930   4.735 -0.2380 -0.1821  0.4146
 6914SOL    HW132201   2.126   1.899   4.650 -0.2777 -0.2463  0.4520
 6914SOL    HW232202   2.090   1.996   4.754 -0.3333 -0.3597  0.7021
 6915SOL     OW32203   3.043   3.061   4.006  0.3504 -0.1124  0.0666
 6915SOL    HW132204   2.988   2.991   4.042  0.8589 -0.6919 -0.2957
 6915SOL    HW232205   2.991   3.141   4.000  0.5396  0.0497  0.5707
 6916SOL     OW32206   3.547   4.477   3.122 -0.4888  0.0030  0.1284
 6916SOL    HW132207   3.553   4.455   3.215 -2.2468 -0.0033  0.2431
 6916SOL    HW232208   3.566   4.569   3.137  1.5020 -0.0381 -2.0890
 6917SOL     OW32209   1.748   2.749   7.371 -0.5868 -0.4977  0.0613
 6917SOL    HW132210   1.734   2.831   7.417  1.8583 -0.7982  1.3427
 6917SOL    HW232211   1.816   2.783   7.312 -0.7201 -2.7696 -1.4063
 6918SOL     OW32212   2.704   3.084   4.958 -0.1036 -0.4806 -0.0048
 6918SOL    HW132213   2.624   3.072   5.009 -0.9898  1.4066 -0.9070
 6918SOL    HW232214   2.750   3.004   4.980 -0.9144 -0.9658 -0.0808
 6919SOL     OW32215   1.889   2.084   3.402  0.2296  0.1276  0.1997
 6919SOL    HW132216   1.868   2.115   3.314 -1.1783  1.0594  0.8608
 6919SOL    HW232217   1.981   2.060   3.395  0.1532 -0.0758 -0.0851
 6920SOL     OW32218   0.289   1.747   3.501 -0.3217 -0.4121 -0.2471
 6920SOL    HW132219   0.369   1.720   3.545 -0.7850 -0.6922  0.4231
 6920SOL    HW232220   0.298   1.727   3.408  0.9928  1.8108 -0.6093
 6921SOL     OW32221   3.288   0.810  10.229 -0.0248  0.1440  0.1701
 6921SOL    HW132222   3.260   0.731  10.276  2.3832  0.5553  2.2957
 6921SOL    HW232223   3.276   0.779  10.139 -2.2153  2.2717 -0.2557
 6922SOL     OW32224   2.311   2.894  11.576  0.0336  0.1892  0.4040
 6922SOL    HW132225   2.399   2.931  11.572  0.1433  0.1857  2.8196
 6922SOL    HW232226   2.282   2.904  11.666 -0.2275 -2.1957  0.6018
 6923SOL     OW32227   3.149   2.764   8.187 -0.0454 -0.3007  0.1195
 6923SOL    HW132228   3.099   2.719   8.255 -1.0213  0.7539  0.0984
 6923SOL    HW232229   3.172   2.844   8.235  2.4648 -1.1350  0.3275
 6924SOL     OW32230   3.374   4.570   1.646  0.0924 -0.3489  0.2988
 6924SOL    HW132231   3.360   4.664   1.633 -1.9972 -1.0943 -2.7625
 6924SOL    HW232232   3.330   4.533   1.570  3.3129 -2.7707 -0.4075
 6925SOL     OW32233   3.430   3.790  13.618  0.2714 -0.1961  0.0505
 6925SOL    HW132234   3.429   3.706  13.665  0.5701  0.2613  0.8696
 6925SOL    HW232235   3.519   3.796  13.583 -0.5456 -1.6069 -2.3219
 6926SOL     OW32236   2.118   0.712  11.513 -0.0030  0.6428  0.3173
 6926SOL    HW132237   2.206   0.694  11.545 -0.1224 -0.3761  0.0923
 6926SOL    HW232238   2.125   0.685  11.421 -3.7191  0.5450  0.0621
 6927SOL     OW32239   2.888   0.987  11.104 -0.0671  0.0509 -0.0318
 6927SOL    HW132240   2.837   0.910  11.128  1.3227 -1.1710 -1.0407
 6927SOL    HW232241   2.958   0.970  11.167  0.2606  1.1083 -0.1172
 6928SOL     OW32242   2.822   3.318   6.970  0.1248  0.0299  0.1162
 6928SOL    HW132243   2.747   3.309   6.912 -2.0347  0.8383  2.7494
 6928SOL    HW232244   2.817   3.411   6.992 -1.2148  0.2164 -0.9815
 6929SOL     OW32245   0.325   2.984   6.316 -0.5695 -0.2446  0.6364
 6929SOL    HW132246   0.386   2.951   6.251 -0.6688  1.8614 -0.5077
 6929SOL    HW232247   0.382   3.017   6.385  1.9981 -1.6192 -0.8120
 6930SOL     OW32248   1.993   2.126   1.810  0.2760  0.2450  0.2424
 6930SOL    HW132249   2.064   2.172   1.764  0.7955  0.1637  0.9617
 6930SOL    HW232250   1.921   2.185   1.787  0.8090  0.5293 -0.7234
 6931SOL     OW32251   4.383   0.616   2.664  0.0537  0.3552  0.3348
 6931SOL    HW132252   4.384   0.677   2.738  1.4524 -1.4212  1.7986
 6931SOL    HW232253   4.288   0.616   2.663  0.0622  1.7754 -0.9538
 6932SOL     OW32254   3.831   1.896  17.646  0.3210 -0.2793 -0.0135
 6932SOL    HW132255   3.890   1.821  17.653 -2.0140 -1.7010  4.7645
 6932SOL    HW232256   3.835   1.937   0.031 -0.0676 -0.1716 -0.0441
 6933SOL     OW32257   3.508   1.556  14.445 -0.3520  0.7900 -0.4686
 6933SOL    HW132258   3.563   1.610  14.501  2.5425 -4.7318  1.9801
 6933SOL    HW232259   3.567   1.480  14.452  0.9686  1.8455 -0.1899
 6934SOL     OW32260   2.650   1.331   8.002  0.2437  0.3592 -0.3355
 6934SOL    HW132261   2.715   1.262   8.015 -0.5437 -0.3971 -0.4081
 6934SOL    HW232262   2.679   1.370   7.920  0.9494  0.5483  0.0035
 6935SOL     OW32263   1.557   2.322   5.237  0.0237  0.2994 -0.6980
 6935SOL    HW132264   1.652   2.311   5.238  0.0719  0.7172 -0.5804
 6935SOL    HW232265   1.522   2.241   5.199 -1.2308 -0.0836  1.2932
 6936SOL     OW32266   3.178   4.644  16.034  0.4677  0.7083 -0.6046
 6936SOL    HW132267   3.177   4.702  15.958  1.1677  1.0085 -0.3842
 6936SOL    HW232268   3.089   4.610  16.032 -0.4097  2.9250  0.9623
 6937SOL     OW32269   1.268   0.303   5.960 -0.6655 -0.2771  0.2000
 6937SOL    HW132270   1.242   0.341   5.876 -0.2758 -0.9414 -0.2219
 6937SOL    HW232271   1.363   0.318   5.956 -0.7617 -0.4838 -2.8445
 6938SOL     OW32272   2.497   0.489   8.630 -0.1588 -0.0825 -0.5185
 6938SOL    HW132273   2.512   0.396   8.615  0.6152 -0.2922  1.5942
 6938SOL    HW232274   2.571   0.521   8.681  0.7196 -2.0899 -0.5256
 6939SOL     OW32275   3.627   2.394  13.737  0.3298  0.1059  0.2965
 6939SOL    HW132276   3.572   2.471  13.733 -0.8476 -0.7301  0.4237
 6939SOL    HW232277   3.569   2.320  13.754  1.2114 -1.1763 -2.1922
 6940SOL     OW32278   1.843   0.224   6.899  0.1621 -0.0278  0.3611
 6940SOL    HW132279   1.882   0.310   6.883 -0.3874  0.4991  1.8845
 6940SOL    HW232280   1.758   0.234   6.857  1.6651  0.7414 -2.4948
 6941SOL     OW32281   4.630   1.572   5.623 -0.3854 -0.1685  0.2444
 6941SOL    HW132282   4.611   1.488   5.666  0.8927 -1.4039 -1.6403
 6941SOL    HW232283   4.540   1.601   5.607  0.0735  1.2598  0.2926
 6942SOL     OW32284   3.958   2.002   7.235  0.4140  0.1439 -0.4053
 6942SOL    HW132285   4.025   1.959   7.181  1.2060  0.6482  0.1783
 6942SOL    HW232286   3.923   2.073   7.183 -1.8354 -0.2898  0.5278
 6943SOL     OW32287   2.570   1.764   8.860 -0.6609 -0.2751 -0.1070
 6943SOL    HW132288   2.499   1.704   8.884  0.0669 -0.6035  1.2047
 6943SOL    HW232289   2.549   1.842   8.910 -0.4618 -0.5845  0.4593
 6944SOL     OW32290   0.144   3.268   4.727  0.2048  0.2109 -0.0951
 6944SOL    HW132291   0.227   3.229   4.699  0.9198  1.4147  0.3870
 6944SOL    HW232292   0.149   3.354   4.686  0.0273 -0.6079 -1.8437
 6945SOL     OW32293   4.529   1.589  13.335 -0.1595 -0.1175 -0.1680
 6945SOL    HW132294   4.467   1.555  13.271 -0.1290  0.6596 -0.6252
 6945SOL    HW232295   4.502   1.681  13.334 -0.4743 -0.2116 -0.0113
 6946SOL     OW32296   2.320   2.165  14.362  0.0082 -0.3508  0.1051
 6946SOL    HW132297   2.280   2.096  14.310  2.0530 -0.9522 -0.6522
 6946SOL    HW232298   2.274   2.245  14.336 -0.9001 -0.0993  2.4372
 6947SOL     OW32299   2.528   3.171   7.482 -0.5071 -0.8618 -0.2539
 6947SOL    HW132300   2.528   3.087   7.437 -1.4708  0.6695 -3.1784
 6947SOL    HW232301   2.438   3.196   7.464 -0.1078  1.6635  1.2480
 6948SOL     OW32302   3.543   0.334  10.522 -0.0014  0.3045 -0.5447
 6948SOL    HW132303   3.591   0.253  10.541  1.0045  0.7685 -1.1213
 6948SOL    HW232304   3.503   0.353  10.607  1.1344 -1.8624  0.4639
 6949SOL     OW32305   0.579   1.709   8.082 -0.4882 -0.5300  0.7187
 6949SOL    HW132306   0.592   1.759   8.162 -0.2168  0.6708 -0.0599
 6949SOL    HW232307   0.610   1.626   8.117 -1.2260 -2.0383 -2.1762
 6950SOL     OW32308   2.546   0.467   2.022  0.3150  0.5791 -0.0202
 6950SOL    HW132309   2.546   0.375   1.996  0.7572  0.3995  0.5903
 6950SOL    HW232310   2.637   0.481   2.050  0.4112  2.8075 -1.4449
 6951SOL     OW32311   1.571   3.433   6.433  0.2097  0.1420 -0.2412
 6951SOL    HW132312   1.612   3.494   6.372 -0.6705 -0.9039 -1.8759
 6951SOL    HW232313   1.569   3.352   6.383 -0.1373 -0.9263  1.4827
 6952SOL     OW32314   4.038   0.380   1.625 -0.1049  0.7706 -0.0545
 6952SOL    HW132315   4.102   0.447   1.647  0.5619 -0.7160  2.5909
 6952SOL    HW232316   4.045   0.318   1.698  1.4970  1.3422  0.2811
 6953SOL     OW32317   3.785   2.028  12.390 -0.6027  0.2146 -0.4126
 6953SOL    HW132318   3.759   1.954  12.444 -2.3463  1.7430  0.8439
 6953SOL    HW232319   3.874   2.046  12.420 -0.9925  2.9488 -0.8839
 6954SOL     OW32320   2.702   3.489   9.673  0.3825 -0.5162  0.3387
 6954SOL    HW132321   2.707   3.415   9.734  3.0525 -0.7655 -0.1897
 6954SOL    HW232322   2.781   3.537   9.695 -0.0004  0.7549 -1.0707
 6955SOL     OW32323   4.082   1.754   0.033 -0.0135  0.3779 -0.0271
 6955SOL    HW132324   4.003   1.706   0.061  0.4400  0.2972  1.1025
 6955SOL    HW232325   4.124   1.693  17.674 -1.2874 -0.8824  0.3357
 6956SOL     OW32326   4.604   1.113   7.321 -0.6791 -0.1037 -0.1276
 6956SOL    HW132327   4.669   1.044   7.308 -0.4661  0.2037 -0.7158
 6956SOL    HW232328   4.666   1.175   7.359 -0.0112  0.5292 -2.2522
 6957SOL     OW32329   2.264   2.393   2.691 -0.3013 -0.3580  0.1465
 6957SOL    HW132330   2.297   2.319   2.742 -0.9054 -1.2168 -0.7063
 6957SOL    HW232331   2.330   2.457   2.718  0.7055 -0.8841 -1.0781
 6958SOL     OW32332   0.100   1.710  10.539 -0.5143 -0.0237  0.4614
 6958SOL    HW132333   0.114   1.670  10.454  0.5747  0.7283  0.2860
 6958SOL    HW232334   0.022   1.764  10.523 -0.5309 -0.8751 -2.2164
 6959SOL     OW32335   2.921   2.552   3.604  0.9150  0.7519 -0.0049
 6959SOL    HW132336   2.892   2.461   3.618  0.4897  0.9279  0.2606
 6959SOL    HW232337   3.014   2.549   3.581  1.2448  4.0071  0.9924
 6960SOL     OW32338   1.382   3.352   6.869  0.0977  0.7033  0.5974
 6960SOL    HW132339   1.424   3.268   6.888  0.3350  0.3332 -1.5851
 6960SOL    HW232340   1.456   3.400   6.833 -1.3908  2.3275 -0.3035
 6961SOL     OW32341   0.083   2.260   0.573  0.1482 -0.1571  0.0312
 6961SOL    HW132342   0.092   2.309   0.655  0.5108  1.8930 -1.2401
 6961SOL    HW232343   0.086   2.330   0.508  0.0812 -0.5152 -0.3520
 6962SOL     OW32344   3.264   0.659   4.483 -0.6367 -0.4399 -0.1518
 6962SOL    HW132345   3.313   0.709   4.548 -0.8913  0.0655 -0.3532
 6962SOL    HW232346   3.286   0.720   4.413  2.1791 -1.9829 -0.6564
 6963SOL     OW32347   1.666   0.581   9.606  0.3603 -0.3035  0.6455
 6963SOL    HW132348   1.744   0.592   9.660  0.7895 -1.4623  0.2462
 6963SOL    HW232349   1.619   0.660   9.634 -0.1512  0.2363 -1.7359
 6964SOL     OW32350   3.636   0.143   2.678  0.3989  0.2092 -0.7345
 6964SOL    HW132351   3.708   0.080   2.686 -1.2587 -1.4298  1.0866
 6964SOL    HW232352   3.565   0.084   2.656 -0.3276  0.6582  0.3735
 6965SOL     OW32353   3.506   2.507   5.949  0.4145  0.4969  0.2584
 6965SOL    HW132354   3.500   2.580   5.886 -1.1412 -0.4189 -0.6501
 6965SOL    HW232355   3.596   2.516   5.978  0.3531  0.7427  0.3716
 6966SOL     OW32356   0.190   2.914   1.448  0.1586  0.0071 -0.0467
 6966SOL    HW132357   0.159   2.909   1.538 -0.3029  1.9188 -0.1127
 6966SOL    HW232358   0.115   2.943   1.396  1.0347 -0.3184 -1.4778
 6967SOL     OW32359   0.601   0.935   1.103 -0.4439  0.6589 -0.6380
 6967SOL    HW132360   0.521   0.889   1.129  0.3597 -1.4446 -1.9532
 6967SOL    HW232361   0.571   1.024   1.084  1.4604  1.0079 -1.9765
 6968SOL     OW32362   1.970   1.374   6.232  0.0370 -0.5914 -0.2049
 6968SOL    HW132363   2.023   1.403   6.158 -0.2656  1.2925  0.3377
 6968SOL    HW232364   1.953   1.282   6.211 -1.3677 -0.5282  0.6584
 6969SOL     OW32365   3.199   2.209   6.482  1.1524  0.1332 -0.0760
 6969SOL    HW132366   3.250   2.182   6.405  1.1312 -0.1169 -0.0017
 6969SOL    HW232367   3.244   2.178   6.561 -1.0131  0.8403  1.4173
 6970SOL     OW32368   0.286   4.610  11.771  0.1785  0.0324  1.0905
 6970SOL    HW132369   0.231   4.685  11.745  1.9149  1.7706  2.4771
 6970SOL    HW232370   0.228   4.553  11.821  0.3114 -0.7074  0.3961
 6971SOL     OW32371   2.814   2.639  13.646  0.7861 -0.4089 -0.3041
 6971SOL    HW132372   2.726   2.604  13.633  0.8925 -0.6046 -0.4902
 6971SOL    HW232373   2.809   2.733  13.628 -2.4969 -0.5916 -0.3180
 6972SOL     OW32374   4.592   0.684  17.384 -0.0599 -0.1039  0.0246
 6972SOL    HW132375   4.536   0.745  17.336  0.6842 -0.3780 -1.2195
 6972SOL    HW232376   4.532   0.653  17.452 -0.4706  1.2630  0.2723
 6973SOL     OW32377   2.489   1.049   7.001  0.4194 -0.6279  0.2767
 6973SOL    HW132378   2.493   0.989   6.928  0.5873 -0.6832  0.3320
 6973SOL    HW232379   2.576   1.088   7.002 -0.4528  1.3460  2.8551
 6974SOL     OW32380   2.092   2.801   5.827 -0.0002  0.0935  0.2552
 6974SOL    HW132381   2.148   2.746   5.882  0.1479  0.4071  0.4122
 6974SOL    HW232382   2.013   2.819   5.877  0.3470 -3.0488  1.9492
 6975SOL     OW32383   2.558   2.391   3.514 -0.6563 -0.0948  0.0857
 6975SOL    HW132384   2.521   2.410   3.428  0.5509  2.5836  0.1807
 6975SOL    HW232385   2.507   2.448   3.571  0.0128  2.0434 -1.4632
 6976SOL     OW32386   3.939   0.536   3.437  0.0533 -0.1403  0.5831
 6976SOL    HW132387   4.006   0.479   3.398 -0.4584 -1.1648  1.2039
 6976SOL    HW232388   3.978   0.622   3.420  1.6024 -0.8969  0.2650
 6977SOL     OW32389   4.005   4.482   9.506 -0.0480 -0.3067  0.5231
 6977SOL    HW132390   4.029   4.532   9.428 -1.6027 -1.3400 -0.6172
 6977SOL    HW232391   3.994   4.392   9.476  1.5275  0.8927 -3.6593
 6978SOL     OW32392   3.919   3.904   5.817  0.2026  0.2966 -0.3708
 6978SOL    HW132393   3.851   3.853   5.773 -1.1205  0.1885  1.8018
 6978SOL    HW232394   3.873   3.911   5.901  1.6842 -2.6345  0.7076
 6979SOL     OW32395   0.432   2.398  13.392  0.7264 -0.3076 -0.1777
 6979SOL    HW132396   0.404   2.312  13.423  0.7314  0.4848  2.0253
 6979SOL    HW232397   0.351   2.442  13.367  0.4392 -1.5822 -1.4358
 6980SOL     OW32398   2.181   1.765   7.233  0.3212  0.6041  0.1122
 6980SOL    HW132399   2.105   1.818   7.207 -0.3818 -1.3509 -1.8286
 6980SOL    HW232400   2.248   1.833   7.237  0.9608 -0.0151 -0.0960
 6981SOL     OW32401   1.896   0.673   6.792 -0.1361  0.1440  0.2194
 6981SOL    HW132402   1.853   0.742   6.843  0.1000  0.0393  0.5574
 6981SOL    HW232403   1.932   0.615   6.859 -0.9004 -1.6089 -0.8669
 6982SOL     OW32404   0.394   3.686  14.310 -0.3821  0.0110 -0.3087
 6982SOL    HW132405   0.337   3.666  14.236  0.0317 -1.9521 -0.1124
 6982SOL    HW232406   0.366   3.776  14.324 -0.7766  0.1902 -2.2264
 6983SOL     OW32407   1.262   2.268   4.774  0.2210 -0.5786  0.1336
 6983SOL    HW132408   1.245   2.216   4.852 -0.1739 -0.3755  0.1848
 6983SOL    HW232409   1.236   2.200   4.712  0.7143 -1.0512  0.4574
 6984SOL     OW32410   1.593   0.777   6.464  0.4037  0.2033  0.0360
 6984SOL    HW132411   1.509   0.736   6.484  1.5146 -0.7731  2.7670
 6984SOL    HW232412   1.615   0.823   6.545 -0.9482  3.2991 -1.3328
 6985SOL     OW32413   2.844   4.205   4.824 -0.3648 -0.9183  0.2458
 6985SOL    HW132414   2.788   4.229   4.750 -2.4785 -0.2005  2.0858
 6985SOL    HW232415   2.782   4.167   4.886 -1.6652  2.7781  1.2748
 6986SOL     OW32416   3.219   2.593   7.396 -0.1126  0.1571  0.1135
 6986SOL    HW132417   3.208   2.498   7.406 -0.8891  0.4077  1.6824
 6986SOL    HW232418   3.311   2.596   7.369  0.5381  2.5496  2.6527
 6987SOL     OW32419   2.488   3.005  15.522  0.5819  0.4259  0.0240
 6987SOL    HW132420   2.506   3.056  15.443 -0.2158  1.5796  0.5940
 6987SOL    HW232421   2.394   2.986  15.532  1.4755 -3.3534  1.3480
 6988SOL     OW32422   3.898   0.211   4.095 -0.1666 -0.5043 -0.8666
 6988SOL    HW132423   3.905   0.302   4.066 -0.5831  0.3848  1.8038
 6988SOL    HW232424   3.969   0.170   4.046  1.6769 -0.5281  1.7671
 6989SOL     OW32425   1.615   4.582  12.845 -0.3935 -0.4877  0.1446
 6989SOL    HW132426   1.614   4.598  12.939  0.6536 -1.0298  0.2474
 6989SOL    HW232427   1.528   4.566  12.810 -0.6298 -1.4874  1.2330
 6990SOL     OW32428   1.534   0.213   6.445 -0.5106  0.4392  0.0737
 6990SOL    HW132429   1.587   0.262   6.508 -1.7024  0.3779  1.1222
 6990SOL    HW232430   1.598   0.169   6.389  0.9910  1.7052  0.8042
 6991SOL     OW32431   2.797   3.220   9.253  0.5536  0.1190  0.5525
 6991SOL    HW132432   2.783   3.246   9.162 -1.6997 -1.7101  0.3903
 6991SOL    HW232433   2.875   3.274   9.270  1.0349 -0.4820  0.2664
 6992SOL     OW32434   0.210   0.375   9.758  0.4099  0.2127 -1.0136
 6992SOL    HW132435   0.178   0.365   9.847  0.6162  1.3573 -0.8106
 6992SOL    HW232436   0.169   0.295   9.725  0.0404 -0.2010  0.4791
 6993SOL     OW32437   3.984   0.281  16.262  0.3885  0.1894 -0.2118
 6993SOL    HW132438   4.032   0.201  16.282 -0.2338  0.2707  1.5662
 6993SOL    HW232439   3.918   0.260  16.196 -0.6813 -1.7296  1.4748
 6994SOL     OW32440   0.120   3.513  11.915 -0.0246 -0.0381 -0.6190
 6994SOL    HW132441   0.190   3.570  11.946 -0.8387  0.6712 -0.0986
 6994SOL    HW232442   0.044   3.560  11.948  0.5666  1.8358 -1.9296
 6995SOL     OW32443   0.638   0.566  15.155 -0.3328 -0.0946 -0.2460
 6995SOL    HW132444   0.636   0.544  15.062 -1.3351  0.0592 -0.2668
 6995SOL    HW232445   0.567   0.630  15.166  0.4004  1.0009 -1.9572
 6996SOL     OW32446   3.123   4.487   4.331 -1.1058 -0.0580 -0.0077
 6996SOL    HW132447   3.079   4.547   4.271 -0.1988  1.2088  0.5902
 6996SOL    HW232448   3.047   4.470   4.388 -2.3644  1.6272 -1.1831
 6997SOL     OW32449   2.223   3.480   7.954 -0.3570  0.0542  0.0869
 6997SOL    HW132450   2.136   3.450   7.928  0.3753 -0.3679 -1.8807
 6997SOL    HW232451   2.211   3.566   7.995 -0.8338  1.0586 -2.1354
 6998SOL     OW32452   2.361   3.131  11.797 -0.2932  0.9872 -0.4065
 6998SOL    HW132453   2.284   3.075  11.790 -0.1232  0.6886  0.1379
 6998SOL    HW232454   2.427   3.071  11.830 -0.2007  1.0348 -0.5069
 6999SOL     OW32455   4.015   4.562   9.984  0.1556 -0.4647 -0.0319
 6999SOL    HW132456   3.948   4.548  10.051  0.1229 -0.5067 -0.0731
 6999SOL    HW232457   4.049   4.473   9.987  1.5994  0.0699 -0.6676
 7000SOL     OW32458   0.353   0.831  10.360 -0.0535 -0.4780 -0.0825
 7000SOL    HW132459   0.418   0.894  10.329  1.2407 -1.2629  1.0046
 7000SOL    HW232460   0.375   0.839  10.453  2.0934  0.8824 -0.7013
 7001SOL     OW32461   4.077   4.605   9.288  0.1360  0.2322  0.3981
 7001SOL    HW132462   4.150   4.546   9.267 -0.1128 -0.9007  2.7291
 7001SOL    HW232463   4.053   4.637   9.201 -1.8381 -2.8187 -0.1833
 7002SOL     OW32464   1.585   0.268   8.034  0.1576  0.5108  0.2149
 7002SOL    HW132465   1.575   0.198   8.099  0.7171  1.6037  1.4590
 7002SOL    HW232466   1.676   0.250   8.008  0.0105  1.9037 -1.2158
 7003SOL     OW32467   2.575   0.420   5.408  0.3173  0.4923  0.2437
 7003SOL    HW132468   2.660   0.438   5.449  0.0895  1.2048  0.4059
 7003SOL    HW232469   2.587   0.441   5.315  0.2638 -0.0006  0.1260
 7004SOL     OW32470   4.609   0.929  13.437  0.2485  0.1531  0.5589
 7004SOL    HW132471   4.527   0.952  13.482  0.4235  1.6247  0.1110
 7004SOL    HW232472   4.607   0.833  13.447 -0.3217  0.1272  0.2128
 7005SOL     OW32473   2.727   2.474  10.274  0.0316  0.2925 -0.0318
 7005SOL    HW132474   2.635   2.481  10.249 -0.6932  0.3158  2.7031
 7005SOL    HW232475   2.756   2.419  10.201  0.2295 -1.3707  1.3076
 7006SOL     OW32476   1.337   4.617  17.412  0.1938 -0.0087 -0.1281
 7006SOL    HW132477   1.297   4.551  17.356  0.7816 -0.9635  0.5789
 7006SOL    HW232478   1.418   4.641  17.367  0.1024 -0.5282 -0.5749
 7007SOL     OW32479   3.541   0.703   2.309  0.0891 -0.4378 -0.4783
 7007SOL    HW132480   3.558   0.752   2.228  0.7582 -0.2041 -0.1979
 7007SOL    HW232481   3.611   0.720   2.372 -0.3954  0.5618 -0.2122
 7008SOL     OW32482   0.892   2.527   4.450  0.5255  0.0475  0.7031
 7008SOL    HW132483   0.919   2.509   4.360 -1.1291  2.7669 -0.3545
 7008SOL    HW232484   0.895   2.439   4.488 -1.4587 -0.8871 -1.3540
 7009SOL     OW32485   3.795   4.567   8.636 -0.4195 -0.4861  0.3458
 7009SOL    HW132486   3.884   4.569   8.671 -0.4950  0.1804  0.5128
 7009SOL    HW232487   3.808   4.515   8.557 -1.9837 -0.1843 -0.1139
 7010SOL     OW32488   2.835   4.475   7.232 -0.4461 -0.3295 -0.2227
 7010SOL    HW132489   2.819   4.459   7.325 -0.1140 -0.8874 -0.2654
 7010SOL    HW232490   2.832   4.385   7.199 -0.0942 -0.5462  0.3329
 7011SOL     OW32491   2.644   1.115   5.578  0.3081 -0.3274 -0.3699
 7011SOL    HW132492   2.616   1.037   5.530 -3.3967  1.7634 -1.5833
 7011SOL    HW232493   2.666   1.078   5.664 -2.7122 -2.2877 -0.4246
 7012SOL     OW32494   4.157   2.778   9.770  0.3663 -0.0959 -0.5053
 7012SOL    HW132495   4.130   2.689   9.793  1.2891 -0.1702  0.3152
 7012SOL    HW232496   4.115   2.829   9.839 -1.8288 -1.6998 -0.6684
 7013SOL     OW32497   4.044   3.705  10.606  0.0283 -0.3508  0.5497
 7013SOL    HW132498   4.028   3.711  10.700  0.4563  0.4732  0.5709
 7013SOL    HW232499   4.105   3.631  10.615  0.5620 -0.1727 -1.5435
 7014SOL     OW32500   3.370   1.595   6.268 -1.0880  0.5615  0.3532
 7014SOL    HW132501   3.311   1.667   6.292 -1.3735 -0.3393  2.2932
 7014SOL    HW232502   3.404   1.642   6.191 -0.0864 -0.3113  0.2638
 7015SOL     OW32503   3.357   2.016  13.218  0.0276 -0.0381 -0.7157
 7015SOL    HW132504   3.327   1.972  13.297  1.3423  0.1705 -0.0926
 7015SOL    HW232505   3.452   2.015  13.235  0.2514  1.1347 -1.9105
 7016SOL     OW32506   2.086   2.778   5.417 -0.9353 -0.2345 -0.3665
 7016SOL    HW132507   2.034   2.776   5.497 -3.1500 -2.8021 -1.8857
 7016SOL    HW232508   2.092   2.683   5.408  2.4773 -0.2243  1.4262
 7017SOL     OW32509   2.364   1.480   3.659 -0.0151 -0.2459  0.0477
 7017SOL    HW132510   2.363   1.542   3.731  4.1403 -1.1357  0.8803
 7017SOL    HW232511   2.357   1.539   3.584  0.2248 -0.9823 -0.5574
 7018SOL     OW32512   2.395   3.378   5.037  0.0033  0.1733 -0.7506
 7018SOL    HW132513   2.393   3.292   4.995 -0.8042 -0.9954  1.7187
 7018SOL    HW232514   2.473   3.374   5.092 -0.3725  1.0849 -0.1497
 7019SOL     OW32515   2.516   3.992  11.446  0.1716  0.0372  0.0196
 7019SOL    HW132516   2.519   4.061  11.380  0.5033  0.2512  0.2580
 7019SOL    HW232517   2.554   3.927  11.387 -0.5400 -2.0061  1.8285
 7020SOL     OW32518   2.208   3.043   0.793 -0.2487  0.4420 -0.7190
 7020SOL    HW132519   2.112   3.035   0.790 -0.2548  0.3394 -0.2831
 7020SOL    HW232520   2.228   3.030   0.886 -0.2197 -1.6414 -1.0117
 7021SOL     OW32521   1.281   1.721   2.255 -0.3282  0.5377 -0.0502
 7021SOL    HW132522   1.305   1.807   2.220 -0.3146  0.0146 -1.3188
 7021SOL    HW232523   1.310   1.660   2.188  1.9531  0.8427  0.6612
 7022SOL     OW32524   3.908   4.534   3.013 -0.1499 -0.2275  0.2506
 7022SOL    HW132525   3.926   4.440   3.011  1.0022  0.0701 -3.0870
 7022SOL    HW232526   3.885   4.554   3.104 -1.1544  0.1216 -0.0833
 7023SOL     OW32527   3.080   0.215   8.110  0.9047  0.3625 -0.0140
 7023SOL    HW132528   3.003   0.189   8.059  0.3605  1.8136  0.0633
 7023SOL    HW232529   3.073   0.168   8.193  1.2817  1.6386  0.7455
 7024SOL     OW32530   0.550   1.667   2.091 -0.2753 -0.2840  0.3494
 7024SOL    HW132531   0.582   1.675   2.181 -0.0386  1.7606  0.0771
 7024SOL    HW232532   0.518   1.577   2.079  2.7623 -1.4902  1.2269
 7025SOL     OW32533   3.111   2.731   7.633  0.6409 -0.2735  0.6456
 7025SOL    HW132534   3.078   2.724   7.543  1.2504  0.3224  0.3793
 7025SOL    HW232535   3.151   2.818   7.629 -0.8076  0.4080  0.8948
 7026SOL     OW32536   1.913   2.841   9.479  0.4135  0.3196  0.1253
 7026SOL    HW132537   2.000   2.876   9.460  2.0241 -2.4182  2.4510
 7026SOL    HW232538   1.874   2.843   9.392 -0.6924  2.7579  0.6610
 7027SOL     OW32539   3.066   2.970   9.175 -0.4157 -0.0737  0.6881
 7027SOL    HW132540   2.970   2.967   9.169 -0.3545 -1.2730  0.3255
 7027SOL    HW232541   3.076   3.046   9.118  1.1381  0.2546  1.4239
 7028SOL     OW32542   3.579   3.334   5.584 -0.4654  0.6489 -0.2680
 7028SOL    HW132543   3.518   3.304   5.516  0.0178  2.0391 -1.3214
 7028SOL    HW232544   3.636   3.397   5.539  0.2125  1.5872  1.8861
 7029SOL     OW32545   1.044   4.528   8.524  0.3511  0.0020  0.1077
 7029SOL    HW132546   1.037   4.619   8.496  1.7603  0.4087  1.0524
 7029SOL    HW232547   0.980   4.524   8.596  0.8046  2.1098  0.6066
 7030SOL     OW32548   3.688   2.882   1.943  0.4335 -0.4948 -0.1600
 7030SOL    HW132549   3.655   2.804   1.898  1.1708 -0.5080 -0.6799
 7030SOL    HW232550   3.603   2.908   1.978  0.7562 -1.5858  1.4711
 7031SOL     OW32551   1.107   2.632   3.499  0.0635  0.2076  0.4018
 7031SOL    HW132552   1.118   2.713   3.450 -4.3058  0.7377  0.2669
 7031SOL    HW232553   1.111   2.665   3.588  0.7071  3.9817 -1.0469
 7032SOL     OW32554   1.418   1.897   6.122 -0.0825  0.0829  0.1344
 7032SOL    HW132555   1.331   1.934   6.133 -0.4509 -0.5880 -0.4899
 7032SOL    HW232556   1.463   1.889   6.206 -1.9955  1.3509  1.2715
 7033SOL     OW32557   0.165   0.371   0.595 -0.3415  0.3886  0.4607
 7033SOL    HW132558   0.095   0.411   0.542 -0.8856  0.3847  1.1756
 7033SOL    HW232559   0.185   0.291   0.547 -0.1588  0.8015 -0.1505
 7034SOL     OW32560   0.602   3.839   6.493  0.0735 -0.3848  0.4930
 7034SOL    HW132561   0.697   3.835   6.485 -0.0858 -1.6355 -0.8705
 7034SOL    HW232562   0.584   3.753   6.531  3.0417 -0.9880  0.5076
 7035SOL     OW32563   2.848   4.475   8.665 -0.2197  0.4434 -0.2127
 7035SOL    HW132564   2.879   4.553   8.620 -0.7719  0.3723 -0.7079
 7035SOL    HW232565   2.886   4.481   8.753  0.4498 -2.0868 -0.3263
 7036SOL     OW32566   4.230   0.873   2.795  0.3123  0.3727  0.5776
 7036SOL    HW132567   4.227   0.945   2.732  0.8757 -1.4541 -1.5320
 7036SOL    HW232568   4.141   0.873   2.830  1.4688 -2.0450  3.5595
 7037SOL     OW32569   1.492   3.655   2.192 -0.1685  0.6594  0.0438
 7037SOL    HW132570   1.431   3.697   2.253  0.0745 -1.7054  1.9003
 7037SOL    HW232571   1.503   3.567   2.228 -0.3562  1.2479  1.5505
 7038SOL     OW32572   2.897   2.397  10.686 -0.3767 -0.0459 -0.3760
 7038SOL    HW132573   2.814   2.372  10.728 -0.2075 -1.4167 -0.8871
 7038SOL    HW232574   2.939   2.444  10.758 -0.2142 -0.5213 -0.1612
 7039SOL     OW32575   0.427   1.474   9.110 -0.3762 -0.5521 -0.4252
 7039SOL    HW132576   0.503   1.489   9.166 -1.0513  0.0260  0.3530
 7039SOL    HW232577   0.470   1.496   9.028 -0.0042  0.0567 -0.0742
 7040SOL     OW32578   4.117   1.995   4.991  0.3351 -0.1947  0.6088
 7040SOL    HW132579   4.079   1.983   4.904  1.3685 -0.7885  0.2273
 7040SOL    HW232580   4.142   2.087   4.999  0.3537 -0.1130 -0.4442
 7041SOL     OW32581   2.118   4.596   8.194 -0.1064  0.4689 -0.6403
 7041SOL    HW132582   2.120   4.665   8.260 -1.1062  0.1785 -0.2905
 7041SOL    HW232583   2.207   4.591   8.161  0.5353 -1.0386  1.3036
 7042SOL     OW32584   4.711   2.390   4.434  0.0331  0.0807  0.3883
 7042SOL    HW132585   0.071   2.430   4.413  0.9064 -0.6046  2.5372
 7042SOL    HW232586   4.651   2.433   4.374 -0.2981  0.3825  0.9314
 7043SOL     OW32587   4.440   3.798   9.911  0.5757 -0.0541  0.0852
 7043SOL    HW132588   4.347   3.782   9.924  0.1275  2.9234  0.7122
 7043SOL    HW232589   4.464   3.775  10.001 -0.0738 -2.6019 -0.3900
 7044SOL     OW32590   3.862   2.051   2.025 -0.1130  0.1406  0.2236
 7044SOL    HW132591   3.770   2.028   2.042  0.3101 -0.4072  1.7761
 7044SOL    HW232592   3.902   1.965   2.014 -1.9473 -0.5476 -1.2838
 7045SOL     OW32593   2.608   2.507   7.718  0.4827  0.9191  0.0720
 7045SOL    HW132594   2.699   2.486   7.740  0.5279 -1.7276 -2.5317
 7045SOL    HW232595   2.568   2.481   7.801 -0.0642 -1.7700 -1.0145
 7046SOL     OW32596   1.325   0.570   4.611  0.4625  0.2387  0.5371
 7046SOL    HW132597   1.293   0.659   4.626  1.7144  0.8899 -0.7262
 7046SOL    HW232598   1.319   0.545   4.703  2.7679  0.0445  0.6230
 7047SOL     OW32599   3.839   1.925  17.124  0.1311 -0.3235  0.4878
 7047SOL    HW132600   3.786   1.852  17.156 -0.4943 -0.5292 -1.0381
 7047SOL    HW232601   3.787   1.996  17.162 -0.3817 -0.1006 -0.6496
 7048SOL     OW32602   2.891   1.278   5.538  0.2471  0.3120  0.1386
 7048SOL    HW132603   2.810   1.240   5.570 -1.0375  2.1990 -0.9181
 7048SOL    HW232604   2.868   1.341   5.469 -0.4853 -2.2170 -1.9419
 7049SOL     OW32605   0.229   0.120   2.620 -0.3255 -0.1414  0.0310
 7049SOL    HW132606   0.218   0.183   2.549 -0.8163 -1.5659 -1.1552
 7049SOL    HW232607   0.322   0.105   2.608 -0.2616 -0.2942  0.6927
 7050SOL     OW32608   2.850   3.539  17.129  0.4642 -0.5443 -0.4680
 7050SOL    HW132609   2.867   3.482  17.204 -0.0952 -2.2749 -1.6516
 7050SOL    HW232610   2.851   3.468  17.064 -1.8418 -1.9850  1.0738
 7051SOL     OW32611   2.832   2.476   9.491 -0.2962  0.9449  0.1411
 7051SOL    HW132612   2.878   2.560   9.501  0.2070  0.9619 -2.4776
 7051SOL    HW232613   2.882   2.423   9.430  1.3286  0.4696  1.8798
 7052SOL     OW32614   2.888   1.788   4.564  1.1085 -0.1134  0.2504
 7052SOL    HW132615   2.890   1.767   4.657 -0.1028  0.0273  0.3069
 7052SOL    HW232616   2.836   1.869   4.564 -0.0382 -0.8473 -0.9665
 7053SOL     OW32617   0.331   0.258  10.029 -0.1406  0.0759 -0.7792
 7053SOL    HW132618   0.327   0.348  10.061  0.2327  0.3116 -1.3913
 7053SOL    HW232619   0.242   0.254   9.995 -0.1858  0.4721 -0.6997
 7054SOL     OW32620   4.025   1.545   7.231  0.1150 -0.4019 -0.6725
 7054SOL    HW132621   3.998   1.628   7.269 -0.6760 -1.1464  0.3946
 7054SOL    HW232622   4.119   1.550   7.210  0.3206 -2.3333 -0.2254
 7055SOL     OW32623   2.594   1.191  11.848  0.1759  0.1053 -0.3416
 7055SOL    HW132624   2.617   1.129  11.779 -0.4531 -0.1514 -0.3212
 7055SOL    HW232625   2.678   1.221  11.883 -0.2658  0.9763 -0.0421
 7056SOL     OW32626   2.641   1.165   8.933  0.4722  0.1693  0.4231
 7056SOL    HW132627   2.644   1.069   8.929  1.3733  0.0956  2.5532
 7056SOL    HW232628   2.734   1.180   8.953  0.6833 -0.5680  0.0083
 7057SOL     OW32629   3.572   0.573   2.057  0.6862 -0.3534  0.6508
 7057SOL    HW132630   3.559   0.540   2.146  1.3717  0.2796  0.9979
 7057SOL    HW232631   3.485   0.556   2.023  2.5202  0.3037 -4.4194
 7058SOL     OW32632   4.548   3.456   6.887 -0.5369 -0.0421  0.2603
 7058SOL    HW132633   4.458   3.490   6.886 -0.0777  1.2017  1.2866
 7058SOL    HW232634   4.547   3.402   6.966  0.1437 -0.7783 -0.2372
 7059SOL     OW32635   0.850   4.310   8.914 -0.2585  0.4628  0.0593
 7059SOL    HW132636   0.826   4.367   8.987  0.3905  1.0122 -0.1522
 7059SOL    HW232637   0.896   4.240   8.959 -1.8775 -0.7589 -0.1834
 7060SOL     OW32638   3.370   0.613  11.285  0.1532 -0.3571  0.1947
 7060SOL    HW132639   3.329   0.660  11.212  2.0482  1.1581  0.1071
 7060SOL    HW232640   3.291   0.578  11.325  0.4934 -0.0820  1.0908
 7061SOL     OW32641   0.653   2.184   5.130 -0.0662 -1.1911  0.2324
 7061SOL    HW132642   0.647   2.089   5.142 -0.7363 -1.2098 -0.2778
 7061SOL    HW232643   0.740   2.195   5.167  0.1000  1.9239 -1.0585
 7062SOL     OW32644   0.616   1.651  15.579 -0.5327  0.3045 -0.2678
 7062SOL    HW132645   0.703   1.689  15.573 -0.2295 -0.5558 -1.3055
 7062SOL    HW232646   0.615   1.595  15.657  2.0168 -0.2253 -0.6217
 7063SOL     OW32647   0.123   4.086   6.580  0.0827 -0.7319  0.0181
 7063SOL    HW132648   0.100   3.993   6.581  0.4022 -0.7870  1.2349
 7063SOL    HW232649   0.217   4.072   6.585  0.4879  1.4937 -1.5566
 7064SOL     OW32650   4.441   4.556   7.588  0.0620 -1.0359 -0.4965
 7064SOL    HW132651   4.356   4.595   7.609  0.0350 -0.5042 -1.6320
 7064SOL    HW232652   4.433   4.470   7.630 -1.9166 -0.5540  0.1209
 7065SOL     OW32653   3.179   2.487   2.409 -0.3982  0.1628 -0.9331
 7065SOL    HW132654   3.161   2.399   2.376 -0.2158  0.8261 -2.8542
 7065SOL    HW232655   3.095   2.510   2.448  0.4598 -0.9141  1.4883
 7066SOL     OW32656   0.335   3.581   3.704 -0.1326  0.4072 -0.7145
 7066SOL    HW132657   0.398   3.553   3.770  0.4859 -2.3817 -2.4902
 7066SOL    HW232658   0.381   3.559   3.624  3.2072 -0.2672  1.3989
 7067SOL     OW32659   2.596   3.613   9.030  0.3474 -0.5921 -0.3466
 7067SOL    HW132660   2.572   3.555   9.103  0.4370  0.4298  0.4916
 7067SOL    HW232661   2.591   3.696   9.077 -0.1977 -1.0604  0.4196
 7068SOL     OW32662   0.348   3.144  10.304 -0.3806 -0.4520  0.1921
 7068SOL    HW132663   0.264   3.175  10.337  0.2821  0.6559  0.8624
 7068SOL    HW232664   0.338   3.055  10.340  0.4279 -0.2342  0.9820
 7069SOL     OW32665   1.624   4.096   6.554  0.5111  0.1591 -0.2977
 7069SOL    HW132666   1.640   4.116   6.646 -1.3518 -1.0847  0.3105
 7069SOL    HW232667   1.564   4.162   6.519 -0.3707 -0.4357  0.0785
 7070SOL     OW32668   3.994   4.413  16.925 -0.1554  0.1375 -0.3823
 7070SOL    HW132669   3.937   4.486  16.950 -0.3250  0.0366 -0.4765
 7070SOL    HW232670   3.940   4.359  16.867 -0.4827  1.0163 -0.8858
 7071SOL     OW32671   2.152   4.164   9.197  1.1214 -0.1492  0.1313
 7071SOL    HW132672   2.135   4.213   9.278  0.7432 -2.5199  1.4872
 7071SOL    HW232673   2.229   4.215   9.171  0.1024  2.6137  2.5400
 7072SOL     OW32674   2.352   2.585  10.971  0.3317  0.7913  0.2151
 7072SOL    HW132675   2.360   2.526  10.896 -0.5749 -0.1368  0.8553
 7072SOL    HW232676   2.336   2.524  11.042  0.6950  0.4139 -0.0254
 7073SOL     OW32677   0.761   2.187   6.339  0.4021 -0.2816 -0.3970
 7073SOL    HW132678   0.674   2.150   6.326  0.4299  0.0279 -1.5074
 7073SOL    HW232679   0.792   2.152   6.422  2.2691  2.7300  0.1635
 7074SOL     OW32680   2.317   2.851   1.997  0.1667 -0.6554  0.0170
 7074SOL    HW132681   2.330   2.899   2.079  0.6581  2.6921 -2.0351
 7074SOL    HW232682   2.400   2.812   1.969 -0.2607 -0.0420 -2.0996
 7075SOL     OW32683   3.384   1.894   4.494 -0.1461  0.1194 -0.1954
 7075SOL    HW132684   3.323   1.870   4.563 -2.6897  1.0208 -2.1169
 7075SOL    HW232685   3.387   1.811   4.447  0.7225 -1.6842  3.1064
 7076SOL     OW32686   1.781   0.458   8.200 -0.0807  0.0966 -0.2648
 7076SOL    HW132687   1.818   0.377   8.165 -2.7849 -1.1523 -0.2444
 7076SOL    HW232688   1.858   0.495   8.243  0.2960  0.4100 -1.2038
 7077SOL     OW32689   0.254   3.952   7.446  0.2016  0.9325  0.3293
 7077SOL    HW132690   0.170   3.937   7.489 -0.2894 -0.0823 -0.9771
 7077SOL    HW232691   0.309   3.937   7.523  1.9260  0.9741 -0.8804
 7078SOL     OW32692   2.763   3.835  14.036  0.3572 -0.3632 -0.2109
 7078SOL    HW132693   2.808   3.852  13.953  1.7322 -0.4788  0.5145
 7078SOL    HW232694   2.713   3.915  14.046  0.1895 -0.3989 -0.7647
 7079SOL     OW32695   1.130   1.182   8.996  0.1402  0.0238 -0.1634
 7079SOL    HW132696   1.176   1.104   9.025  0.9402  1.0465  1.3256
 7079SOL    HW232697   1.121   1.237   9.075  1.6090 -2.0577  1.4257
 7080SOL     OW32698   0.943   2.449   4.214 -0.3254 -0.1291  0.1109
 7080SOL    HW132699   0.965   2.502   4.138 -0.1845 -0.9750 -0.4379
 7080SOL    HW232700   0.943   2.363   4.173  0.6923 -1.2740  2.5012
 7081SOL     OW32701   1.131   2.622   9.070 -0.1138  1.0614 -0.7421
 7081SOL    HW132702   1.179   2.563   9.128 -1.1469 -2.3764 -3.3711
 7081SOL    HW232703   1.102   2.694   9.126  2.1685 -0.1738  2.0631
 7082SOL     OW32704   1.497   3.895   7.835 -0.0013  0.5987  0.3514
 7082SOL    HW132705   1.482   3.962   7.902  0.9038  1.1761 -0.0163
 7082SOL    HW232706   1.507   3.814   7.885 -1.0044  0.8802  0.9976
 7083SOL     OW32707   3.890   2.186   4.175  0.3805 -0.1049 -0.4862
 7083SOL    HW132708   3.965   2.164   4.230  1.5026 -0.2353 -2.0854
 7083SOL    HW232709   3.900   2.273   4.139  0.7858 -0.5396 -1.4050
 7084SOL     OW32710   3.025   1.760   6.778 -0.1780  1.0480 -0.4103
 7084SOL    HW132711   3.117   1.786   6.787  0.7046 -1.4453 -2.4957
 7084SOL    HW232712   2.990   1.775   6.866  0.0233  1.3975 -0.3860
 7085SOL     OW32713   0.386   4.677  10.764  0.4916  0.4387 -0.1446
 7085SOL    HW132714   0.323   0.020  10.741  0.2912  0.6007  0.8800
 7085SOL    HW232715   0.333   4.632  10.830 -3.4818  1.7431 -2.5025
 7086SOL     OW32716   4.543   2.901  14.794  0.0168  0.2780 -0.4328
 7086SOL    HW132717   4.480   2.895  14.722  1.1857 -0.5949 -1.3803
 7086SOL    HW232718   4.617   2.847  14.765  0.9099  0.1508  2.0515
 7087SOL     OW32719   4.585   0.968  12.745  0.3670 -0.2794 -0.2494
 7087SOL    HW132720   4.546   0.921  12.671 -1.9566  1.6647 -0.2474
 7087SOL    HW232721   4.576   0.894  12.805 -0.9790  1.3738  1.5952
 7088SOL     OW32722   2.710   4.343   2.819 -0.3030 -0.1862 -0.2936
 7088SOL    HW132723   2.648   4.361   2.890 -1.4266 -3.3257 -0.4892
 7088SOL    HW232724   2.665   4.381   2.743 -0.2291  2.4929  1.0119
 7089SOL     OW32725   3.461   1.625   1.413  0.3842 -0.3604  1.1164
 7089SOL    HW132726   3.469   1.719   1.394  2.9177 -0.7612  0.1501
 7089SOL    HW232727   3.502   1.581   1.339  0.5140 -1.2286  1.7097
 7090SOL     OW32728   0.102   4.663   7.819 -0.0806 -0.3585  0.3957
 7090SOL    HW132729   0.147   4.579   7.809  1.0302  0.3746 -0.8474
 7090SOL    HW232730   0.056   4.642   7.900  2.3355  0.4690  1.9902
 7091SOL     OW32731   0.196   1.574  10.979  0.3275 -0.5555  0.2500
 7091SOL    HW132732   0.277   1.538  11.015  1.2389  1.0749 -0.1677
 7091SOL    HW232733   0.174   1.645  11.040  2.4198  0.8074 -0.6055
 7092SOL     OW32734   3.539   4.281   8.727  0.2276  0.2001  0.0174
 7092SOL    HW132735   3.530   4.189   8.705 -1.2532  0.1495  0.8026
 7092SOL    HW232736   3.595   4.263   8.803  1.0397  1.9524 -0.1577
 7093SOL     OW32737   0.785   4.147  15.314 -0.4854 -0.7592  0.1912
 7093SOL    HW132738   0.789   4.157  15.219  2.3069 -0.1296  0.3555
 7093SOL    HW232739   0.773   4.052  15.314 -1.0369 -0.6956  1.0734
 7094SOL     OW32740   0.111   3.661   7.083 -0.0086  0.4425  0.2668
 7094SOL    HW132741   0.173   3.714   7.133  0.3759  1.0693 -0.8781
 7094SOL    HW232742   0.074   3.612   7.156 -1.1385  2.9408  1.3403
 7095SOL     OW32743   2.284   0.299   4.385 -0.3887 -0.0853  0.4071
 7095SOL    HW132744   2.370   0.262   4.406 -0.0049  0.0256 -1.0065
 7095SOL    HW232745   2.308   0.363   4.318  0.1497 -0.7176 -0.0129
 7096SOL     OW32746   0.575   3.358   5.208  0.4797 -0.0097  0.5253
 7096SOL    HW132747   0.510   3.425   5.188 -0.6553 -2.0299 -2.4787
 7096SOL    HW232748   0.643   3.402   5.260  0.5957  0.1601  0.2255
 7097SOL     OW32749   1.352   3.680  13.305  0.1197  0.1501 -0.3439
 7097SOL    HW132750   1.383   3.770  13.318 -0.9129  0.6992 -1.7700
 7097SOL    HW232751   1.274   3.695  13.252 -0.4621 -2.4843 -0.2159
 7098SOL     OW32752   1.663   4.566   8.331  0.1121  0.4955  0.8985
 7098SOL    HW132753   1.716   4.508   8.277 -0.9700  2.3233 -2.1107
 7098SOL    HW232754   1.601   4.496   8.354  0.7728 -0.7851 -1.2954
 7099SOL     OW32755   1.157   1.688  16.975 -0.0544  0.1118 -0.4016
 7099SOL    HW132756   1.120   1.688  16.887 -0.4024  1.7883 -0.2632
 7099SOL    HW232757   1.080   1.715  17.026 -0.0156 -1.8960  0.7014
 7100SOL     OW32758   1.764   3.261   7.730  0.0939  0.0420  0.5904
 7100SOL    HW132759   1.751   3.332   7.793 -0.9404 -0.9484  1.4961
 7100SOL    HW232760   1.673   3.236   7.710  1.0470 -3.1191  0.2538
 7101SOL     OW32761   3.164   2.594   8.857  0.6090 -0.8188  0.4157
 7101SOL    HW132762   3.132   2.612   8.769  0.5886  1.6388  0.9203
 7101SOL    HW232763   3.174   2.683   8.890  0.5008  0.3656 -2.7931
 7102SOL     OW32764   1.900   0.444  17.437  0.1073  0.0402  0.9679
 7102SOL    HW132765   1.966   0.450  17.369 -2.1393 -0.4333 -1.2565
 7102SOL    HW232766   1.814   0.438  17.395  0.3335  0.5351  0.4272
 7103SOL     OW32767   2.166   0.014  11.624 -0.0379 -0.3510  0.0233
 7103SOL    HW132768   2.216   4.679  11.569 -0.5579 -0.3094 -0.4970
 7103SOL    HW232769   2.234   0.074  11.656 -0.8349  0.2391  0.5997
 7104SOL     OW32770   2.611   0.745   2.871  0.3488  0.1185  0.4904
 7104SOL    HW132771   2.608   0.840   2.887 -0.0248  0.7514 -3.3392
 7104SOL    HW232772   2.560   0.721   2.795  1.2531 -0.7097  0.1393
 7105SOL     OW32773   2.422   4.649  12.401 -0.3407  0.1441  0.4409
 7105SOL    HW132774   2.354   4.647  12.469 -0.1505  1.4589  0.6856
 7105SOL    HW232775   2.492   4.694  12.449  0.1977 -0.9206  0.6408
 7106SOL     OW32776   0.576   3.749   5.123 -0.4469  0.3018  0.0199
 7106SOL    HW132777   0.542   3.762   5.034  1.3531  1.9811 -0.4283
 7106SOL    HW232778   0.497   3.774   5.171 -0.0124  1.0610  0.3319
 7107SOL     OW32779   1.931   3.436   5.961 -0.3283  0.1477  0.1446
 7107SOL    HW132780   1.903   3.479   5.880 -0.2882 -0.5960 -0.2646
 7107SOL    HW232781   1.845   3.443   6.002 -0.0255 -0.8876  0.9373
 7108SOL     OW32782   1.873   2.574  12.073 -0.3245  0.4791  0.0363
 7108SOL    HW132783   1.821   2.495  12.086 -0.4830  0.2529 -1.8335
 7108SOL    HW232784   1.957   2.537  12.044 -0.0995  0.9444  0.0932
 7109SOL     OW32785   2.181   2.014   7.562 -0.2392  0.4197 -0.0041
 7109SOL    HW132786   2.190   2.096   7.512 -2.1000  0.5199 -0.1962
 7109SOL    HW232787   2.253   1.959   7.532 -2.0846 -0.5970 -2.5569
 7110SOL     OW32788   0.980   2.857   7.081 -0.0132 -0.2297  0.6903
 7110SOL    HW132789   1.052   2.820   7.132  0.9568  1.6236  0.6634
 7110SOL    HW232790   0.904   2.805   7.107  0.1348 -0.0994  1.3805
 7111SOL     OW32791   0.914   4.260  12.470 -0.2127  0.0234  0.5372
 7111SOL    HW132792   1.004   4.230  12.458 -0.9887 -2.0685  0.0710
 7111SOL    HW232793   0.899   4.250  12.564 -2.2510 -0.1583  0.1886
 7112SOL     OW32794   3.029   1.379   7.785 -0.5193  0.0627 -0.0549
 7112SOL    HW132795   2.943   1.414   7.807 -0.7029 -1.1905  1.2433
 7112SOL    HW232796   3.007   1.290   7.755 -0.3938 -0.5021  1.5512
 7113SOL     OW32797   4.690   1.505   7.806 -0.0876  0.2786  0.5303
 7113SOL    HW132798   4.681   1.591   7.847  0.1329 -0.2385  1.6626
 7113SOL    HW232799   4.617   1.493   7.745  2.4192  1.6219 -2.7357
 7114SOL     OW32800   0.429   2.806   2.887 -0.0180  0.0332  0.2393
 7114SOL    HW132801   0.480   2.879   2.851 -1.0143 -1.2316 -3.7119
 7114SOL    HW232802   0.344   2.848   2.880  0.7473  1.2235 -2.0146
 7115SOL     OW32803   3.415   4.328  11.783  0.2804  0.4269  0.2490
 7115SOL    HW132804   3.474   4.351  11.711 -1.2860  0.3562 -1.0730
 7115SOL    HW232805   3.476   4.307  11.854  1.9244 -3.1584 -2.1918
 7116SOL     OW32806   4.160   3.808  11.660  0.4983  0.0726 -0.7877
 7116SOL    HW132807   4.116   3.797  11.744  0.5608  2.1149 -0.4733
 7116SOL    HW232808   4.216   3.886  11.661 -0.9987  1.1415 -0.1911
 7117SOL     OW32809   3.301   3.088  10.979  0.7432 -0.1151 -0.0027
 7117SOL    HW132810   3.325   3.181  10.980 -0.0187  0.0779  1.6510
 7117SOL    HW232811   3.205   3.092  10.982  0.6879  1.0230 -3.3253
 7118SOL     OW32812   4.600   4.012  12.111  0.1102  0.1516 -0.1019
 7118SOL    HW132813   4.529   3.965  12.067 -0.7301 -0.1713  1.5993
 7118SOL    HW232814   4.552   4.029  12.192 -3.1522 -1.2937 -1.7110
 7119SOL     OW32815   3.611   0.624  10.502  0.5498 -0.1653  0.5594
 7119SOL    HW132816   3.558   0.545  10.491 -2.7772  2.0965  0.2473
 7119SOL    HW232817   3.669   0.626  10.427 -0.1812 -0.1747 -0.0076
 7120SOL     OW32818   1.483   1.213   4.951 -0.2791 -0.4692 -0.5757
 7120SOL    HW132819   1.443   1.229   4.866  1.5263  0.8385 -1.1793
 7120SOL    HW232820   1.430   1.260   5.015 -0.2143 -0.0599 -0.8238
 7121SOL     OW32821   4.146   2.775  10.578  0.3840 -0.1993  0.3592
 7121SOL    HW132822   4.149   2.782  10.483  0.7718 -0.9038  0.3155
 7121SOL    HW232823   4.179   2.863  10.594 -1.8678  0.8281 -0.7362
 7122SOL     OW32824   4.400   0.595   2.397  0.4933 -0.0963 -0.1808
 7122SOL    HW132825   4.421   0.599   2.490  3.1245 -0.7000 -0.7361
 7122SOL    HW232826   4.419   0.505   2.370  3.3595  0.1012  1.1503
 7123SOL     OW32827   4.531   0.416  17.093  0.3194 -0.8507  0.3374
 7123SOL    HW132828   4.599   0.352  17.071  1.2928  0.4087 -0.3698
 7123SOL    HW232829   4.578   0.431  17.176 -0.8468 -0.0497  0.8480
 7124SOL     OW32830   1.753   4.060  10.774 -0.2068 -0.2658 -0.1658
 7124SOL    HW132831   1.789   4.051  10.862 -1.6576  1.6160  0.5975
 7124SOL    HW232832   1.775   4.151  10.754  0.2278 -0.4783 -0.6599
 7125SOL     OW32833   4.497   0.244   5.728 -0.3778 -0.1909 -0.0020
 7125SOL    HW132834   4.580   0.286   5.750 -0.4264 -0.0975  0.0032
 7125SOL    HW232835   4.533   0.158   5.708  1.7582  0.3628  1.5234
 7126SOL     OW32836   4.075   4.107   4.243 -0.2915  0.6028  0.4163
 7126SOL    HW132837   4.073   4.057   4.162 -2.3841 -0.3365  1.0578
 7126SOL    HW232838   4.148   4.167   4.225 -0.5295  0.8508  0.2693
 7127SOL     OW32839   0.995   0.730  15.960 -0.3920 -0.0190  0.1064
 7127SOL    HW132840   0.980   0.636  15.946 -0.2312 -0.1010  0.5023
 7127SOL    HW232841   0.920   0.753  15.904  0.0109 -0.4582 -0.6098
 7128SOL     OW32842   0.673   4.695   4.001 -0.2916 -0.2324  0.3466
 7128SOL    HW132843   0.663   0.033   3.930 -1.6187  1.3708  1.9785
 7128SOL    HW232844   0.597   4.724   4.052 -1.0239 -0.0729 -0.8180
 7129SOL     OW32845   4.663   4.663   8.055 -0.0893  0.0113  0.4264
 7129SOL    HW132846   4.631   0.008   8.112 -1.3674  1.1761 -1.7249
 7129SOL    HW232847   4.705   4.595   8.106 -1.7044 -0.8240  0.6374
 7130SOL     OW32848   1.050   4.341   4.469 -0.2110 -0.3287 -0.1804
 7130SOL    HW132849   0.981   4.395   4.508  2.1293  1.6039  1.3131
 7130SOL    HW232850   1.073   4.284   4.542 -1.9664 -1.7072 -0.6996
 7131SOL     OW32851   2.300   3.278  14.027 -0.0466  0.2276 -0.0301
 7131SOL    HW132852   2.253   3.197  14.046  0.3855 -0.6418 -2.7081
 7131SOL    HW232853   2.305   3.268  13.932  1.4378 -1.5148  0.2315
 7132SOL     OW32854   3.959   3.003  10.751 -0.5194  0.3548  0.0415
 7132SOL    HW132855   3.945   2.953  10.832 -0.4359  1.2890  0.6312
 7132SOL    HW232856   3.944   2.935  10.684  0.2001 -1.3158  1.5702
 7133SOL     OW32857   1.655   0.902  11.046 -0.4848  0.2398  0.0155
 7133SOL    HW132858   1.563   0.875  11.039 -0.6379  1.6033 -3.4020
 7133SOL    HW232859   1.664   0.927  11.137  0.3591 -2.1364  0.5985
 7134SOL     OW32860   0.544   2.413   4.825 -0.2377  0.5529  0.3261
 7134SOL    HW132861   0.498   2.459   4.896  1.4701  0.0781  1.7294
 7134SOL    HW232862   0.513   2.464   4.750  0.3884 -0.3448 -0.5362
 7135SOL     OW32863   2.523   3.609   7.425  0.1604 -0.1283  0.7558
 7135SOL    HW132864   2.551   3.608   7.516  3.3343 -0.8445 -0.2196
 7135SOL    HW232865   2.428   3.603   7.435  0.1125 -0.7393 -0.0857
 7136SOL     OW32866   4.688   3.213   9.862 -0.1848  0.2584 -0.1479
 7136SOL    HW132867   0.042   3.181   9.818 -0.6217 -3.5892  1.8113
 7136SOL    HW232868   4.701   3.220   9.957 -2.0810 -0.4432  0.1564
 7137SOL     OW32869   2.431   3.369   1.276 -0.4648  0.0039 -0.6151
 7137SOL    HW132870   2.510   3.410   1.241 -0.8534  2.5986  1.5735
 7137SOL    HW232871   2.395   3.335   1.194 -0.7278 -3.0949  0.8072
 7138SOL     OW32872   2.222   3.251   3.433 -0.1435 -0.6136 -0.1159
 7138SOL    HW132873   2.278   3.328   3.427 -0.0983 -0.6116  0.3417
 7138SOL    HW232874   2.179   3.258   3.518  1.3267 -0.5974  0.6223
 7139SOL     OW32875   0.185   0.548   5.230  0.5959  0.6736  0.3068
 7139SOL    HW132876   0.251   0.607   5.194  0.0824  0.6253 -0.7031
 7139SOL    HW232877   0.191   0.471   5.174 -1.4717  0.3759  0.4992
 7140SOL     OW32878   4.537   3.614   3.624 -0.1648 -0.0386  0.5097
 7140SOL    HW132879   4.601   3.651   3.685  1.4763 -0.8190 -0.7508
 7140SOL    HW232880   4.480   3.569   3.687  0.3960 -0.3060  0.8260
 7141SOL     OW32881   0.407   1.161  17.571 -0.5762  0.9071 -0.3292
 7141SOL    HW132882   0.401   1.255  17.552  0.2502  1.0805  0.2655
 7141SOL    HW232883   0.390   1.164  17.665  0.2085  0.9738 -0.1883
 7142SOL     OW32884   3.525   2.127   8.331 -0.7352 -0.1525  0.1776
 7142SOL    HW132885   3.610   2.084   8.320  0.4578  2.5292 -1.1079
 7142SOL    HW232886   3.524   2.117   8.426  2.1864 -3.8165 -0.1953
 7143SOL     OW32887   0.719   0.589   5.336 -0.1865  0.6517 -0.3086
 7143SOL    HW132888   0.671   0.607   5.417  0.7863  1.6006  0.0537
 7143SOL    HW232889   0.808   0.574   5.367 -0.2601  1.7688  0.4714
 7144SOL     OW32890   0.348   4.515   7.285 -0.0971 -0.2407  0.9292
 7144SOL    HW132891   0.289   4.463   7.340  0.0115 -0.0199  1.2482
 7144SOL    HW232892   0.430   4.497   7.332  0.0563 -3.2062 -0.4636
 7145SOL     OW32893   1.307   0.852   4.640 -0.5223  0.1236 -0.1779
 7145SOL    HW132894   1.307   0.870   4.734  0.8779  1.7491 -0.4742
 7145SOL    HW232895   1.382   0.904   4.611  0.1201 -0.3771  0.5845
 7146SOL     OW32896   4.291   4.351   4.504 -0.0601 -0.7782  0.1985
 7146SOL    HW132897   4.340   4.432   4.517 -1.1607  0.1052 -1.2565
 7146SOL    HW232898   4.310   4.305   4.586 -0.4358 -0.8280  0.2572
 7147SOL     OW32899   0.053   2.723   3.054 -0.1401  0.2773 -0.2832
 7147SOL    HW132900   4.689   2.742   3.026  0.1321 -0.8939 -1.9450
 7147SOL    HW232901   0.099   2.802   3.027 -0.0886 -0.1681 -1.5036
 7148SOL     OW32902   0.152   0.094   6.799  0.3498  0.3427  0.1020
 7148SOL    HW132903   0.230   0.114   6.747  0.8598  0.4786  0.9188
 7148SOL    HW232904   0.116   0.022   6.747 -0.4886  1.3118 -0.6556
 7149SOL     OW32905   1.818   1.560   1.635 -0.2883 -0.3009  0.4822
 7149SOL    HW132906   1.753   1.535   1.569  0.9846 -1.2489 -0.4054
 7149SOL    HW232907   1.796   1.479   1.680  0.7947  0.1680  1.8361
 7150SOL     OW32908   4.212   0.005   4.428 -0.0915  0.0176  0.0475
 7150SOL    HW132909   4.233   0.096   4.447 -0.3390 -0.2909  1.7891
 7150SOL    HW232910   4.126   4.712   4.466 -1.0018  3.0572 -0.6103
 7151SOL     OW32911   2.453   2.926   5.430  0.3375  0.4600 -0.9357
 7151SOL    HW132912   2.390   2.929   5.502  0.2223 -1.8047 -0.9499
 7151SOL    HW232913   2.527   2.883   5.474 -1.3701 -1.2753  0.2538
 7152SOL     OW32914   2.874   3.373  17.350  0.0084  0.5760  0.6249
 7152SOL    HW132915   2.874   3.278  17.360 -0.0551  0.6675  1.4708
 7152SOL    HW232916   2.949   3.384  17.408  1.6115 -0.5167 -1.2427
 7153SOL     OW32917   4.136   2.608   3.372 -0.7874 -0.4277 -0.1088
 7153SOL    HW132918   4.156   2.655   3.453 -0.3897 -0.4488 -0.1964
 7153SOL    HW232919   4.210   2.550   3.353 -0.8943 -0.9261  0.9865
 7154SOL     OW32920   2.356   1.899  10.474  0.1292  0.0768  0.1380
 7154SOL    HW132921   2.285   1.908  10.411  1.8792  0.2328 -1.8382
 7154SOL    HW232922   2.335   1.966  10.538 -0.0656 -1.5285  1.7607
 7155SOL     OW32923   2.373   1.356   9.326  0.0854 -0.6747  0.3755
 7155SOL    HW132924   2.430   1.384   9.398  2.6993  0.5668 -2.1162
 7155SOL    HW232925   2.333   1.439   9.298  0.9897 -0.8155 -1.3724
 7156SOL     OW32926   2.900   3.934   5.785 -0.1819  0.5408 -0.0124
 7156SOL    HW132927   2.837   3.889   5.841  1.0344 -1.4366 -0.2285
 7156SOL    HW232928   2.931   3.868   5.724  1.6655  0.5880  0.8650
 7157SOL     OW32929   4.287   0.214  13.832 -0.0584 -0.1592  0.1910
 7157SOL    HW132930   4.320   0.170  13.911 -0.5218  0.3875  0.6911
 7157SOL    HW232931   4.326   0.300  13.849 -2.0366  1.0426 -1.3491
 7158SOL     OW32932   4.138   0.790  10.189 -1.1736 -0.2380 -0.0105
 7158SOL    HW132933   4.145   0.747  10.274  1.1532  0.2812  0.0655
 7158SOL    HW232934   4.163   0.721  10.128 -2.3168 -1.2778  0.7090
 7159SOL     OW32935   3.275   0.819  10.949  0.1513  1.0098  0.0903
 7159SOL    HW132936   3.249   0.733  10.917  0.6344  1.0138 -0.3213
 7159SOL    HW232937   3.208   0.874  10.909 -0.1184  1.1652  0.7623
 7160SOL     OW32938   0.270   0.269   1.788 -0.2683  0.3221  0.1179
 7160SOL    HW132939   0.223   0.300   1.710 -1.5375 -0.5211  0.5574
 7160SOL    HW232940   0.357   0.250   1.752  0.6063 -0.6589  2.7564
 7161SOL     OW32941   0.335   0.389  11.675 -0.1072 -0.1083  0.4396
 7161SOL    HW132942   0.242   0.410  11.665  0.1362 -0.1021 -1.6805
 7161SOL    HW232943   0.348   0.456  11.743 -2.2870  0.3057  0.4516
 7162SOL     OW32944   3.093   2.850  15.802  0.1710  0.0032 -0.1227
 7162SOL    HW132945   3.064   2.938  15.779 -0.6739 -0.3778 -0.5126
 7162SOL    HW232946   3.026   2.802  15.754  0.0457 -0.0524  0.1069
 7163SOL     OW32947   2.311   3.298   6.560 -0.0548  0.3277  0.5082
 7163SOL    HW132948   2.277   3.256   6.481  1.4644 -0.2321  0.1493
 7163SOL    HW232949   2.239   3.357   6.583 -0.7452 -0.2467 -0.1511
 7164SOL     OW32950   3.424   3.406   8.424  0.2032  0.3052 -0.4752
 7164SOL    HW132951   3.482   3.452   8.363  1.3865  1.2726  1.3703
 7164SOL    HW232952   3.344   3.439   8.383 -0.4061  0.4087  0.8023
 7165SOL     OW32953   4.662   3.979   6.876 -0.3337 -0.1294  0.7634
 7165SOL    HW132954   4.615   3.961   6.794 -1.0822  1.1756  0.9098
 7165SOL    HW232955   4.616   3.919   6.934  1.9996 -0.9697  1.7718
 7166SOL     OW32956   0.689   4.181  15.737  0.3132  0.2736  0.4851
 7166SOL    HW132957   0.681   4.091  15.705 -0.9463 -0.0515  1.7501
 7166SOL    HW232958   0.651   4.226  15.662 -1.3491 -1.6888  0.1644
 7167SOL     OW32959   0.474   0.239   4.093  0.2678 -0.2100  0.7883
 7167SOL    HW132960   0.425   0.320   4.109 -2.6324 -2.0413  1.1729
 7167SOL    HW232961   0.560   0.268   4.123 -0.3048  1.9272  0.4121
 7168SOL     OW32962   1.154   1.304   6.833 -0.5972 -0.4582 -0.3953
 7168SOL    HW132963   1.149   1.307   6.737 -0.9688  0.6269 -0.3459
 7168SOL    HW232964   1.065   1.333   6.855 -0.6796  0.0767 -1.4189
 7169SOL     OW32965   0.729   1.370   5.017 -0.8144  0.0365  0.4281
 7169SOL    HW132966   0.764   1.294   5.064 -0.2318  0.7974  1.2167
 7169SOL    HW232967   0.689   1.325   4.942 -0.7680  0.0885  0.3726
 7170SOL     OW32968   1.098   1.225  10.996  0.6584  0.1255  0.1998
 7170SOL    HW132969   1.162   1.198  10.930 -0.9345 -1.2190 -0.7894
 7170SOL    HW232970   1.041   1.150  11.015  0.3278  0.0823 -0.9922
 7171SOL     OW32971   0.523   0.165   8.801 -0.2693  0.0195 -0.0562
 7171SOL    HW132972   0.581   0.184   8.874  3.0571 -1.5412 -2.2732
 7171SOL    HW232973   0.582   0.108   8.751 -0.8464  0.3417 -1.1091
 7172SOL     OW32974   0.583   4.018  17.589  0.5131 -0.0115 -0.2192
 7172SOL    HW132975   0.528   3.993  17.663 -2.3262  4.4124 -0.8625
 7172SOL    HW232976   0.521   3.992  17.522  1.6892 -1.8008 -0.6043
 7173SOL     OW32977   3.187   3.239   2.498  0.0073  0.6844  0.1138
 7173SOL    HW132978   3.236   3.185   2.436 -2.7452 -0.3547 -1.1651
 7173SOL    HW232979   3.252   3.261   2.564  1.1162  2.1533 -1.5019
 7174SOL     OW32980   3.488   3.810  14.134 -0.0620  0.0804 -0.2983
 7174SOL    HW132981   3.438   3.852  14.203  1.3582 -1.2813  1.5663
 7174SOL    HW232982   3.418   3.751  14.108  1.4645 -1.8000 -0.1966
 7175SOL     OW32983   2.379   4.493   3.239  0.2670  0.2090 -0.1343
 7175SOL    HW132984   2.409   4.555   3.306 -2.7215 -1.1736  2.5110
 7175SOL    HW232985   2.414   4.412   3.277  1.2178  0.9795  0.6342
 7176SOL     OW32986   4.495   0.554   6.025  0.1208  0.4185 -0.0471
 7176SOL    HW132987   4.413   0.506   6.033  0.6446 -0.4022  0.3460
 7176SOL    HW232988   4.515   0.590   6.111 -2.2689 -0.2218  0.7649
 7177SOL     OW32989   4.369   0.147   3.893  0.0335 -0.1725 -0.6265
 7177SOL    HW132990   4.397   0.064   3.929 -2.1289 -0.2680  0.8547
 7177SOL    HW232991   4.441   0.165   3.833  0.4682  0.4248  0.0761
 7178SOL     OW32992   3.271   3.724  14.992 -0.1561  0.1419  0.0778
 7178SOL    HW132993   3.193   3.711  15.044 -0.4472 -1.5054 -0.7708
 7178SOL    HW232994   3.252   3.809  14.952 -0.9392  0.6104  1.4568
 7179SOL     OW32995   3.055   2.172   3.666  0.0386 -0.3010  0.3262
 7179SOL    HW132996   3.039   2.090   3.619 -0.7241 -0.1229  0.2757
 7179SOL    HW232997   2.974   2.222   3.655  1.6402  1.9067 -1.3424
 7180SOL     OW32998   3.390   0.121   1.252 -0.4019  0.6896 -0.4864
 7180SOL    HW132999   3.452   0.193   1.256  1.1407 -0.5419 -1.9442
 7180SOL    HW233000   3.455   0.063   1.212  1.5056  2.0340  0.6673
 7181SOL     OW33001   4.349   0.081   6.908 -0.1031  0.3019  0.4051
 7181SOL    HW133002   4.381   0.152   6.963  0.6059  0.6377 -0.4299
 7181SOL    HW233003   4.384   0.108   6.823 -2.7521  1.1895 -0.4142
 7182SOL     OW33004   3.291   3.374  12.170 -0.6132  0.2998  0.8226
 7182SOL    HW133005   3.348   3.348  12.243 -2.8008 -1.4554  1.9054
 7182SOL    HW233006   3.282   3.291  12.123  1.9109  1.0375 -0.9612
 7183SOL     OW33007   0.470   0.665   8.207 -0.2558 -0.3593  0.4047
 7183SOL    HW133008   0.413   0.600   8.165  2.0350 -2.0884 -0.0126
 7183SOL    HW233009   0.439   0.746   8.167  2.3423  0.3146 -0.2450
 7184SOL     OW33010   3.071   2.437   6.476 -0.1462  0.6464  0.7230
 7184SOL    HW133011   3.143   2.496   6.499 -0.1113  0.4056  1.2187
 7184SOL    HW233012   3.117   2.353   6.468  0.4440  1.0795 -0.5107
 7185SOL     OW33013   0.577   1.365  10.831  0.3664 -0.1934 -0.1452
 7185SOL    HW133014   0.645   1.362  10.899 -0.0696 -2.2499  0.2046
 7185SOL    HW233015   0.507   1.333  10.888  0.9254 -1.2463 -0.0321
 7186SOL     OW33016   1.192   3.911   3.307  0.5579 -0.1956 -0.5049
 7186SOL    HW133017   1.157   3.822   3.306 -1.0311  0.4100  1.2682
 7186SOL    HW233018   1.114   3.952   3.344  0.5671 -1.7636  1.2437
 7187SOL     OW33019   2.203   0.099   3.701 -0.3860 -0.1941  0.0516
 7187SOL    HW133020   2.253   0.136   3.628 -1.8466  2.4953  0.4374
 7187SOL    HW233021   2.274   0.072   3.759  1.2733  0.1077 -1.8161
 7188SOL     OW33022   2.707   2.169   5.987  0.3858 -0.0425 -0.1347
 7188SOL    HW133023   2.647   2.116   5.934 -0.8704  1.2237  0.0232
 7188SOL    HW233024   2.677   2.157   6.077 -0.2597 -2.0302 -0.6093
 7189SOL     OW33025   2.029   3.148   5.889  0.4694 -0.3264  0.4466
 7189SOL    HW133026   2.052   3.241   5.892  0.8383 -0.3969 -0.0942
 7189SOL    HW233027   2.094   3.109   5.948  1.1884  0.2418  0.0371
 7190SOL     OW33028   3.362   0.621   2.870  0.3741  0.1852 -0.1728
 7190SOL    HW133029   3.269   0.618   2.846 -0.3350  0.5637  2.5078
 7190SOL    HW233030   3.358   0.658   2.958  1.6603 -0.4477  0.1515
 7191SOL     OW33031   0.514   0.524   3.869 -0.3019  0.2723 -0.0870
 7191SOL    HW133032   0.490   0.442   3.826 -0.5564  1.0212 -1.3899
 7191SOL    HW233033   0.545   0.574   3.794 -0.8622  1.2986  0.3611
 7192SOL     OW33034   1.653   0.498   5.297 -0.3284  0.1820  0.0462
 7192SOL    HW133035   1.602   0.516   5.377  2.0805  0.6874  1.4628
 7192SOL    HW233036   1.693   0.414   5.319 -1.6892 -0.4926 -0.0180
 7193SOL     OW33037   1.082   4.008   6.095 -0.0279  0.1145  0.2253
 7193SOL    HW133038   1.113   4.073   6.032  2.4254 -0.7382  0.5360
 7193SOL    HW233039   1.158   3.993   6.151  1.4676  1.3307 -1.4657
 7194SOL     OW33040   0.187   0.824   5.612  0.4198 -0.1790  0.2407
 7194SOL    HW133041   0.216   0.751   5.668  0.1112 -1.5804 -1.4137
 7194SOL    HW233042   0.194   0.898   5.672  0.3690 -0.1701  0.2350
 7195SOL     OW33043   2.950   2.421   7.360 -0.3116  0.3100 -0.3915
 7195SOL    HW133044   2.935   2.342   7.412 -0.4370  0.8158  0.3454
 7195SOL    HW233045   3.025   2.391   7.308 -0.1722  1.5050 -0.8907
 7196SOL     OW33046   2.996   3.975   4.790 -0.1991  0.6157  0.1517
 7196SOL    HW133047   3.002   3.933   4.876  0.6187  0.6314  0.1042
 7196SOL    HW233048   2.911   4.016   4.805 -1.1532 -0.5035 -2.1375
 7197SOL     OW33049   1.307   2.463  11.065  0.2926 -0.3278  0.3882
 7197SOL    HW133050   1.392   2.447  11.025 -0.0108 -0.7022 -0.1030
 7197SOL    HW233051   1.313   2.414  11.147  0.4816 -2.5033 -0.9260
 7198SOL     OW33052   1.034   3.699  10.278 -0.3903 -1.0148 -0.4172
 7198SOL    HW133053   0.941   3.678  10.288 -0.8423  1.0826 -0.1638
 7198SOL    HW233054   1.033   3.748  10.195 -1.3868  0.3706  0.4020
 7199SOL     OW33055   1.276   0.405   8.597 -0.2458 -0.7415  0.0280
 7199SOL    HW133056   1.228   0.421   8.516 -0.5163 -0.5634  0.2251
 7199SOL    HW233057   1.310   0.316   8.593  2.6331  0.4667 -2.1413
 7200SOL     OW33058   2.875   3.834  13.294 -0.1464 -0.3322 -0.4822
 7200SOL    HW133059   2.834   3.809  13.211 -0.0842  0.8539 -0.8569
 7200SOL    HW233060   2.866   3.929  13.299  2.7328  0.0698 -3.1702
 7201SOL     OW33061   1.166   0.445  17.485  0.4193  0.3669  0.1593
 7201SOL    HW133062   1.262   0.448  17.493  0.4588  0.1248 -0.2491
 7201SOL    HW233063   1.152   0.355  17.515 -0.1394 -0.6743 -3.2647
 7202SOL     OW33064   2.454   2.238   3.898 -0.1896 -0.2417  0.3086
 7202SOL    HW133065   2.544   2.205   3.899 -0.0520  0.1142 -0.3265
 7202SOL    HW233066   2.424   2.219   3.809 -1.4485 -1.0107  0.8990
 7203SOL     OW33067   0.673   0.689  13.156 -0.4600  0.1720  0.5721
 7203SOL    HW133068   0.663   0.718  13.247  0.0499  3.3591 -0.3859
 7203SOL    HW233069   0.765   0.704  13.133 -0.3867 -0.5599  0.3986
 7204SOL     OW33070   3.260   2.598   8.002 -0.0629 -0.7368  0.4659
 7204SOL    HW133071   3.280   2.517   8.050  0.0680 -1.6326 -1.0684
 7204SOL    HW233072   3.217   2.647   8.071 -1.3249 -2.0521  0.6139
 7205SOL     OW33073   3.228   3.436   6.351  0.1243 -0.5260  0.3418
 7205SOL    HW133074   3.138   3.411   6.332 -0.0242 -0.8330  1.4350
 7205SOL    HW233075   3.231   3.468   6.442 -1.3213  1.7647 -0.3922
 7206SOL     OW33076   2.268   3.629   6.431 -0.5914  0.1110  0.8302
 7206SOL    HW133077   2.192   3.687   6.432 -0.2528  0.5508  1.2665
 7206SOL    HW233078   2.243   3.556   6.375 -1.4818  0.9120  0.1755
 7207SOL     OW33079   2.512   2.336   4.217 -0.4021  0.0827  0.4119
 7207SOL    HW133080   2.479   2.259   4.263 -1.2205  0.5445  0.6062
 7207SOL    HW233081   2.456   2.399   4.263 -0.7567 -0.5039  0.7798
 7208SOL     OW33082   4.271   4.111   8.412 -0.3187  0.1487  0.2042
 7208SOL    HW133083   4.188   4.124   8.366 -0.5407  1.5000  0.9673
 7208SOL    HW233084   4.332   4.144   8.346 -0.4146  0.1957  0.1384
 7209SOL     OW33085   2.328   3.054   8.365  0.2674  0.2827  0.2274
 7209SOL    HW133086   2.423   3.045   8.365  0.1454 -0.9628 -0.3866
 7209SOL    HW233087   2.307   3.100   8.446  2.1273  2.1559 -0.3525
 7210SOL     OW33088   0.578   0.673   7.784  0.0717  0.4080 -0.0549
 7210SOL    HW133089   0.638   0.649   7.713 -0.0121 -0.9675  0.3408
 7210SOL    HW233090   0.520   0.738   7.744  0.3435  0.1846 -0.8077
 7211SOL     OW33091   2.072   2.655  17.518  0.2959 -0.4001  0.1876
 7211SOL    HW133092   2.145   2.683  17.463  2.1193 -1.4796  2.0509
 7211SOL    HW233093   2.076   2.561  17.503  1.7220 -0.4290  0.6812
 7212SOL     OW33094   4.207   3.181   6.044  0.0068 -0.0721 -0.4512
 7212SOL    HW133095   4.161   3.243   6.101 -0.8201 -2.4736  1.4824
 7212SOL    HW233096   4.134   3.174   5.984  0.4388 -0.7700 -0.8885
 7213SOL     OW33097   0.897   0.181   4.604 -0.3614  0.0914 -0.5058
 7213SOL    HW133098   0.956   0.239   4.651 -0.9568 -0.2621  0.7011
 7213SOL    HW233099   0.928   0.103   4.652  0.0545  0.7861  0.3638
 7214SOL     OW33100   1.446   0.723   7.832 -0.0142  0.2189  0.0933
 7214SOL    HW133101   1.380   0.664   7.797 -1.5045  2.6136 -1.0812
 7214SOL    HW233102   1.456   0.672   7.913  0.2237  0.0400 -0.0495
 7215SOL     OW33103   1.058   2.139   9.410 -0.0470  0.0213  0.1971
 7215SOL    HW133104   1.017   2.209   9.359 -0.3464  0.4704  1.0700
 7215SOL    HW233105   1.148   2.140   9.376  0.5136 -1.3653  1.6276
 7216SOL     OW33106   3.100   1.862   4.788  0.3227 -0.6037 -0.2756
 7216SOL    HW133107   3.169   1.804   4.820 -0.5959 -1.4038  0.2453
 7216SOL    HW233108   3.026   1.826   4.837 -1.1472  1.8793 -0.6897
 7217SOL     OW33109   4.055   1.085  10.580 -0.2998 -0.4522 -0.0311
 7217SOL    HW133110   4.022   1.011  10.530 -1.0581  0.1378 -0.3982
 7217SOL    HW233111   3.972   1.122  10.610 -0.0379  0.3906 -0.3305
 7218SOL     OW33112   0.640   3.729   3.651 -0.2289  0.4148  0.6452
 7218SOL    HW133113   0.692   3.779   3.714  0.4937 -0.9924  1.1864
 7218SOL    HW233114   0.560   3.780   3.661 -1.0961 -0.9843  0.9674
 7219SOL     OW33115   2.621   1.750  16.452 -0.0589 -0.3955 -0.1313
 7219SOL    HW133116   2.635   1.837  16.415 -0.4994  0.3753  1.5230
 7219SOL    HW233117   2.668   1.758  16.535  1.1308 -0.3244 -0.8205
 7220SOL     OW33118   0.313   1.237   5.073  0.0611 -0.4960 -0.4476
 7220SOL    HW133119   0.292   1.331   5.071 -0.1741 -0.5888 -2.0006
 7220SOL    HW233120   0.231   1.200   5.040 -0.2777  0.0137 -0.1800
 7221SOL     OW33121   3.084   3.268   0.540  0.3384  0.3072  0.0828
 7221SOL    HW133122   3.066   3.304   0.453 -0.0897  2.3591  1.0098
 7221SOL    HW233123   3.169   3.227   0.524  1.2032  1.5095  1.6117
 7222SOL     OW33124   3.437   2.461   3.960 -0.4462  0.3967 -0.7978
 7222SOL    HW133125   3.493   2.418   3.895  0.3948  1.5715 -0.8495
 7222SOL    HW233126   3.354   2.415   3.953 -0.1339 -0.3059  0.1181
 7223SOL     OW33127   1.210   4.632   5.505  0.5823 -0.1654  0.2698
 7223SOL    HW133128   1.220   4.546   5.547  1.0422 -0.8231 -1.2062
 7223SOL    HW233129   1.245   4.680   5.580 -2.1871  0.1015  1.4011
 7224SOL     OW33130   3.022   3.659  16.881  0.2224 -0.4735  0.2379
 7224SOL    HW133131   2.987   3.696  16.962  0.6818  0.2505  0.1051
 7224SOL    HW233132   2.955   3.698  16.823  1.3828  0.8561 -0.2033
 7225SOL     OW33133   0.172   1.018   5.321 -0.1632  0.5584 -0.3111
 7225SOL    HW133134   0.114   0.944   5.339 -0.9655  0.2746 -4.0796
 7225SOL    HW233135   0.254   1.001   5.367 -0.6435  0.6104  0.5595
 7226SOL     OW33136   2.121   0.618   2.268  0.4327 -0.0124 -0.0697
 7226SOL    HW133137   2.047   0.595   2.212  1.7292  0.0664 -1.8120
 7226SOL    HW233138   2.100   0.598   2.360  0.9914  0.4034  0.1447
 7227SOL     OW33139   4.511   0.234   7.650  0.2176  0.3728 -0.0263
 7227SOL    HW133140   4.596   0.194   7.668  0.0712  0.3785  0.6845
 7227SOL    HW233141   4.445   0.184   7.697  1.5093 -1.7466 -0.4876
 7228SOL     OW33142   1.979   1.187   3.547  0.3067  0.2707  0.7600
 7228SOL    HW133143   2.031   1.267   3.532 -1.7857  0.6374 -4.5467
 7228SOL    HW233144   1.915   1.198   3.477 -1.1350  1.3919  2.2514
 7229SOL     OW33145   0.412   3.557   6.977  0.3897  0.3163 -0.0485
 7229SOL    HW133146   0.357   3.626   7.014 -0.3623 -0.3790  0.1313
 7229SOL    HW233147   0.500   3.593   6.988  1.0128 -1.4030  0.5957
 7230SOL     OW33148   2.654   3.914  17.609  0.1931  0.2157  0.1395
 7230SOL    HW133149   2.682   3.977  17.675 -0.7841 -0.2108  0.9594
 7230SOL    HW233150   2.581   3.951  17.560 -0.4113 -1.3366 -0.1533
 7231SOL     OW33151   0.562   4.674   3.323  0.2545  0.4609 -0.9070
 7231SOL    HW133152   0.523   4.621   3.253  1.0465 -0.6931 -0.4880
 7231SOL    HW233153   0.508   0.022   3.295  1.6483  1.3423 -1.3323
 7232SOL     OW33154   0.107   3.189  10.377 -0.4357 -0.1641 -0.1844
 7232SOL    HW133155   0.027   3.144  10.402  0.5078 -2.2473 -0.9372
 7232SOL    HW233156   0.122   3.250  10.449 -1.3735 -0.0957 -0.0562
 7233SOL     OW33157   1.600   2.885   2.706 -0.2256 -0.2046  0.5808
 7233SOL    HW133158   1.693   2.895   2.726 -0.2081 -0.7448  0.7559
 7233SOL    HW233159   1.600   2.886   2.610  1.7836 -2.2901  0.5690
 7234SOL     OW33160   2.398   2.183   6.631  0.1198 -0.0521  0.7912
 7234SOL    HW133161   2.478   2.189   6.683  1.2717 -0.6763 -0.8868
 7234SOL    HW233162   2.405   2.092   6.604 -0.4246  0.1362  0.0081
 7235SOL     OW33163   0.341   0.788   5.144 -0.5122  0.0549  0.2892
 7235SOL    HW133164   0.433   0.765   5.135 -0.5845 -1.1334  2.5713
 7235SOL    HW233165   0.322   0.824   5.057  0.5212  0.8130  0.3897
 7236SOL     OW33166   4.297   1.683   9.845 -0.1121 -0.1924  0.1056
 7236SOL    HW133167   4.308   1.735   9.766 -1.2486 -1.2319 -0.7322
 7236SOL    HW233168   4.293   1.592   9.818  0.5531 -0.6390  1.5211
 7237SOL     OW33169   2.686   0.801  11.790 -0.2279 -0.0519 -0.3079
 7237SOL    HW133170   2.736   0.825  11.868 -0.9235  0.6346 -0.0679
 7237SOL    HW233171   2.686   0.707  11.806  1.1650 -0.3780 -2.2494
 7238SOL     OW33172   0.468   2.162   4.894  0.4654  0.3044  0.2777
 7238SOL    HW133173   0.536   2.145   4.959  0.5950 -0.7498 -0.1406
 7238SOL    HW233174   0.470   2.257   4.884  0.1072  0.2037 -0.7483
 7239SOL     OW33175   4.497   0.387   7.048  0.1339  0.4717 -0.2320
 7239SOL    HW133176   4.482   0.309   7.102  0.4984 -0.2121 -1.1255
 7239SOL    HW233177   4.577   0.375   6.998  0.9020 -0.4382  1.2180
 7240SOL     OW33178   4.634   1.984   1.687 -0.7765  0.2536 -0.5381
 7240SOL    HW133179   4.683   1.919   1.637  1.4214  1.7602 -0.3214
 7240SOL    HW233180   4.544   1.961   1.665 -1.1300 -1.7194  3.1257
 7241SOL     OW33181   1.884   0.136  16.733  0.2399 -0.3346 -0.0817
 7241SOL    HW133182   1.881   0.098  16.645 -1.2966 -2.1273  0.7423
 7241SOL    HW233183   1.949   0.083  16.779  0.6525  1.3107  1.2415
 7242SOL     OW33184   2.736   2.395   2.080 -0.3588 -0.7399  0.0389
 7242SOL    HW133185   2.822   2.372   2.043 -1.4905 -0.6336 -2.6467
 7242SOL    HW233186   2.761   2.378   2.171  2.1930  0.5482 -0.4342
 7243SOL     OW33187   0.045   0.736   0.182  0.1143 -0.3819  0.0059
 7243SOL    HW133188   4.715   0.774   0.250  1.7431  0.7463  0.7167
 7243SOL    HW233189   0.133   0.767   0.206 -0.8768  1.8689  0.7489
 7244SOL     OW33190   3.211   4.400   2.617 -0.7114 -0.2303  0.0142
 7244SOL    HW133191   3.193   4.322   2.564 -2.5821  1.1547 -1.3689
 7244SOL    HW233192   3.169   4.466   2.562  0.8780  1.9822  1.4692
 7245SOL     OW33193   0.977   2.188   4.095  0.4422  0.4715 -1.0868
 7245SOL    HW133194   1.046   2.220   4.036 -0.3083 -0.7613 -2.6334
 7245SOL    HW233195   0.902   2.157   4.045  0.1996  0.9452 -1.0224
 7246SOL     OW33196   2.754   1.634  13.974  0.3122  0.9591  0.0942
 7246SOL    HW133197   2.770   1.721  13.937  2.1230  0.8965  0.6986
 7246SOL    HW233198   2.838   1.591  13.960 -0.9942 -1.4114 -0.3623
 7247SOL     OW33199   1.131   3.612  12.572  0.4697 -0.2148  0.6270
 7247SOL    HW133200   1.059   3.670  12.598  1.9339  1.4462  0.9540
 7247SOL    HW233201   1.190   3.673  12.528  0.6152 -0.0220  1.0935
 7248SOL     OW33202   4.551   3.632   8.008  0.0553 -0.1561 -0.1469
 7248SOL    HW133203   4.611   3.642   7.934 -0.0814  0.9308 -0.1174
 7248SOL    HW233204   4.526   3.725   8.003 -1.9854 -0.7941 -1.5797
 7249SOL     OW33205   0.295   4.085   4.950  0.4967 -0.2979  0.1063
 7249SOL    HW133206   0.349   4.152   4.991  1.6461 -0.6770 -0.7754
 7249SOL    HW233207   0.279   4.126   4.865 -0.9072  1.2557  1.1301
 7250SOL     OW33208   3.920   4.637   7.144 -0.0545 -0.4211  0.5160
 7250SOL    HW133209   4.005   4.635   7.100  0.9136  1.2144  2.2935
 7250SOL    HW233210   3.862   4.577   7.097  0.3291 -0.5254  0.1746
 7251SOL     OW33211   1.592   0.072   7.269  0.2219  0.7204  0.3845
 7251SOL    HW133212   1.516   0.045   7.321 -0.4051  1.8806  0.0842
 7251SOL    HW233213   1.651   0.027   7.329  2.8059  0.9306 -1.9892
 7252SOL     OW33214   4.696   1.770   8.605 -0.0394 -0.2295 -0.1592
 7252SOL    HW133215   0.014   1.748   8.688 -0.4921  1.0340  0.4206
 7252SOL    HW233216   4.652   1.851   8.630  1.9028  0.5880  0.6134
 7253SOL     OW33217   0.287   1.002  14.702  0.3915 -0.3488 -0.5808
 7253SOL    HW133218   0.280   1.091  14.668 -2.7070  0.3027  1.7410
 7253SOL    HW233219   0.211   0.953  14.672  0.6761 -2.7920  2.6786
 7254SOL     OW33220   3.507   2.745   9.185 -1.0867 -0.2061 -0.4211
 7254SOL    HW133221   3.495   2.839   9.196 -1.3970 -0.4986  1.7233
 7254SOL    HW233222   3.602   2.737   9.172 -0.7675 -0.9793  2.2239
 7255SOL     OW33223   2.056   2.111   6.775 -0.5864  0.0707  0.1578
 7255SOL    HW133224   2.112   2.035   6.790 -0.8102 -0.5335 -2.1293
 7255SOL    HW233225   2.035   2.103   6.682  0.8117 -0.3945 -0.1080
 7256SOL     OW33226   2.575   4.525   6.481  0.1472  0.4718  0.1791
 7256SOL    HW133227   2.643   4.458   6.478 -2.5349 -2.1804 -1.1270
 7256SOL    HW233228   2.555   4.523   6.574 -1.4298 -1.5687 -0.2177
 7257SOL     OW33229   2.750   0.030   5.141  0.2260 -0.2997 -0.0026
 7257SOL    HW133230   2.736   4.664   5.116 -2.8025  0.4237 -0.9375
 7257SOL    HW233231   2.732   0.025   5.235  1.2075  0.2941  0.2267
 7258SOL     OW33232   2.215   0.449   9.134  0.2968 -0.2306  0.1762
 7258SOL    HW133233   2.136   0.396   9.147 -0.9251  1.8535  1.2807
 7258SOL    HW233234   2.285   0.385   9.149  2.2951  2.2251  1.3900
 7259SOL     OW33235   1.579   3.302   4.485  0.5757 -0.1099 -0.1235
 7259SOL    HW133236   1.584   3.257   4.400 -2.2075  0.1310 -0.4223
 7259SOL    HW233237   1.661   3.283   4.529 -0.5973  0.6415  2.3617
 7260SOL     OW33238   4.360   2.742  13.999 -0.9614  0.0309 -0.1164
 7260SOL    HW133239   4.271   2.737  14.034 -1.0250  0.8466 -0.1608
 7260SOL    HW233240   4.412   2.677  14.047  0.9628  0.4388 -1.6522
 7261SOL     OW33241   2.622   1.203   4.933 -0.5590  0.6162 -0.3617
 7261SOL    HW133242   2.553   1.170   4.990  1.1243 -2.5464 -0.0940
 7261SOL    HW233243   2.576   1.228   4.854 -1.4968  0.6060  0.1878
 7262SOL     OW33244   2.725   4.684   6.833  0.1852  0.2988  0.1572
 7262SOL    HW133245   2.811   4.689   6.873 -0.0804 -0.5813  0.8478
 7262SOL    HW233246   2.674   4.627   6.891 -1.0220  1.0920 -0.1019
 7263SOL     OW33247   0.210   3.986   6.850 -0.2544  0.0139 -0.3524
 7263SOL    HW133248   0.220   3.891   6.857  0.7269  0.0499 -1.1859
 7263SOL    HW233249   0.117   3.996   6.866 -0.4131  0.1081 -1.3596
 7264SOL     OW33250   1.007   0.215   2.084 -0.4405  0.0298  0.5742
 7264SOL    HW133251   1.024   0.199   1.991  1.7580  0.4597  0.9137
 7264SOL    HW233252   1.024   0.130   2.123  2.5407  0.4184  0.0742
 7265SOL     OW33253   4.640   0.846   1.312  0.1787  0.8106 -0.2771
 7265SOL    HW133254   4.669   0.776   1.371  1.2348  3.0603  1.8659
 7265SOL    HW233255   4.624   0.792   1.234  0.5795  1.0341 -0.5109
 7266SOL     OW33256   1.450   1.615   1.689  0.0882  0.3739 -0.0563
 7266SOL    HW133257   1.505   1.624   1.767  0.3511 -1.8831  0.0174
 7266SOL    HW233258   1.511   1.636   1.619 -0.3640 -2.5385 -1.3048
 7267SOL     OW33259   0.697   3.682   6.897 -0.3871 -0.2795  0.2661
 7267SOL    HW133260   0.773   3.731   6.928  0.1452  0.1084 -1.6730
 7267SOL    HW233261   0.745   3.605   6.865  3.4277  2.3236 -0.2173
 7268SOL     OW33262   3.106   2.617   9.402  0.2707 -0.2832 -0.0188
 7268SOL    HW133263   3.121   2.578   9.316 -2.1768 -2.0457  0.3543
 7268SOL    HW233264   3.146   2.703   9.389  0.2107 -0.7334 -3.1285
 7269SOL     OW33265   0.647   0.745   4.744 -0.2235  0.0846  0.0549
 7269SOL    HW133266   0.670   0.669   4.798  1.1776  1.1141  0.9149
 7269SOL    HW233267   0.552   0.738   4.743 -0.1579 -0.0234 -4.4194
 7270SOL     OW33268   1.231   1.888   3.809  0.3815  1.3391 -0.2218
 7270SOL    HW133269   1.279   1.805   3.817 -0.2798  0.8472 -1.3193
 7270SOL    HW233270   1.305   1.946   3.793  2.1624 -0.5506  1.1305
 7271SOL     OW33271   2.231   0.636   3.059  0.3941  0.3355  0.0264
 7271SOL    HW133272   2.161   0.694   3.087 -0.0348  0.4644 -1.3106
 7271SOL    HW233273   2.297   0.691   3.102  0.5350  0.7283 -0.7025
 7272SOL     OW33274   3.633   3.650   0.332  0.9914  0.3572 -0.3633
 7272SOL    HW133275   3.575   3.579   0.359  0.2771  2.8090  4.5132
 7272SOL    HW233276   3.706   3.637   0.391  0.8271  0.2767 -0.1787
 7273SOL     OW33277   2.474   4.019   5.191  0.9428 -1.3015 -0.2533
 7273SOL    HW133278   2.507   3.980   5.272  0.8088  0.7235  0.7688
 7273SOL    HW233279   2.380   4.036   5.191  0.6744 -2.7161  0.5077
 7274SOL     OW33280   1.586   3.806   8.308 -0.6630 -0.4559 -0.5047
 7274SOL    HW133281   1.503   3.798   8.262 -0.5395 -0.1108 -0.7804
 7274SOL    HW233282   1.574   3.870   8.378 -2.2564 -0.0719 -1.1315
 7275SOL     OW33283   2.332   1.877   3.668  0.5059  0.2056  0.3717
 7275SOL    HW133284   2.271   1.936   3.713  0.1703 -0.4528  0.7739
 7275SOL    HW233285   2.296   1.796   3.704  0.5999  0.5430  1.2245
 7276SOL     OW33286   3.206   4.051  12.891  0.1664 -0.4152  0.0707
 7276SOL    HW133287   3.218   4.117  12.823 -0.5328 -1.8513 -1.4342
 7276SOL    HW233288   3.209   4.094  12.977  0.4654  0.0327 -0.1640
 7277SOL     OW33289   0.338   4.568   6.079 -0.0710  0.4975  0.0825
 7277SOL    HW133290   0.328   4.488   6.028 -1.1998 -0.9425  2.5652
 7277SOL    HW233291   0.375   4.530   6.158 -1.1287  1.0240  0.8342
 7278SOL     OW33292   4.662   2.162  13.658  0.2390 -0.2480 -0.0011
 7278SOL    HW133293   4.614   2.216  13.720  1.7965 -0.5545  1.4618
 7278SOL    HW233294   4.585   2.133  13.608 -0.1956 -0.4250  0.7709
 7279SOL     OW33295   2.951   1.378   2.486  0.5611  0.0640  0.0667
 7279SOL    HW133296   3.003   1.316   2.434  0.9907  1.0340 -0.6628
 7279SOL    HW233297   2.872   1.366   2.433 -1.6731  0.6900  3.2773
 7280SOL     OW33298   2.995   4.562   0.303  0.4315 -0.6037  1.0774
 7280SOL    HW133299   2.942   4.613   0.365 -2.1950 -3.0083  0.7916
 7280SOL    HW233300   3.068   4.541   0.362  0.5394 -1.4467  0.6313
 7281SOL     OW33301   2.172   3.939   3.338  0.2113  0.3465 -0.6658
 7281SOL    HW133302   2.264   3.924   3.360  0.9774  1.7149 -2.8755
 7281SOL    HW233303   2.173   4.034   3.324 -1.2473  0.5189  0.3859
 7282SOL     OW33304   0.857   0.963   2.082  0.0369  0.2708  0.1839
 7282SOL    HW133305   0.811   1.033   2.035  0.2073  0.1737 -0.1292
 7282SOL    HW233306   0.828   0.996   2.167  0.0007  4.5066 -1.4628
 7283SOL     OW33307   1.678   4.299  16.864  0.2555 -0.5700  0.0448
 7283SOL    HW133308   1.723   4.255  16.791 -0.4465 -1.5636  0.2047
 7283SOL    HW233309   1.628   4.366  16.818  1.0194  0.1935  0.3397
 7284SOL     OW33310   3.948   4.281   4.794  0.1386  0.2074  0.0701
 7284SOL    HW133311   3.879   4.221   4.766 -1.0022  0.1696  2.9271
 7284SOL    HW233312   3.984   4.308   4.710  1.7837  0.7521  0.9431
 7285SOL     OW33313   3.983   3.107   6.400  0.4069 -0.2632  0.4735
 7285SOL    HW133314   3.958   3.093   6.491  0.4835  1.2311  0.7324
 7285SOL    HW233315   3.935   3.035   6.358  1.0646 -0.8489  0.7240
 7286SOL     OW33316   1.226   3.922   5.787  0.0473  0.2366 -0.5485
 7286SOL    HW133317   1.230   3.937   5.692  1.1435  0.0111 -0.5340
 7286SOL    HW233318   1.135   3.896   5.804  0.3790 -0.2462  0.5073
 7287SOL     OW33319   3.261   2.292  12.301  0.2409  0.6585 -0.2136
 7287SOL    HW133320   3.249   2.378  12.260 -0.0502 -0.4289 -2.4114
 7287SOL    HW233321   3.357   2.290  12.297  0.3425  0.6076  2.4782
 7288SOL     OW33322   0.140   2.959   2.769 -0.2646  0.0229  0.2450
 7288SOL    HW133323   0.118   2.897   2.700  0.9431 -2.1928  1.8871
 7288SOL    HW233324   0.210   3.002   2.720 -1.1775  0.9259 -0.2908
 7289SOL     OW33325   0.740   4.264   7.744  0.3016 -0.2011 -0.3594
 7289SOL    HW133326   0.675   4.256   7.814  0.1078 -0.9667 -0.6217
 7289SOL    HW233327   0.808   4.208   7.780  1.2540  2.3870  1.8210
 7290SOL     OW33328   4.679   4.567   3.306 -0.0957 -0.2317 -0.1811
 7290SOL    HW133329   4.631   4.485   3.313 -0.9174  0.2921  0.3049
 7290SOL    HW233330   4.618   4.623   3.257 -1.5631  0.7776  2.8143
 7291SOL     OW33331   2.713   3.124   1.530  0.0704 -0.1463  0.1427
 7291SOL    HW133332   2.744   3.052   1.584  2.2563  0.6583 -0.0095
 7291SOL    HW233333   2.786   3.187   1.529 -1.0445  1.1553 -0.0988
 7292SOL     OW33334   0.091   2.125   1.050  0.0548  0.1144  0.3023
 7292SOL    HW133335   0.010   2.136   0.999  1.1375  1.7075 -1.0593
 7292SOL    HW233336   0.091   2.036   1.083 -0.4071  0.2127  0.5683
 7293SOL     OW33337   0.900   4.503  11.672  0.5530  0.2042  0.8909
 7293SOL    HW133338   0.915   4.545  11.587 -0.5235 -0.7471  0.2380
 7293SOL    HW233339   0.984   4.460  11.687 -0.8348 -2.3082  1.4268
 7294SOL     OW33340   0.502   1.982   7.551 -0.4199  0.2169 -0.4859
 7294SOL    HW133341   0.444   1.952   7.481  0.1320 -2.2712  0.1320
 7294SOL    HW233342   0.443   2.016   7.618  0.4600  1.3755 -0.2894
 7295SOL     OW33343   3.679   1.918   4.509 -0.3981  0.1769  1.2725
 7295SOL    HW133344   3.658   1.827   4.526  1.0285 -0.2905  0.4772
 7295SOL    HW233345   3.656   1.933   4.417  0.3754  1.6124  1.3039
 7296SOL     OW33346   0.116   0.578   3.070 -0.0073  0.3519 -0.1931
 7296SOL    HW133347   0.109   0.660   3.119 -0.3881  0.8215 -1.0267
 7296SOL    HW233348   0.203   0.593   3.034 -0.3878 -1.9957 -2.0919
 7297SOL     OW33349   1.746   2.533  13.299 -0.0221  0.1059 -0.3652
 7297SOL    HW133350   1.794   2.597  13.247  1.1405  1.2486  2.1203
 7297SOL    HW233351   1.678   2.586  13.340 -2.0263 -3.1966  0.5290
 7298SOL     OW33352   1.270   3.664   7.285 -0.3369 -0.1913 -0.5033
 7298SOL    HW133353   1.347   3.689   7.335  0.0954 -0.4805 -1.0268
 7298SOL    HW233354   1.307   3.590   7.237 -0.8010  0.4463 -1.8542
 7299SOL     OW33355   0.471   3.489   4.826  0.0464  0.2051  0.2203
 7299SOL    HW133356   0.479   3.394   4.825  0.9535  0.2828 -0.4562
 7299SOL    HW233357   0.439   3.513   4.913 -1.0880 -1.1829  0.1803
 7300SOL     OW33358   2.425   0.273  10.815 -0.5816  0.1640 -0.0825
 7300SOL    HW133359   2.350   0.230  10.774 -0.3990  1.3963 -1.6878
 7300SOL    HW233360   2.382   0.315  10.889  0.6670 -0.6101  1.0938
 7301SOL     OW33361   3.467   0.469  11.495 -0.6090 -0.7561 -0.2789
 7301SOL    HW133362   3.384   0.421  11.492 -0.6391 -0.9346  3.6959
 7301SOL    HW233363   3.471   0.490  11.402  0.0158 -1.2032 -0.3520
 7302SOL     OW33364   3.819   0.852  13.194 -0.2106  0.2687  0.1798
 7302SOL    HW133365   3.845   0.796  13.267 -0.4484  2.4672  1.9701
 7302SOL    HW233366   3.737   0.886  13.230 -0.3297  0.4293 -0.2436
 7303SOL     OW33367   2.412   1.971   5.842  0.4109  0.0882  0.0481
 7303SOL    HW133368   2.366   1.994   5.923 -3.9949  0.5776 -2.6115
 7303SOL    HW233369   2.455   1.893   5.876  2.8291  1.6217  0.5346
 7304SOL     OW33370   3.244   4.471   7.994  0.3497 -0.4620 -0.1628
 7304SOL    HW133371   3.263   4.553   7.948  0.6648  0.3267  1.3650
 7304SOL    HW233372   3.234   4.506   8.082  0.6271  1.1453 -0.7670
 7305SOL     OW33373   3.714   0.370   8.145 -0.3967  0.0982 -0.4084
 7305SOL    HW133374   3.706   0.409   8.058  1.6636  1.3138 -0.0425
 7305SOL    HW233375   3.807   0.387   8.160 -0.4076  0.8390 -1.1535
 7306SOL     OW33376   1.878   2.487   3.908 -0.2576  0.4374 -0.2918
 7306SOL    HW133377   1.839   2.560   3.860 -0.4521  0.8445  0.5051
 7306SOL    HW233378   1.910   2.515   3.993 -1.3265 -1.5498  0.7742
 7307SOL     OW33379   0.632   4.158   4.907  0.6196 -0.2216 -0.3390
 7307SOL    HW133380   0.619   4.072   4.866  1.1981 -0.9544  1.0183
 7307SOL    HW233381   0.682   4.136   4.986  0.0654 -1.1724 -0.2558
 7308SOL     OW33382   1.651   0.350  16.349  0.2944 -0.1071  0.1702
 7308SOL    HW133383   1.663   0.335  16.443  0.0498 -0.6344  0.1204
 7308SOL    HW233384   1.556   0.347  16.334  0.1993  0.7884  0.6168
 7309SOL     OW33385   0.321   2.735   0.732 -0.5813  0.1195 -0.3324
 7309SOL    HW133386   0.391   2.783   0.776  1.1034 -2.4375 -0.2071
 7309SOL    HW233387   0.280   2.701   0.812  0.8002  0.1459  0.3832
 7310SOL     OW33388   2.993   3.511   8.853 -0.0983 -0.3260 -0.5937
 7310SOL    HW133389   3.074   3.553   8.825 -0.4352  0.2980 -0.6216
 7310SOL    HW233390   2.938   3.586   8.874  0.2396 -0.2086 -0.1500
 7311SOL     OW33391   1.651   2.836   9.002 -0.2300  0.2162  0.3973
 7311SOL    HW133392   1.560   2.816   9.026 -0.6242  1.7497  0.1779
 7311SOL    HW233393   1.654   2.810   8.910  0.6762  3.3757 -0.4740
 7312SOL     OW33394   3.373   3.356   7.566 -0.4595 -0.2252  0.0487
 7312SOL    HW133395   3.433   3.406   7.621 -1.0237 -0.6417  1.0543
 7312SOL    HW233396   3.338   3.299   7.634  0.1907  2.6299  2.7566
 7313SOL     OW33397   0.260   1.907   6.410  0.4964 -0.1342  0.2912
 7313SOL    HW133398   0.172   1.869   6.414  0.1114  0.5993 -1.0271
 7313SOL    HW233399   0.240   1.977   6.347 -0.8356 -1.7625 -1.1204
 7314SOL     OW33400   0.436   3.438   4.153 -0.6346 -0.0474 -0.1289
 7314SOL    HW133401   0.425   3.519   4.203 -0.7139 -0.7176  0.9553
 7314SOL    HW233402   0.460   3.477   4.069 -1.8531 -1.8815 -1.3336
 7315SOL     OW33403   0.720   2.763   2.552 -0.4005  0.2065 -0.4962
 7315SOL    HW133404   0.746   2.739   2.463  1.7531 -1.0319  0.4717
 7315SOL    HW233405   0.780   2.832   2.580 -0.7074  0.0401  0.5662
 7316SOL     OW33406   1.160   2.904  11.053  0.0255 -0.4967 -0.1727
 7316SOL    HW133407   1.209   2.885  11.133  0.3741 -1.0252 -0.5125
 7316SOL    HW233408   1.157   2.817  11.013 -1.6785 -0.2420 -0.5971
 7317SOL     OW33409   2.442   4.631   8.443  0.1972  0.8201  0.5128
 7317SOL    HW133410   2.368   4.584   8.481 -0.0446  1.4365  0.8045
 7317SOL    HW233411   2.449   4.587   8.358 -2.3843  0.6661  0.3652
 7318SOL     OW33412   0.513   2.504   1.003  0.4622 -0.0372 -0.2361
 7318SOL    HW133413   0.506   2.576   1.066 -0.7925 -0.8002  0.4965
 7318SOL    HW233414   0.443   2.448   1.037  1.8671 -1.3858  0.4435
 7319SOL     OW33415   3.530   3.664  16.499 -0.2748  0.0279  0.0935
 7319SOL    HW133416   3.451   3.626  16.537  0.5476 -1.5828  0.2114
 7319SOL    HW233417   3.530   3.609  16.420  0.1708  2.4715 -1.5957
 7320SOL     OW33418   4.329   4.492  14.303  0.3070 -0.3033 -0.4354
 7320SOL    HW133419   4.403   4.448  14.261  0.6037 -0.1696 -0.0527
 7320SOL    HW233420   4.375   4.555  14.357 -0.2604  1.3463 -1.8718
 7321SOL     OW33421   4.570   3.191   1.869  0.2088  0.0589  0.2467
 7321SOL    HW133422   4.659   3.159   1.884  0.5862  0.4144 -1.2089
 7321SOL    HW233423   4.571   3.224   1.779 -0.6590  0.1905  0.2841
 7322SOL     OW33424   3.778   3.031   2.763 -0.0104 -0.0354  0.1350
 7322SOL    HW133425   3.725   2.969   2.815  1.5001 -1.4561 -0.0175
 7322SOL    HW233426   3.842   2.968   2.730 -1.2828  0.4949 -3.3115
 7323SOL     OW33427   0.770   4.641   7.420  0.0389  0.0450 -0.4075
 7323SOL    HW133428   0.795   4.622   7.511 -0.6759 -1.8246 -0.6242
 7323SOL    HW233429   0.684   4.679   7.438  0.1991  1.3145 -2.3093
 7324SOL     OW33430   0.656   0.828   4.286 -0.1540 -0.6303 -0.0823
 7324SOL    HW133431   0.565   0.859   4.290  0.0624  0.1631 -1.2433
 7324SOL    HW233432   0.691   0.898   4.230 -0.0173  0.9859  2.0367
 7325SOL     OW33433   1.997   1.875  11.351 -0.1066 -0.1815 -0.0998
 7325SOL    HW133434   1.991   1.814  11.424  0.6727  2.2894  1.9940
 7325SOL    HW233435   2.005   1.961  11.392  3.9438 -0.4835 -0.2293
 7326SOL     OW33436   0.145   1.448   2.790  0.9107 -0.4391  0.5944
 7326SOL    HW133437   0.222   1.504   2.803  1.3019 -0.7525 -0.3697
 7326SOL    HW233438   0.173   1.362   2.820 -1.7311 -1.2489  0.7457
 7327SOL     OW33439   3.066   1.591   8.191 -0.4189  0.4640  0.0618
 7327SOL    HW133440   3.077   1.682   8.164 -0.4793  0.3733 -0.2698
 7327SOL    HW233441   3.104   1.551   8.113  2.3485  2.6157  0.3292
 7328SOL     OW33442   4.052   3.819   3.954 -0.2595 -0.1266  0.0154
 7328SOL    HW133443   3.994   3.747   3.977  1.6607 -1.8604 -0.6012
 7328SOL    HW233444   4.139   3.781   3.941 -0.4735 -0.3722 -0.6760
 7329SOL     OW33445   1.151   1.119   7.445 -0.1779  0.0227  0.1162
 7329SOL    HW133446   1.220   1.118   7.511 -0.3485 -0.7714  0.2853
 7329SOL    HW233447   1.163   1.209   7.415 -0.3081 -0.6457 -1.9293
 7330SOL     OW33448   0.633   0.994  16.480 -0.1110  0.2778 -0.4951
 7330SOL    HW133449   0.663   0.909  16.448 -0.1327 -0.0863  0.4352
 7330SOL    HW233450   0.575   1.016  16.408  0.9408 -0.8745 -1.7020
 7331SOL     OW33451   0.660   4.667  17.200  0.5787 -0.1464  0.2614
 7331SOL    HW133452   0.599   4.596  17.178  1.4227 -0.1379 -2.0881
 7331SOL    HW233453   0.680   4.643  17.291  2.7960 -0.4566 -0.3110
 7332SOL     OW33454   1.983   1.113  13.737 -0.7442 -0.3643 -0.6115
 7332SOL    HW133455   2.024   1.033  13.703 -0.7425  0.6667 -3.0140
 7332SOL    HW233456   1.972   1.165  13.658  0.3057 -1.6132 -1.5823
 7333SOL     OW33457   3.842   0.380  10.535  0.1037  0.0703  0.2785
 7333SOL    HW133458   3.802   0.431  10.464 -2.4916 -2.3107  0.0265
 7333SOL    HW233459   3.843   0.295  10.490  0.1671 -1.3582  2.9897
 7334SOL     OW33460   4.544   1.286   3.416 -0.8639 -0.3456 -0.1944
 7334SOL    HW133461   4.517   1.200   3.383 -0.2303 -0.2251 -1.0287
 7334SOL    HW233462   4.606   1.267   3.486  0.8558  3.6501 -0.6307
 7335SOL     OW33463   3.070   0.820  14.587 -0.8994 -0.1695  0.1926
 7335SOL    HW133464   3.085   0.732  14.552  1.1677  0.1874  0.1891
 7335SOL    HW233465   3.060   0.799  14.680 -1.4839  1.4671  0.4945
 7336SOL     OW33466   2.497   4.185   1.853 -0.3017  0.4917 -0.3532
 7336SOL    HW133467   2.567   4.122   1.867 -0.6517 -0.5560 -3.2530
 7336SOL    HW233468   2.419   4.132   1.840  0.0164 -0.4559  1.5940
 7337SOL     OW33469   0.804   2.778   2.271  0.1476 -0.0321  0.2365
 7337SOL    HW133470   0.772   2.738   2.190  1.1186 -1.5628  0.6110
 7337SOL    HW233471   0.781   2.871   2.263  1.1874  0.1609 -0.4582
 7338SOL     OW33472   0.039   3.152   3.322 -0.1687  0.3298  0.4206
 7338SOL    HW133473   0.012   3.167   3.231  0.6673  1.0902  0.3039
 7338SOL    HW233474   0.005   3.234   3.359  0.6934  0.2176  1.4449
 7339SOL     OW33475   2.597   2.611   2.924 -0.3585  0.5764  0.1861
 7339SOL    HW133476   2.518   2.581   2.880 -0.6471 -0.6836  1.5463
 7339SOL    HW233477   2.650   2.531   2.923  0.3237  1.0812 -2.8559
 7340SOL     OW33478   4.210   1.380   0.007 -0.4077 -0.3505  0.1882
 7340SOL    HW133479   4.176   1.436  17.639  0.7531 -1.0717 -0.9585
 7340SOL    HW233480   4.152   1.393   0.083 -1.3253  1.0171 -0.7474
 7341SOL     OW33481   1.467   2.596  11.366 -0.5061  0.1852 -0.3694
 7341SOL    HW133482   1.438   2.505  11.372  0.2322 -0.0288  0.0381
 7341SOL    HW233483   1.529   2.597  11.439  0.2974  0.8564 -1.0662
 7342SOL     OW33484   1.021   1.321   3.014  0.4487  0.1988 -0.2435
 7342SOL    HW133485   1.050   1.240   2.974  1.7852  0.9100 -0.7163
 7342SOL    HW233486   1.108   1.362   3.014  0.3842  0.3302 -1.7333
 7343SOL     OW33487   0.341   4.055   9.117  0.4509 -0.2394  0.2446
 7343SOL    HW133488   0.279   4.003   9.169 -0.0019  0.1626  0.0985
 7343SOL    HW233489   0.401   4.075   9.189  0.4436  0.8274 -0.0604
 7344SOL     OW33490   4.314   0.821   4.749 -0.5360  0.6429 -0.4090
 7344SOL    HW133491   4.332   0.728   4.734  0.2883  0.6141  0.7406
 7344SOL    HW233492   4.359   0.877   4.686 -0.9320  2.8668  1.2682
 7345SOL     OW33493   3.715   3.487   8.755  0.0597 -0.1788  0.0352
 7345SOL    HW133494   3.792   3.439   8.725 -0.2455 -0.1565 -0.7974
 7345SOL    HW233495   3.736   3.574   8.721 -0.6994  0.8322  2.2110
 7346SOL     OW33496   1.844   0.097  11.932 -0.4097  0.5527  0.3598
 7346SOL    HW133497   1.878   0.035  11.996 -3.0540 -0.4506  0.7976
 7346SOL    HW233498   1.849   0.048  11.850 -0.1059 -0.9367  1.2770
 7347SOL     OW33499   3.614   4.044   4.215  0.3055 -0.1709  0.5055
 7347SOL    HW133500   3.685   3.982   4.197 -0.9611 -0.8977 -1.9011
 7347SOL    HW233501   3.574   4.047   4.128  1.8921  0.8085 -0.1850
 7348SOL     OW33502   1.939   0.537   8.920  0.4255 -0.6968 -0.4783
 7348SOL    HW133503   1.873   0.598   8.887  0.6812  0.5604  1.3714
 7348SOL    HW233504   1.879   0.471   8.954  0.2480  1.3142  3.0823
 7349SOL     OW33505   1.246   3.250   4.771 -0.0920 -0.0975  0.4014
 7349SOL    HW133506   1.286   3.315   4.830  0.3520 -0.7265  0.7926
 7349SOL    HW233507   1.189   3.305   4.718 -1.3617 -1.1818  0.6478
 7350SOL     OW33508   2.538   4.289   3.362 -0.1876  0.0189 -0.3465
 7350SOL    HW133509   2.629   4.286   3.332 -0.4462 -0.2291 -1.0990
 7350SOL    HW233510   2.549   4.306   3.456  0.4099  0.8863 -0.5755
 7351SOL     OW33511   2.087   0.855   3.129 -0.1809 -0.7653 -0.5918
 7351SOL    HW133512   2.092   0.948   3.152  3.3453 -0.9477 -0.5786
 7351SOL    HW233513   2.076   0.869   3.035 -0.8870  0.7116 -0.2919
 7352SOL     OW33514   3.257   4.553   5.138  0.8968  0.1422  0.1025
 7352SOL    HW133515   3.203   4.502   5.198 -0.5595  0.1412 -1.2233
 7352SOL    HW233516   3.324   4.485   5.127  0.5657  0.0726 -1.4898
 7353SOL     OW33517   2.382   3.632   4.153  0.6548  0.3248 -0.0927
 7353SOL    HW133518   2.310   3.690   4.128  1.5023  1.1815 -0.5574
 7353SOL    HW233519   2.423   3.611   4.068 -0.7152 -1.9408 -0.2019
 7354SOL     OW33520   4.446   3.361  15.127  0.3579  0.5276  0.5425
 7354SOL    HW133521   4.486   3.448  15.133  1.4860  0.1891 -1.8236
 7354SOL    HW233522   4.360   3.379  15.165 -0.4682  3.5135 -2.6940
 7355SOL     OW33523   2.506   0.081   5.944 -0.0034  0.0097 -0.1597
 7355SOL    HW133524   2.420   0.041   5.932  0.7096 -1.5036 -0.0887
 7355SOL    HW233525   2.536   0.032   6.020 -0.5963 -1.4495 -0.8834
 7356SOL     OW33526   3.806   0.684   7.479  0.1706  0.0850  0.0194
 7356SOL    HW133527   3.789   0.631   7.401 -2.0743 -0.1400  0.6706
 7356SOL    HW233528   3.717   0.709   7.504 -0.2802 -0.3072 -1.2035
 7357SOL     OW33529   0.244   0.748  12.007 -0.2701 -0.3312 -0.2489
 7357SOL    HW133530   0.288   0.824  11.968 -0.0498 -0.6589 -0.6415
 7357SOL    HW233531   0.161   0.752  11.961 -0.1673 -0.9029 -0.4919
 7358SOL     OW33532   0.349   0.693   2.927  0.0139  0.1667  0.0630
 7358SOL    HW133533   0.288   0.754   2.887 -2.2704 -0.7650  2.1251
 7358SOL    HW233534   0.397   0.750   2.987  0.0638  0.5047 -0.3004
 7359SOL     OW33535   4.247   0.719   4.367 -0.3369 -0.3202  0.4774
 7359SOL    HW133536   4.210   0.701   4.281  2.2625 -1.9496 -0.3293
 7359SOL    HW233537   4.337   0.731   4.337 -0.5251 -1.0045 -0.3611
 7360SOL     OW33538   3.844   1.213   2.917  0.0914 -0.4154  0.8953
 7360SOL    HW133539   3.878   1.282   2.974  2.3528 -0.3379 -0.5649
 7360SOL    HW233540   3.919   1.176   2.871  0.7726  2.3152 -0.2090
 7361SOL     OW33541   3.706   2.062   9.188  0.1576 -0.4141 -0.2712
 7361SOL    HW133542   3.675   2.150   9.208 -0.6507 -1.0722  1.3881
 7361SOL    HW233543   3.798   2.075   9.211 -0.1521  1.8301 -0.3594
 7362SOL     OW33544   0.987   2.519   3.026 -0.1708 -0.5346  0.2997
 7362SOL    HW133545   1.065   2.567   3.054 -0.0630 -0.8810  0.5892
 7362SOL    HW233546   0.960   2.582   2.960  1.3157  0.3056  0.4962
 7363SOL     OW33547   1.544   4.703   5.233 -0.1145 -0.4728 -0.0341
 7363SOL    HW133548   1.616   0.035   5.259 -1.1657  1.7502 -1.9325
 7363SOL    HW233549   1.502   4.706   5.319  0.6028  1.6192  0.2416
 7364SOL     OW33550   3.902   1.697   9.747 -0.1421 -0.6320 -0.4570
 7364SOL    HW133551   3.920   1.712   9.840  0.0966 -0.0015 -0.6042
 7364SOL    HW233552   3.813   1.728   9.739  0.0996  0.6366  1.7251
 7365SOL     OW33553   2.938   1.370  12.900  0.4437  0.5393  0.8396
 7365SOL    HW133554   2.892   1.302  12.850  2.5287  0.8130 -1.4773
 7365SOL    HW233555   2.932   1.449  12.847  3.7370  0.1448 -0.1127
 7366SOL     OW33556   3.837   3.414  16.232  0.4869 -0.5957 -0.1082
 7366SOL    HW133557   3.761   3.364  16.261 -1.0239  2.9416  2.0008
 7366SOL    HW233558   3.842   3.375  16.144  0.4656 -0.8545  0.0049
 7367SOL     OW33559   0.493   0.812   7.133 -0.2890 -0.1897  0.0501
 7367SOL    HW133560   0.440   0.840   7.208 -0.5477  2.7413 -1.2449
 7367SOL    HW233561   0.558   0.881   7.126 -1.3884  0.7360 -0.9058
 7368SOL     OW33562   3.832   0.394   9.462 -0.1589 -0.7484 -0.2143
 7368SOL    HW133563   3.883   0.320   9.494  0.5894 -0.6701 -1.2181
 7368SOL    HW233564   3.865   0.473   9.504  0.7383 -0.6189 -1.1518
 7369SOL     OW33565   0.882   2.924   3.157  0.1696 -0.9040  0.6433
 7369SOL    HW133566   0.951   2.863   3.131  0.3218 -0.1307 -0.8089
 7369SOL    HW233567   0.838   2.955   3.077  0.3627  2.1473  1.7401
 7370SOL     OW33568   2.836   2.917   6.352  0.0354 -0.2012 -0.1999
 7370SOL    HW133569   2.928   2.933   6.377  0.4817 -1.0425 -1.3211
 7370SOL    HW233570   2.836   2.827   6.385 -2.1903  0.2915  1.1140
 7371SOL     OW33571   2.498   0.451   9.036 -0.1018  0.3004  0.0085
 7371SOL    HW133572   2.429   0.412   8.982 -1.7935  4.3815 -0.7989
 7371SOL    HW233573   2.481   0.412   9.121  1.1071  0.2803  0.2380
 7372SOL     OW33574   2.388   3.816   6.682 -0.6568  0.2912 -0.2129
 7372SOL    HW133575   2.309   3.763   6.678 -0.8860  0.7670 -2.0029
 7372SOL    HW233576   2.367   3.867   6.604 -0.5000  0.5793 -0.0705
 7373SOL     OW33577   4.159   1.500  10.163  0.2261 -0.2136 -0.2456
 7373SOL    HW133578   4.240   1.450  10.148  0.6778  0.4228  0.0447
 7373SOL    HW233579   4.196   1.553  10.234  1.1849 -0.5918 -0.4570
 7374SOL     OW33580   4.406   2.677   6.578 -0.0848  0.2999 -0.4921
 7374SOL    HW133581   4.346   2.744   6.545 -0.2846  0.9336  1.2159
 7374SOL    HW233582   4.480   2.735   6.591  1.4895 -2.0135  0.7882
 7375SOL     OW33583   0.153   2.221  15.358 -0.7824  0.0535  0.1097
 7375SOL    HW133584   0.241   2.208  15.322 -0.4920  2.0277  0.1055
 7375SOL    HW233585   0.097   2.222  15.280 -1.4064 -0.3327  0.5512
 7376SOL     OW33586   0.534   0.408   2.747 -0.4079  0.0199 -0.4725
 7376SOL    HW133587   0.507   0.321   2.716 -0.8174  0.3350 -1.0107
 7376SOL    HW233588   0.590   0.434   2.673 -0.3739 -1.9932 -1.1680
 7377SOL     OW33589   0.441   1.008   6.715  0.3848  0.5569  0.0019
 7377SOL    HW133590   0.535   1.002   6.697  0.1111 -0.0662 -1.2820
 7377SOL    HW233591   0.417   1.058   6.637 -1.6004 -2.4170 -1.3118
 7378SOL     OW33592   4.452   3.789   9.510 -0.1349  0.1238 -0.5068
 7378SOL    HW133593   4.478   3.872   9.471  0.9052  0.4799  0.9261
 7378SOL    HW233594   4.525   3.770   9.570 -0.0698  0.7744 -0.3818
 7379SOL     OW33595   0.154   4.515   1.544 -0.2142 -0.7148 -0.0727
 7379SOL    HW133596   0.114   4.492   1.628  0.4128 -2.5258 -0.2868
 7379SOL    HW233597   0.234   4.540   1.590 -0.4101 -1.1452  0.5023
 7380SOL     OW33598   2.502   1.571   5.073 -0.0215  0.0017  0.5621
 7380SOL    HW133599   2.521   1.658   5.109  2.2946 -1.5207  3.0979
 7380SOL    HW233600   2.585   1.537   5.040 -1.5290 -3.3094  0.2448
 7381SOL     OW33601   3.745   0.615   4.978 -0.1426  0.1626  0.1251
 7381SOL    HW133602   3.736   0.599   5.072 -2.5590 -1.7436 -0.4457
 7381SOL    HW233603   3.750   0.524   4.950  2.4689  0.4221 -0.2752
 7382SOL     OW33604   2.527   3.714   6.428  0.7563  0.3594 -0.4727
 7382SOL    HW133605   2.564   3.678   6.348 -1.0029 -0.0327 -1.0935
 7382SOL    HW233606   2.444   3.669   6.440  1.5519 -1.3372 -1.3527
 7383SOL     OW33607   4.266   3.568   8.705 -0.0567 -0.0181  0.2748
 7383SOL    HW133608   4.216   3.630   8.653 -0.5292  0.7122  1.6036
 7383SOL    HW233609   4.236   3.487   8.665  1.1978 -0.9177  1.1254
 7384SOL     OW33610   0.483   1.773   3.684 -0.0819  0.2225  0.0659
 7384SOL    HW133611   0.546   1.734   3.745  2.9440  2.8754 -1.3524
 7384SOL    HW233612   0.533   1.852   3.665  0.9548 -0.5867 -0.6020
 7385SOL     OW33613   0.717   4.152   1.694  0.1910 -0.5246 -0.3927
 7385SOL    HW133614   0.733   4.060   1.719  0.4828 -0.0381  1.2063
 7385SOL    HW233615   0.634   4.169   1.738  0.2370  0.7529 -0.8071
 7386SOL     OW33616   4.636   0.335  17.336 -0.1515  0.0885 -0.0533
 7386SOL    HW133617   4.601   0.362  17.421 -2.2389 -0.3002 -0.7814
 7386SOL    HW233618   4.615   0.244  17.318  1.1504 -0.2479  0.1348
 7387SOL     OW33619   1.128   3.602  11.401  0.4435  0.1868 -0.6930
 7387SOL    HW133620   1.072   3.679  11.402 -1.3990 -1.1699  0.3185
 7387SOL    HW233621   1.215   3.640  11.419  0.4267 -0.4819  0.8743
 7388SOL     OW33622   3.692   4.631   3.776  0.0059  0.0434  0.0783
 7388SOL    HW133623   3.696   0.000   3.762  0.9075  0.1986  1.3743
 7388SOL    HW233624   3.773   4.617   3.826  0.0707 -1.4703 -0.4539
 7389SOL     OW33625   0.540   2.668   1.814  0.0325  0.9112 -0.3279
 7389SOL    HW133626   0.524   2.727   1.741  2.0290  0.2034 -1.3390
 7389SOL    HW233627   0.478   2.600   1.790  0.9192  0.2661 -0.8180
 7390SOL     OW33628   1.852   4.323  11.884 -0.3639 -0.2627 -0.1535
 7390SOL    HW133629   1.842   4.229  11.868 -2.4901 -0.0184 -0.2298
 7390SOL    HW233630   1.942   4.328  11.916 -0.9709  3.8072  0.9944
 7391SOL     OW33631   3.421   2.217   9.403  0.2497 -0.3956  0.5527
 7391SOL    HW133632   3.357   2.286   9.424 -0.0641 -0.5397  0.0602
 7391SOL    HW233633   3.484   2.260   9.345 -0.5064 -0.0752 -0.0427
 7392SOL     OW33634   0.857   1.129   4.754  0.6794  0.1371  0.1544
 7392SOL    HW133635   0.805   1.080   4.818 -0.5113  0.8719 -0.2450
 7392SOL    HW233636   0.911   1.057   4.720 -0.0921 -0.2470 -0.2897
 7393SOL     OW33637   4.279   3.890   6.994  0.2554 -0.0114 -0.5197
 7393SOL    HW133638   4.320   3.948   6.930  0.7087  0.6364  0.3490
 7393SOL    HW233639   4.350   3.826   7.004  2.2047  2.0568 -1.2111
 7394SOL     OW33640   0.144   3.207   5.287  0.0709  0.1792  0.0511
 7394SOL    HW133641   0.230   3.192   5.327  1.0486  1.2048 -1.6698
 7394SOL    HW233642   0.155   3.266   5.213 -0.6224  1.0311  0.6150
 7395SOL     OW33643   2.160   3.835   2.860 -0.5616  0.0929 -0.1382
 7395SOL    HW133644   2.221   3.902   2.892 -0.8938  0.8948 -1.1998
 7395SOL    HW233645   2.186   3.838   2.768 -0.7178 -0.2622 -0.1933
 7396SOL     OW33646   4.657   2.978   5.742  0.9414  0.2274  0.0508
 7396SOL    HW133647   4.625   2.945   5.825  0.5397  0.4730 -0.0050
 7396SOL    HW233648   4.613   3.060   5.718 -1.9582 -0.9404  1.3534
 7397SOL     OW33649   4.080   3.128   9.583  0.1609  0.1269 -0.3127
 7397SOL    HW133650   3.991   3.092   9.587 -0.4693  1.8066  0.4558
 7397SOL    HW233651   4.098   3.120   9.490 -1.2354  1.0007 -0.6567
 7398SOL     OW33652   2.225   0.964   3.489  0.4873 -0.4870 -0.6593
 7398SOL    HW133653   2.170   1.008   3.424 -1.3382 -0.0161  1.1960
 7398SOL    HW233654   2.247   1.035   3.551 -1.6728 -0.7318  0.3805
 7399SOL     OW33655   3.343   3.863   3.187 -0.3123 -0.0602 -0.1217
 7399SOL    HW133656   3.262   3.813   3.188 -1.2139  1.3878 -0.9201
 7399SOL    HW233657   3.396   3.826   3.116 -0.8792 -1.0548 -0.0286
 7400SOL     OW33658   0.440   4.510   2.604  0.4458 -0.6130 -0.0598
 7400SOL    HW133659   0.482   4.509   2.518  0.4920  0.3316 -0.0539
 7400SOL    HW233660   0.349   4.511   2.572  0.6106  1.3213 -0.4714
 7401SOL     OW33661   1.599   0.313   5.981 -0.3505  0.2567  0.4964
 7401SOL    HW133662   1.680   0.362   5.997 -1.5035  2.4961 -0.6153
 7401SOL    HW233663   1.612   0.241   6.043  0.5420 -1.2884 -1.4825
 7402SOL     OW33664   4.076   2.717   8.406  0.1992  0.1907 -0.3737
 7402SOL    HW133665   3.990   2.679   8.423 -0.2155  1.3933  0.2553
 7402SOL    HW233666   4.049   2.808   8.417 -2.1367 -0.5499 -0.0894
 7403SOL     OW33667   3.702   0.890   5.419  0.5091 -0.2393  0.0275
 7403SOL    HW133668   3.625   0.834   5.431  1.1348 -1.3627 -1.1801
 7403SOL    HW233669   3.700   0.904   5.324  0.4528  0.2659  0.1005
 7404SOL     OW33670   1.190   2.429   9.246 -0.0869  0.2483 -0.2069
 7404SOL    HW133671   1.110   2.432   9.298 -0.2974  1.4385 -0.5926
 7404SOL    HW233672   1.245   2.394   9.316 -0.3879 -0.7776 -0.4957
 7405SOL     OW33673   2.351   0.449   2.837 -0.4455  0.1842  0.3075
 7405SOL    HW133674   2.408   0.432   2.911 -1.3465 -2.0483  0.4884
 7405SOL    HW233675   2.326   0.364   2.800 -2.0370  1.2225 -1.0230
 7406SOL     OW33676   4.061   0.207   3.028 -0.0264  0.4369  0.2040
 7406SOL    HW133677   3.989   0.177   2.972 -0.5977 -1.0733  1.7680
 7406SOL    HW233678   4.043   0.299   3.044 -0.5404  0.3222  0.3021
 7407SOL     OW33679   0.197   2.368   1.527  0.0360  0.7045  0.2178
 7407SOL    HW133680   0.165   2.285   1.491  2.6687  1.0942 -3.0784
 7407SOL    HW233681   0.115   2.417   1.531  1.1493  2.7642 -2.1734
 7408SOL     OW33682   0.178   4.642   7.076 -0.1130 -0.1784  0.2640
 7408SOL    HW133683   0.257   4.643   7.131 -0.0012  1.6527  0.0931
 7408SOL    HW233684   0.195   4.716   7.018 -0.7642 -0.7945 -0.7129
 7409SOL     OW33685   3.419   1.654   2.362 -0.6123 -0.3902  0.1485
 7409SOL    HW133686   3.469   1.575   2.341 -0.4063  0.0194 -0.8810
 7409SOL    HW233687   3.340   1.622   2.318 -1.0355 -0.1689  0.7433
 7410SOL     OW33688   3.884   1.386   0.434  0.5062 -0.0809 -0.5501
 7410SOL    HW133689   3.788   1.383   0.436  0.5470 -0.7757  0.7201
 7410SOL    HW233690   3.890   1.332   0.513  1.1791 -0.2948 -0.7524
 7411SOL     OW33691   1.333   2.948   6.266  0.3582 -0.3386 -0.0206
 7411SOL    HW133692   1.274   3.021   6.247  0.0786 -0.4350  0.5058
 7411SOL    HW233693   1.393   2.959   6.191  0.9322  0.4840  0.5597
 7412SOL     OW33694   1.464   4.283   6.457 -1.0888 -0.4094 -0.3500
 7412SOL    HW133695   1.540   4.340   6.470 -0.5337 -1.1452 -0.4077
 7412SOL    HW233696   1.414   4.317   6.532 -2.0562  2.0967 -2.1295
 7413SOL     OW33697   0.140   0.295   7.999 -0.1630  0.4947  0.1557
 7413SOL    HW133698   0.087   0.357   8.050 -1.5157  0.5766 -1.3257
 7413SOL    HW233699   0.129   0.216   8.051  0.6985 -1.3530 -2.4763
 7414SOL     OW33700   1.974   1.478   8.262 -0.4414 -0.6654 -0.0068
 7414SOL    HW133701   1.954   1.422   8.187  1.9358 -4.3740  2.1440
 7414SOL    HW233702   2.009   1.417   8.327 -2.0894 -0.6825  0.8454
 7415SOL     OW33703   1.903   2.803  15.200  0.4382 -0.9951 -0.4597
 7415SOL    HW133704   1.986   2.766  15.172 -0.0049  0.3649 -3.6115
 7415SOL    HW233705   1.866   2.830  15.116 -0.3329  0.9332  0.4987
 7416SOL     OW33706   0.368   0.526  11.923 -0.3093  0.4328 -0.0635
 7416SOL    HW133707   0.450   0.545  11.968 -0.7004 -0.0451  0.8417
 7416SOL    HW233708   0.321   0.601  11.959 -0.7574  0.9953 -1.8428
 7417SOL     OW33709   2.110   0.765   4.152 -0.0205  0.0403  0.7938
 7417SOL    HW133710   2.189   0.739   4.200  0.5493  1.2398  0.5046
 7417SOL    HW233711   2.046   0.708   4.195 -0.0163  0.4151  1.2839
 7418SOL     OW33712   1.120   4.259   4.147  0.0668  0.0399  0.7732
 7418SOL    HW133713   1.191   4.234   4.206 -0.6427  1.5770  2.2879
 7418SOL    HW233714   1.089   4.343   4.181 -0.5527  1.2862 -2.8634
 7419SOL     OW33715   0.645   1.942   6.017 -0.3063 -0.2962 -0.1096
 7419SOL    HW133716   0.679   1.884   5.948  0.5661 -1.1224  1.0251
 7419SOL    HW233717   0.623   1.878   6.084 -0.3079 -0.0724  0.1039
 7420SOL     OW33718   2.531   1.562   5.670 -0.2537 -0.0308  0.3718
 7420SOL    HW133719   2.453   1.540   5.720  0.1505  2.3760  2.0820
 7420SOL    HW233720   2.606   1.560   5.730 -0.6997 -0.9056  0.9082
 7421SOL     OW33721   3.375   3.234  17.205  0.0615 -0.4514  0.3054
 7421SOL    HW133722   3.416   3.205  17.287  1.4511  0.6508 -0.0037
 7421SOL    HW233723   3.367   3.159  17.146  0.1983  0.4409 -0.8385
 7422SOL     OW33724   0.175   2.295   6.615 -0.0395  0.0694 -0.1282
 7422SOL    HW133725   0.241   2.229   6.592 -2.1355 -1.6938 -1.1597
 7422SOL    HW233726   0.217   2.379   6.597 -2.3262  1.0975 -0.6014
 7423SOL     OW33727   1.129   4.376   3.244 -0.2358 -0.0390 -0.2741
 7423SOL    HW133728   1.152   4.333   3.327  2.1096 -0.4503 -1.1342
 7423SOL    HW233729   1.118   4.469   3.260 -1.3343  0.0861 -1.7795
 7424SOL     OW33730   0.923   3.830   7.253  1.0071 -0.0415  0.4664
 7424SOL    HW133731   1.004   3.877   7.232  0.3824  0.6595 -0.3909
 7424SOL    HW233732   0.959   3.742   7.248 -0.9812 -0.9355  1.7542
 7425SOL     OW33733   0.242   2.723   7.312 -0.1085  0.2947  0.0409
 7425SOL    HW133734   0.242   2.677   7.228 -0.5677 -1.9213  1.2455
 7425SOL    HW233735   0.330   2.699   7.342 -0.6338 -0.6454  0.8152
 7426SOL     OW33736   0.765   1.486   7.074 -0.5386  0.3420  0.3020
 7426SOL    HW133737   0.784   1.558   7.134  0.4180  0.8900 -0.6580
 7426SOL    HW233738   0.813   1.416   7.119  2.1843  1.2589 -1.1395
 7427SOL     OW33739   3.925   4.504   6.245 -0.3441 -0.0395 -0.5231
 7427SOL    HW133740   3.966   4.588   6.220 -1.8105  0.6091 -0.7718
 7427SOL    HW233741   3.850   4.528   6.298  0.5443 -0.1026  0.7603
 7428SOL     OW33742   4.156   1.262  10.375  0.0019  0.4015  0.7132
 7428SOL    HW133743   4.122   1.199  10.439  0.6774 -1.4661 -0.7658
 7428SOL    HW233744   4.237   1.221  10.346 -1.8072 -0.8605 -2.5951
 7429SOL     OW33745   1.777   1.695  10.925  0.5969 -0.2006  0.1136
 7429SOL    HW133746   1.799   1.758  10.994 -0.2552 -1.9086  1.9475
 7429SOL    HW233747   1.841   1.625  10.941  0.1973 -0.3127  1.1905
 7430SOL     OW33748   3.587   3.404   5.114 -0.2926  0.1734 -0.2552
 7430SOL    HW133749   3.628   3.323   5.145 -3.1844 -1.0079  0.4477
 7430SOL    HW233750   3.651   3.475   5.121  1.0872 -1.1400  0.5155
 7431SOL     OW33751   3.215   4.092   5.153  0.1020  0.0013 -0.3748
 7431SOL    HW133752   3.214   4.031   5.079 -0.7772 -1.4356  0.8109
 7431SOL    HW233753   3.191   4.042   5.231 -0.7205  1.2681  0.1907
 7432SOL     OW33754   3.830   2.066  13.811  0.1476  0.9929  0.0762
 7432SOL    HW133755   3.838   2.158  13.835  2.8947  0.9281 -0.6068
 7432SOL    HW233756   3.849   2.026  13.896 -0.5958 -1.4519 -0.9032
 7433SOL     OW33757   2.854   0.848   6.377  0.3909  0.1506 -0.4872
 7433SOL    HW133758   2.767   0.849   6.417  0.8446 -2.5047  0.5679
 7433SOL    HW233759   2.858   0.926   6.322  0.8235 -0.0548 -0.7415
 7434SOL     OW33760   2.803   2.984   2.576 -0.4453 -0.5208 -0.1288
 7434SOL    HW133761   2.719   2.939   2.577 -0.1749 -1.0219  0.1859
 7434SOL    HW233762   2.782   3.049   2.510 -0.3406  0.2094  0.5565
 7435SOL     OW33763   3.668   0.838   7.216 -0.1209 -0.3275  0.3160
 7435SOL    HW133764   3.760   0.846   7.239 -0.2768  0.9605  0.5041
 7435SOL    HW233765   3.669   0.761   7.160  1.3652  0.4329 -0.6951
 7436SOL     OW33766   1.292   2.273   5.774 -0.0854 -0.1552  0.6632
 7436SOL    HW133767   1.215   2.320   5.806  0.7845  0.8362  1.3175
 7436SOL    HW233768   1.311   2.211   5.844 -1.5868  0.4449  1.6104
 7437SOL     OW33769   1.762   4.677   6.776  0.1645  0.2072 -0.8241
 7437SOL    HW133770   1.695   4.707   6.838  0.8681 -1.5872  0.7924
 7437SOL    HW233771   1.830   0.018   6.789  0.2131 -0.0939  0.4200
 7438SOL     OW33772   2.397   0.712   1.781  0.1700 -0.3055 -0.4079
 7438SOL    HW133773   2.354   0.676   1.858 -2.0139  3.1371 -0.0010
 7438SOL    HW233774   2.321   0.730   1.725 -0.3475  0.9556  0.7061
 7439SOL     OW33775   3.352   0.765   5.110  0.5854 -0.5266  0.0837
 7439SOL    HW133776   3.346   0.716   5.028  2.4437  0.3824 -0.5858
 7439SOL    HW233777   3.281   0.723   5.158 -1.0423  3.1053  0.8911
 7440SOL     OW33778   2.306   2.639   9.378  0.4344 -0.2946 -0.7079
 7440SOL    HW133779   2.385   2.688   9.401 -0.5490  1.1201 -0.3629
 7440SOL    HW233780   2.247   2.709   9.353 -2.4552 -1.8189  1.8490
 7441SOL     OW33781   0.990   0.801   9.315  0.6561 -0.2187  0.3644
 7441SOL    HW133782   0.950   0.751   9.244 -0.7187  0.8798  0.3665
 7441SOL    HW233783   0.920   0.836   9.370 -0.1098 -0.7809 -0.2701
 7442SOL     OW33784   4.467   1.216   5.976  0.3606  0.1059  0.3592
 7442SOL    HW133785   4.383   1.259   5.957 -0.7121 -1.7622  0.9285
 7442SOL    HW233786   4.439   1.148   6.037 -1.9412  0.1729 -0.6037
 7443SOL     OW33787   2.164   3.057   3.228  0.1984  0.5267  0.7720
 7443SOL    HW133788   2.188   3.149   3.233 -1.4919  0.9481  1.0474
 7443SOL    HW233789   2.244   3.020   3.265  2.3622  2.3944 -2.0435
 7444SOL     OW33790   0.327   2.659   8.919 -1.2044 -0.0004  0.2824
 7444SOL    HW133791   0.262   2.690   8.856  0.3622 -0.4919 -1.5495
 7444SOL    HW233792   0.330   2.566   8.898  3.5601 -0.1187  1.4825
 7445SOL     OW33793   0.529   2.479   3.600  0.1381  0.0992 -0.2145
 7445SOL    HW133794   0.524   2.467   3.505 -1.0163 -0.6175 -0.0554
 7445SOL    HW233795   0.548   2.393   3.637 -0.0499  0.3684  0.5071
 7446SOL     OW33796   3.008   1.285  11.322 -0.3921 -0.1132  0.3847
 7446SOL    HW133797   3.019   1.244  11.408  0.9437  1.0861  0.7894
 7446SOL    HW233798   2.979   1.372  11.348 -2.3979 -0.9911  1.0917
 7447SOL     OW33799   1.555   2.391  11.012  0.1082  0.5014  0.0007
 7447SOL    HW133800   1.633   2.439  10.984  1.0158 -0.8830  0.1818
 7447SOL    HW233801   1.556   2.385  11.108 -2.5901 -0.7980 -0.0307
 7448SOL     OW33802   1.959   3.412   0.249 -0.2637  0.0570 -0.4744
 7448SOL    HW133803   2.030   3.348   0.243 -0.7126 -0.5538  0.8003
 7448SOL    HW233804   2.001   3.489   0.288  0.6543 -0.3549 -0.6305
 7449SOL     OW33805   1.590   2.166   8.102 -0.3118  0.0879  0.3197
 7449SOL    HW133806   1.574   2.252   8.062 -1.3627 -0.5549 -0.6352
 7449SOL    HW233807   1.656   2.141   8.037  0.1898 -0.4800  1.0467
 7450SOL     OW33808   2.179   3.500   5.460  0.0448 -0.0469 -0.1149
 7450SOL    HW133809   2.224   3.583   5.445  0.1562  0.4205  2.7296
 7450SOL    HW233810   2.186   3.472   5.369 -1.9359  1.2344 -0.6389
 7451SOL     OW33811   3.566   2.901   9.486 -0.0019 -0.3543 -0.4845
 7451SOL    HW133812   3.658   2.879   9.502  0.9732  3.0824 -1.3466
 7451SOL    HW233813   3.517   2.829   9.526  1.4575 -1.3567 -0.5255
 7452SOL     OW33814   1.030   3.740  16.189 -0.3484  0.3136  0.2701
 7452SOL    HW133815   0.969   3.801  16.148 -0.0729  0.8298  0.6334
 7452SOL    HW233816   1.110   3.762  16.141 -0.8990  0.9933 -0.3363
 7453SOL     OW33817   3.925   3.071   5.210  0.4133 -0.3718 -0.1325
 7453SOL    HW133818   3.919   3.040   5.120 -1.2486  0.9086 -0.4536
 7453SOL    HW233819   4.011   3.036   5.230  0.0521 -1.0477  0.2386
 7454SOL     OW33820   1.949   0.963   3.694 -0.3096  0.2236 -0.0938
 7454SOL    HW133821   1.997   1.031   3.647 -1.2709  1.0979  0.1942
 7454SOL    HW233822   1.865   0.955   3.648 -0.9696  2.0335  0.8090
 7455SOL     OW33823   1.072   2.148  14.859 -0.3129 -0.3139 -0.1533
 7455SOL    HW133824   1.075   2.094  14.939  0.9644 -0.5443 -0.3499
 7455SOL    HW233825   1.072   2.088  14.784  0.1153  1.4806 -1.5799
 7456SOL     OW33826   0.845   3.387   7.537 -0.0612 -0.0092  0.1011
 7456SOL    HW133827   0.776   3.453   7.537 -0.8979 -0.8951  2.0001
 7456SOL    HW233828   0.863   3.370   7.444  1.3636 -0.1237  0.3937
 7457SOL     OW33829   3.118   0.489   8.194  0.2887  0.0293  0.2562
 7457SOL    HW133830   3.032   0.492   8.237  0.9438 -0.9141  1.6727
 7457SOL    HW233831   3.129   0.396   8.175 -0.4065  0.0015  0.0057
 7458SOL     OW33832   3.506   2.837   7.779 -0.3106 -0.2695  0.6120
 7458SOL    HW133833   3.422   2.857   7.819 -0.7247 -1.6631  0.4570
 7458SOL    HW233834   3.555   2.800   7.852  1.4027 -1.1782 -0.9891
 7459SOL     OW33835   4.098   0.129  10.342  0.5323 -0.8207  0.0200
 7459SOL    HW133836   4.144   0.096  10.420 -0.6171 -0.2908  0.9158
 7459SOL    HW233837   4.013   0.152  10.378  0.7479 -0.5320  0.3478
 7460SOL     OW33838   1.248   3.798   4.151 -0.4716 -0.3215 -0.3910
 7460SOL    HW133839   1.247   3.787   4.246  2.0566  1.4399 -0.1703
 7460SOL    HW233840   1.154   3.814   4.140 -0.8606 -2.0342  0.5004
 7461SOL     OW33841   2.345   1.682   2.974 -0.2358 -0.6412 -0.3190
 7461SOL    HW133842   2.295   1.734   3.036 -0.1402 -0.8118 -0.0996
 7461SOL    HW233843   2.291   1.604   2.966  1.5142 -1.6899 -2.0162
 7462SOL     OW33844   1.613   1.176   5.294  0.5662  0.4799  0.1841
 7462SOL    HW133845   1.550   1.141   5.232  0.0893 -3.2679  2.8134
 7462SOL    HW233846   1.683   1.211   5.239 -1.9750  0.8590 -2.8009
 7463SOL     OW33847   3.028   4.308  12.945 -0.2689  0.2222  0.4124
 7463SOL    HW133848   2.947   4.273  12.982 -0.4655 -3.8850 -3.8808
 7463SOL    HW233849   3.094   4.257  12.992 -0.2021 -0.2439 -0.1764
 7464SOL     OW33850   4.179   1.205  17.300  0.1159 -0.4314  0.1892
 7464SOL    HW133851   4.155   1.116  17.277  0.4779 -0.4801 -0.0090
 7464SOL    HW233852   4.249   1.192  17.364  1.3377  0.0943 -1.0283
 7465SOL     OW33853   1.532   3.111   7.904  0.1569 -0.2017 -0.2837
 7465SOL    HW133854   1.582   3.040   7.863 -1.3398 -1.5762  0.2356
 7465SOL    HW233855   1.486   3.062   7.973  0.3348  0.6274  0.4163
 7466SOL     OW33856   1.437   2.118   5.085 -0.1499  0.6343  0.8895
 7466SOL    HW133857   1.367   2.174   5.051  0.3892  1.6492  1.4572
 7466SOL    HW233858   1.479   2.090   5.004 -3.5256 -1.7417 -0.0735
 7467SOL     OW33859   3.554   0.294   6.187  1.0359 -0.5163 -0.5457
 7467SOL    HW133860   3.575   0.245   6.107 -0.7517 -0.3938 -1.0979
 7467SOL    HW233861   3.621   0.361   6.181 -0.6352  1.5486  3.5284
 7468SOL     OW33862   4.561   1.721  15.267  0.4298  0.1505  0.3555
 7468SOL    HW133863   4.476   1.677  15.275 -0.6489  1.8283 -1.7860
 7468SOL    HW233864   4.618   1.676  15.329  0.1137 -1.2800 -0.4002
 7469SOL     OW33865   2.348   3.273   3.184 -0.3027  0.3352 -0.0198
 7469SOL    HW133866   2.347   3.268   3.279 -1.6350  1.9163  0.0591
 7469SOL    HW233867   2.439   3.300   3.171 -1.0354  3.1363  0.4495
 7470SOL     OW33868   4.066   1.835   5.361  0.5832  0.4422  0.3291
 7470SOL    HW133869   4.030   1.830   5.273 -0.8310  0.3859  0.9162
 7470SOL    HW233870   4.098   1.925   5.365  2.7467 -0.2435 -1.5676
 7471SOL     OW33871   1.414   1.527  11.511  0.2564  0.3559  0.7601
 7471SOL    HW133872   1.412   1.539  11.416  0.6271 -5.5558  0.0206
 7471SOL    HW233873   1.407   1.432  11.520  0.2267  0.0864 -2.0475
 7472SOL     OW33874   1.509   3.969   0.985 -0.3330  0.4797  0.4648
 7472SOL    HW133875   1.541   4.009   0.904 -0.8601 -0.6252 -0.2910
 7472SOL    HW233876   1.515   4.050   1.036  2.3805  0.2757  0.4648
 7473SOL     OW33877   2.038   4.605  10.209  0.0568  0.5171  0.3206
 7473SOL    HW133878   2.034   4.542  10.281  0.5743  1.6791  1.3685
 7473SOL    HW233879   1.989   4.557  10.142  2.3120 -0.1497 -0.8574
 7474SOL     OW33880   3.264   1.237   6.826  0.4135  0.1954  0.3128
 7474SOL    HW133881   3.284   1.168   6.889  1.4176 -0.6368 -0.9234
 7474SOL    HW233882   3.226   1.309   6.877  0.4129  0.6425 -0.3113
 7475SOL     OW33883   0.399   0.903  15.383  0.2303  0.0539 -0.4131
 7475SOL    HW133884   0.483   0.937  15.412  0.7114 -1.0849 -0.4970
 7475SOL    HW233885   0.431   0.889  15.294  2.3419  1.0241  0.2028
 7476SOL     OW33886   4.381   3.149   2.754 -0.2494 -0.2765 -0.2263
 7476SOL    HW133887   4.360   3.236   2.790 -1.2180 -0.0006 -1.4594
 7476SOL    HW233888   4.407   3.102   2.833 -1.4260  1.9843  1.5223
 7477SOL     OW33889   2.097   1.389   8.870  0.3022 -0.0349  0.3826
 7477SOL    HW133890   2.190   1.371   8.876  0.5147  0.8875 -0.0931
 7477SOL    HW233891   2.074   1.349   8.785 -1.1195 -0.1706  0.8240
 7478SOL     OW33892   3.067   1.130   6.407  0.4266 -0.4600 -0.0722
 7478SOL    HW133893   3.147   1.163   6.448  2.1957 -2.0948 -2.1917
 7478SOL    HW233894   2.997   1.183   6.445  0.1064  0.3066 -1.7184
 7479SOL     OW33895   3.275   1.679   5.322 -0.0926 -0.4494  0.4520
 7479SOL    HW133896   3.338   1.610   5.300 -0.8967 -0.5383 -1.4764
 7479SOL    HW233897   3.203   1.652   5.266 -1.5230  0.0230  2.0549
 7480SOL     OW33898   1.775   1.751   5.550 -0.1015  0.4357  0.3736
 7480SOL    HW133899   1.784   1.840   5.515 -2.1463  0.3241 -0.4657
 7480SOL    HW233900   1.739   1.703   5.475  2.1603  0.7057 -0.8688
 7481SOL     OW33901   3.131   2.108   4.641  0.0424 -0.3044  0.0986
 7481SOL    HW133902   3.216   2.129   4.681 -0.4503 -0.1499  1.0742
 7481SOL    HW233903   3.113   2.022   4.679  0.7891 -0.1404  0.8168
 7482SOL     OW33904   0.294   1.697  15.678  0.6424 -0.0817  0.9604
 7482SOL    HW133905   0.237   1.622  15.695  0.9146 -0.0967  1.8033
 7482SOL    HW233906   0.256   1.726  15.595  2.7753 -1.2878 -0.4703
 7483SOL     OW33907   3.456   2.109   8.065  0.5687  0.3450  0.1073
 7483SOL    HW133908   3.478   2.124   8.157 -1.6835 -1.0158  0.8754
 7483SOL    HW233909   3.476   2.016   8.060 -1.5087 -0.0715 -0.6810
 7484SOL     OW33910   2.560   3.962  12.188  0.3013 -0.1846 -0.3779
 7484SOL    HW133911   2.595   3.983  12.101  0.6975 -1.9290 -0.6404
 7484SOL    HW233912   2.540   4.052  12.212  1.3611  0.3228 -1.3748
 7485SOL     OW33913   0.545   1.205  11.614  0.0672  0.0741 -0.2841
 7485SOL    HW133914   0.502   1.219  11.698  0.8640  1.2520 -0.0671
 7485SOL    HW233915   0.615   1.271  11.619 -0.0585  0.1010  1.1754
 7486SOL     OW33916   0.592   1.232   7.906  0.3000 -0.6926  0.2977
 7486SOL    HW133917   0.597   1.159   7.846 -2.5157 -0.9529  0.3978
 7486SOL    HW233918   0.680   1.269   7.905 -0.1446  0.3357 -0.7105
 7487SOL     OW33919   4.029   2.896   3.479  0.1555 -0.0493  0.1624
 7487SOL    HW133920   4.034   2.991   3.472 -0.0128 -0.0863 -0.4795
 7487SOL    HW233921   3.970   2.872   3.551 -0.0644  1.0503  0.3438
 7488SOL     OW33922   4.143   3.597   7.089  0.1416  0.1061 -0.6106
 7488SOL    HW133923   4.200   3.536   7.135  1.3995  1.8206  0.0783
 7488SOL    HW233924   4.186   3.610   7.005  0.3915  0.2330 -0.4618
 7489SOL     OW33925   0.356   4.656   4.308 -0.0107 -0.3636  0.2184
 7489SOL    HW133926   0.304   0.011   4.317 -2.7129 -1.9270 -1.3151
 7489SOL    HW233927   0.380   4.668   4.216  0.8096  0.5078  0.5413
 7490SOL     OW33928   0.976   2.529  16.925 -0.2322  0.1368  0.3368
 7490SOL    HW133929   1.027   2.450  16.910 -0.2529 -0.4713  3.4770
 7490SOL    HW233930   0.895   2.511  16.877  0.9260  1.4470 -2.0523
 7491SOL     OW33931   1.089   1.002  16.355 -0.1074  0.8052 -0.5337
 7491SOL    HW133932   1.058   0.937  16.291  1.7646 -0.0513 -0.5529
 7491SOL    HW233933   1.007   1.046  16.379 -0.5703 -0.7482  0.7273
 7492SOL     OW33934   1.146   2.654  10.950  0.4667 -0.4581 -0.2278
 7492SOL    HW133935   1.062   2.615  10.927 -0.1077 -0.2686  1.5682
 7492SOL    HW233936   1.188   2.583  10.999 -1.6895 -1.2708  0.4443
 7493SOL     OW33937   0.243   1.068  10.503  0.0029 -0.3335 -0.4720
 7493SOL    HW133938   0.321   1.118  10.529 -0.0239  0.3508 -1.7073
 7493SOL    HW233939   0.238   0.988  10.555  0.9322  0.3722  0.7035
 7494SOL     OW33940   2.688   0.751  17.302  0.3665  0.0129 -0.4575
 7494SOL    HW133941   2.664   0.674  17.250 -3.5209 -0.3939  1.9382
 7494SOL    HW233942   2.649   0.819  17.248  1.4989  2.0589  1.3225
 7495SOL     OW33943   2.477   3.987   6.016  0.0722  0.3246 -0.1456
 7495SOL    HW133944   2.410   4.010   5.952 -1.6727 -2.1329  0.8217
 7495SOL    HW233945   2.424   3.928   6.070 -0.5173  0.0924 -0.9906
 7496SOL     OW33946   0.055   2.317   4.039  0.0864 -0.0394  0.0550
 7496SOL    HW133947   0.022   2.276   3.958  2.1980 -0.5423 -0.5570
 7496SOL    HW233948   0.128   2.257   4.051 -1.2882 -1.5556  0.8531
 7497SOL     OW33949   3.428   0.397   4.869  0.1768 -0.0612 -0.8358
 7497SOL    HW133950   3.404   0.489   4.872 -2.3105 -0.7639  0.7777
 7497SOL    HW233951   3.523   0.409   4.868  0.0429  1.2021  2.6434
 7498SOL     OW33952   0.894   3.106   8.490  0.3441  0.3842 -0.1601
 7498SOL    HW133953   0.877   3.015   8.515  0.4309  0.4772  0.2427
 7498SOL    HW233954   0.979   3.099   8.446 -0.5651  3.6934 -2.4425
 7499SOL     OW33955   3.615   0.200  14.189  0.3772  0.6021 -0.5796
 7499SOL    HW133956   3.660   0.155  14.261  0.0508 -1.6293 -1.7749
 7499SOL    HW233957   3.687   0.199  14.126  0.7098  0.0402 -0.1971
 7500SOL     OW33958   0.358   3.961  12.292 -0.2065 -0.0962 -0.3412
 7500SOL    HW133959   0.275   3.988  12.251 -0.6763 -1.2897 -0.1692
 7500SOL    HW233960   0.355   4.006  12.376 -3.7165 -1.5448  0.2983
 7501SOL     OW33961   2.276   0.818   4.655  0.3505  0.4261 -0.4500
 7501SOL    HW133962   2.248   0.736   4.697  0.2726 -0.0754 -1.4735
 7501SOL    HW233963   2.327   0.859   4.725 -1.7176  0.5049  0.9979
 7502SOL     OW33964   0.690   1.710   4.845  0.0073 -0.0321 -0.4239
 7502SOL    HW133965   0.734   1.625   4.848  0.6618  0.3125 -0.2748
 7502SOL    HW233966   0.602   1.674   4.836  0.6691 -1.1888 -2.1408
 7503SOL     OW33967   3.004   1.877   6.500 -0.1177 -0.2355  0.5683
 7503SOL    HW133968   2.977   1.966   6.523 -1.4886 -0.4838 -0.1128
 7503SOL    HW233969   3.051   1.855   6.580  0.5469 -0.5777  0.0806
 7504SOL     OW33970   0.060   2.427  11.033 -0.2424 -0.2508  0.8202
 7504SOL    HW133971   4.722   2.401  11.099  1.2370 -1.0998  1.9135
 7504SOL    HW233972   0.102   2.341  11.031 -0.4675 -0.2990 -2.2454
 7505SOL     OW33973   4.118   2.636   5.410  0.1595 -0.5080  0.2769
 7505SOL    HW133974   4.184   2.698   5.441  1.2464  0.2042 -3.4506
 7505SOL    HW233975   4.068   2.624   5.490 -2.9443  0.2689 -1.5278
 7506SOL     OW33976   3.914   3.543   4.007 -0.1347 -0.1482  0.2242
 7506SOL    HW133977   3.960   3.460   3.991  0.1762 -0.0119  0.4092
 7506SOL    HW233978   3.907   3.542   4.102 -4.0016 -1.1672 -0.0761
 7507SOL     OW33979   1.528   4.198   3.914  0.0289  0.3800  0.1802
 7507SOL    HW133980   1.567   4.247   3.987  0.7104 -0.0953  0.1348
 7507SOL    HW233981   1.490   4.123   3.959 -1.6427  0.7615 -0.5883
 7508SOL     OW33982   3.483   4.079   3.323 -0.1016  0.2973  0.6219
 7508SOL    HW133983   3.441   4.037   3.248  1.0341  0.4869 -0.1126
 7508SOL    HW233984   3.414   4.065   3.388 -0.3021 -3.6244 -0.4079
 7509SOL     OW33985   4.514   2.937   5.346 -0.3338  0.0468 -0.0342
 7509SOL    HW133986   4.606   2.949   5.371 -0.1836  1.1180 -1.1218
 7509SOL    HW233987   4.519   2.914   5.254 -2.9456 -0.0243 -0.1393
 7510SOL     OW33988   1.396   4.380   7.319 -0.2928 -0.0886  0.0992
 7510SOL    HW133989   1.407   4.311   7.383  0.9417  0.8209  0.8610
 7510SOL    HW233990   1.329   4.342   7.262  1.4706 -0.9929 -1.3794
 7511SOL     OW33991   2.358   2.645  14.369  0.0760 -0.8996  0.0762
 7511SOL    HW133992   2.370   2.693  14.287  0.7260  0.1146  0.7729
 7511SOL    HW233993   2.450   2.628  14.386  0.3956  0.6575 -0.1180
 7512SOL     OW33994   4.091   0.231   4.505  0.1440 -0.3161 -0.2021
 7512SOL    HW133995   4.112   0.313   4.461 -1.8645 -0.3727 -1.2540
 7512SOL    HW233996   4.015   0.204   4.455  1.6129 -0.0325 -2.5642
 7513SOL     OW33997   3.696   3.917  14.850 -0.4493 -0.6089 -0.3978
 7513SOL    HW133998   3.683   3.822  14.845  2.8070 -1.0455 -0.3170
 7513SOL    HW233999   3.704   3.919  14.946  0.5803 -0.6221 -0.4834
 7514SOL     OW34000   2.543   1.375   9.542 -0.0359  0.5691  0.0406
 7514SOL    HW134001   2.543   1.433   9.618  1.0594  1.2811 -0.4912
 7514SOL    HW234002   2.487   1.303   9.569  0.1166  0.6761  0.6567
 7515SOL     OW34003   3.346   2.722   5.786 -0.9618 -0.2886 -0.0769
 7515SOL    HW134004   3.294   2.695   5.711  0.8744 -0.9096 -1.1206
 7515SOL    HW234005   3.426   2.746   5.739 -0.3562 -0.1058  1.0353
 7516SOL     OW34006   2.858   4.532  11.626 -0.0060 -0.3004  0.0788
 7516SOL    HW134007   2.800   4.606  11.605 -0.9238 -1.5930 -1.9328
 7516SOL    HW234008   2.841   4.474  11.553 -1.9125 -0.2705  0.4871
 7517SOL     OW34009   1.758   1.379   6.699 -0.0682  0.5912  0.4006
 7517SOL    HW134010   1.678   1.431   6.710 -0.8356 -0.4470 -0.2445
 7517SOL    HW234011   1.745   1.318   6.626  1.6082  1.3153 -0.4954
 7518SOL     OW34012   4.328   0.304   4.648  0.3284 -0.0044  0.7180
 7518SOL    HW134013   4.239   0.268   4.642  0.3460 -0.1708  1.5004
 7518SOL    HW234014   4.337   0.292   4.742  1.5005  0.8462  0.7080
 7519SOL     OW34015   0.693   0.439   8.456  0.6202  0.6857  0.3575
 7519SOL    HW134016   0.699   0.424   8.551 -2.0411  0.9034  0.5669
 7519SOL    HW234017   0.747   0.517   8.452  0.4284  0.7172 -1.6469
 7520SOL     OW34018   0.097   1.881  15.225  0.0776  0.7763  0.1310
 7520SOL    HW134019   0.174   1.827  15.207  0.0963  0.4875  1.0664
 7520SOL    HW234020   0.100   1.892  15.320  0.5464  1.6369  0.0201
 7521SOL     OW34021   4.670   3.317   8.168 -0.4108  0.1331 -0.0356
 7521SOL    HW134022   0.039   3.320   8.150 -0.1378 -3.3337  0.7612
 7521SOL    HW234023   4.636   3.295   8.081  2.4568  2.2004 -1.6953
 7522SOL     OW34024   3.739   2.016   6.010 -0.6552 -0.2885 -0.1098
 7522SOL    HW134025   3.717   1.958   5.937  0.1676 -1.3093  0.4655
 7522SOL    HW234026   3.671   2.083   5.996  2.6037  2.8098 -1.0753
 7523SOL     OW34027   0.799   2.608  14.129 -0.1888 -0.0882  0.0277
 7523SOL    HW134028   0.738   2.626  14.057  0.7598 -2.2808 -1.3444
 7523SOL    HW234029   0.763   2.652  14.205  0.1126  0.2608 -0.0289
 7524SOL     OW34030   1.768   3.013   0.106 -0.3536 -0.6283 -0.0019
 7524SOL    HW134031   1.848   3.043   0.064 -0.4831 -0.8580 -0.4121
 7524SOL    HW234032   1.698   3.067   0.070 -0.7135 -0.4658  0.9305
 7525SOL     OW34033   3.426   3.538  13.709 -0.4942 -0.3105 -0.7415
 7525SOL    HW134034   3.473   3.458  13.684  0.2967  0.1443 -0.7176
 7525SOL    HW234035   3.488   3.568  13.775 -1.1165 -0.3454 -0.1387
 7526SOL     OW34036   0.875   4.105  16.822 -0.3497 -0.2278 -0.3164
 7526SOL    HW134037   0.840   4.027  16.866 -0.4015 -0.2769 -0.4449
 7526SOL    HW234038   0.934   4.138  16.889 -0.1375 -1.2039 -0.0253
 7527SOL     OW34039   0.061   2.155   5.240 -0.0615  0.1339 -0.1112
 7527SOL    HW134040   0.126   2.109   5.293  2.6908  1.1428 -2.6413
 7527SOL    HW234041   0.087   2.122   5.154  0.8053  1.0733 -0.2070
 7528SOL     OW34042   1.670   2.285   3.689  0.1788  0.2815  0.2742
 7528SOL    HW134043   1.765   2.279   3.675  0.0602  1.8696 -1.1193
 7528SOL    HW234044   1.633   2.245   3.611  2.2376 -0.2186 -0.4519
 7529SOL     OW34045   4.016   3.342   9.038  0.2089  0.1155  0.5435
 7529SOL    HW134046   4.085   3.308   9.096  0.5223  1.6233  1.0599
 7529SOL    HW234047   4.046   3.427   9.007  2.3001 -0.8697 -0.1369
 7530SOL     OW34048   0.495   0.642   3.326  0.0728  0.1647  0.2150
 7530SOL    HW134049   0.421   0.607   3.376  0.9146 -0.1182  1.2737
 7530SOL    HW234050   0.504   0.567   3.267 -4.2456 -0.0398 -0.1603
 7531SOL     OW34051   3.031   0.638   4.053  0.4922  0.2029 -0.1309
 7531SOL    HW134052   2.974   0.667   4.125  0.4047 -0.2339 -0.0242
 7531SOL    HW234053   2.975   0.566   4.023  0.7209  0.5307 -1.3017
 7532SOL     OW34054   2.681   3.887   8.649  0.1928 -0.5924 -0.6000
 7532SOL    HW134055   2.637   3.962   8.690  1.3715 -0.2500  0.0247
 7532SOL    HW234056   2.637   3.883   8.564 -0.8194  2.3073 -0.2158
 7533SOL     OW34057   2.039   3.263   3.982 -0.7195  0.0673  0.0414
 7533SOL    HW134058   2.053   3.319   4.058  0.6969  0.9025 -0.8439
 7533SOL    HW234059   1.945   3.270   3.961 -0.6530  1.2513  0.1885
 7534SOL     OW34060   0.825   4.483   5.136 -0.0806 -0.6960  0.0939
 7534SOL    HW134061   0.907   4.466   5.182 -0.1255 -0.1174  0.3840
 7534SOL    HW234062   0.760   4.430   5.182 -1.2616  1.0814  0.4734
 7535SOL     OW34063   3.967   1.146   6.483 -0.3498  0.0152 -0.6128
 7535SOL    HW134064   4.039   1.123   6.425  0.7611 -0.4207  0.9573
 7535SOL    HW234065   4.010   1.124   6.565 -2.1602  1.2962  0.6906
 7536SOL     OW34066   0.879   1.246  11.794  0.5099  0.0511  0.1214
 7536SOL    HW134067   0.900   1.154  11.806  1.9623  0.2870 -0.5835
 7536SOL    HW234068   0.965   1.287  11.778 -0.7004  1.5314 -2.5282
 7537SOL     OW34069   0.051   1.794   1.528  0.2830  0.1024 -0.2222
 7537SOL    HW134070   0.128   1.738   1.522  0.8858  1.2185 -2.9341
 7537SOL    HW234071   4.703   1.742   1.493  0.0225  0.0461  0.4086
 7538SOL     OW34072   3.546   4.184  13.532  0.1614 -0.2716  0.0973
 7538SOL    HW134073   3.600   4.162  13.608 -2.0275  2.5445  2.4386
 7538SOL    HW234074   3.464   4.136  13.543 -1.2434  1.9481 -0.6255
 7539SOL     OW34075   0.161   1.819   0.243 -0.0463 -0.0287 -0.5605
 7539SOL    HW134076   0.223   1.887   0.217  0.6324 -0.2555  0.4599
 7539SOL    HW234077   0.169   1.751   0.176 -1.8290 -1.5045  0.7351
 7540SOL     OW34078   3.358   2.932   4.417  0.3338 -0.0823 -0.5463
 7540SOL    HW134079   3.448   2.916   4.389 -0.2343 -1.3697 -1.6229
 7540SOL    HW234080   3.316   2.847   4.427  2.2835 -0.9577  0.2417
 7541SOL     OW34081   1.691   2.249   6.305  0.5870 -0.2688 -0.2784
 7541SOL    HW134082   1.684   2.233   6.211  2.4487  2.8851 -0.9255
 7541SOL    HW234083   1.747   2.172   6.313 -0.3328 -0.9301 -0.1351
 7542SOL     OW34084   4.380   0.883   0.259  0.0473  0.1189 -0.8306
 7542SOL    HW134085   4.419   0.963   0.292 -1.0627  0.0407  0.6558
 7542SOL    HW234086   4.432   0.822   0.311  1.6657  0.2456 -2.2708
 7543SOL     OW34087   3.225   3.785   2.845  0.6395 -0.2251 -0.0309
 7543SOL    HW134088   3.176   3.867   2.851 -0.0226 -0.5499 -1.1990
 7543SOL    HW234089   3.263   3.812   2.761  2.5222 -0.6248  0.6925
 7544SOL     OW34090   0.318   1.870   5.858  0.1784 -0.1952 -0.1641
 7544SOL    HW134091   0.343   1.796   5.913  1.8967  0.9287  0.5536
 7544SOL    HW234092   0.333   1.841   5.768  1.0029  0.0114 -0.0937
 7545SOL     OW34093   0.357   3.818   5.271 -1.2355  0.9113  0.1689
 7545SOL    HW134094   0.269   3.853   5.281 -2.3750 -1.8178 -0.3429
 7545SOL    HW234095   0.356   3.753   5.342  1.1630 -0.3316 -0.9118
 7546SOL     OW34096   4.524   4.200  11.836 -0.1441 -0.5690 -0.3377
 7546SOL    HW134097   4.546   4.294  11.837  0.9293 -0.7912 -1.8308
 7546SOL    HW234098   4.575   4.177  11.758  0.6896 -1.0499  0.3479
 7547SOL     OW34099   3.157   2.623   4.151 -0.3437  0.3087  0.1582
 7547SOL    HW134100   3.116   2.552   4.200 -0.6623 -0.0910 -0.6844
 7547SOL    HW234101   3.132   2.593   4.063  0.6855  1.2992 -0.4767
 7548SOL     OW34102   1.707   2.347   0.515 -0.1674 -0.0652  0.1365
 7548SOL    HW134103   1.791   2.392   0.513  0.6116 -1.4218  2.4911
 7548SOL    HW234104   1.734   2.284   0.582 -2.1582  0.3624  1.3553
 7549SOL     OW34105   2.499   1.497   0.714  0.4776  0.3307 -0.1428
 7549SOL    HW134106   2.444   1.536   0.781 -0.7187 -0.1066 -0.8835
 7549SOL    HW234107   2.438   1.441   0.667  0.3781  1.2160 -1.0686
 7550SOL     OW34108   0.636   1.052  17.463 -0.5691  0.3728 -0.3869
 7550SOL    HW134109   0.620   0.959  17.452 -0.6754  0.5761 -1.9020
 7550SOL    HW234110   0.567   1.076  17.524 -1.7790 -2.0296 -0.8324
 7551SOL     OW34111   3.752   2.245   6.442 -0.0358  0.1901  0.4695
 7551SOL    HW134112   3.787   2.254   6.353  3.4687 -0.9498  1.7184
 7551SOL    HW234113   3.798   2.164   6.464  1.5373  0.1869 -2.6943
 7552SOL     OW34114   0.503   1.901   6.516  0.1025  0.2042  0.2467
 7552SOL    HW134115   0.426   1.893   6.461 -0.3062 -0.8800  0.9708
 7552SOL    HW234116   0.484   1.977   6.572  0.0106  1.7443 -1.9126
 7553SOL     OW34117   2.252   4.272   2.328  0.2262 -0.7919 -0.1418
 7553SOL    HW134118   2.322   4.233   2.276 -2.5558 -2.8435 -2.3352
 7553SOL    HW234119   2.222   4.194   2.375 -1.5343  0.1585  0.3079
 7554SOL     OW34120   0.000   4.186  17.009  0.1803 -0.2259 -0.2918
 7554SOL    HW134121   0.082   4.210  16.966  0.0898  1.1557  0.3172
 7554SOL    HW234122   4.651   4.203  16.951 -1.5791 -1.1930  1.6951
 7555SOL     OW34123   0.842   3.332   7.210 -0.1469 -0.3157  0.4698
 7555SOL    HW134124   0.764   3.373   7.173  0.8419 -0.3151 -1.6192
 7555SOL    HW234125   0.918   3.389   7.194  0.2791 -0.8847  0.4796
 7556SOL     OW34126   2.356   4.226  17.656  0.5645 -0.6629  0.4207
 7556SOL    HW134127   2.352   4.211   0.049 -1.9345 -0.0763  0.3983
 7556SOL    HW234128   2.385   4.317  17.651  1.2759 -0.7954  2.0414
 7557SOL     OW34129   0.995   4.087   8.463  0.4628  0.0876 -0.4806
 7557SOL    HW134130   1.050   4.136   8.525 -0.8296 -2.5806  2.7390
 7557SOL    HW234131   1.048   4.086   8.383 -0.3986  2.5617 -1.0792
 7558SOL     OW34132   0.320   0.595  12.402  0.5322 -0.2683  0.4422
 7558SOL    HW134133   0.256   0.527  12.421  0.5069 -0.2514  0.4179
 7558SOL    HW234134   0.389   0.568  12.463  0.1871 -0.0736  0.9180
 7559SOL     OW34135   3.037   4.550   9.564  0.4370 -0.3713 -0.2596
 7559SOL    HW134136   3.124   4.583   9.585  0.0630 -1.0039  2.3159
 7559SOL    HW234137   2.985   4.613   9.614  0.5537  0.6129 -1.3701
 7560SOL     OW34138   3.957   1.453   3.039 -0.0604 -0.1587  0.2872
 7560SOL    HW134139   4.042   1.446   3.084 -0.2650  0.7855  0.8202
 7560SOL    HW234140   3.970   1.492   2.953 -0.0894  0.1495  0.4226
 7561SOL     OW34141   2.511   0.499   7.800 -0.5725  0.5820 -0.0074
 7561SOL    HW134142   2.467   0.548   7.870  0.2637  0.2780  0.7363
 7561SOL    HW234143   2.444   0.439   7.767  0.2311  0.1828 -0.9070
 7562SOL     OW34144   3.526   3.711   4.496 -0.4614  0.5588  0.0292
 7562SOL    HW134145   3.567   3.798   4.497 -1.9488  1.2840 -3.1384
 7562SOL    HW234146   3.478   3.700   4.414 -1.2056 -1.3252  0.7193
 7563SOL     OW34147   4.388   2.598  14.385 -0.1132  0.1149 -0.3700
 7563SOL    HW134148   4.472   2.609  14.430 -0.9557 -0.3542  1.3052
 7563SOL    HW234149   4.333   2.671  14.412  0.8820  0.5863  0.4119
 7564SOL     OW34150   3.782   1.363  13.468  0.5396 -0.0292  1.0261
 7564SOL    HW134151   3.808   1.445  13.425 -0.6163 -0.3110 -0.2186
 7564SOL    HW234152   3.849   1.357  13.536  2.2305 -1.0059 -0.7493
 7565SOL     OW34153   4.395   0.265   1.990  0.6720  0.9513  0.2892
 7565SOL    HW134154   4.464   0.322   1.955 -0.0300  0.5112 -1.8438
 7565SOL    HW234155   4.318   0.317   2.008  0.8290  1.3944 -0.3072
 7566SOL     OW34156   4.590   2.521  16.676 -0.1310 -0.2680 -0.2491
 7566SOL    HW134157   4.650   2.548  16.745  2.3934 -1.6431 -1.9145
 7566SOL    HW234158   4.632   2.532  16.590 -1.0317 -1.0809 -0.7961
 7567SOL     OW34159   2.366   0.525  15.341 -0.1177 -0.4931  0.0209
 7567SOL    HW134160   2.331   0.449  15.296  0.3583 -0.3801 -0.5364
 7567SOL    HW234161   2.371   0.501  15.434  1.1835  1.8324  0.5662
 7568SOL     OW34162   3.741   0.183  16.805 -0.1793  0.3704  0.2405
 7568SOL    HW134163   3.730   0.109  16.746  0.5200 -0.4261  1.1140
 7568SOL    HW234164   3.704   0.253  16.752 -1.8994 -0.1880  0.6844
 7569SOL     OW34165   0.826   0.921   5.294  0.0397  0.5705  0.5348
 7569SOL    HW134166   0.753   0.903   5.235  0.0106  2.4268  0.0215
 7569SOL    HW234167   0.841   0.832   5.327 -1.3517  0.3271  0.4910
 7570SOL     OW34168   4.041   1.052   4.016  0.3702  0.0117 -0.7081
 7570SOL    HW134169   3.979   0.994   3.972 -1.2492  0.2386  1.2796
 7570SOL    HW234170   4.091   1.080   3.939  1.6984  1.2625  0.6040
 7571SOL     OW34171   4.610   3.569   0.504 -0.6213  0.2543 -0.5266
 7571SOL    HW134172   4.527   3.523   0.487 -0.7871  0.3684 -0.0227
 7571SOL    HW234173   4.586   3.635   0.569 -1.1259  0.2375 -0.6906
 7572SOL     OW34174   0.060   0.372   4.313 -0.3659 -0.2851 -0.5512
 7572SOL    HW134175   4.703   0.421   4.306 -0.0138  0.5842  1.2087
 7572SOL    HW234176   0.045   0.337   4.401  2.0144 -0.8286 -0.3536
 7573SOL     OW34177   0.281   0.262   3.768  0.2366 -0.3829 -0.0670
 7573SOL    HW134178   0.230   0.268   3.848 -1.7273 -0.2974 -1.3184
 7573SOL    HW234179   0.219   0.208   3.719 -0.4165 -0.3666  0.7498
 7574SOL     OW34180   1.469   0.124   4.390 -0.0220 -0.4562  0.4136
 7574SOL    HW134181   1.424   0.207   4.376 -1.2491 -1.2979 -0.6369
 7574SOL    HW234182   1.561   0.145   4.405  0.6044 -2.6682 -0.2506
 7575SOL     OW34183   0.074   1.336   2.513  0.2882 -0.3269 -0.2244
 7575SOL    HW134184   0.032   1.409   2.467 -0.2637 -1.2214 -1.1476
 7575SOL    HW234185   4.723   1.319   2.568 -1.9077 -2.1267 -3.7631
 7576SOL     OW34186   0.697   0.319   7.235 -0.0723 -0.0101  0.0711
 7576SOL    HW134187   0.705   0.409   7.201 -1.2435 -1.6742 -4.6350
 7576SOL    HW234188   0.643   0.277   7.168 -0.0774 -2.4299  1.6167
 7577SOL     OW34189   2.348   1.432   8.340  0.1379  0.7188  0.2098
 7577SOL    HW134190   2.407   1.360   8.359 -1.3856 -0.9703 -1.5142
 7577SOL    HW234191   2.300   1.434   8.423 -0.2660 -0.7185  0.0088
 7578SOL     OW34192   1.266   4.612   3.368 -0.2069  0.3107 -0.3072
 7578SOL    HW134193   1.219   4.696   3.364  0.7918  0.8120 -1.2623
 7578SOL    HW234194   1.239   4.590   3.457 -0.6205  2.6550  0.1628
 7579SOL     OW34195   4.609   3.592  16.795  0.3990  0.2086 -0.3262
 7579SOL    HW134196   4.623   3.670  16.848  1.4256 -0.1733 -0.0422
 7579SOL    HW234197   4.540   3.618  16.733 -0.5527 -2.6418 -0.4724
 7580SOL     OW34198   4.112   2.984   4.587 -0.1425 -0.2945  0.3346
 7580SOL    HW134199   4.075   3.037   4.658 -1.9426 -1.3279  0.1726
 7580SOL    HW234200   4.204   3.009   4.581  0.3617 -1.9751  0.8978
 7581SOL     OW34201   2.690   2.256   1.656  0.5633  0.1462  0.0420
 7581SOL    HW134202   2.616   2.240   1.598  0.1844 -0.8915  0.8059
 7581SOL    HW234203   2.733   2.170   1.653 -0.0250 -0.1056 -0.9046
 7582SOL     OW34204   1.658   1.995   6.604 -0.5618  0.0146 -0.4808
 7582SOL    HW134205   1.709   2.005   6.524  0.2584  0.5842  0.1157
 7582SOL    HW234206   1.724   1.954   6.660 -2.0682 -1.2209  0.4052
 7583SOL     OW34207   1.376   3.006   7.547 -0.3300 -0.8264 -0.1591
 7583SOL    HW134208   1.444   2.945   7.519  0.3620  0.0772 -0.4529
 7583SOL    HW234209   1.340   2.962   7.624  0.2775 -0.2533  0.4622
 7584SOL     OW34210   4.498   4.148   4.300 -0.0994  0.0042  0.1918
 7584SOL    HW134211   4.445   4.068   4.310 -0.8796  0.3747 -0.9368
 7584SOL    HW234212   4.428   4.209   4.275 -0.8095 -1.1271 -0.5996
 7585SOL     OW34213   3.748   3.269   6.025 -0.2847  0.3447 -0.0025
 7585SOL    HW134214   3.676   3.302   6.079  0.4574  2.3443 -0.2649
 7585SOL    HW234215   3.731   3.177   6.006  1.7648 -0.3832  1.6680
 7586SOL     OW34216   0.316   4.517   1.744  0.2162  0.1189  0.0956
 7586SOL    HW134217   0.363   4.600   1.752 -0.1386  0.2042  1.2824
 7586SOL    HW234218   0.348   4.460   1.814  1.7415  2.9889  1.7365
 7587SOL     OW34219   2.323   3.236   5.336  0.4932 -1.2137 -0.3939
 7587SOL    HW134220   2.274   3.287   5.270 -0.1169  0.0285  1.0145
 7587SOL    HW234221   2.262   3.163   5.342 -1.1262  0.1766  0.2295
 7588SOL     OW34222   3.987   4.004  10.690 -0.3670 -0.0288  0.4558
 7588SOL    HW134223   3.947   3.945  10.753 -2.7127 -0.1908 -1.1920
 7588SOL    HW234224   3.992   4.079  10.749  0.1510  0.6546 -0.4333
 7589SOL     OW34225   2.014   4.127   3.065 -0.0181 -0.5951  0.0727
 7589SOL    HW134226   2.055   4.147   3.149 -0.8618  0.0893  0.3176
 7589SOL    HW234227   2.026   4.032   3.061  0.9290 -0.4328 -1.0981
 7590SOL     OW34228   1.148   0.158  16.755  0.1236  0.0937  0.1454
 7590SOL    HW134229   1.183   0.159  16.666  0.3756  0.9267  0.2495
 7590SOL    HW234230   1.145   0.251  16.778  1.1464  0.5455 -1.5219
 7591SOL     OW34231   1.205   4.457   3.625 -0.2136  0.4333  0.4602
 7591SOL    HW134232   1.280   4.404   3.652  0.0972  1.2135  1.1106
 7591SOL    HW234233   1.175   4.479   3.713 -0.1354  1.3052  0.2654
 7592SOL     OW34234   1.150   2.380   9.750 -0.6323  0.7968 -0.2318
 7592SOL    HW134235   1.208   2.345   9.683  0.1182 -0.3113  0.9974
 7592SOL    HW234236   1.128   2.467   9.716  0.9894  0.6661 -1.5851
 7593SOL     OW34237   2.649   4.635   1.454 -0.8514  0.4105  0.6949
 7593SOL    HW134238   2.584   4.594   1.511 -1.9692  1.8060  0.4221
 7593SOL    HW234239   2.596   4.643   1.375 -1.3898 -2.2472  0.7849
 7594SOL     OW34240   4.424   0.435   6.546 -0.0290  0.3100 -0.1043
 7594SOL    HW134241   4.510   0.444   6.504 -0.5293  2.4297 -0.6827
 7594SOL    HW234242   4.418   0.340   6.555  0.2966  0.2113 -0.9006
 7595SOL     OW34243   0.093   0.115   6.327  0.0466 -0.3006  0.0011
 7595SOL    HW134244   0.050   0.154   6.403  1.1906  2.4775 -0.7615
 7595SOL    HW234245   0.099   0.027   6.364 -1.9699 -0.1135  0.7601
 7596SOL     OW34246   3.931   2.162  11.174  0.0942 -0.4372 -0.2976
 7596SOL    HW134247   3.936   2.234  11.237  1.1572  1.0032 -2.0216
 7596SOL    HW234248   3.836   2.152  11.166  0.0802 -1.1235  0.6683
 7597SOL     OW34249   0.483   2.837   6.095  0.0151 -0.4921 -0.7702
 7597SOL    HW134250   0.566   2.856   6.052 -1.4945  4.2169 -1.5476
 7597SOL    HW234251   0.422   2.834   6.022 -0.3541  2.3396 -0.5837
 7598SOL     OW34252   3.382   1.970  12.950  0.7535  0.2090  0.4895
 7598SOL    HW134253   3.358   1.938  13.036 -0.9822  0.2403  0.0300
 7598SOL    HW234254   3.449   2.034  12.974  0.8032  0.7840 -1.1456
 7599SOL     OW34255   2.383   4.646   3.454 -0.1476 -0.4284  0.1422
 7599SOL    HW134256   2.329   0.000   3.454 -2.0750 -1.7455 -0.9584
 7599SOL    HW234257   2.333   4.590   3.512 -1.4343  0.1401 -0.4126
 7600SOL     OW34258   3.472   1.603   3.752 -0.8582 -0.4715 -0.0108
 7600SOL    HW134259   3.475   1.699   3.748  0.9694 -0.5189  0.1646
 7600SOL    HW234260   3.412   1.594   3.826 -3.2564  3.2062 -1.5021
 7601SOL     OW34261   4.287   3.233   3.710  0.2585 -0.2236  0.5182
 7601SOL    HW134262   4.246   3.158   3.753  0.3410 -1.1299 -1.0015
 7601SOL    HW234263   4.300   3.202   3.621  0.7385 -0.0139  0.5113
 7602SOL     OW34264   0.251   2.047   0.596 -0.1516  0.0695 -0.2230
 7602SOL    HW134265   0.292   2.033   0.682  1.0975  0.9467 -0.6851
 7602SOL    HW234266   0.192   2.119   0.616 -0.2278 -0.1643  0.4074
 7603SOL     OW34267   0.967   0.379   0.115  0.1905  0.1618 -0.5993
 7603SOL    HW134268   0.990   0.338   0.031 -0.9489  0.7971 -1.2192
 7603SOL    HW234269   0.925   0.301   0.153 -2.0461  2.2534  1.2158
 7604SOL     OW34270   3.400   0.648  12.444  0.4412  0.3528  0.8863
 7604SOL    HW134271   3.425   0.573  12.390  2.6105  2.1653 -0.6564
 7604SOL    HW234272   3.435   0.725  12.398  1.0452  0.7974  2.0994
 7605SOL     OW34273   1.788   2.401   8.563 -0.7471  0.2860  0.2594
 7605SOL    HW134274   1.845   2.390   8.486 -1.8541  0.7114 -0.6106
 7605SOL    HW234275   1.768   2.494   8.553 -1.0000  0.1289 -0.7197
 7606SOL     OW34276   0.997   3.890   4.181 -0.3114 -0.4331  0.2123
 7606SOL    HW134277   0.982   3.970   4.232 -1.0251 -0.8769  0.7010
 7606SOL    HW234278   0.906   3.876   4.155 -0.4956  1.1595 -0.0128
 7607SOL     OW34279   4.629   3.954   2.442 -0.0841 -0.3969  0.4833
 7607SOL    HW134280   4.710   3.910   2.467  0.2141 -0.0999  0.0442
 7607SOL    HW234281   4.660   4.040   2.414 -0.5895 -0.0659  0.9322
 7608SOL     OW34282   1.031   3.797  16.476 -0.3888  0.8487 -0.2715
 7608SOL    HW134283   1.029   3.888  16.446 -1.2636  1.9640  3.1104
 7608SOL    HW234284   1.021   3.748  16.395  0.4300 -2.1638  1.4611
 7609SOL     OW34285   3.987   3.979  17.686 -0.2765 -0.4186 -0.2392
 7609SOL    HW134286   3.963   3.950   0.073  0.5888 -1.0612 -0.2125
 7609SOL    HW234287   4.005   3.891  17.653 -3.4891 -1.7462  1.5588
 7610SOL     OW34288   3.282   2.879   6.410  0.0544 -0.1987 -0.2282
 7610SOL    HW134289   3.222   2.912   6.342  2.0362 -1.0016 -2.3581
 7610SOL    HW234290   3.251   2.932   6.483  5.1495  4.0051 -1.1797
 7611SOL     OW34291   4.336   3.975   6.292 -0.3576 -0.4376 -0.3203
 7611SOL    HW134292   4.380   4.056   6.317 -0.4411  0.0188 -1.6577
 7611SOL    HW234293   4.345   3.923   6.372 -1.5128 -1.5464 -0.9196
 7612SOL     OW34294   0.651   3.267   3.148 -0.3487  0.2462 -0.2817
 7612SOL    HW134295   0.588   3.287   3.079 -0.8923 -0.6370 -0.0335
 7612SOL    HW234296   0.718   3.335   3.138 -0.0941  0.1301  0.6360
 7613SOL     OW34297   1.394   0.228   7.829  0.2078 -0.1636 -0.2060
 7613SOL    HW134298   1.362   0.317   7.819 -0.9601 -0.3906  1.4897
 7613SOL    HW234299   1.469   0.249   7.885  0.1764 -1.2623  0.2571
 7614SOL     OW34300   0.475   0.064   8.037  0.6078 -0.5476  0.2104
 7614SOL    HW134301   0.500   0.152   8.064 -1.8294  0.3007 -0.2633
 7614SOL    HW234302   0.383   0.068   8.062  0.6174 -2.9585  0.6772
 7615SOL     OW34303   3.216   1.998   6.882 -0.3128  0.4514  0.4497
 7615SOL    HW134304   3.264   1.917   6.898  0.0517  0.8998  1.6864
 7615SOL    HW234305   3.169   2.012   6.965 -0.2036  2.2495  0.1900
 7616SOL     OW34306   0.557   2.138   8.518 -0.0393  0.1754 -0.3779
 7616SOL    HW134307   0.601   2.195   8.455 -0.1367 -0.0612 -0.6610
 7616SOL    HW234308   0.584   2.178   8.601  1.7519 -1.0334 -0.3722
 7617SOL     OW34309   2.521   3.601   2.164 -0.4345 -0.0716  0.3273
 7617SOL    HW134310   2.492   3.691   2.148  0.7835  0.0935 -1.0121
 7617SOL    HW234311   2.443   3.547   2.152 -0.6326  0.5661 -1.3314
 7618SOL     OW34312   0.906   0.517   1.112  0.2878  0.0266 -0.4210
 7618SOL    HW134313   0.977   0.581   1.119  1.5028 -1.3695  0.2320
 7618SOL    HW234314   0.830   0.566   1.080  0.4095  2.3077  2.6884
 7619SOL     OW34315   2.031   4.631   7.199 -0.7323  0.9872 -0.0191
 7619SOL    HW134316   1.974   4.570   7.153 -0.2998 -0.1600  0.9745
 7619SOL    HW234317   1.987   4.709   7.167 -0.3823  1.2962  0.2433
 7620SOL     OW34318   1.024   2.020   0.589 -0.2636 -0.3859 -0.3303
 7620SOL    HW134319   0.946   2.074   0.577  0.5500  1.4790  2.8583
 7620SOL    HW234320   0.984   1.933   0.588 -0.0661 -0.4474 -2.6043
 7621SOL     OW34321   0.423   3.028   3.625  0.1941 -0.0576  0.0303
 7621SOL    HW134322   0.407   3.097   3.560  0.0636  0.6872  0.8442
 7621SOL    HW234323   0.331   3.012   3.648 -0.2390 -1.6206 -2.7709
 7622SOL     OW34324   0.790   3.606   2.384 -0.0736  0.0878 -0.5059
 7622SOL    HW134325   0.771   3.550   2.459 -1.2644 -2.5598 -2.7743
 7622SOL    HW234326   0.704   3.600   2.342  0.0530 -1.0223 -0.6300
 7623SOL     OW34327   0.638   3.923   2.832 -0.4168 -0.1178 -0.2222
 7623SOL    HW134328   0.705   3.958   2.890  0.4696 -1.1011 -0.6486
 7623SOL    HW234329   0.686   3.926   2.750  1.1147 -0.8436  0.6404
 7624SOL     OW34330   2.568   1.554  16.819 -0.1340  0.6788  0.5108
 7624SOL    HW134331   2.492   1.611  16.811 -1.7888 -1.8353 -1.8249
 7624SOL    HW234332   2.581   1.560  16.913  1.3265 -2.0259  0.4758
 7625SOL     OW34333   1.354   2.051   5.333 -0.6349 -0.0706  0.4180
 7625SOL    HW134334   1.280   2.111   5.336 -0.9660 -0.3467 -1.5933
 7625SOL    HW234335   1.391   2.076   5.248  0.1004 -0.2067  0.6985
 7626SOL     OW34336   2.900   3.502  15.240  0.6249  0.0203 -0.2210
 7626SOL    HW134337   2.906   3.582  15.187 -2.6483  0.9477  0.8414
 7626SOL    HW234338   2.995   3.492  15.249  0.5232 -0.2634  0.5349
 7627SOL     OW34339   3.726   4.091   3.650  0.6010 -0.3383 -0.0258
 7627SOL    HW134340   3.754   4.056   3.734 -1.7135  2.9677  2.1286
 7627SOL    HW234341   3.648   4.042   3.624  0.8637 -0.6040 -0.3133
 7628SOL     OW34342   3.129   4.278   5.712 -0.6728 -0.4653 -0.2951
 7628SOL    HW134343   3.064   4.258   5.780 -2.5935 -0.0057 -1.9666
 7628SOL    HW234344   3.201   4.229   5.751 -1.7016 -0.5702  1.4950
 7629SOL     OW34345   1.827   1.777  11.932  0.4424  0.4194  0.7302
 7629SOL    HW134346   1.876   1.828  11.868  2.1231 -2.5949 -0.3711
 7629SOL    HW234347   1.780   1.715  11.877 -0.5670  1.4403  0.4378
 7630SOL     OW34348   2.770   3.791  13.038  0.0254  0.1564  0.0251
 7630SOL    HW134349   2.676   3.787  13.020  0.3819  0.9171 -2.0772
 7630SOL    HW234350   2.811   3.743  12.965 -3.3188 -2.3673 -0.1956
 7631SOL     OW34351   1.008   1.749   2.973  0.0189 -0.0252 -0.2825
 7631SOL    HW134352   0.949   1.813   2.933  1.5508  1.9997  0.7247
 7631SOL    HW234353   1.069   1.804   3.022 -1.4416  0.4274  1.0086
 7632SOL     OW34354   0.526   0.918   8.075 -0.0503  0.2662  0.0957
 7632SOL    HW134355   0.478   0.977   8.134 -0.8936  0.9836 -1.2843
 7632SOL    HW234356   0.454   0.910   8.011 -0.6902  0.5901  0.7755
 7633SOL     OW34357   2.146   0.230   6.298 -0.3851 -0.5836 -0.1863
 7633SOL    HW134358   2.134   0.151   6.350  1.1576 -0.5347  0.2499
 7633SOL    HW234359   2.136   0.195   6.209  3.3543 -2.4174  0.0996
 7634SOL     OW34360   1.638   3.411   6.718  0.2610 -0.2879 -0.3634
 7634SOL    HW134361   1.678   3.447   6.639  1.5059  1.9979  1.3021
 7634SOL    HW234362   1.623   3.319   6.696  1.8500 -1.1383  2.0768
 7635SOL     OW34363   1.386   0.642   5.992 -0.4132 -1.1550  0.4530
 7635SOL    HW134364   1.332   0.653   6.071 -0.9476  0.6140 -0.1718
 7635SOL    HW234365   1.333   0.683   5.924  1.2686 -0.8033 -0.6222
 7636SOL     OW34366   1.856   2.184   7.052  0.0895 -0.0242 -0.2033
 7636SOL    HW134367   1.881   2.235   6.975 -1.0211  0.5438 -0.1798
 7636SOL    HW234368   1.761   2.191   7.059  0.1132  0.5033 -0.4246
 7637SOL     OW34369   2.969   3.122  16.428 -0.5877  0.3317 -0.4013
 7637SOL    HW134370   2.996   3.053  16.367  1.7298  0.8182  0.0954
 7637SOL    HW234371   2.998   3.200  16.382 -1.3829  0.9225  0.0923
 7638SOL     OW34372   3.598   1.588   4.680 -0.0197 -0.0115 -0.0077
 7638SOL    HW134373   3.611   1.495   4.695  1.8266  0.0692 -1.1816
 7638SOL    HW234374   3.563   1.583   4.591 -0.5477  2.0773  0.0722
 7639SOL     OW34375   0.893   4.112   6.843 -0.0800 -0.0306 -0.3584
 7639SOL    HW134376   0.816   4.148   6.888  1.1687  0.6789  1.1985
 7639SOL    HW234377   0.854   4.070   6.766 -0.3144 -0.3916 -0.0448
 7640SOL     OW34378   0.606   2.085  11.085 -0.1562  0.5062 -0.2688
 7640SOL    HW134379   0.539   2.145  11.117 -1.7775 -2.9934  2.8403
 7640SOL    HW234380   0.547   2.009  11.092 -1.1261  1.1390 -1.5618
 7641SOL     OW34381   0.947   4.614  11.421 -0.3957  0.2898 -0.3712
 7641SOL    HW134382   1.032   4.650  11.395  0.5677 -2.5552 -1.1216
 7641SOL    HW234383   0.884   4.669  11.375 -1.3330  0.3200  0.9324
 7642SOL     OW34384   3.484   2.547   9.867  0.4450  0.0132 -0.3555
 7642SOL    HW134385   3.420   2.580   9.930  2.7687  2.3450  0.7771
 7642SOL    HW234386   3.470   2.452   9.860 -0.4932  0.1577 -0.3796
 7643SOL     OW34387   0.606   2.474   4.404 -0.5001  0.0233 -0.1765
 7643SOL    HW134388   0.609   2.531   4.327 -0.1502  0.6925  0.3261
 7643SOL    HW234389   0.700   2.474   4.424 -0.2557  1.8944 -1.2842
 7644SOL     OW34390   1.118   1.108   4.249 -0.0436 -0.4816  0.2093
 7644SOL    HW134391   1.148   1.017   4.237 -3.0257 -1.2725 -1.2610
 7644SOL    HW234392   1.124   1.125   4.343 -0.6993 -1.9570  0.5178
 7645SOL     OW34393   1.216   0.596   2.224 -0.2903  0.4063 -0.5471
 7645SOL    HW134394   1.143   0.538   2.202  1.1158 -0.5038 -2.8287
 7645SOL    HW234395   1.250   0.599   2.135  0.5318  2.3491 -0.1693
 7646SOL     OW34396   1.865   1.303   5.604  0.6979 -0.7112 -0.1839
 7646SOL    HW134397   1.938   1.362   5.587 -2.4085  3.2568  0.0981
 7646SOL    HW234398   1.892   1.220   5.566  0.0006 -0.9172 -0.2317
 7647SOL     OW34399   3.810   4.007   2.671 -0.2837  0.2065  0.3808
 7647SOL    HW134400   3.874   3.940   2.696  0.3082  1.6563  2.6711
 7647SOL    HW234401   3.860   4.088   2.666 -1.5007  0.9785  0.8818
 7648SOL     OW34402   3.616   1.471   2.810 -0.0526  0.7058 -0.0626
 7648SOL    HW134403   3.680   1.534   2.776  1.0339 -0.5846 -0.4416
 7648SOL    HW234404   3.672   1.394   2.796 -1.6424 -0.5542  0.5801
 7649SOL     OW34405   0.520   3.286  10.155 -0.1379 -0.1669 -0.7103
 7649SOL    HW134406   0.586   3.238  10.205  1.5291 -0.4860 -3.2650
 7649SOL    HW234407   0.443   3.242  10.191 -1.0878  3.0888  1.3287
 7650SOL     OW34408   2.838   3.115   0.570 -0.4901  0.1531  0.4391
 7650SOL    HW134409   2.932   3.135   0.572  0.1514 -2.7414 -1.8231
 7650SOL    HW234410   2.837   3.022   0.593  1.7019 -0.0754 -0.4206
 7651SOL     OW34411   3.232   2.280   3.160  0.3825  0.3252 -0.3859
 7651SOL    HW134412   3.233   2.345   3.230  0.7387 -1.5029  1.3054
 7651SOL    HW234413   3.150   2.233   3.179  1.0457  0.0498  1.7893
 7652SOL     OW34414   2.617   2.500   4.652 -0.0612 -0.2491 -0.1870
 7652SOL    HW134415   2.646   2.589   4.671  2.9269 -1.3362  0.3200
 7652SOL    HW234416   2.689   2.443   4.679 -0.3992  0.2396  1.7253
 7653SOL     OW34417   1.933   3.213   5.054 -0.4703  0.4505  0.0359
 7653SOL    HW134418   1.944   3.123   5.086 -0.1647  1.6288  3.1461
 7653SOL    HW234419   1.921   3.266   5.132  0.6648  0.7805 -0.0166
 7654SOL     OW34420   4.695   2.486   1.535  0.0246 -0.1151  0.7045
 7654SOL    HW134421   4.645   2.568   1.539 -1.5649 -1.1333  1.3189
 7654SOL    HW234422   4.631   2.426   1.571  1.3990 -1.5654  0.7374
 7655SOL     OW34423   4.481   3.621   7.585 -0.1838 -0.2385 -0.3350
 7655SOL    HW134424   4.549   3.636   7.651  0.6135 -0.0748 -1.2060
 7655SOL    HW234425   4.475   3.707   7.543 -0.7226  0.7088  1.6277
 7656SOL     OW34426   0.855   1.108   5.680 -0.4387 -0.1421  0.6585
 7656SOL    HW134427   0.781   1.117   5.620  0.0338 -2.1098 -0.2009
 7656SOL    HW234428   0.853   1.198   5.713 -1.5761 -0.4883  1.5378
 7657SOL     OW34429   1.815   0.353   3.574 -0.2739  0.6447 -0.3593
 7657SOL    HW134430   1.846   0.295   3.643 -0.7166  1.3048  0.3870
 7657SOL    HW234431   1.728   0.316   3.561 -0.1258 -0.1288  0.9262
 7658SOL     OW34432   1.100   0.543  16.307  0.3327  0.4344  0.1687
 7658SOL    HW134433   1.194   0.543  16.325  0.6289 -0.4539 -1.3406
 7658SOL    HW234434   1.100   0.473  16.242 -2.1157 -0.1085  0.7596
 7659SOL     OW34435   2.204   3.409   4.188 -0.3178  0.0682 -0.2773
 7659SOL    HW134436   2.122   3.434   4.231 -1.4077 -0.6277 -1.9537
 7659SOL    HW234437   2.250   3.493   4.183  2.0545 -1.1232  2.1967
 7660SOL     OW34438   4.248   3.259   5.277  0.2845  0.0600  0.4313
 7660SOL    HW134439   4.286   3.230   5.361 -2.1463  2.1179  2.2485
 7660SOL    HW234440   4.192   3.329   5.309  0.1300  0.4084 -0.6261
 7661SOL     OW34441   1.304   2.219   4.356  0.3509 -0.1260  0.2319
 7661SOL    HW134442   1.353   2.300   4.370 -1.1778  0.7540  0.5642
 7661SOL    HW234443   1.315   2.194   4.264 -1.6926  2.7003 -0.7864
 7662SOL     OW34444   2.627   2.719   8.397  0.1857  0.3972 -0.4378
 7662SOL    HW134445   2.570   2.720   8.320  1.7021  0.7092 -1.5448
 7662SOL    HW234446   2.618   2.629   8.430  0.5958 -0.2069 -2.0015
 7663SOL     OW34447   1.429   2.721   6.430  0.1720 -0.6160 -0.5678
 7663SOL    HW134448   1.407   2.644   6.379 -2.5115  0.8971 -1.7294
 7663SOL    HW234449   1.399   2.791   6.372 -1.2684  1.5710  2.8013
 7664SOL     OW34450   1.254   0.795   7.391  0.0967 -0.5011 -0.1114
 7664SOL    HW134451   1.189   0.782   7.460  1.0118 -1.3754  0.5682
 7664SOL    HW234452   1.280   0.704   7.376  1.6002 -0.2916  1.3383
 7665SOL     OW34453   3.489   4.263   3.816 -0.1915 -0.1493 -0.2551
 7665SOL    HW134454   3.462   4.213   3.892 -1.9348  0.4637 -0.4791
 7665SOL    HW234455   3.517   4.199   3.751 -0.2193 -1.3383  0.9085
 7666SOL     OW34456   1.878   3.007   7.355 -0.4258 -0.3192 -0.0389
 7666SOL    HW134457   1.858   3.100   7.364 -2.7045 -0.9776  1.5340
 7666SOL    HW234458   1.974   3.010   7.346 -0.2094  0.5012  2.5592
 7667SOL     OW34459   2.936   1.340  11.993 -0.2681  0.0358 -0.3635
 7667SOL    HW134460   2.961   1.279  11.923  2.5957 -0.7036  1.3076
 7667SOL    HW234461   3.015   1.344  12.047 -1.2573  0.0103  1.0781
 7668SOL     OW34462   4.254   3.883   7.633 -0.0263  0.0935 -0.2454
 7668SOL    HW134463   4.175   3.910   7.585 -0.4181  0.5061  0.6418
 7668SOL    HW234464   4.315   3.878   7.559  0.5684 -1.9183  0.3950
 7669SOL     OW34465   4.062   1.738   2.508  1.0743  0.0366  0.5056
 7669SOL    HW134466   4.053   1.786   2.425  1.5373  0.4609  0.6976
 7669SOL    HW234467   3.990   1.775   2.559  0.2565  2.0068 -2.0711
 7670SOL     OW34468   2.044   3.140  11.695 -0.4095  0.5660  0.4561
 7670SOL    HW134469   2.038   3.111  11.786  0.5383  3.8311  1.5550
 7670SOL    HW234470   2.046   3.051  11.660 -2.3237 -0.9842  4.3560
 7671SOL     OW34471   4.687   3.874  10.252 -0.7220  0.6264  0.2076
 7671SOL    HW134472   0.026   3.945  10.245 -1.5310  1.5149  1.8365
 7671SOL    HW234473   0.002   3.811  10.311  0.5032  1.0793 -0.1290
 7672SOL     OW34474   2.512   2.188  12.285  0.1053 -0.0270 -0.0931
 7672SOL    HW134475   2.576   2.146  12.227  0.7788 -0.3957  0.9102
 7672SOL    HW234476   2.580   2.212  12.348  0.7938  0.3899 -0.9863
 7673SOL     OW34477   2.202   2.892  11.815  0.3829 -0.1752 -0.2444
 7673SOL    HW134478   2.174   2.903  11.906 -2.1929  0.2888 -1.0806
 7673SOL    HW234479   2.125   2.862  11.766  0.8558  0.3156 -1.2895
 7674SOL     OW34480   3.759   0.421   4.523 -0.1461  0.3038 -0.5030
 7674SOL    HW134481   3.687   0.368   4.557  0.0065 -0.1441 -0.8683
 7674SOL    HW234482   3.809   0.354   4.476 -2.1776 -1.9754  0.6013
 7675SOL     OW34483   1.438   2.399  17.487  0.0019 -0.4905 -0.1737
 7675SOL    HW134484   1.492   2.343  17.542 -2.2102 -0.7948  1.6751
 7675SOL    HW234485   1.492   2.414  17.409 -0.5793  1.7221 -0.1582
 7676SOL     OW34486   3.204   3.220   5.997 -0.1958 -0.0240 -0.0595
 7676SOL    HW134487   3.154   3.277   6.056 -0.5125  0.5546 -0.8859
 7676SOL    HW234488   3.259   3.188   6.069  0.0873  1.3205  0.3231
 7677SOL     OW34489   2.767   4.003  16.791  0.1299 -0.0043 -0.4288
 7677SOL    HW134490   2.770   4.050  16.707  0.9298  0.4411 -0.1520
 7677SOL    HW234491   2.741   4.073  16.851 -0.8687  0.1810 -1.0727
 7678SOL     OW34492   1.877   0.911  12.042  0.4497 -0.4920  0.1245
 7678SOL    HW134493   1.968   0.893  12.016 -0.0527 -2.9919  0.1128
 7678SOL    HW234494   1.873   0.848  12.114 -0.0901 -1.0261 -0.3778
 7679SOL     OW34495   3.936   2.978   2.024 -0.0249 -0.2806  0.3800
 7679SOL    HW134496   3.866   2.938   1.973 -0.0329  0.3124 -0.0764
 7679SOL    HW234497   3.946   3.059   1.975  1.5129  0.6039  2.1591
 7680SOL     OW34498   2.359   1.719  16.853  0.0784 -0.3492 -0.2253
 7680SOL    HW134499   2.369   1.752  16.943 -3.2097 -0.9008  0.3396
 7680SOL    HW234500   2.272   1.681  16.869 -0.7647  1.6707  0.0029
 7681SOL     OW34501   1.893   0.849   3.344 -0.8065  0.1929  0.1363
 7681SOL    HW134502   1.957   0.858   3.273 -1.1724  0.2034 -0.1883
 7681SOL    HW234503   1.942   0.790   3.401 -0.5968  1.9985  1.8535
 7682SOL     OW34504   1.732   1.541   7.758  0.0160  0.0320 -0.0479
 7682SOL    HW134505   1.649   1.505   7.725  0.1175 -0.9168  0.7273
 7682SOL    HW234506   1.783   1.542   7.676  0.2301  0.8403  0.1005
 7683SOL     OW34507   3.074   3.540   2.732  0.1509 -0.3852 -0.6213
 7683SOL    HW134508   3.069   3.520   2.638  0.6499 -0.1767 -0.6927
 7683SOL    HW234509   3.148   3.601   2.729  0.4039 -0.8090 -3.1912
 7684SOL     OW34510   0.776   0.476   3.380  0.5706 -0.1340 -0.1892
 7684SOL    HW134511   0.782   0.487   3.285 -1.0764  0.4024 -0.2450
 7684SOL    HW234512   0.683   0.453   3.390  0.3424  0.3799 -1.1907
 7685SOL     OW34513   0.486   3.490  15.851 -0.4189 -0.4909 -0.1743
 7685SOL    HW134514   0.514   3.508  15.762 -2.0258 -2.0900 -1.0107
 7685SOL    HW234515   0.392   3.484  15.832 -0.6433  1.0436  0.4306
 7686SOL     OW34516   4.340   2.041   6.114  0.4820 -0.1416 -0.6111
 7686SOL    HW134517   4.410   2.066   6.174 -0.6779  2.6483 -0.4372
 7686SOL    HW234518   4.390   2.002   6.042  0.5341  0.8459 -1.1175
 7687SOL     OW34519   1.959   4.219   8.744 -0.2691  0.4398 -0.3934
 7687SOL    HW134520   1.948   4.301   8.794  0.6878  0.3989 -0.1100
 7687SOL    HW234521   2.039   4.235   8.694  1.5373 -0.3755  2.2542
 7688SOL     OW34522   1.679   0.964   6.702 -0.2044 -0.3896 -0.2305
 7688SOL    HW134523   1.621   1.013   6.760  0.1010 -0.2632 -0.0352
 7688SOL    HW234524   1.729   0.923   6.773 -0.9675 -0.7418  0.1097
 7689SOL     OW34525   2.965   0.789  11.613  0.3112  0.7141 -0.3407
 7689SOL    HW134526   3.051   0.758  11.584  0.3190  0.3808  0.0349
 7689SOL    HW234527   2.971   0.776  11.707 -0.0744 -1.6696 -0.6520
 7690SOL     OW34528   3.320   0.649   7.673 -0.1746  0.6730  0.6397
 7690SOL    HW134529   3.231   0.684   7.678 -1.2455 -2.0891  0.9764
 7690SOL    HW234530   3.297   0.559   7.650  1.1729  0.6610 -0.6339
 7691SOL     OW34531   4.094   2.404   7.431  0.0891  0.1064 -0.0781
 7691SOL    HW134532   4.061   2.464   7.364  1.0552  0.7007 -0.0134
 7691SOL    HW234533   4.018   2.346   7.442  1.3098 -1.2005  1.4463
 7692SOL     OW34534   0.792   3.412   5.474 -0.4814  0.4846  0.4562
 7692SOL    HW134535   0.761   3.459   5.396 -0.0438 -0.9018 -0.5554
 7692SOL    HW234536   0.762   3.322   5.461 -0.3633  0.0213  3.4291
 7693SOL     OW34537   0.139   0.593   2.014  0.1691  0.2119 -0.4275
 7693SOL    HW134538   0.218   0.646   2.024 -1.8221  3.0753 -0.0464
 7693SOL    HW234539   0.174   0.504   2.024  0.9374  0.5399 -0.2237
 7694SOL     OW34540   3.292   0.014   2.876 -0.1107  0.0592  0.4149
 7694SOL    HW134541   3.370   0.033   2.929 -0.7475  1.6001  0.8227
 7694SOL    HW234542   3.222   0.021   2.941 -0.6633 -0.3883 -0.1321
 7695SOL     OW34543   0.090   1.175  17.242  0.1634  0.5172 -0.2259
 7695SOL    HW134544   0.003   1.152  17.275  0.8658  1.4038  2.2949
 7695SOL    HW234545   0.147   1.113  17.286 -0.0961 -0.4751 -1.2908
 7696SOL     OW34546   1.143   0.998  15.942  0.2630 -0.2415 -0.8266
 7696SOL    HW134547   1.217   0.949  15.907  2.3100  1.2728  1.3049
 7696SOL    HW234548   1.072   0.940  15.915 -0.8518  1.1451 -0.9120
 7697SOL     OW34549   4.407   4.454   9.886 -0.2618 -0.3393 -0.4536
 7697SOL    HW134550   4.421   4.393   9.957  0.3031 -0.8717 -1.0238
 7697SOL    HW234551   4.477   4.431   9.825 -2.4702 -2.0315 -2.3525
 7698SOL     OW34552   4.091   3.525  13.462 -0.1044  0.2453 -0.2475
 7698SOL    HW134553   4.142   3.582  13.404  1.6927  0.6713  1.7682
 7698SOL    HW234554   4.059   3.462  13.396  1.6388 -2.4325  1.4594
 7699SOL     OW34555   4.464   2.990   2.969 -0.0476  0.0639 -0.7679
 7699SOL    HW134556   4.430   2.904   2.995  1.5502  0.1690  1.6472
 7699SOL    HW234557   4.559   2.985   2.981 -0.4331 -2.7285  1.1955
 7700SOL     OW34558   3.890   1.552   9.197 -0.5785 -0.0935 -0.4325
 7700SOL    HW134559   3.901   1.577   9.288 -1.5622  0.0458 -0.3473
 7700SOL    HW234560   3.921   1.462   9.197 -1.4631 -0.3783  1.5998
 7701SOL     OW34561   2.238   3.599   4.458 -0.3149  0.3605  0.1786
 7701SOL    HW134562   2.223   3.677   4.405 -0.6137 -1.2110 -2.0523
 7701SOL    HW234563   2.334   3.602   4.458 -0.3438  0.4453 -2.7103
 7702SOL     OW34564   3.558   3.470  14.817 -0.3221  0.1332  0.7247
 7702SOL    HW134565   3.497   3.452  14.889 -2.2875  0.6205 -0.8233
 7702SOL    HW234566   3.648   3.451  14.845 -0.7845 -2.1145  0.6659
 7703SOL     OW34567   3.472   0.526   7.903 -0.4904 -0.7817 -0.5116
 7703SOL    HW134568   3.514   0.598   7.950 -0.3148 -0.4690 -1.1550
 7703SOL    HW234569   3.398   0.571   7.864  0.3940  0.4172 -0.7943
 7704SOL     OW34570   1.647   1.561   8.848  0.3548 -0.0543 -0.3144
 7704SOL    HW134571   1.589   1.587   8.776 -1.6024 -1.3458  0.7825
 7704SOL    HW234572   1.728   1.568   8.798 -0.0152  1.1584 -0.7529
 7705SOL     OW34573   1.262   1.373   1.635 -0.1275  0.3416 -0.1776
 7705SOL    HW134574   1.282   1.397   1.726  0.8759  1.9507 -0.8194
 7705SOL    HW234575   1.334   1.312   1.621  0.4010  0.4229  2.1608
 7706SOL     OW34576   1.515   0.473   5.552 -0.5132  0.4301 -0.1623
 7706SOL    HW134577   1.478   0.561   5.546 -0.5642  0.5033  1.3251
 7706SOL    HW234578   1.568   0.478   5.631 -1.5751  0.2201  0.5574
 7707SOL     OW34579   0.358   0.049  15.661  0.6297 -0.4361 -0.2927
 7707SOL    HW134580   0.288   0.045  15.727  0.9495 -1.6809 -0.0411
 7707SOL    HW234581   0.438   0.047  15.713 -0.2348  0.7727  1.1013
 7708SOL     OW34582   0.488   1.045   2.941  0.4252 -0.2508  0.5586
 7708SOL    HW134583   0.406   1.024   2.896  0.9414 -2.1621  0.4809
 7708SOL    HW234584   0.493   0.972   3.003  1.8631 -1.2267 -0.6929
 7709SOL     OW34585   0.475   3.164   2.399  0.8948  0.4171 -0.7490
 7709SOL    HW134586   0.434   3.203   2.322  0.5375  2.0934  0.2762
 7709SOL    HW234587   0.481   3.074   2.367 -1.1262 -0.0185  0.1288
 7710SOL     OW34588   1.098   3.086   9.567  0.1370 -0.2349 -0.4143
 7710SOL    HW134589   1.019   3.139   9.559 -0.1100 -0.3241  1.4853
 7710SOL    HW234590   1.151   3.149   9.614  0.1652 -0.6178  0.0657
 7711SOL     OW34591   4.671   3.562   2.823 -0.1379 -0.3844  0.0088
 7711SOL    HW134592   4.668   3.482   2.875  2.0030 -0.6962 -0.3513
 7711SOL    HW234593   4.651   3.527   2.736 -1.5912 -0.0774  0.2282
 7712SOL     OW34594   1.418   2.684   4.628  0.3819 -0.1076  0.4220
 7712SOL    HW134595   1.466   2.696   4.711  1.2118  1.8663 -0.3317
 7712SOL    HW234596   1.374   2.600   4.639 -0.1520 -0.1846 -2.3654
 7713SOL     OW34597   1.753   2.920   7.819  0.3553  0.5100 -0.4000
 7713SOL    HW134598   1.843   2.952   7.812  0.7071 -0.2761  0.5382
 7713SOL    HW234599   1.725   2.864   7.747 -1.1945  0.3989  0.2786
 7714SOL     OW34600   3.142   2.662   3.261  0.0118  0.2455  0.2048
 7714SOL    HW134601   3.099   2.689   3.180 -1.1552 -0.2066  0.6815
 7714SOL    HW234602   3.076   2.694   3.323  0.8533  0.7033  0.8688
 7715SOL     OW34603   0.046   3.665   8.525  0.2731  0.1730  0.0957
 7715SOL    HW134604   0.098   3.677   8.445 -0.3441  0.8895 -0.2067
 7715SOL    HW234605   0.105   3.706   8.588  3.8778 -2.2251 -1.6741
 7716SOL     OW34606   0.620   1.860   7.757  0.0431 -0.2833 -0.1008
 7716SOL    HW134607   0.568   1.902   7.689  0.7273  0.3844 -0.2190
 7716SOL    HW234608   0.557   1.798   7.793  0.6898  0.6677  2.7148
 7717SOL     OW34609   2.852   2.367   2.341  0.5126 -0.7073  0.0153
 7717SOL    HW134610   2.932   2.316   2.350  1.0742  0.5425  2.1346
 7717SOL    HW234611   2.880   2.446   2.389 -0.7991  0.8316 -1.7474
 7718SOL     OW34612   4.126   4.357   6.380 -0.6697 -0.0629 -0.2382
 7718SOL    HW134613   4.040   4.397   6.368 -0.2916  1.0482  0.7164
 7718SOL    HW234614   4.151   4.337   6.290  1.0583 -2.6427  0.8150
 7719SOL     OW34615   1.189   4.635   6.175 -0.2497 -0.6460  0.0476
 7719SOL    HW134616   1.197   4.611   6.267  0.6593 -0.6796 -0.0412
 7719SOL    HW234617   1.262   4.592   6.130  0.4087 -1.0550  1.5122
 7720SOL     OW34618   3.151   3.425  10.309 -0.4241 -0.0759  0.0125
 7720SOL    HW134619   3.156   3.426  10.405  2.1408  1.8357 -0.1365
 7720SOL    HW234620   3.242   3.413  10.281 -0.6799 -0.9419 -0.4357
 7721SOL     OW34621   3.798   4.690  13.280 -0.2288 -0.5274  0.7733
 7721SOL    HW134622   3.805   4.596  13.263  1.3394 -0.4430  0.9181
 7721SOL    HW234623   3.888   4.718  13.299  0.1951 -2.9752  2.3007
 7722SOL     OW34624   2.145   3.156   2.268 -0.2218  0.2159 -0.0017
 7722SOL    HW134625   2.060   3.125   2.300 -0.0151  0.1172  0.4524
 7722SOL    HW234626   2.121   3.240   2.229 -1.8000  0.4250  1.3893
 7723SOL     OW34627   0.536   1.424  15.750 -0.3280  0.1595  0.1440
 7723SOL    HW134628   0.571   1.349  15.798 -2.5683 -1.3770 -0.6061
 7723SOL    HW234629   0.498   1.469  15.826  0.6832  0.0114  0.7374
 7724SOL     OW34630   3.290   2.330   2.726 -0.1787 -0.4771 -0.5591
 7724SOL    HW134631   3.253   2.268   2.663 -0.4876 -0.5315 -0.3268
 7724SOL    HW234632   3.321   2.401   2.670 -0.2323  0.0445  0.0739
 7725SOL     OW34633   3.514   0.211   5.288  0.1222 -0.3685  0.0308
 7725SOL    HW134634   3.433   0.160   5.282 -0.2411 -0.0977  2.6644
 7725SOL    HW234635   3.567   0.166   5.223  2.5297 -0.8513  2.3468
 7726SOL     OW34636   3.979   4.684   6.490 -0.5587  0.0878 -0.3488
 7726SOL    HW134637   3.898   4.665   6.443 -1.7282 -0.8992  2.0588
 7726SOL    HW234638   4.008   0.025   6.427  1.3660 -0.3373  0.0984
 7727SOL     OW34639   2.119   2.162   0.287  0.3148  0.0739 -0.4028
 7727SOL    HW134640   2.196   2.214   0.261 -0.3653  0.7981 -0.9557
 7727SOL    HW234641   2.118   2.171   0.383  0.5115 -1.3556 -0.2659
 7728SOL     OW34642   0.140   3.373   3.701  0.2826 -0.6181  0.1896
 7728SOL    HW134643   0.196   3.445   3.728  1.2761 -1.6429  0.8531
 7728SOL    HW234644   0.079   3.374   3.776  2.9253  0.9001  2.3026
 7729SOL     OW34645   1.962   1.917   8.106  0.7921  0.1588 -0.0095
 7729SOL    HW134646   1.987   1.827   8.085 -1.5333 -0.1317 -1.4712
 7729SOL    HW234647   2.030   1.959   8.054 -0.8483  1.5366 -1.0495
 7730SOL     OW34648   2.941   0.569   5.080  0.4955  0.0817  0.1497
 7730SOL    HW134649   2.930   0.662   5.058  0.9158  0.4842  1.6377
 7730SOL    HW234650   3.001   0.585   5.152 -1.7196 -0.3375  2.0905
 7731SOL     OW34651   1.664   4.171  17.083 -0.0236  0.2651  0.2923
 7731SOL    HW134652   1.592   4.209  17.133 -0.0427  2.1056 -1.1460
 7731SOL    HW234653   1.660   4.223  17.003 -0.7483 -0.4460 -0.1310
 7732SOL     OW34654   2.049   1.959   2.035 -0.8494  0.3854  0.1448
 7732SOL    HW134655   2.026   2.014   1.960 -2.2965  0.1229  0.3959
 7732SOL    HW234656   2.100   2.021   2.088 -0.1500 -0.7886  0.8457
 7733SOL     OW34657   2.380   0.611   3.600 -0.6945 -0.2069  0.2047
 7733SOL    HW134658   2.324   0.560   3.542 -0.2131 -0.8152  0.2803
 7733SOL    HW234659   2.457   0.556   3.613  1.1568  2.1585 -0.6628
 7734SOL     OW34660   1.518   4.611   6.354 -0.0357 -0.0224  0.5982
 7734SOL    HW134661   1.589   4.552   6.379  0.8368  1.1780  1.0194
 7734SOL    HW234662   1.484   4.551   6.289  0.3181 -0.4569  0.8105
 7735SOL     OW34663   4.270   4.126  16.068 -0.2377  0.8058  0.0879
 7735SOL    HW134664   4.324   4.205  16.073  1.8724 -0.8460  4.0858
 7735SOL    HW234665   4.303   4.105  15.981  0.3660  0.5060  0.3826
 7736SOL     OW34666   2.264   0.847   2.122  0.2461  0.3774  0.3760
 7736SOL    HW134667   2.184   0.880   2.082  0.4155 -1.0220 -1.0937
 7736SOL    HW234668   2.253   0.879   2.212  0.8236 -0.2039  0.6568
 7737SOL     OW34669   3.676   3.276  10.447  0.2087 -0.2205  0.2730
 7737SOL    HW134670   3.766   3.310  10.440 -0.1349  0.5419 -0.3770
 7737SOL    HW234671   3.703   3.187  10.470 -0.1844 -0.4084 -0.0055
 7738SOL     OW34672   4.704   3.326   3.919  0.2704  0.5635 -0.1981
 7738SOL    HW134673   4.650   3.256   3.955  0.1880  1.0778  0.6896
 7738SOL    HW234674   4.685   3.397   3.981 -0.5285  1.0096 -0.9584
 7739SOL     OW34675   2.039   4.125   7.430  0.3676 -0.6545 -0.4301
 7739SOL    HW134676   2.066   4.040   7.466  3.6205 -0.2250 -1.8499
 7739SOL    HW234677   2.095   4.180   7.484  0.0257 -0.7350  0.0082
 7740SOL     OW34678   0.885   2.258   9.150  0.2106  0.3707  0.6312
 7740SOL    HW134679   0.883   2.329   9.215  1.1923  0.3946  0.6503
 7740SOL    HW234680   0.794   2.229   9.155 -0.3083  1.8754 -0.1140
 7741SOL     OW34681   4.052   3.980   7.900 -0.8655  0.2128 -0.0911
 7741SOL    HW134682   4.030   3.984   7.993 -1.7195 -0.6312 -0.2587
 7741SOL    HW234683   3.980   4.037   7.874 -0.7064  1.7341  2.8612
 7742SOL     OW34684   1.734   3.829   5.869 -0.1586  0.0576 -0.0555
 7742SOL    HW134685   1.810   3.842   5.925  0.5184 -0.6769 -0.8077
 7742SOL    HW234686   1.744   3.744   5.826  0.5347 -0.5456  1.2953
 7743SOL     OW34687   4.260   3.591   5.629 -0.1894 -0.4012  0.9406
 7743SOL    HW134688   4.333   3.645   5.659 -0.2697  1.3947 -2.0239
 7743SOL    HW234689   4.185   3.624   5.677 -1.5299 -0.9257 -0.7885
 7744SOL     OW34690   0.813   2.214  14.795  0.0776  0.3198 -0.0752
 7744SOL    HW134691   0.823   2.301  14.832 -1.7960 -0.2855  1.8863
 7744SOL    HW234692   0.901   2.179  14.811  1.2815  2.5913 -1.9334
 7745SOL     OW34693   1.549   1.035   8.868 -0.0631 -0.1061 -0.0416
 7745SOL    HW134694   1.577   1.101   8.932 -0.3320  1.7009 -1.7791
 7745SOL    HW234695   1.463   1.064   8.836 -0.5196 -1.1323  0.2820
 7746SOL     OW34696   2.116   4.006  13.529  0.3890 -0.0257 -0.0429
 7746SOL    HW134697   2.118   4.080  13.468 -0.0810  1.1081  1.3015
 7746SOL    HW234698   2.157   4.055  13.601  0.0100  0.0249  0.1395
 7747SOL     OW34699   0.369   1.301  10.652  0.0816 -0.4148 -0.2777
 7747SOL    HW134700   0.444   1.309  10.712  0.4534  1.4233 -0.9862
 7747SOL    HW234701   0.412   1.341  10.577 -1.0916  0.1206 -0.6538
 7748SOL     OW34702   0.717   0.462   0.550 -0.2027  0.1669  0.6709
 7748SOL    HW134703   0.766   0.500   0.623 -0.2355 -0.7595  1.1700
 7748SOL    HW234704   0.623   0.475   0.563 -0.2337  0.5679  0.0310
 7749SOL     OW34705   3.326   1.587   3.995 -0.1077  0.4346 -0.2472
 7749SOL    HW134706   3.286   1.502   4.014  2.4394 -1.0371 -1.4957
 7749SOL    HW234707   3.251   1.645   4.002 -0.3549  0.3106 -2.0573
 7750SOL     OW34708   4.176   3.060   8.514 -0.0101 -0.4312 -0.2486
 7750SOL    HW134709   4.095   3.015   8.493 -0.7204  1.2408 -1.0866
 7750SOL    HW234710   4.206   3.012   8.591 -1.3519 -0.0987  0.4879
 7751SOL     OW34711   0.779   4.322   8.186 -0.2735  0.1428  0.3391
 7751SOL    HW134712   0.721   4.371   8.127 -0.7992 -0.7138  0.1529
 7751SOL    HW234713   0.723   4.257   8.230 -1.5470  0.4360 -0.8409
 7752SOL     OW34714   3.964   3.974   7.604  0.1285 -0.1518  0.3227
 7752SOL    HW134715   3.930   4.008   7.687  0.9099  0.8518  0.2262
 7752SOL    HW234716   3.915   3.893   7.587 -0.5065  0.8758 -2.6554
 7753SOL     OW34717   0.128   2.969   3.977 -0.7581 -0.0798  0.1200
 7753SOL    HW134718   0.156   3.014   3.897 -2.8349 -0.6483 -0.9127
 7753SOL    HW234719   0.160   3.030   4.044 -2.0032  1.6315 -0.8563
 7754SOL     OW34720   0.830   3.474   3.173  0.2108  0.3389  0.1656
 7754SOL    HW134721   0.899   3.457   3.110 -1.2778 -0.6440 -1.1928
 7754SOL    HW234722   0.819   3.569   3.164 -0.5122  0.0796 -1.7666
 7755SOL     OW34723   1.663   3.010   6.356 -0.2021  0.2283 -0.1764
 7755SOL    HW134724   1.741   3.066   6.354  0.2051 -0.3409 -0.4960
 7755SOL    HW234725   1.694   2.921   6.374 -2.7196 -0.7027 -0.4437
 7756SOL     OW34726   0.404   2.839   6.933  0.0970 -0.3678 -0.2863
 7756SOL    HW134727   0.409   2.911   6.870 -0.1914 -0.5785 -0.5491
 7756SOL    HW234728   0.393   2.889   7.013  3.1751 -1.6723  0.9491
 7757SOL     OW34729   4.031   3.477   3.749  0.1582 -0.2967 -0.4703
 7757SOL    HW134730   3.953   3.464   3.696  0.4111 -0.3184 -0.8422
 7757SOL    HW234731   4.022   3.564   3.786  2.3244 -0.7783  1.2206
 7758SOL     OW34732   3.539   3.570  10.736  0.1441  0.2494  0.1137
 7758SOL    HW134733   3.603   3.559  10.807  0.0113  0.6759  0.2980
 7758SOL    HW234734   3.601   3.616  10.679  0.1682  2.6649  2.0969
 7759SOL     OW34735   3.364   3.131   6.233  0.6780 -0.2306 -0.6330
 7759SOL    HW134736   3.442   3.159   6.282  0.1309  0.1719  0.0060
 7759SOL    HW234737   3.304   3.107   6.304 -0.3196  3.5747 -0.2196
 7760SOL     OW34738   2.882   0.073  10.680 -0.4933 -0.6172  0.2565
 7760SOL    HW134739   2.797   0.106  10.710  0.1364  1.3293 -0.1421
 7760SOL    HW234740   2.867   4.707  10.706  1.9147 -1.0626  0.0584
 7761SOL     OW34741   0.784   1.740   1.886  0.2277 -0.6701  0.3996
 7761SOL    HW134742   0.728   1.753   1.963 -3.4110  1.7295 -2.6728
 7761SOL    HW234743   0.861   1.703   1.929  0.6393  1.3538  1.4013
 7762SOL     OW34744   2.518   0.846   2.483 -0.2134  0.5383  0.0497
 7762SOL    HW134745   2.500   0.803   2.400  2.0274  1.9619 -1.2002
 7762SOL    HW234746   2.528   0.767   2.535  1.1966 -0.4735 -1.7224
 7763SOL     OW34747   3.378   0.400   6.566 -0.5467  0.1189 -0.0967
 7763SOL    HW134748   3.416   0.322   6.524 -0.3264 -0.1637  0.6295
 7763SOL    HW234749   3.286   0.374   6.579 -0.7183  0.6554 -0.2571
 7764SOL     OW34750   3.338   2.939   6.969 -0.4782 -0.3155  0.5894
 7764SOL    HW134751   3.367   3.003   6.904 -0.6085 -0.7897  0.0690
 7764SOL    HW234752   3.336   2.997   7.045  1.5128  2.6334 -1.6020
 7765SOL     OW34753   1.878   1.910   8.660  0.5943 -0.1934 -0.1795
 7765SOL    HW134754   1.815   1.982   8.660  0.1264 -0.5979 -1.2597
 7765SOL    HW234755   1.933   1.918   8.738  1.6512  2.5631 -1.1838
 7766SOL     OW34756   4.084   1.706   0.733 -0.5075 -0.2849  0.3083
 7766SOL    HW134757   4.007   1.649   0.737 -0.7726  0.1024  0.8244
 7766SOL    HW234758   4.126   1.661   0.660 -0.6978  0.6349 -0.3719
 7767SOL     OW34759   1.612   1.634   9.319  0.5268 -0.1677  0.0355
 7767SOL    HW134760   1.542   1.569   9.330 -0.2523  0.4146 -1.5526
 7767SOL    HW234761   1.667   1.591   9.253 -1.4874 -2.4793 -0.1646
 7768SOL     OW34762   4.102   2.983  15.875  0.1458 -0.2427  0.8168
 7768SOL    HW134763   4.161   3.022  15.811  0.9894 -2.5371  0.1923
 7768SOL    HW234764   4.086   2.897  15.836 -2.6807  0.8615 -0.4830
 7769SOL     OW34765   1.334   3.651   5.685  0.1075 -0.0288 -0.1695
 7769SOL    HW134766   1.285   3.571   5.703 -0.5644  0.6927  1.2610
 7769SOL    HW234767   1.273   3.704   5.634 -0.3293 -0.8426 -0.4881
 7770SOL     OW34768   0.415   4.361   5.861  0.0491  0.3483  0.1223
 7770SOL    HW134769   0.476   4.289   5.874  1.1535  1.0971 -0.9701
 7770SOL    HW234770   0.458   4.414   5.795  0.4836  0.0047  0.1314
 7771SOL     OW34771   3.790   4.375   8.446  0.0737 -0.1796 -0.0055
 7771SOL    HW134772   3.825   4.304   8.499  0.6209 -0.5799 -0.9013
 7771SOL    HW234773   3.796   4.339   8.357  0.0520  0.2732 -0.1929
 7772SOL     OW34774   0.497   0.286   9.624  0.1065  0.5626 -0.1008
 7772SOL    HW134775   0.412   0.290   9.580 -0.4911 -1.0715  0.9306
 7772SOL    HW234776   0.476   0.236   9.703  0.0733 -0.7938 -0.9755
 7773SOL     OW34777   0.579   3.388   7.158 -0.0335  0.2927 -0.3334
 7773SOL    HW134778   0.527   3.329   7.213  0.8707  0.6491  0.9091
 7773SOL    HW234779   0.562   3.364   7.067 -0.1850 -0.4714 -0.1026
 7774SOL     OW34780   2.525   0.183   2.000 -0.2494 -0.1958  0.0193
 7774SOL    HW134781   2.444   0.173   1.950 -0.0682 -0.7605 -0.1681
 7774SOL    HW234782   2.569   0.098   1.993  0.7208  0.3556 -0.5310
 7775SOL     OW34783   0.713   0.779   8.892  0.0794  0.0247  0.1703
 7775SOL    HW134784   0.634   0.765   8.943  0.2744 -3.1715 -0.4545
 7775SOL    HW234785   0.675   0.818   8.813 -1.6944 -0.9272  0.5484
 7776SOL     OW34786   0.879   2.204   8.376  0.4163 -0.5607  0.3253
 7776SOL    HW134787   0.882   2.272   8.309  0.1310 -1.4754 -0.6160
 7776SOL    HW234788   0.893   2.255   8.456  0.4215 -2.1322  1.3547
 7777SOL     OW34789   2.073   2.960   0.229 -0.6308 -0.5341  0.0586
 7777SOL    HW134790   2.157   2.975   0.186 -0.3544 -1.8176  0.1574
 7777SOL    HW234791   2.033   2.926   0.149 -1.1234  0.7486 -0.2466
 7778SOL     OW34792   1.541   0.642   2.551 -0.4735 -0.6964 -0.0239
 7778SOL    HW134793   1.503   0.573   2.498  0.9530 -0.9104 -0.7692
 7778SOL    HW234794   1.469   0.696   2.584 -0.0819 -0.4789  0.4878
 7779SOL     OW34795   2.794   2.942   9.137 -0.0291 -0.4981  0.4522
 7779SOL    HW134796   2.795   3.025   9.186  0.3167 -0.7490  0.8796
 7779SOL    HW234797   2.707   2.951   9.099 -0.4750 -1.5367  1.2220
 7780SOL     OW34798   4.130   1.870   6.121  0.0006  0.1922 -0.0574
 7780SOL    HW134799   4.140   1.851   6.028  1.9133 -1.1553  0.4269
 7780SOL    HW234800   4.204   1.924   6.148 -0.3119  0.1603  0.8638
 7781SOL     OW34801   3.731   0.643   7.031 -0.0354  0.4047 -0.1353
 7781SOL    HW134802   3.793   0.608   7.096  1.1312  0.2618 -1.3171
 7781SOL    HW234803   3.746   0.588   6.954  3.0855  1.0085  0.0284
 7782SOL     OW34804   3.175   0.365   2.868 -0.1375  0.3066  0.2415
 7782SOL    HW134805   3.140   0.366   2.957  1.8333 -2.4693  1.0299
 7782SOL    HW234806   3.152   0.453   2.837 -2.1868  0.0125  0.9406
 7783SOL     OW34807   3.194   0.900   2.380  0.3542  0.4338  0.2242
 7783SOL    HW134808   3.277   0.854   2.389 -0.7893 -2.0321 -1.6576
 7783SOL    HW234809   3.130   0.839   2.419  0.5865  0.0180 -0.0439
 7784SOL     OW34810   2.977   0.307   5.261 -0.3642 -0.1891  0.4236
 7784SOL    HW134811   2.931   0.288   5.180 -0.2275  1.7163 -0.0752
 7784SOL    HW234812   3.059   0.350   5.238 -0.2844  0.4928  1.9965
 7785SOL     OW34813   1.000   2.563   3.959  0.3128 -0.6679 -0.4016
 7785SOL    HW134814   0.932   2.619   3.920  0.9971  0.1323 -0.4357
 7785SOL    HW234815   1.045   2.625   4.016  0.6723 -1.0400 -0.2827
 7786SOL     OW34816   3.156   3.982   5.420  0.2278  0.1746  0.6845
 7786SOL    HW134817   3.246   3.999   5.448  0.7645  0.2928 -1.1373
 7786SOL    HW234818   3.136   3.906   5.475  1.7797  1.7443  3.4307
 7787SOL     OW34819   4.535   4.006   0.485  0.0232 -0.1886  0.1843
 7787SOL    HW134820   4.465   4.071   0.494 -1.6682 -2.0198  0.4875
 7787SOL    HW234821   4.577   4.003   0.571  2.9056 -2.3059 -1.3211
 7788SOL     OW34822   3.213   0.260  16.102  0.0667 -0.0680 -0.3505
 7788SOL    HW134823   3.306   0.266  16.081 -0.0769 -2.6203 -1.7337
 7788SOL    HW234824   3.187   0.352  16.107 -2.7499 -0.9278  1.2272
 7789SOL     OW34825   0.897   0.776  13.015  0.2358 -0.1538  0.0031
 7789SOL    HW134826   0.941   0.816  12.940 -1.0237 -2.9620 -2.2318
 7789SOL    HW234827   0.903   0.686  12.984 -0.6659 -0.0813 -0.3962
 7790SOL     OW34828   1.936   3.721   9.067 -0.7098  0.1720  0.3592
 7790SOL    HW134829   1.982   3.642   9.036 -0.0009 -0.1941  2.3340
 7790SOL    HW234830   2.009   3.775   9.098 -1.5632  2.4089 -1.5134
 7791SOL     OW34831   3.771   2.068  10.152  0.1047 -0.3421  0.5740
 7791SOL    HW134832   3.773   2.105  10.240 -2.0460  0.6949  0.2099
 7791SOL    HW234833   3.789   1.975  10.168 -0.1776 -0.8138 -1.7409
 7792SOL     OW34834   3.876   0.012   0.114  0.7338 -0.5352 -0.0394
 7792SOL    HW134835   3.875   0.070   0.190  0.6240  1.1561 -1.3341
 7792SOL    HW234836   3.902   4.657   0.160 -0.3576 -0.7739  0.1585
 7793SOL     OW34837   1.240   1.013   3.771  0.6588  0.6513 -0.2743
 7793SOL    HW134838   1.329   1.046   3.762  0.1647  1.9932 -0.2664
 7793SOL    HW234839   1.254   0.919   3.775 -1.0095  0.4438  0.7223
 7794SOL     OW34840   1.327   0.180   9.738  0.4508  0.2263  0.1967
 7794SOL    HW134841   1.343   0.133   9.820 -0.0075 -2.4543 -1.2403
 7794SOL    HW234842   1.395   0.247   9.726  2.5936 -2.1390 -0.7932
 7795SOL     OW34843   3.729   1.366   3.183 -0.1957  0.5310 -0.0901
 7795SOL    HW134844   3.802   1.415   3.144  0.4899 -0.9054 -0.5828
 7795SOL    HW234845   3.654   1.426   3.185 -0.0226  0.7363  0.4947
 7796SOL     OW34846   1.573   0.362  13.576 -0.2434  0.5483 -0.3638
 7796SOL    HW134847   1.597   0.386  13.665 -1.9466  1.0504 -0.0370
 7796SOL    HW234848   1.557   0.452  13.545  0.0525  0.0521 -1.9875
 7797SOL     OW34849   4.490   1.112   6.816  0.9216  0.0292 -0.0258
 7797SOL    HW134850   4.432   1.060   6.871 -1.5925  1.5236 -1.2836
 7797SOL    HW234851   4.516   1.175   6.884  2.0876 -0.4703 -0.0050
 7798SOL     OW34852   1.757   0.442   7.442 -0.4688 -0.2694 -0.0407
 7798SOL    HW134853   1.764   0.392   7.524 -0.6887  0.7720  0.6145
 7798SOL    HW234854   1.711   0.520   7.472  1.3073  1.6238 -2.2490
 7799SOL     OW34855   2.996   1.551  10.925 -0.8697 -0.1763 -0.2853
 7799SOL    HW134856   3.011   1.478  10.865  0.2272 -0.8042  0.7411
 7799SOL    HW234857   2.962   1.621  10.870  0.2304  0.4017 -0.2258
 7800SOL     OW34858   4.619   2.382   1.252 -0.3575  0.0440  0.3602
 7800SOL    HW134859   4.645   2.373   1.343  0.1525 -0.0275  0.2070
 7800SOL    HW234860   4.615   2.291   1.221  0.5158 -0.4151  1.6134
 7801SOL     OW34861   3.306   0.777   5.617 -0.4791  0.6542 -0.4414
 7801SOL    HW134862   3.318   0.727   5.698 -1.5724  0.9551 -0.0879
 7801SOL    HW234863   3.247   0.727   5.560 -0.5900 -0.5208  0.6852
 7802SOL     OW34864   1.686   1.859   8.046  0.3467  0.5534 -0.1688
 7802SOL    HW134865   1.649   1.945   8.067  0.5466  0.5103  0.3522
 7802SOL    HW234866   1.780   1.878   8.046  0.7709 -1.5534  3.1482
 7803SOL     OW34867   0.570   4.534   2.366 -0.1291  0.4465  0.0888
 7803SOL    HW134868   0.599   4.605   2.308 -2.4755 -0.5569 -2.3168
 7803SOL    HW234869   0.619   4.464   2.324 -0.4301  0.5908 -0.5065
 7804SOL     OW34870   2.472   1.093   5.172  0.0767 -0.1777 -0.2815
 7804SOL    HW134871   2.546   1.033   5.179  1.2654  1.2503 -0.4092
 7804SOL    HW234872   2.514   1.162   5.223  0.4001 -0.3059 -0.3684
 7805SOL     OW34873   0.763   2.584  13.686 -0.1713  0.0911  0.0851
 7805SOL    HW134874   0.806   2.666  13.659  0.5666  0.1468  1.4310
 7805SOL    HW234875   0.842   2.550  13.728 -0.3073  2.0967  1.9881
 7806SOL     OW34876   4.634   1.352   5.774 -0.0299  0.5981 -0.0950
 7806SOL    HW134877   4.568   1.303   5.823  0.7780 -2.8752 -2.4060
 7806SOL    HW234878   4.715   1.342   5.824  0.5974  0.1421 -1.1975
 7807SOL     OW34879   1.236   0.454  16.604 -0.1239  0.2387 -0.2455
 7807SOL    HW134880   1.308   0.513  16.582  0.3011 -0.1334  0.1431
 7807SOL    HW234881   1.197   0.487  16.685  1.6638  2.0664 -0.1376
 7808SOL     OW34882   3.917   3.061   3.739  0.6584  0.0342 -0.1629
 7808SOL    HW134883   3.930   3.105   3.655 -3.3505  0.0396 -0.7806
 7808SOL    HW234884   3.878   2.977   3.715 -0.9276  0.8997 -0.6147
 7809SOL     OW34885   0.052   0.182   0.859 -0.3816  0.1282 -0.3770
 7809SOL    HW134886   4.724   0.139   0.791 -0.6467 -0.0019 -0.0905
 7809SOL    HW234887   0.130   0.128   0.846 -1.0945 -0.9803 -0.1159
 7810SOL     OW34888   3.407   3.745   6.613  0.3220  0.3909  0.5467
 7810SOL    HW134889   3.359   3.827   6.624 -0.7367 -0.5368  2.8431
 7810SOL    HW234890   3.344   3.710   6.550 -0.5200  2.2873  0.3332
 7811SOL     OW34891   0.343   0.381   4.446  0.0566 -0.0136 -0.6186
 7811SOL    HW134892   0.430   0.414   4.466  0.7171 -0.3288 -2.9856
 7811SOL    HW234893   0.314   0.417   4.363 -0.0686  0.4756 -0.3601
 7812SOL     OW34894   1.185   1.330   3.634 -0.0658 -0.3117  0.0731
 7812SOL    HW134895   1.167   1.402   3.573 -2.3165 -2.5411 -1.9144
 7812SOL    HW234896   1.110   1.277   3.606 -1.5477  0.8354  1.8832
 7813SOL     OW34897   0.207   4.451   2.490 -0.2290  0.2471 -0.2819
 7813SOL    HW134898   0.171   4.533   2.456 -0.0926  0.7379  0.7440
 7813SOL    HW234899   0.131   4.394   2.503  0.4200 -0.4998  0.2348
 7814SOL     OW34900   1.506   1.528   6.334  0.2122 -0.8497 -0.6738
 7814SOL    HW134901   1.512   1.462   6.402  0.3815 -0.7626 -0.6034
 7814SOL    HW234902   1.595   1.532   6.299  0.0033 -2.2093 -1.3571
 7815SOL     OW34903   0.595   2.942  10.567  0.2051  0.2283  0.6843
 7815SOL    HW134904   0.506   2.958  10.534  0.3893  0.9549  0.5545
 7815SOL    HW234905   0.585   2.849  10.590 -1.9184  0.1997 -0.3610
 7816SOL     OW34906   3.128   1.040   4.646  0.2519  0.0644 -0.1929
 7816SOL    HW134907   3.078   1.028   4.565 -0.5567  2.3438 -0.0291
 7816SOL    HW234908   3.217   1.037   4.614  0.9573  1.0532  1.6711
 7817SOL     OW34909   2.018   1.498  15.066  0.5703  0.0832  0.0700
 7817SOL    HW134910   1.943   1.483  15.008  1.2910 -1.0856 -0.5631
 7817SOL    HW234911   2.064   1.414  15.068 -0.2037 -0.3331  0.4125
 7818SOL     OW34912   3.521   2.060   1.817 -0.1467  0.2956  0.4708
 7818SOL    HW134913   3.524   2.125   1.888  0.3076  1.2850 -0.4566
 7818SOL    HW234914   3.429   2.066   1.791 -0.4922  0.7493  1.7933
 7819SOL     OW34915   2.924   3.653   0.791 -0.0711 -0.8996  0.8222
 7819SOL    HW134916   2.991   3.585   0.793  0.4935 -0.3435  0.7027
 7819SOL    HW234917   2.944   3.712   0.863 -1.9637  1.1654 -0.3172
 7820SOL     OW34918   4.652   3.331   2.960  0.4344  0.4928  0.1775
 7820SOL    HW134919   4.636   3.248   2.914 -1.5715  0.8820  0.1655
 7820SOL    HW234920   4.598   3.311   3.036 -0.1166 -1.9316 -0.8457
 7821SOL     OW34921   0.307   3.177   3.396  0.6661  0.3096 -0.3141
 7821SOL    HW134922   0.252   3.255   3.395  0.4400  0.1529  0.4179
 7821SOL    HW234923   0.247   3.107   3.369  0.5965  0.1040  0.3833
 7822SOL     OW34924   0.831   3.012   1.499  0.5047 -0.0186  0.0996
 7822SOL    HW134925   0.896   2.976   1.559  0.2685  1.3727  1.1867
 7822SOL    HW234926   0.894   3.047   1.435  1.8333 -0.7887  0.9921
 7823SOL     OW34927   2.935   3.228   5.276  0.3765  0.0270 -0.2154
 7823SOL    HW134928   2.977   3.178   5.206 -0.2240 -0.0683 -0.5041
 7823SOL    HW234929   2.863   3.167   5.292 -0.1857  0.5710 -0.6985
 7824SOL     OW34930   2.213   2.670  12.939  0.0905  0.6288  0.9151
 7824SOL    HW134931   2.214   2.594  12.997 -0.2499 -0.4363 -0.4684
 7824SOL    HW234932   2.302   2.705  12.951  0.9109 -0.6292 -1.3789
 7825SOL     OW34933   0.505   2.653   7.340  0.3270 -0.2919  0.5122
 7825SOL    HW134934   0.517   2.563   7.310 -0.2818 -0.0840 -0.3576
 7825SOL    HW234935   0.569   2.702   7.288 -0.9979  1.7395  0.7858
 7826SOL     OW34936   2.944   0.126   9.225  0.0987  0.2413  0.2293
 7826SOL    HW134937   3.010   0.137   9.294 -1.2370  1.2767  1.3327
 7826SOL    HW234938   2.890   0.203   9.242  0.0962  0.0974  0.8808
 7827SOL     OW34939   1.056   1.958   0.140 -0.2462 -0.3208 -0.3638
 7827SOL    HW134940   1.025   2.028   0.198 -1.3773 -1.0352 -0.1131
 7827SOL    HW234941   1.144   1.992   0.124  0.4317 -1.3981  1.0625
 7828SOL     OW34942   2.340   3.710   5.421  0.1171 -0.5031 -0.1629
 7828SOL    HW134943   2.388   3.740   5.498 -0.5066  0.1374 -0.0243
 7828SOL    HW234944   2.412   3.657   5.388  0.8121 -0.1385  0.7803
 7829SOL     OW34945   2.070   4.100   4.244 -0.2889 -0.1762  0.6490
 7829SOL    HW134946   2.101   4.190   4.228  0.5877 -0.7739 -0.9794
 7829SOL    HW234947   2.036   4.110   4.333  0.0727 -0.6837  0.8376
 7830SOL     OW34948   4.614   4.016   4.095  0.5081 -0.5243  0.3462
 7830SOL    HW134949   4.658   3.948   4.147  1.7599 -0.0548 -0.0888
 7830SOL    HW234950   4.562   4.062   4.161 -0.4388  0.6574 -1.2196
 7831SOL     OW34951   1.924   1.602   6.946 -0.0907  0.6639 -0.3866
 7831SOL    HW134952   2.015   1.626   6.933  0.3366  0.0838  1.4724
 7831SOL    HW234953   1.902   1.578   6.856 -2.3355 -0.3178  0.4204
 7832SOL     OW34954   4.068   3.012   7.338 -0.3623  0.2237 -0.9067
 7832SOL    HW134955   4.057   3.080   7.404 -0.3618  0.0814 -0.7579
 7832SOL    HW234956   4.128   2.954   7.386 -0.1801  2.1537  1.1700
 7833SOL     OW34957   2.789   0.818  14.535 -0.3323 -0.3066 -0.3685
 7833SOL    HW134958   2.797   0.734  14.490  0.5622 -0.2482 -0.3189
 7833SOL    HW234959   2.882   0.838  14.533 -0.4546  0.5813  2.5600
 7834SOL     OW34960   1.294   0.418  13.792 -0.2857  0.0701 -0.2895
 7834SOL    HW134961   1.256   0.457  13.714 -2.5926 -0.9438  0.3477
 7834SOL    HW234962   1.385   0.449  13.790 -0.3414  0.2740  0.2257
 7835SOL     OW34963   3.533   2.127   0.785 -0.3365 -0.4379  0.2660
 7835SOL    HW134964   3.609   2.093   0.737 -0.2638 -1.8246  1.3541
 7835SOL    HW234965   3.575   2.174   0.857 -0.4767 -0.2314  0.2134
 7836SOL     OW34966   2.282   4.029   1.106  0.3644  0.1015 -0.0622
 7836SOL    HW134967   2.302   3.992   1.020 -2.1543 -0.6928 -0.3090
 7836SOL    HW234968   2.335   3.968   1.156  0.5652  1.5639  1.5109
 7837SOL     OW34969   1.494   4.176   2.598  0.0817  0.0592  0.0883
 7837SOL    HW134970   1.579   4.136   2.576  0.1809 -0.1043  0.7591
 7837SOL    HW234971   1.501   4.262   2.558 -1.7479  0.4701  0.6547
 7838SOL     OW34972   4.655   4.586   3.804 -0.2341  0.4622  0.3585
 7838SOL    HW134973   4.587   4.614   3.866 -1.0745  1.1856 -0.8860
 7838SOL    HW234974   4.606   4.516   3.761  0.7825  0.0384 -0.1030
 7839SOL     OW34975   0.979   1.712   9.975  0.2418 -0.4767 -0.6136
 7839SOL    HW134976   1.061   1.761   9.973  0.8930 -1.6350 -3.1244
 7839SOL    HW234977   0.987   1.666   9.891 -0.1214  1.6948 -1.8699
 7840SOL     OW34978   4.678   2.563  14.146  0.2555 -0.3826 -0.1920
 7840SOL    HW134979   0.027   2.522  14.102  1.4757  1.2940  0.3107
 7840SOL    HW234980   4.614   2.493  14.136 -0.5913  0.4626 -0.7262
 7841SOL     OW34981   4.106   1.361  14.206  0.0082 -0.0793  0.4505
 7841SOL    HW134982   4.109   1.338  14.299  0.7395 -0.7331  0.2640
 7841SOL    HW234983   4.129   1.453  14.211  1.7887 -0.5022  0.1597
 7842SOL     OW34984   3.435   0.689   6.952 -0.4357 -0.3492  0.0519
 7842SOL    HW134985   3.525   0.715   6.970 -1.0915 -0.4644  3.5382
 7842SOL    HW234986   3.445   0.656   6.863  0.0187 -1.3738  0.4762
 7843SOL     OW34987   1.741   3.554   5.322  0.0401  0.5207  0.3447
 7843SOL    HW134988   1.793   3.606   5.260  0.1908  1.3149  1.1436
 7843SOL    HW234989   1.665   3.612   5.336  0.5675  1.5523 -1.0367
 7844SOL     OW34990   0.485   2.363   7.539  0.6442 -0.6582  0.0657
 7844SOL    HW134991   0.509   2.411   7.460  0.8540 -0.8762 -0.0031
 7844SOL    HW234992   0.571   2.328   7.562  1.2832 -0.6533 -2.3089
 7845SOL     OW34993   2.090   1.646   5.343  0.1866  0.2212  0.1618
 7845SOL    HW134994   2.059   1.581   5.280 -2.7735  2.1059 -0.3585
 7845SOL    HW234995   2.129   1.589   5.410  0.2919  0.1378  0.0284
 7846SOL     OW34996   2.620   3.778   3.862  0.1074  0.0162  0.5401
 7846SOL    HW134997   2.561   3.702   3.860  1.0754 -0.7543  1.1352
 7846SOL    HW234998   2.602   3.797   3.954 -0.8217  3.1646 -0.2846
 7847SOL     OW34999   1.320   3.860   8.485  0.2729 -0.5516 -0.1950
 7847SOL    HW135000   1.398   3.907   8.513  0.0697 -2.3279  3.3001
 7847SOL    HW235001   1.323   3.769   8.513  0.2948 -0.4271  0.2129
 7848SOL     OW35002   1.014   4.140  11.640 -0.2853  0.5103  0.5273
 7848SOL    HW135003   0.933   4.090  11.650  0.3795 -0.4932  0.9343
 7848SOL    HW235004   1.012   4.168  11.549  1.2583 -0.3572  0.2197
 7849SOL     OW35005   0.828   0.837   3.612  0.8062  0.0613 -0.2247
 7849SOL    HW135006   0.849   0.880   3.695 -0.3173  1.4688 -0.6741
 7849SOL    HW235007   0.906   0.789   3.585  2.1419  2.5563 -0.8128
 7850SOL     OW35008   3.509   3.467   6.365 -0.1390 -0.0560 -0.2720
 7850SOL    HW135009   3.542   3.400   6.305  2.6863  1.5124 -0.4832
 7850SOL    HW235010   3.415   3.464   6.346  0.0590  1.1346 -1.4474
 7851SOL     OW35011   0.259   3.721  12.097 -0.3955  0.4270 -0.3355
 7851SOL    HW135012   0.216   3.778  12.161 -1.3992  0.3645 -0.9514
 7851SOL    HW235013   0.286   3.650  12.154 -0.4342  0.0158 -0.8227
 7852SOL     OW35014   1.815   3.740   5.125  0.4076 -0.1578 -0.0495
 7852SOL    HW135015   1.861   3.816   5.160  0.1865 -0.1703  0.2672
 7852SOL    HW235016   1.812   3.747   5.029 -1.0041 -2.5619 -0.1885
 7853SOL     OW35017   3.440   0.834   6.074  0.4980  0.0036 -0.0441
 7853SOL    HW135018   3.482   0.852   5.990 -1.9739  0.7669 -1.1218
 7853SOL    HW235019   3.348   0.841   6.049  0.8905  1.7736 -1.0086
 7854SOL     OW35020   1.584   2.362   1.507  0.2004 -0.2975  0.4174
 7854SOL    HW135021   1.549   2.446   1.535 -1.1101 -0.5290 -0.5259
 7854SOL    HW235022   1.500   2.318   1.497 -1.0328  1.8629  1.4679
 7855SOL     OW35023   0.765   0.575   0.785 -0.5143 -0.5049  0.2551
 7855SOL    HW135024   0.731   0.608   0.868  2.7060  0.2858  1.2856
 7855SOL    HW235025   0.825   0.648   0.769  1.9221 -2.5613 -0.0721
 7856SOL     OW35026   3.205   2.047  13.853  0.1225 -0.2418 -0.8526
 7856SOL    HW135027   3.200   2.135  13.889 -2.0886 -0.7958  0.1931
 7856SOL    HW235028   3.292   2.018  13.879 -0.4410 -0.1719  1.0892
 7857SOL     OW35029   4.307   0.035  11.340 -0.1704  0.1577 -0.1839
 7857SOL    HW135030   4.401   0.036  11.359  0.1315  2.4441 -1.8069
 7857SOL    HW235031   4.280   0.046  11.431 -0.5545 -2.2242 -0.0093
 7858SOL     OW35032   1.421   4.695  16.529  0.6714 -0.5934 -0.4415
 7858SOL    HW135033   1.396   0.056  16.560 -0.7962 -1.8782  1.9033
 7858SOL    HW235034   1.502   4.707  16.480  0.4494  0.1172 -0.6365
 7859SOL     OW35035   1.288   3.480  16.971 -0.0059  0.1470 -0.2360
 7859SOL    HW135036   1.310   3.413  16.906 -3.0927  0.6157 -1.7871
 7859SOL    HW235037   1.277   3.557  16.915  0.2176 -0.1027 -0.6242
 7860SOL     OW35038   1.931   1.569   5.977 -0.3950 -0.1367  0.1908
 7860SOL    HW135039   1.940   1.587   5.884  0.1739  0.1833  0.3104
 7860SOL    HW235040   1.898   1.479   5.979  0.6059 -0.4889  0.8087
 7861SOL     OW35041   1.396   1.549  17.008  0.2322  0.2367 -0.8900
 7861SOL    HW135042   1.317   1.600  17.025  0.4855 -0.4204  2.2763
 7861SOL    HW235043   1.365   1.459  16.997  0.8463 -0.1356  0.4200
 7862SOL     OW35044   2.181   3.049   9.521  0.2804  0.5210  0.0346
 7862SOL    HW135045   2.164   3.036   9.614  0.0554  2.1066  0.2063
 7862SOL    HW235046   2.104   3.097   9.489 -0.2827 -0.8516 -0.6930
 7863SOL     OW35047   1.422   3.209  11.188  0.1093  0.2752  0.3600
 7863SOL    HW135048   1.398   3.300  11.206  1.4531  0.1074  3.0028
 7863SOL    HW235049   1.514   3.215  11.213  1.0824 -1.4397 -2.7329
 7864SOL     OW35050   1.875   4.317   1.685  0.0493 -0.6358  0.0808
 7864SOL    HW135051   1.939   4.333   1.616  1.9123  1.3221  2.2555
 7864SOL    HW235052   1.807   4.363   1.636  0.7150  0.9754  0.6593
 7865SOL     OW35053   1.984   3.286   5.518  0.1707  0.1010  0.0246
 7865SOL    HW135054   2.049   3.215   5.511  0.1235 -0.0654  1.2484
 7865SOL    HW235055   2.040   3.362   5.506  0.2251  0.1236  0.4270
 7866SOL     OW35056   2.227   4.188   5.559  0.1730 -0.1241  0.0861
 7866SOL    HW135057   2.313   4.197   5.518 -0.2647  2.3550 -0.2664
 7866SOL    HW235058   2.195   4.276   5.577 -1.1959 -0.6992  0.4857
 7867SOL     OW35059   1.488   1.500   8.181  0.3109 -0.2616 -0.5259
 7867SOL    HW135060   1.539   1.553   8.242  0.9814 -1.4314 -0.0726
 7867SOL    HW235061   1.513   1.533   8.095 -0.8283 -0.0920 -0.7959
 7868SOL     OW35062   3.929   0.533   4.706  0.3805 -0.1084 -0.2677
 7868SOL    HW135063   3.908   0.490   4.623 -0.2567 -1.6335  0.6764
 7868SOL    HW235064   3.852   0.514   4.761 -0.4716  1.0482 -1.0699
 7869SOL     OW35065   0.034   1.825   4.523 -0.0481 -0.1326  0.2650
 7869SOL    HW135066   4.709   1.907   4.513 -0.8805 -0.8086 -1.0779
 7869SOL    HW235067   0.065   1.848   4.611  0.9542 -0.4863 -0.0011
 7870SOL     OW35068   4.122   0.593   2.648  0.2023 -0.1909  0.0856
 7870SOL    HW135069   4.100   0.501   2.658 -1.7160  0.0999 -1.4215
 7870SOL    HW235070   4.107   0.638   2.731 -1.3373  2.2236 -1.5096
 7871SOL     OW35071   2.284   2.507   1.958  0.2519  0.0443  0.1512
 7871SOL    HW135072   2.371   2.469   1.946 -0.5421 -1.2344 -1.5417
 7871SOL    HW235073   2.260   2.446   2.029  3.4064  0.2636  1.4175
 7872SOL     OW35074   4.541   2.962  12.616  0.5513  0.1237  0.5320
 7872SOL    HW135075   4.547   2.870  12.590 -2.3702 -0.8413  3.3187
 7872SOL    HW235076   4.448   2.980  12.604  0.4765 -1.0494 -0.6273
 7873SOL     OW35077   3.706   2.795   0.422  0.0539 -0.6214  0.0273
 7873SOL    HW135078   3.628   2.740   0.425  1.5705 -2.5602  3.2537
 7873SOL    HW235079   3.677   2.884   0.402  1.3836 -0.1554  0.1912
 7874SOL     OW35080   0.298   3.134   9.095  0.1065  0.1967  0.1542
 7874SOL    HW135081   0.293   3.167   9.005 -1.3725 -1.4723 -0.3551
 7874SOL    HW235082   0.206   3.141   9.120  0.7827  1.2379  2.3860
 7875SOL     OW35083   2.288   1.087   8.438 -0.3070  0.6288  0.0350
 7875SOL    HW135084   2.253   1.130   8.516 -2.0936  0.0814 -0.4778
 7875SOL    HW235085   2.379   1.110   8.459 -0.3366  0.9029 -0.1321
 7876SOL     OW35086   2.976   1.038  14.379  0.0178  0.0949  0.8347
 7876SOL    HW135087   2.989   1.126  14.413 -3.4902  1.1497 -0.5166
 7876SOL    HW235088   3.013   0.978  14.443 -1.4039 -2.0326 -0.3443
 7877SOL     OW35089   1.952   1.419   3.193 -0.1494  0.6932 -0.4164
 7877SOL    HW135090   1.936   1.431   3.287 -0.7770  0.9745 -0.5577
 7877SOL    HW235091   2.041   1.384   3.194 -1.4454 -2.5791 -1.3649
 7878SOL     OW35092   1.069   3.865   8.047 -0.0886  0.0631 -0.1118
 7878SOL    HW135093   1.080   3.861   8.142  0.8547 -0.2996 -0.2369
 7878SOL    HW235094   1.042   3.773   8.040 -1.3400  0.5206 -1.1852
 7879SOL     OW35095   2.157   0.173   8.222  0.3382 -0.5859 -0.5610
 7879SOL    HW135096   2.226   0.238   8.236  0.0085  0.0671 -1.9479
 7879SOL    HW235097   2.124   0.171   8.312  0.9017  1.1579 -0.3136
 7880SOL     OW35098   3.192   4.457   7.097  0.0853  0.2395 -0.3851
 7880SOL    HW135099   3.248   4.535   7.093  2.1908 -1.2807 -0.4911
 7880SOL    HW235100   3.107   4.485   7.063 -0.7077  2.3233  3.3907
 7881SOL     OW35101   4.514   1.025   5.206  0.1316 -0.2855 -0.0338
 7881SOL    HW135102   4.484   0.971   5.133 -1.4823 -0.1569  0.5247
 7881SOL    HW235103   4.480   1.111   5.183  0.8966  0.1324  0.3811
 7882SOL     OW35104   1.627   2.397   1.991 -0.5483 -0.1880 -0.4910
 7882SOL    HW135105   1.605   2.314   2.032  0.1367  0.7907  1.8458
 7882SOL    HW235106   1.599   2.397   1.900 -1.1804 -0.9058 -0.2921
 7883SOL     OW35107   1.683   1.924   7.681 -0.5147  0.2865  0.3813
 7883SOL    HW135108   1.760   1.877   7.650  0.2394 -0.9441  4.0961
 7883SOL    HW235109   1.636   1.950   7.602 -1.4636  0.8858  1.1438
 7884SOL     OW35110   1.521   2.198   3.193 -0.6891  0.4766 -0.2297
 7884SOL    HW135111   1.428   2.178   3.183 -0.0107 -2.1222 -1.3096
 7884SOL    HW235112   1.529   2.209   3.288 -1.6605  0.6999 -0.1673
 7885SOL     OW35113   0.915   2.909   2.721 -0.4965  0.3027 -0.0997
 7885SOL    HW135114   0.870   2.970   2.781 -1.4361  2.0993 -2.6342
 7885SOL    HW235115   1.005   2.934   2.740 -1.0211  1.5482  0.8190
 7886SOL     OW35116   3.677   0.850   4.851 -0.0272  0.3208  0.0115
 7886SOL    HW135117   3.708   0.837   4.761 -2.4815  0.8793 -0.9367
 7886SOL    HW235118   3.691   0.766   4.894  0.7400 -0.5442 -1.9175
 7887SOL     OW35119   3.676   0.828  11.276 -0.6172  0.3128  0.0322
 7887SOL    HW135120   3.696   0.890  11.346  1.7165 -1.5932  1.0237
 7887SOL    HW235121   3.744   0.853  11.213 -0.1575 -2.6530 -0.6644
 7888SOL     OW35122   1.055   4.718   7.096 -0.2530 -0.2691 -0.0612
 7888SOL    HW135123   1.113   0.005   7.022  0.6960 -1.3812  0.5064
 7888SOL    HW235124   1.016   4.631   7.086 -2.1125  0.4038  1.2295
 7889SOL     OW35125   3.051   3.023  10.986  0.2613  0.5849 -0.3006
 7889SOL    HW135126   2.997   3.035  10.908 -1.1929  1.5408  0.8339
 7889SOL    HW235127   3.030   2.932  11.005  0.3098  0.2026 -2.1254
 7890SOL     OW35128   2.525   3.477   8.309  0.5949  0.0530 -0.4029
 7890SOL    HW135129   2.556   3.401   8.260 -0.2089 -0.6358  0.1621
 7890SOL    HW235130   2.562   3.549   8.258  2.2455  0.2221  1.0307
 7891SOL     OW35131   1.146   4.491   3.916  0.3120 -0.8594 -0.0871
 7891SOL    HW135132   1.128   4.503   4.009 -1.1062 -0.2283 -0.4497
 7891SOL    HW235133   1.241   4.503   3.916  0.3841 -1.4649 -0.3853
 7892SOL     OW35134   1.929   4.103  17.359 -0.0974 -0.1126  0.1505
 7892SOL    HW135135   1.906   4.137  17.445  2.8184  0.3019  0.7582
 7892SOL    HW235136   1.902   4.181  17.310 -0.5041  0.1801  0.8439
 7893SOL     OW35137   0.793   0.926  13.799  0.3170  0.4475 -0.2165
 7893SOL    HW135138   0.733   0.902  13.870  0.6382  0.4187  0.0453
 7893SOL    HW235139   0.757   1.012  13.777  1.2366  1.6504  2.9433
 7894SOL     OW35140   2.815   1.548   8.300  0.7698  0.3314  0.0380
 7894SOL    HW135141   2.744   1.552   8.235  1.5312 -0.5739 -0.8451
 7894SOL    HW235142   2.899   1.568   8.260  0.0342  3.0519 -0.1411
 7895SOL     OW35143   1.850   0.682  11.441  0.4041  0.2779  0.2606
 7895SOL    HW135144   1.930   0.697  11.491  0.6707 -2.6494  0.7321
 7895SOL    HW235145   1.837   0.587  11.450  1.7631 -0.0774 -1.5672
 7896SOL     OW35146   4.491   2.438   6.497 -0.4881  0.2418 -0.3372
 7896SOL    HW135147   4.430   2.403   6.432  1.9852 -0.1178 -2.5009
 7896SOL    HW235148   4.452   2.525   6.501  0.6167  0.7248 -0.1861
 7897SOL     OW35149   1.103   0.216  17.617 -0.4760  0.3790  0.1989
 7897SOL    HW135150   1.044   0.145  17.643  0.2392 -1.2359 -2.6721
 7897SOL    HW235151   1.184   0.165  17.622  0.3512  1.6313 -0.5349
 7898SOL     OW35152   3.818   4.276  17.441 -0.0670 -0.0143  0.1770
 7898SOL    HW135153   3.901   4.322  17.427  0.1205 -0.3857  0.0711
 7898SOL    HW235154   3.821   4.260  17.535 -1.9616  0.8955  0.3711
 7899SOL     OW35155   0.221   1.177   7.038 -0.1313  0.3752  0.5735
 7899SOL    HW135156   0.190   1.089   7.017 -1.0162  0.8363 -0.0566
 7899SOL    HW235157   0.198   1.223   6.957  1.9302 -1.0863 -0.8212
 7900SOL     OW35158   2.788   2.823   9.486 -0.3130  0.0262  0.0261
 7900SOL    HW135159   2.809   2.916   9.492 -0.9472  0.1974 -0.3923
 7900SOL    HW235160   2.708   2.830   9.434 -0.6302 -0.2609  0.4729
 7901SOL     OW35161   1.847   0.566   1.750  0.4866 -0.5174 -0.0471
 7901SOL    HW135162   1.926   0.539   1.799  0.6705  0.4210  0.1704
 7901SOL    HW235163   1.830   0.650   1.792  0.2212 -0.7454  0.2977
 7902SOL     OW35164   0.397   3.828   4.910 -0.3076 -0.0869 -0.5829
 7902SOL    HW135165   0.322   3.776   4.879 -1.3034  0.3880  1.0022
 7902SOL    HW235166   0.348   3.909   4.926  0.8715  0.2485  1.2143
 7903SOL     OW35167   4.103   2.824   7.543 -0.1562 -0.3154 -0.7992
 7903SOL    HW135168   4.095   2.738   7.585 -1.1933 -0.3129 -0.9739
 7903SOL    HW235169   4.170   2.871   7.592  0.9466 -1.1344 -1.5341
 7904SOL     OW35170   3.304   3.198   3.562 -0.1337 -0.3061  0.3650
 7904SOL    HW135171   3.282   3.106   3.547  2.0140 -0.3811 -2.2904
 7904SOL    HW235172   3.378   3.186   3.622 -0.5699  1.9401  1.3568
 7905SOL     OW35173   3.652   0.400   1.019  0.1514 -0.1746  0.1762
 7905SOL    HW135174   3.560   0.386   0.995 -0.2201 -1.2226  2.1780
 7905SOL    HW235175   3.660   0.495   1.015 -0.0181 -0.0940  1.9533
 7906SOL     OW35176   0.837   4.053   2.069 -0.1419  0.0801  0.2298
 7906SOL    HW135177   0.911   4.089   2.117 -0.6347 -1.0815  1.8388
 7906SOL    HW235178   0.764   4.087   2.120 -2.2066 -1.5288 -1.6401
 7907SOL     OW35179   1.232   2.149   3.204  0.4697  0.2661 -0.4160
 7907SOL    HW135180   1.219   2.197   3.285 -2.6318 -2.0183  0.4427
 7907SOL    HW235181   1.196   2.205   3.135 -0.3538 -0.4755 -0.5890
 7908SOL     OW35182   4.379   2.162   0.713  0.4143  0.2527  0.4821
 7908SOL    HW135183   4.310   2.178   0.777 -0.1878 -1.9355  0.4026
 7908SOL    HW235184   4.356   2.221   0.641  1.2344 -0.3366 -0.2687
 7909SOL     OW35185   4.321   2.287  13.936 -0.3066  0.2561 -0.1356
 7909SOL    HW135186   4.412   2.294  13.909 -0.3588 -0.0257 -0.3926
 7909SOL    HW235187   4.326   2.352  14.006 -1.6839  0.1069  0.1034
 7910SOL     OW35188   3.757   0.092  14.399  0.3408 -0.0254 -0.1573
 7910SOL    HW135189   3.781   0.008  14.360 -1.4243 -1.0989  1.0502
 7910SOL    HW235190   3.830   0.152  14.383  0.1048  0.2777 -0.0965
 7911SOL     OW35191   0.149   2.742   8.693 -0.3651  0.3226 -0.1044
 7911SOL    HW135192   0.083   2.792   8.646  1.4554 -0.2552 -3.2625
 7911SOL    HW235193   0.095   2.664   8.706 -1.0583  0.6388 -1.0672
 7912SOL     OW35194   0.220   0.349   2.527  0.3153 -0.5723 -0.1586
 7912SOL    HW135195   0.226   0.422   2.589 -0.5772 -0.0185 -0.7344
 7912SOL    HW235196   0.146   0.383   2.476  1.2045 -0.2943 -1.2749
 7913SOL     OW35197   3.756   2.907   2.354  0.6027  0.0460 -0.0321
 7913SOL    HW135198   3.680   2.965   2.351 -1.7376 -2.8543  2.8857
 7913SOL    HW235199   3.823   2.975   2.347 -1.3561  1.9566 -0.0339
 7914SOL     OW35200   4.687   0.744   7.606 -0.7518  0.5118 -0.2813
 7914SOL    HW135201   4.678   0.649   7.607 -1.8287  0.6206  0.4451
 7914SOL    HW235202   4.600   0.766   7.638 -1.2705 -2.5017  0.3951
 7915SOL     OW35203   2.418   3.934   3.439  0.3621  0.1313  0.5970
 7915SOL    HW135204   2.434   3.966   3.528  0.4471 -0.4870  0.8034
 7915SOL    HW235205   2.471   3.992   3.384  0.4718 -2.4146 -1.9213
 7916SOL     OW35206   3.656   1.868   6.717  0.0678 -0.5586 -0.0785
 7916SOL    HW135207   3.575   1.837   6.757 -0.3037 -1.3546 -1.4240
 7916SOL    HW235208   3.712   1.794   6.742 -0.8809 -1.5437 -0.8659
 7917SOL     OW35209   3.386   2.255   3.550 -0.2729  0.4693  0.5977
 7917SOL    HW135210   3.360   2.163   3.552 -0.6273  0.5417 -0.6844
 7917SOL    HW235211   3.334   2.293   3.479 -0.0560 -2.1462 -0.9697
 7918SOL     OW35212   1.082   3.208   1.022  0.1644  0.0489  0.4099
 7918SOL    HW135213   1.061   3.115   1.027 -0.4132  0.1438 -0.2477
 7918SOL    HW235214   1.127   3.207   0.938  0.4088 -0.9712  0.5534
 7919SOL     OW35215   2.026   3.581   1.959 -0.1030 -0.3637  0.1060
 7919SOL    HW135216   1.977   3.529   1.894  0.6590  1.5553 -2.0012
 7919SOL    HW235217   2.045   3.512   2.022  1.6124  0.1976  0.1849
 7920SOL     OW35218   3.610   1.896   2.647 -0.6729 -0.1235 -0.0700
 7920SOL    HW135219   3.525   1.898   2.604 -0.0613 -0.4837 -1.2759
 7920SOL    HW235220   3.585   1.893   2.740 -2.0445  0.8837 -0.4208
 7921SOL     OW35221   1.034   1.150   1.882  0.8633 -0.3184 -0.0834
 7921SOL    HW135222   0.978   1.161   1.805 -0.0491  0.4737  0.6889
 7921SOL    HW235223   0.997   1.067   1.914 -0.7049  0.2354 -0.4365
 7922SOL     OW35224   4.083   0.397   6.959  0.2298 -0.2101 -0.2805
 7922SOL    HW135225   4.126   0.343   6.891  2.3861 -1.1680  1.8513
 7922SOL    HW235226   4.109   0.358   7.042  2.2708 -1.7130 -1.6111
 7923SOL     OW35227   4.427   2.855   9.430  0.1308 -0.5075  0.2535
 7923SOL    HW135228   4.414   2.904   9.349 -0.0581 -0.2944  0.4109
 7923SOL    HW235229   4.336   2.830   9.450 -0.5297  0.7469 -1.1757
 7924SOL     OW35230   4.598   3.961   6.000 -0.0672  0.3297  0.0772
 7924SOL    HW135231   4.608   4.002   5.914  0.9096  0.7604  0.3952
 7924SOL    HW235232   4.566   4.031   6.057 -2.1583 -0.2662 -0.3664
 7925SOL     OW35233   0.770   0.570   7.527 -0.0816  0.0601 -0.4832
 7925SOL    HW135234   0.718   0.499   7.566 -0.2235  0.6142  0.3432
 7925SOL    HW235235   0.799   0.533   7.444  2.0082 -0.7582  0.5789
 7926SOL     OW35236   2.383   2.011   8.144 -0.1565 -0.1027  0.3523
 7926SOL    HW135237   2.370   1.923   8.110 -0.4148  0.8470 -1.9744
 7926SOL    HW235238   2.408   1.992   8.235  2.3186  0.6281 -0.1823
 7927SOL     OW35239   4.320   2.857  15.696 -0.2055  0.4420 -0.0872
 7927SOL    HW135240   4.378   2.786  15.721  0.1683  1.0505  0.7966
 7927SOL    HW235241   4.381   2.930  15.705  1.0479 -0.6917  0.4836
 7928SOL     OW35242   2.558   0.925   4.009 -0.3804 -0.2468 -0.5112
 7928SOL    HW135243   2.601   0.841   4.025 -0.7478 -0.1039  1.2112
 7928SOL    HW235244   2.501   0.906   3.934 -0.8147  1.3113 -0.5800
 7929SOL     OW35245   2.274   4.591  11.431 -0.9742 -0.4789  0.4289
 7929SOL    HW135246   2.318   4.622  11.352  0.7327 -2.8847  0.4307
 7929SOL    HW235247   2.183   4.607  11.403 -0.5115  0.5556 -0.4678
 7930SOL     OW35248   3.085   2.936   6.862 -0.2492  0.3303  0.4027
 7930SOL    HW135249   3.029   2.858   6.860  0.8764 -0.4183 -1.7388
 7930SOL    HW235250   3.169   2.907   6.897  1.2512  2.8427 -1.1466
 7931SOL     OW35251   3.051   1.015   8.339 -0.0276  0.1253 -0.3301
 7931SOL    HW135252   3.032   0.931   8.380  0.3273  1.6839  3.0039
 7931SOL    HW235253   3.143   1.002   8.316 -0.5874 -0.3639 -2.3306
 7932SOL     OW35254   0.452   0.094   9.823  0.6087  0.1731  0.2291
 7932SOL    HW135255   0.412   0.154   9.887 -1.5802 -0.0940 -0.9001
 7932SOL    HW235256   0.377   0.035   9.810 -0.0156  1.1895 -0.8355
 7933SOL     OW35257   2.970   0.933   7.113 -0.0540  0.3368  0.4306
 7933SOL    HW135258   3.062   0.923   7.089 -0.0040  2.4514 -0.2062
 7933SOL    HW235259   2.943   0.983   7.035  0.8250  0.4784  0.2206
 7934SOL     OW35260   0.832   3.078   6.823  0.8319  0.6572 -0.0913
 7934SOL    HW135261   0.903   3.069   6.886  0.2890 -0.4775  0.3674
 7934SOL    HW235262   0.869   3.136   6.756 -0.0609  0.8409 -0.4231
 7935SOL     OW35263   4.281   4.081   9.660  0.2607  0.3243 -0.0477
 7935SOL    HW135264   4.284   3.988   9.683  2.3982  0.4694  0.2703
 7935SOL    HW235265   4.269   4.123   9.746  1.0200 -0.0324  0.2408
 7936SOL     OW35266   3.476   1.889  12.396  0.4542  0.0538 -0.1446
 7936SOL    HW135267   3.510   1.896  12.485 -1.4932  0.1973  0.6056
 7936SOL    HW235268   3.485   1.982  12.377  0.7703  0.3373  1.3977
 7937SOL     OW35269   2.631   2.124   6.244  0.2414 -0.0517  0.3506
 7937SOL    HW135270   2.555   2.168   6.283 -1.1612 -0.6830 -1.6024
 7937SOL    HW235271   2.710   2.162   6.281 -1.0724  0.1920  2.8809
 7938SOL     OW35272   2.378   1.585   4.314  0.5037 -0.2206  0.1734
 7938SOL    HW135273   2.324   1.573   4.236 -0.0123  0.1135  0.4764
 7938SOL    HW235274   2.317   1.624   4.376 -0.9181 -0.2666 -1.1833
 7939SOL     OW35275   3.488   3.806  10.176 -0.2480  0.0778  0.4731
 7939SOL    HW135276   3.573   3.762  10.172 -1.2721 -1.9091  0.6459
 7939SOL    HW235277   3.461   3.790  10.266 -1.1929 -0.3952  0.0995
 7940SOL     OW35278   0.337   3.246   7.294 -0.0798 -0.0514 -0.3656
 7940SOL    HW135279   0.340   3.231   7.200 -0.6216  1.2936 -0.5927
 7940SOL    HW235280   0.348   3.155   7.322  0.7655 -0.0408 -0.6796
 7941SOL     OW35281   0.699   0.917   3.958  0.3247  0.2200 -0.0045
 7941SOL    HW135282   0.737   0.968   4.030  1.2990 -0.3941 -0.0860
 7941SOL    HW235283   0.767   0.854   3.935 -0.0353 -0.1335 -0.1064
 7942SOL     OW35284   2.303   3.109   6.351 -0.6395  0.3325  0.2072
 7942SOL    HW135285   2.247   3.070   6.284 -0.3385 -0.0208  0.1610
 7942SOL    HW235286   2.299   3.050   6.426 -1.3697  0.2081  0.0690
 7943SOL     OW35287   4.160   3.829  11.004  0.1132 -0.6070 -0.3306
 7943SOL    HW135288   4.172   3.800  11.094  0.6787  0.7342  0.0362
 7943SOL    HW235289   4.083   3.880  11.031  1.0471  0.0907  1.0282
 7944SOL     OW35290   0.534   1.698   6.971 -0.3455 -0.2226 -0.5895
 7944SOL    HW135291   0.519   1.604   6.982  2.1473 -0.6461 -0.7540
 7944SOL    HW235292   0.505   1.707   6.881 -1.5343 -1.6112 -0.3249
 7945SOL     OW35293   1.887   0.194  17.087  0.4271 -0.7559  0.0665
 7945SOL    HW135294   1.793   0.211  17.093  0.4049 -1.1270  0.6944
 7945SOL    HW235295   1.921   0.282  17.101  2.4847 -1.3287 -1.2861
 7946SOL     OW35296   2.324   3.774   6.100  0.9627  0.2895 -0.2550
 7946SOL    HW135297   2.410   3.731   6.100  1.2715  0.8626  2.3402
 7946SOL    HW235298   2.262   3.702   6.098  0.1316  1.0323 -0.7969
 7947SOL     OW35299   3.449   0.453  10.309 -0.0433  0.5607  0.6449
 7947SOL    HW135300   3.365   0.492  10.333 -1.6327 -2.0937 -0.5782
 7947SOL    HW235301   3.464   0.400  10.387  0.9168  0.1555  0.1872
 7948SOL     OW35302   2.289   3.614  14.066  0.0359 -0.3978  0.9443
 7948SOL    HW135303   2.216   3.675  14.068  1.3318  1.2143 -0.8221
 7948SOL    HW235304   2.286   3.561  14.146 -1.5006 -2.0771 -0.2114
 7949SOL     OW35305   2.086   1.020   4.092  0.1825  0.2840  0.3547
 7949SOL    HW135306   2.015   1.034   4.156 -0.1883  2.5300 -0.5369
 7949SOL    HW235307   2.108   0.930   4.115 -1.9914 -1.1587 -3.3102
 7950SOL     OW35308   4.639   3.425   8.446  1.0167 -0.5679 -0.3544
 7950SOL    HW135309   4.657   3.435   8.352 -0.0776 -1.3842 -0.6522
 7950SOL    HW235310   4.653   3.517   8.469  0.9822 -0.1798 -1.9032
 7951SOL     OW35311   1.805   0.837  15.289 -0.1111 -0.3641 -0.4891
 7951SOL    HW135312   1.870   0.892  15.245 -0.2221 -0.9325 -1.3685
 7951SOL    HW235313   1.736   0.855  15.225  0.0926  0.4185 -0.4900
 7952SOL     OW35314   2.105   4.562   6.102 -0.2223 -0.9324 -0.8799
 7952SOL    HW135315   2.130   4.573   6.193  2.5156 -1.9558 -1.5283
 7952SOL    HW235316   2.193   4.537   6.074  0.5506 -0.1055  0.8296
 7953SOL     OW35317   2.297   2.084   8.658 -0.0004 -0.4191  0.4419
 7953SOL    HW135318   2.330   2.041   8.579  0.6414  1.0605 -0.1007
 7953SOL    HW235319   2.357   2.158   8.670 -1.1887  0.1472  2.7596
 7954SOL     OW35320   3.360   4.013   1.096 -0.1579 -0.5710 -0.3264
 7954SOL    HW135321   3.410   4.020   1.176  1.4503  0.3658 -1.4235
 7954SOL    HW235322   3.380   3.922   1.075  0.2057 -0.7668  0.9021
 7955SOL     OW35323   2.544   0.179   6.410 -0.1802 -0.1466 -0.5586
 7955SOL    HW135324   2.573   0.210   6.496  1.1193 -1.4844 -0.5218
 7955SOL    HW235325   2.619   0.204   6.357  1.2506 -1.8785  0.6439
 7956SOL     OW35326   2.979   4.212   2.241 -0.0288  0.2779  0.3727
 7956SOL    HW135327   3.072   4.226   2.259  0.4102  0.3750 -1.9988
 7956SOL    HW235328   2.963   4.280   2.176  1.5814  1.2881  1.0397
 7957SOL     OW35329   2.481   2.529   7.124  0.0743 -0.6176  0.0441
 7957SOL    HW135330   2.436   2.453   7.086  0.2261 -1.4298  1.4814
 7957SOL    HW235331   2.538   2.493   7.192  1.5452 -0.7251 -1.2692
 7958SOL     OW35332   0.241   0.880   8.660 -0.0683 -0.4787  0.6569
 7958SOL    HW135333   0.307   0.937   8.620 -0.0489 -1.7390 -1.0783
 7958SOL    HW235334   0.179   0.881   8.587 -1.7713  0.3668  2.1156
 7959SOL     OW35335   2.182   2.699  16.484  0.3307  0.6267  0.6013
 7959SOL    HW135336   2.143   2.643  16.550 -0.6567  2.1549  1.3050
 7959SOL    HW235337   2.101   2.726  16.441  0.7986  1.5607  0.2945
 7960SOL     OW35338   3.749   1.024  16.781  0.2424 -0.4495 -0.0965
 7960SOL    HW135339   3.697   0.988  16.709 -0.2891 -1.2722  0.7102
 7960SOL    HW235340   3.829   1.026  16.727  0.2449 -0.9144 -0.1090
 7961SOL     OW35341   0.959   3.900  17.618  0.6260  0.3782  0.0416
 7961SOL    HW135342   0.942   3.903   0.010  1.2085 -0.8811  0.1834
 7961SOL    HW235343   1.021   3.828  17.621 -0.6268 -0.8060 -2.2338
 7962SOL     OW35344   2.561   1.991   8.996 -1.2122 -0.6243 -0.2328
 7962SOL    HW135345   2.586   2.079   8.967  0.0425 -0.1484  2.2692
 7962SOL    HW235346   2.583   1.994   9.089  0.6515 -1.3533 -0.6633
 7963SOL     OW35347   3.721   2.336   2.327 -0.0889  0.3784  0.6830
 7963SOL    HW135348   3.727   2.256   2.379  3.3689 -0.2364 -0.6623
 7963SOL    HW235349   3.628   2.356   2.321  0.5946  2.8070 -1.5752
 7964SOL     OW35350   2.323   1.876   6.311 -0.1524  0.4642 -0.1778
 7964SOL    HW135351   2.384   1.805   6.291 -1.7061 -1.0254  0.4211
 7964SOL    HW235352   2.326   1.933   6.234 -1.1859 -1.2491 -1.5043
 7965SOL     OW35353   4.235   3.684   3.786  0.1245 -0.4048 -0.4889
 7965SOL    HW135354   4.301   3.621   3.815  1.0935  1.1147  0.5845
 7965SOL    HW235355   4.196   3.646   3.707 -4.2122 -0.8575  1.8890
 7966SOL     OW35356   4.242   1.536   4.233  0.0573 -0.0876  0.2380
 7966SOL    HW135357   4.244   1.445   4.262  2.7097  0.6344  2.3069
 7966SOL    HW235358   4.202   1.582   4.306  3.1942 -0.0798  1.9454
 7967SOL     OW35359   2.501   2.161   5.035  0.0206  0.1158 -0.2290
 7967SOL    HW135360   2.446   2.084   5.048  0.7201 -0.3122  0.1636
 7967SOL    HW235361   2.434   2.230   5.033  0.7439  0.8373  0.3096
 7968SOL     OW35362   3.300   1.009   4.094  0.1930 -0.4004  0.1594
 7968SOL    HW135363   3.357   0.936   4.068 -2.1227 -2.2392  0.2970
 7968SOL    HW235364   3.216   0.975   4.064 -0.7171  1.9779  0.0377
 7969SOL     OW35365   1.198   2.146  14.280  0.2313 -0.1166 -0.5561
 7969SOL    HW135366   1.183   2.075  14.218  1.0531 -0.3176 -0.5300
 7969SOL    HW235367   1.293   2.153  14.281  0.3646 -2.0352  2.4449
 7970SOL     OW35368   1.095   3.699   5.963 -0.0383 -0.2113 -0.2490
 7970SOL    HW135369   1.036   3.763   5.924  0.6852  1.3238  1.2036
 7970SOL    HW235370   1.182   3.725   5.931  0.2616  0.5683  1.1878
 7971SOL     OW35371   1.519   3.925   5.399  0.2469  0.2560 -0.0550
 7971SOL    HW135372   1.506   3.843   5.351  0.8635  0.3197 -0.3326
 7971SOL    HW235373   1.520   3.899   5.492  0.7117 -0.7717 -0.3514
 7972SOL     OW35374   3.367   2.656   9.643  0.3860 -0.1179  0.0324
 7972SOL    HW135375   3.390   2.628   9.732 -2.2244 -1.5777  0.2543
 7972SOL    HW235376   3.279   2.618   9.637  0.5853 -0.6563  0.5095
 7973SOL     OW35377   2.471   0.508   4.728 -0.2312  0.0078  0.2837
 7973SOL    HW135378   2.478   0.524   4.634  0.6301 -1.5876  0.0816
 7973SOL    HW235379   2.475   0.597   4.763  2.7144 -0.4513  1.1181
 7974SOL     OW35380   3.063   3.853  16.494 -0.2794  0.5068  0.4040
 7974SOL    HW135381   3.036   3.767  16.524  0.2248  0.3328  0.3620
 7974SOL    HW235382   3.150   3.849  16.534 -2.4570 -0.4075  5.0961
 7975SOL     OW35383   4.095   1.824  10.591  0.0989 -0.0610  0.0015
 7975SOL    HW135384   4.059   1.907  10.559 -1.2268 -1.1539 -1.3209
 7975SOL    HW235385   4.010   1.789  10.617  0.3526 -1.7786 -1.5211
 7976SOL     OW35386   0.623   1.745   1.034 -0.0172 -0.0615 -0.4075
 7976SOL    HW135387   0.563   1.790   1.093  1.7414  0.3471  1.0513
 7976SOL    HW235388   0.705   1.757   1.083  0.6350 -1.6654 -1.0880
 7977SOL     OW35389   1.721   3.412  11.020 -0.0959  0.0600 -0.2382
 7977SOL    HW135390   1.734   3.409  11.115 -0.4120 -0.8408 -0.2252
 7977SOL    HW235391   1.769   3.489  10.992  0.3075 -0.0140  0.2413
 7978SOL     OW35392   2.426   4.156   2.574 -0.1326 -0.1485 -0.3609
 7978SOL    HW135393   2.353   4.137   2.633 -0.3612 -0.4014 -0.7264
 7978SOL    HW235394   2.406   4.091   2.506 -2.5473 -0.3170  0.5076
 7979SOL     OW35395   3.982   1.432   4.393 -0.0559  0.0420 -0.0042
 7979SOL    HW135396   3.955   1.396   4.477 -1.0658 -0.7256 -0.6636
 7979SOL    HW235397   3.901   1.468   4.358  0.4166  2.0336  0.9987
 7980SOL     OW35398   3.316   2.569   4.965 -0.3926  0.1020 -0.0959
 7980SOL    HW135399   3.398   2.611   4.990  0.0911  0.1045 -1.6472
 7980SOL    HW235400   3.339   2.478   4.986  1.3824  0.5115 -0.2780
 7981SOL     OW35401   3.001   3.142   7.046 -0.1594 -0.1353 -0.7088
 7981SOL    HW135402   2.934   3.206   7.019 -0.9094 -1.0479 -1.0041
 7981SOL    HW235403   3.017   3.080   6.976 -2.0653  2.6854 -3.6388
 7982SOL     OW35404   2.416   2.111  15.081 -0.5980 -0.2901  0.2341
 7982SOL    HW135405   2.429   2.031  15.132 -2.1755 -0.5522  0.2232
 7982SOL    HW235406   2.447   2.085  14.994  3.7902  1.5084  1.2708
 7983SOL     OW35407   0.271   2.065   4.478  0.2512  0.3015  0.4258
 7983SOL    HW135408   0.180   2.093   4.474  0.4988  1.3009  1.7053
 7983SOL    HW235409   0.316   2.146   4.455 -0.6653 -0.4547 -3.9191
 7984SOL     OW35410   3.746   2.642  10.593  0.1145 -0.6477  0.2633
 7984SOL    HW135411   3.664   2.686  10.614  0.4579 -0.2181  0.7068
 7984SOL    HW235412   3.715   2.551  10.590  1.1603 -1.0449  1.3934
 7985SOL     OW35413   0.506   2.152  12.048  0.3592  0.3593 -0.1997
 7985SOL    HW135414   0.411   2.161  12.049  0.4056  0.9048 -0.7098
 7985SOL    HW235415   0.516   2.057  12.042  1.6958  0.4421  0.6245
 7986SOL     OW35416   4.673   3.005   3.645 -0.2488 -0.9371 -0.0794
 7986SOL    HW135417   4.590   3.003   3.692 -0.6870 -1.1903 -0.8741
 7986SOL    HW235418   4.652   2.949   3.570 -1.1368 -0.3724 -0.2407
 7987SOL     OW35419   3.820   1.825   3.281  0.0283  0.2869 -0.3890
 7987SOL    HW135420   3.914   1.808   3.292 -0.0433 -0.0464 -0.2922
 7987SOL    HW235421   3.820   1.921   3.286  1.2592  0.2797 -0.3413
 7988SOL     OW35422   3.806   1.689   1.164 -0.1087 -0.5387 -0.3337
 7988SOL    HW135423   3.728   1.641   1.133  1.3836 -2.1187 -1.6509
 7988SOL    HW235424   3.818   1.635   1.242 -0.7367  2.1898  1.6378
 7989SOL     OW35425   4.160   1.455   2.641 -0.5567  0.1806 -0.3624
 7989SOL    HW135426   4.069   1.454   2.612 -0.9899  2.8390  1.0118
 7989SOL    HW235427   4.192   1.369   2.611  2.1029  0.6598  1.0680
 7990SOL     OW35428   2.903   4.606  10.431 -0.1872 -0.2548 -0.0301
 7990SOL    HW135429   2.871   4.625  10.342 -0.0698 -1.0802 -0.2492
 7990SOL    HW235430   2.866   4.520  10.451  0.5116 -0.4773  0.3032
 7991SOL     OW35431   1.331   3.137   4.548  0.3687 -0.3648  0.3799
 7991SOL    HW135432   1.424   3.158   4.543 -0.0480  0.9650 -1.7719
 7991SOL    HW235433   1.316   3.180   4.632 -0.7081 -1.2477  0.6304
 7992SOL     OW35434   3.245   0.175  10.583 -0.0626 -0.3540 -0.5238
 7992SOL    HW135435   3.269   0.248  10.528 -0.9671 -1.0530 -1.8384
 7992SOL    HW235436   3.329   0.131  10.598  1.1654  2.1710 -0.1612
 7993SOL     OW35437   1.642   0.027  16.381 -0.0039  1.1849  0.1313
 7993SOL    HW135438   1.728   0.054  16.412  0.6234 -1.2514  0.4977
 7993SOL    HW235439   1.648   0.035  16.286 -1.2752  1.9467  0.1070
 7994SOL     OW35440   3.773   2.723   9.603  0.4038  0.1906  0.1366
 7994SOL    HW135441   3.850   2.779   9.605  1.6059 -1.4544 -0.2923
 7994SOL    HW235442   3.747   2.720   9.696 -1.3319  2.1438 -0.2913
 7995SOL     OW35443   1.898   3.424   8.613  0.3856  0.6434  0.4884
 7995SOL    HW135444   1.874   3.388   8.528  0.1455 -0.5052  1.0361
 7995SOL    HW235445   1.904   3.341   8.661 -0.1033  0.4400  0.1944
 7996SOL     OW35446   1.198   3.085  11.336  0.2464  0.2921 -0.7018
 7996SOL    HW135447   1.274   3.059  11.285 -0.0663 -0.3580 -0.8370
 7996SOL    HW235448   1.223   3.022  11.404  0.3734  0.2052 -0.8294
 7997SOL     OW35449   1.799   4.493   7.054 -0.5064  0.2104 -0.1591
 7997SOL    HW135450   1.743   4.483   7.131  2.0666  1.6645  1.8917
 7997SOL    HW235451   1.741   4.528   6.987 -1.1966 -2.0343 -0.7572
 7998SOL     OW35452   2.747   1.432   0.614  0.6356  0.2770  0.1655
 7998SOL    HW135453   2.729   1.345   0.651  1.7874 -0.8457 -1.9097
 7998SOL    HW235454   2.656   1.462   0.620  0.7876  0.6681  0.5889
 7999SOL     OW35455   1.014   0.467   2.123  0.7665 -0.8687 -0.1124
 7999SOL    HW135456   0.941   0.488   2.065  0.3456  1.7360  1.3593
 7999SOL    HW235457   1.010   0.372   2.136 -0.3905 -0.9842 -1.3628
 8000SOL     OW35458   4.680   3.474   7.274  0.4403  0.0881  0.9975
 8000SOL    HW135459   4.661   3.419   7.350  0.1704 -2.1781 -0.6701
 8000SOL    HW235460   4.604   3.448   7.222  0.8976  1.5135 -0.3866
 8001SOL     OW35461   4.261   3.940   5.673  0.0590 -0.1914 -0.0363
 8001SOL    HW135462   4.281   3.888   5.595  0.5855 -0.3199  0.1818
 8001SOL    HW235463   4.343   3.988   5.681 -0.6791  0.8248  1.4503
 8002SOL     OW35464   0.030   0.540   5.987 -0.1532 -0.1219 -0.5676
 8002SOL    HW135465   4.659   0.543   5.984 -0.2118 -2.0159 -0.1955
 8002SOL    HW235466   0.048   0.520   6.079 -0.7309  1.6743 -0.0598
 8003SOL     OW35467   0.985   1.825  13.727 -0.5102  0.1475 -0.2923
 8003SOL    HW135468   1.057   1.875  13.764  0.2470 -1.5695  0.5344
 8003SOL    HW235469   0.985   1.747  13.782  0.6372 -0.4267 -1.1050
 8004SOL     OW35470   1.820   2.482   5.021  0.4534  0.2504 -0.4804
 8004SOL    HW135471   1.808   2.397   5.063 -2.5098 -0.3432 -2.5889
 8004SOL    HW235472   1.804   2.547   5.089 -3.2280 -1.1474 -0.0211
 8005SOL     OW35473   2.837   3.465   3.360  0.3424 -0.3895  0.4810
 8005SOL    HW135474   2.928   3.448   3.382  0.4681  0.9850  1.0374
 8005SOL    HW235475   2.847   3.540   3.302  1.2112  0.3378  1.5624
 8006SOL     OW35476   4.166   0.107   2.087 -0.3800  0.4218 -0.4771
 8006SOL    HW135477   4.122   0.192   2.078 -0.2927  0.5776  0.6371
 8006SOL    HW235478   4.259   0.130   2.089 -0.6938  1.4505  1.7415
 8007SOL     OW35479   1.937   0.329   4.329 -0.5232  0.3097  0.5649
 8007SOL    HW135480   2.029   0.310   4.349  0.0381  0.9776 -1.3657
 8007SOL    HW235481   1.921   0.288   4.244  0.9737  0.2880  0.3014
 8008SOL     OW35482   2.633   4.053  12.706 -0.2206 -0.0254  0.3465
 8008SOL    HW135483   2.625   4.018  12.617 -1.4958 -1.1230  0.8926
 8008SOL    HW235484   2.691   4.129  12.700 -1.8896  1.3552  1.5956
 8009SOL     OW35485   1.214   0.095   7.604  0.2190 -0.8670  0.7738
 8009SOL    HW135486   1.181   0.177   7.641 -0.1389 -1.0396  0.8402
 8009SOL    HW235487   1.150   0.073   7.536  0.0090  2.4654 -0.1223
 8010SOL     OW35488   2.859   4.098   4.426 -0.5928  0.2244 -0.0254
 8010SOL    HW135489   2.857   4.171   4.488 -1.0671  0.0047  0.2236
 8010SOL    HW235490   2.803   4.132   4.356 -1.4922 -0.6655  0.2465
 8011SOL     OW35491   0.501   2.348   6.127  0.0092 -0.0212 -0.2384
 8011SOL    HW135492   0.489   2.269   6.074 -1.4030 -0.6974  1.0905
 8011SOL    HW235493   0.512   2.302   6.210  0.7139  3.0129  1.3416
 8012SOL     OW35494   3.134   4.594  10.641  0.3955 -0.5464 -0.1662
 8012SOL    HW135495   3.191   4.519  10.653 -1.0146 -1.1474  2.8372
 8012SOL    HW235496   3.056   4.559  10.685  1.0894 -3.4246 -1.2502
 8013SOL     OW35497   1.201   3.816   2.598 -0.8014 -0.0863  0.0174
 8013SOL    HW135498   1.211   3.910   2.580  1.8257 -0.1629  0.9156
 8013SOL    HW235499   1.141   3.810   2.672 -0.0838 -2.1510  0.4179
 8014SOL     OW35500   1.912   4.177  14.743  0.0591  0.6033  0.1193
 8014SOL    HW135501   2.004   4.202  14.744  0.3462 -0.4759  0.8466
 8014SOL    HW235502   1.869   4.263  14.742 -1.2806 -0.0823 -1.2596
 8015SOL     OW35503   2.835   4.351  10.185 -0.0688 -0.1949  0.0282
 8015SOL    HW135504   2.889   4.407  10.129  0.6500 -1.0581 -0.1343
 8015SOL    HW235505   2.881   4.340  10.268 -1.8659  1.1862  1.2184
 8016SOL     OW35506   2.739   0.423   7.966  0.0361  0.4352  0.5272
 8016SOL    HW135507   2.698   0.453   8.048 -0.4512  1.1740  0.0083
 8016SOL    HW235508   2.685   0.461   7.897  0.2394  0.1255  0.2005
 8017SOL     OW35509   4.062   1.102   7.211  0.2344  0.0784  0.4171
 8017SOL    HW135510   3.998   1.031   7.207  0.8403 -0.5035  1.0659
 8017SOL    HW235511   4.008   1.181   7.205  0.5793  0.0712 -2.8385
 8018SOL     OW35512   3.860   4.558   7.949 -0.6422 -0.0263 -0.0822
 8018SOL    HW135513   3.844   4.569   7.856 -2.2189  0.9517  0.3030
 8018SOL    HW235514   3.773   4.572   7.987 -0.8182 -2.9323  0.6376
 8019SOL     OW35515   4.581   0.143   9.126 -0.4050  0.4634 -0.5073
 8019SOL    HW135516   4.623   0.057   9.127  1.4557  1.3865  1.1306
 8019SOL    HW235517   4.494   0.131   9.089  0.2739 -1.1393 -1.5627
 8020SOL     OW35518   0.644   0.058   7.801 -0.3379 -0.8374 -0.3534
 8020SOL    HW135519   0.549   0.050   7.810 -0.3661 -0.3064 -0.1600
 8020SOL    HW235520   0.652   0.084   7.710  1.6293 -2.2237 -0.5870
 8021SOL     OW35521   4.223   1.907   0.195 -0.0473 -0.8631 -0.0119
 8021SOL    HW135522   4.277   1.845   0.244 -0.7027 -2.5532 -1.4336
 8021SOL    HW235523   4.182   1.855   0.126 -1.7109 -0.4699  0.6647
 8022SOL     OW35524   0.575   2.584  16.800  0.0670 -0.2142  0.3782
 8022SOL    HW135525   0.535   2.545  16.878 -4.0223 -0.6611 -1.9580
 8022SOL    HW235526   0.654   2.530  16.796  0.0278 -0.1832 -0.8816
 8023SOL     OW35527   2.980   1.504   6.761 -0.4300  0.0524 -0.1363
 8023SOL    HW135528   3.049   1.486   6.826  1.3184 -0.7448 -2.2160
 8023SOL    HW235529   2.980   1.600   6.759  0.4203  0.0429 -0.7052
 8024SOL     OW35530   4.672   3.456   4.935  0.0319  0.7790  0.3986
 8024SOL    HW135531   4.588   3.420   4.906  0.4393  0.8247 -0.8202
 8024SOL    HW235532   4.680   3.392   5.006  0.4544 -1.8408 -1.9948
 8025SOL     OW35533   3.417   3.229   0.401  0.0517 -0.1920  0.5180
 8025SOL    HW135534   3.439   3.178   0.323 -0.6100  0.6404 -0.2024
 8025SOL    HW235535   3.408   3.166   0.473  0.9916 -1.6502 -0.6301
 8026SOL     OW35536   3.241   4.219   8.115  0.0157  0.2435  0.0777
 8026SOL    HW135537   3.225   4.306   8.080  0.1596  0.1836 -0.1403
 8026SOL    HW235538   3.222   4.243   8.206  2.3463 -1.9330  1.1291
 8027SOL     OW35539   0.571   3.121   2.788  0.3924 -0.0760  0.1347
 8027SOL    HW135540   0.542   3.206   2.820  2.1660  0.4274  0.3867
 8027SOL    HW235541   0.493   3.094   2.739  1.6552  0.4280 -2.1555
 8028SOL     OW35542   2.442   4.097   1.528 -0.1643  0.0379 -0.2653
 8028SOL    HW135543   2.486   4.137   1.453  3.0628 -3.8085 -0.4167
 8028SOL    HW235544   2.519   4.057   1.569 -0.9161  0.1013  1.2178
 8029SOL     OW35545   3.599   2.317   9.229 -0.9681 -0.2959 -0.3113
 8029SOL    HW135546   3.634   2.377   9.295  0.6596 -1.5736  0.0106
 8029SOL    HW235547   3.606   2.366   9.147 -0.2735 -1.4194 -0.9360
 8030SOL     OW35548   1.961   1.378   7.994 -0.2741  0.1743 -0.3321
 8030SOL    HW135549   2.044   1.338   8.021 -0.4492  0.5580  0.7640
 8030SOL    HW235550   1.982   1.436   7.921 -0.3363  1.5393  0.7535
 8031SOL     OW35551   3.825   2.325  13.903 -0.1628 -0.4643 -0.0670
 8031SOL    HW135552   3.819   2.389  13.974  0.8101 -1.2659  0.7275
 8031SOL    HW235553   3.756   2.355  13.844  0.4073  0.7873 -0.0862
 8032SOL     OW35554   0.068   0.356   6.559  0.6167 -0.7720 -0.5031
 8032SOL    HW135555   0.149   0.350   6.508  1.2920 -1.9267  0.7233
 8032SOL    HW235556   0.100   0.399   6.638 -0.9804  0.3901 -0.4737
 8033SOL     OW35557   0.196   1.267   6.295 -0.3487  0.7040  0.2180
 8033SOL    HW135558   0.101   1.253   6.292 -0.7265  2.9347  1.9333
 8033SOL    HW235559   0.211   1.362   6.295  0.1802  0.6086 -1.6169
 8034SOL     OW35560   4.427   1.434   8.034  1.0762  0.0169 -0.2176
 8034SOL    HW135561   4.387   1.410   7.950  1.4990  1.7729 -0.9234
 8034SOL    HW235562   4.441   1.528   8.022 -2.1372  0.1521 -3.0381
 8035SOL     OW35563   3.709   2.068   2.463  0.5393 -0.4255 -0.0098
 8035SOL    HW135564   3.803   2.070   2.483  0.1429 -1.2225  1.9400
 8035SOL    HW235565   3.693   1.984   2.505  2.1766 -0.8716 -0.2805
 8036SOL     OW35566   2.817   0.786  16.019  0.4510  0.4569  0.6904
 8036SOL    HW135567   2.832   0.726  15.946  0.8232  0.0535  1.0977
 8036SOL    HW235568   2.745   0.835  15.980  0.2313 -0.0401  0.4672
 8037SOL     OW35569   4.071   3.560  11.598  0.1266 -0.2499  0.0399
 8037SOL    HW135570   4.099   3.650  11.611 -0.6465 -0.3813  2.6247
 8037SOL    HW235571   3.986   3.560  11.643 -0.4761  2.1465 -1.1349
 8038SOL     OW35572   0.737   4.557   5.726 -0.4657  0.4223  0.4543
 8038SOL    HW135573   0.819   4.605   5.715 -0.9035  1.0164 -0.2096
 8038SOL    HW235574   0.763   4.476   5.770  0.4972  0.3653 -0.2127
 8039SOL     OW35575   1.737   1.705   6.547  0.0862  0.5284 -0.6282
 8039SOL    HW135576   1.672   1.640   6.576 -0.3608  1.1163 -0.3081
 8039SOL    HW235577   1.761   1.666   6.463 -1.8534 -3.1440  0.4791
 8040SOL     OW35578   2.020   1.903   5.410  0.4020  0.2228 -0.2955
 8040SOL    HW135579   2.043   1.816   5.379  2.9701  0.0216  2.1784
 8040SOL    HW235580   1.931   1.915   5.376  0.7553  2.2533 -0.4959
 8041SOL     OW35581   4.020   2.379  14.421  0.5732  0.6515  0.1205
 8041SOL    HW135582   4.045   2.446  14.358 -0.2594  1.6631  0.8635
 8041SOL    HW235583   4.015   2.428  14.503 -2.4233  0.6084 -0.0073
 8042SOL     OW35584   1.289   2.354   3.003 -0.3332  0.8401  0.8546
 8042SOL    HW135585   1.375   2.325   2.973 -0.7234  0.8636 -0.3059
 8042SOL    HW235586   1.251   2.381   2.919  1.5262  1.2463  0.1400
 8043SOL     OW35587   3.317   1.797   5.026 -0.5569 -0.2185  0.2774
 8043SOL    HW135588   3.371   1.822   4.951  0.5754 -1.9122  0.5333
 8043SOL    HW235589   3.309   1.705   5.004  0.3274  0.1775 -1.7557
 8044SOL     OW35590   0.869   1.416  13.743 -0.5640 -0.1116 -0.4486
 8044SOL    HW135591   0.884   1.472  13.819 -0.2982  1.6896 -1.8239
 8044SOL    HW235592   0.949   1.428  13.692 -0.5358 -0.7734 -0.5524
 8045SOL     OW35593   0.897   3.050  11.426 -0.0163 -0.7075 -0.0459
 8045SOL    HW135594   0.904   2.981  11.492  1.4183  1.0382  1.6295
 8045SOL    HW235595   0.847   3.014  11.353  3.3233 -3.6317 -0.9150
 8046SOL     OW35596   2.172   1.714   8.814  0.0401  0.6559  0.3329
 8046SOL    HW135597   2.245   1.707   8.752  0.7373  0.5969  1.1671
 8046SOL    HW235598   2.227   1.678   8.884 -0.8726 -1.2198  0.0901
 8047SOL     OW35599   0.006   2.110   4.464 -0.6325  0.2120 -0.3576
 8047SOL    HW135600   0.007   2.205   4.452  0.8287  0.3820  1.2154
 8047SOL    HW235601   4.642   2.104   4.497 -0.4068  0.1065  0.2231
 8048SOL     OW35602   3.418   1.425   8.358  0.1720  0.0792  0.1501
 8048SOL    HW135603   3.460   1.366   8.296  1.5797  3.3656 -2.0541
 8048SOL    HW235604   3.465   1.393   8.435  1.8770  2.2332  0.0066
 8049SOL     OW35605   1.396   1.263  16.923 -0.3202 -0.4808  0.4176
 8049SOL    HW135606   1.397   1.235  16.832  0.7884  0.3558  0.1615
 8049SOL    HW235607   1.304   1.267  16.948 -0.5798  0.0926 -0.6576
 8050SOL     OW35608   4.475   3.062   7.196 -0.7502 -0.6391 -0.4172
 8050SOL    HW135609   4.411   3.056   7.125  1.1458 -2.3117 -1.9871
 8050SOL    HW235610   4.488   2.968   7.211 -0.4307 -0.8719 -2.1137
 8051SOL     OW35611   2.215   2.970   3.546 -0.5685 -0.0464 -0.6924
 8051SOL    HW135612   2.206   3.050   3.493 -1.1890  0.4302  0.1215
 8051SOL    HW235613   2.172   2.908   3.487 -1.2691 -0.3905  0.1849
 8052SOL     OW35614   1.419   0.254   4.048 -0.2127  0.3219  0.1830
 8052SOL    HW135615   1.440   0.235   3.956 -0.9300  2.1877 -0.3574
 8052SOL    HW235616   1.505   0.283   4.079 -0.4630  1.1708  0.0777
 8053SOL     OW35617   0.329   0.742   6.284 -0.1302  0.6250 -0.3300
 8053SOL    HW135618   0.324   0.757   6.378  2.6346  0.6804 -0.1852
 8053SOL    HW235619   0.401   0.678   6.286 -2.3038 -1.8005  1.1133
 8054SOL     OW35620   3.891   4.260   6.080 -0.0014 -0.0428 -0.4020
 8054SOL    HW135621   3.904   4.332   6.141  1.6822  0.2100 -1.0334
 8054SOL    HW235622   3.887   4.180   6.132  0.1031 -0.6353 -1.2948
 8055SOL     OW35623   3.196   2.631  13.560  0.1694 -0.1919 -0.6309
 8055SOL    HW135624   3.183   2.578  13.482  2.2572 -0.0564 -1.0852
 8055SOL    HW235625   3.124   2.692  13.545  0.8795  0.9810  0.7204
 8056SOL     OW35626   0.520   4.147  14.038  0.1944  0.4995  0.1005
 8056SOL    HW135627   0.520   4.101  13.954 -2.7105  0.1708  0.2723
 8056SOL    HW235628   0.562   4.225  14.003  0.2199 -0.3801 -1.8264
 8057SOL     OW35629   1.475   3.397   3.936  0.3685  0.2837  0.1532
 8057SOL    HW135630   1.472   3.488   3.967  2.1430  0.8861 -1.3889
 8057SOL    HW235631   1.456   3.421   3.845 -0.1199 -2.5639 -0.4657
 8058SOL     OW35632   2.934   4.155   9.567  0.1323  0.2641  0.4351
 8058SOL    HW135633   2.958   4.063   9.577 -3.2775 -0.6856 -0.2190
 8058SOL    HW235634   2.888   4.172   9.649 -0.6919  1.6514 -0.3248
 8059SOL     OW35635   2.501   2.338   1.965 -0.1921 -0.0332 -0.3829
 8059SOL    HW135636   2.582   2.378   1.998  0.0529 -0.2312 -0.7351
 8059SOL    HW235637   2.529   2.280   1.895  0.2854 -0.4076  0.1124
 8060SOL     OW35638   0.257   3.001   4.539 -0.2534 -0.3253  0.1953
 8060SOL    HW135639   0.308   3.079   4.560  0.9398 -1.1772  0.4532
 8060SOL    HW235640   0.331   2.941   4.526  0.9566  0.6610  2.4256
 8061SOL     OW35641   0.936   2.364   8.619  0.2212 -0.2526 -0.5464
 8061SOL    HW135642   0.974   2.420   8.686 -0.7565 -0.4366  0.1566
 8061SOL    HW235643   0.855   2.414   8.604  0.6321  0.2024 -1.2463
 8062SOL     OW35644   2.724   2.478   4.144  0.0805 -0.1749 -0.3675
 8062SOL    HW135645   2.646   2.429   4.171 -0.3976  0.5336 -0.4555
 8062SOL    HW235646   2.695   2.564   4.115  0.8346 -0.3945 -1.7729
 8063SOL     OW35647   4.235   2.414   4.008  0.2688  0.0441 -0.3799
 8063SOL    HW135648   4.169   2.434   4.074  0.8902  3.6867 -0.8557
 8063SOL    HW235649   4.304   2.480   4.020 -0.5864  1.1259 -1.4020
 8064SOL     OW35650   1.287   3.898   6.818 -0.4854  0.3287  0.2373
 8064SOL    HW135651   1.268   3.980   6.864 -0.2260 -0.1143  1.1271
 8064SOL    HW235652   1.252   3.925   6.733  1.0415 -1.6669 -1.0289
 8065SOL     OW35653   2.968   2.705  11.380  0.1891  0.0453  0.2892
 8065SOL    HW135654   2.999   2.682  11.467  0.1641 -3.8743 -0.7368
 8065SOL    HW235655   3.011   2.790  11.371 -1.8993  0.9206 -1.5823
 8066SOL     OW35656   4.245   3.510   8.243 -0.1907 -0.2205 -0.1966
 8066SOL    HW135657   4.216   3.546   8.160 -0.0112  1.6215  0.5418
 8066SOL    HW235658   4.218   3.582   8.299 -0.2965  0.7491 -1.4964
 8067SOL     OW35659   2.987   4.621   4.123  0.2348 -0.2972 -0.0807
 8067SOL    HW135660   2.999   4.712   4.096  2.3713 -0.5989 -0.1833
 8067SOL    HW235661   2.973   4.590   4.034  2.4960  0.0181 -0.5396
 8068SOL     OW35662   4.525   2.022   9.572  0.5297 -0.5593 -0.4482
 8068SOL    HW135663   4.525   2.040   9.666  0.6217  2.0299 -0.9599
 8068SOL    HW235664   4.464   1.948   9.573 -0.0164 -0.1172 -1.4606
 8069SOL     OW35665   3.430   0.340  15.985  0.9027 -0.1622  0.0793
 8069SOL    HW135666   3.428   0.436  15.975 -2.1438 -0.2516 -0.2464
 8069SOL    HW235667   3.524   0.336  15.969  0.9038 -2.1494  0.6425
 8070SOL     OW35668   0.531   2.879   0.893 -0.5049 -0.0850 -0.0961
 8070SOL    HW135669   0.544   2.950   0.830  0.4111 -0.3065 -0.1493
 8070SOL    HW235670   0.523   2.927   0.975  1.9538  1.2046 -0.6420
 8071SOL     OW35671   4.528   1.012   0.945 -0.2666 -0.1992 -0.0674
 8071SOL    HW135672   4.546   0.927   0.906  0.5195 -0.1411  0.1690
 8071SOL    HW235673   4.532   1.070   0.869 -0.2304 -2.0764 -1.4950
 8072SOL     OW35674   4.020   1.937   0.409 -0.7429 -0.1474  0.4080
 8072SOL    HW135675   4.096   1.950   0.353 -1.1517  0.6791  0.0416
 8072SOL    HW235676   3.989   1.854   0.374 -1.2270  0.8081 -1.4392
 8073SOL     OW35677   0.593   0.312  11.802  0.0108  0.3033 -0.4515
 8073SOL    HW135678   0.539   0.249  11.849  0.1993 -0.0248 -0.6761
 8073SOL    HW235679   0.568   0.381  11.865 -0.5628 -0.5787  0.2825
 8074SOL     OW35680   1.081   3.366  11.117  0.3278 -0.7538  0.5596
 8074SOL    HW135681   1.119   3.309  11.050 -0.3126  1.3732 -1.6198
 8074SOL    HW235682   1.156   3.411  11.154 -1.2257  1.3442  1.1058
 8075SOL     OW35683   3.688   3.010  15.762  0.3814  0.0411 -0.0960
 8075SOL    HW135684   3.605   2.964  15.751  0.5049 -0.9748  3.2718
 8075SOL    HW235685   3.734   3.001  15.679 -1.4451  2.1659 -1.3433
 8076SOL     OW35686   0.518   3.210  15.690 -0.5218 -0.4211  0.2635
 8076SOL    HW135687   0.524   3.178  15.600 -1.2756  1.6795 -0.5384
 8076SOL    HW235688   0.571   3.288  15.671 -0.3165 -0.9299 -1.3403
 8077SOL     OW35689   1.149   3.992   7.203 -0.7385 -0.0354  0.1381
 8077SOL    HW135690   1.244   4.001   7.207 -0.8496  0.3051  1.9195
 8077SOL    HW235691   1.115   4.061   7.260  0.5662  0.5367  0.2264
 8078SOL     OW35692   3.778   4.572   7.693  0.2746  0.4282 -0.0713
 8078SOL    HW135693   3.738   4.659   7.694 -0.6571 -0.0101  0.9991
 8078SOL    HW235694   3.818   4.569   7.606  0.0735  2.2603 -0.2370
 8079SOL     OW35695   2.783   3.683   6.082  0.0130 -0.0375 -0.3294
 8079SOL    HW135696   2.855   3.629   6.115  0.3239 -0.1063 -1.1285
 8079SOL    HW235697   2.817   3.767   6.110  0.0349  0.2135 -1.0993
 8080SOL     OW35698   2.889   2.221   6.326 -0.7045  0.3346 -0.5872
 8080SOL    HW135699   2.980   2.196   6.312 -0.5544  1.6664 -2.0512
 8080SOL    HW235700   2.889   2.179   6.412 -0.9480 -0.3600 -0.9236
 8081SOL     OW35701   1.395   1.507   2.101 -0.6075 -0.1023 -0.2611
 8081SOL    HW135702   1.481   1.523   2.061  0.1764 -2.8743  0.3247
 8081SOL    HW235703   1.356   1.450   2.035  0.2746  0.1077 -0.9612
 8082SOL     OW35704   2.033   4.436  13.137  0.1692 -0.1330  0.3726
 8082SOL    HW135705   2.065   4.527  13.139  0.4952 -0.1714 -3.2005
 8082SOL    HW235706   2.080   4.408  13.058  0.5946 -0.6377  0.8077
 8083SOL     OW35707   1.733   1.602   8.307 -0.2636  0.3400 -0.3710
 8083SOL    HW135708   1.745   1.692   8.339  1.0821  0.0806 -0.1464
 8083SOL    HW235709   1.820   1.582   8.275  0.2764  1.3410  0.4462
 8084SOL     OW35710   0.184   0.381   8.777 -0.4154 -0.1962 -0.3928
 8084SOL    HW135711   0.102   0.340   8.750 -0.6885  0.7379 -0.9404
 8084SOL    HW235712   0.192   0.458   8.722  0.9640 -0.6114 -0.7815
 8085SOL     OW35713   3.912   3.736   4.893  0.1248  0.3858  0.2420
 8085SOL    HW135714   3.825   3.696   4.887  0.5659 -0.3444 -1.1942
 8085SOL    HW235715   3.953   3.724   4.807  0.3180 -0.1565  0.4042
 8086SOL     OW35716   4.432   2.780   1.074  0.7337 -1.4024 -0.7085
 8086SOL    HW135717   4.413   2.746   1.161 -0.9922 -0.1009 -0.5724
 8086SOL    HW235718   4.379   2.860   1.074  0.3727 -1.6770  4.2076
 8087SOL     OW35719   3.769   3.850  11.186  0.1160  0.4345 -0.5764
 8087SOL    HW135720   3.824   3.921  11.218  1.1944 -0.7961  0.3152
 8087SOL    HW235721   3.806   3.770  11.223  1.8006  2.8308  2.9247
 8088SOL     OW35722   0.611   0.470  11.255  0.7033  0.0159  0.0565
 8088SOL    HW135723   0.535   0.419  11.282  0.4654  0.3662  0.0476
 8088SOL    HW235724   0.681   0.410  11.281 -0.4312 -1.3536 -0.0726
 8089SOL     OW35725   1.130   3.255   4.178  0.3148  0.0062  0.6408
 8089SOL    HW135726   1.127   3.222   4.089 -0.1930 -0.0344  0.6742
 8089SOL    HW235727   1.109   3.345   4.153  0.0578 -0.4175 -0.6166
 8090SOL     OW35728   3.690   2.779   5.266 -0.6376  0.0228 -0.7644
 8090SOL    HW135729   3.719   2.865   5.297 -1.6471 -0.5939  1.9075
 8090SOL    HW235730   3.772   2.734   5.245  0.1855  1.1486  0.0583
 8091SOL     OW35731   4.113   1.541  17.509  0.8498  0.3316 -0.2650
 8091SOL    HW135732   4.148   1.629  17.500 -1.5001  1.3480  0.6209
 8091SOL    HW235733   4.116   1.509  17.419 -1.3751 -0.4879 -0.0672
 8092SOL     OW35734   3.647   3.154   5.181 -0.0917 -0.1120  0.7314
 8092SOL    HW135735   3.653   3.139   5.087  1.2651  0.2478  0.7555
 8092SOL    HW235736   3.732   3.117   5.205  0.7353  0.6339 -1.0769
 8093SOL     OW35737   4.383   2.621  11.659  0.0281 -0.2035  0.3901
 8093SOL    HW135738   4.452   2.556  11.671  0.2228  0.1423  1.1593
 8093SOL    HW235739   4.322   2.576  11.601  1.0291  1.4139 -1.9097
 8094SOL     OW35740   1.955   1.403   9.271 -0.0798 -0.0324 -0.4028
 8094SOL    HW135741   1.957   1.308   9.259  0.8330 -0.4333  2.7278
 8094SOL    HW235742   1.873   1.427   9.228 -0.7754 -0.0115  0.9100
 8095SOL     OW35743   1.096   3.501   4.052 -0.3973 -0.0548 -0.1451
 8095SOL    HW135744   1.072   3.554   4.127 -0.3198 -0.0482 -0.1242
 8095SOL    HW235745   1.106   3.562   3.979 -1.1688  0.6226  0.3318
 8096SOL     OW35746   3.623   0.914   5.875 -0.0042 -0.1558  0.0875
 8096SOL    HW135747   3.588   0.834   5.836 -1.4769  0.9076 -0.8004
 8096SOL    HW235748   3.683   0.873   5.938  0.1204 -0.6163 -0.3299
 8097SOL     OW35749   3.506   2.884  10.439  0.2801 -0.1641  0.2152
 8097SOL    HW135750   3.422   2.868  10.483 -0.2005 -4.0413 -2.1380
 8097SOL    HW235751   3.492   2.831  10.361  1.4955  3.3176 -2.3512
 8098SOL     OW35752   1.632   1.221   0.404  0.3638  0.1791 -0.2436
 8098SOL    HW135753   1.661   1.195   0.317  0.1847  0.2820 -0.3350
 8098SOL    HW235754   1.545   1.180   0.410 -0.9471  2.3492 -4.8079
 8099SOL     OW35755   1.884   4.411   5.400  0.3993  0.5213 -0.3279
 8099SOL    HW135756   1.817   4.425   5.333  1.5273  0.5697 -1.4446
 8099SOL    HW235757   1.917   4.326   5.371 -0.9013  0.1138 -0.6157
 8100SOL     OW35758   2.374   2.486   1.014  0.3199 -0.0770  0.2701
 8100SOL    HW135759   2.336   2.572   1.031  0.5950 -0.1734  1.3858
 8100SOL    HW235760   2.299   2.431   0.990 -0.4388  0.8828  0.4650
 8101SOL     OW35761   2.122   3.325   4.611  0.3642  0.2614 -0.0105
 8101SOL    HW135762   2.096   3.416   4.599  0.7191  0.1199 -1.8375
 8101SOL    HW235763   2.178   3.306   4.536  2.0252 -0.4202  1.3822
 8102SOL     OW35764   0.832   0.482   3.809  0.5124  0.1395 -0.4995
 8102SOL    HW135765   0.747   0.460   3.846  1.2025  1.8748  2.1308
 8102SOL    HW235766   0.806   0.492   3.717 -2.5063  0.5436  0.4022
 8103SOL     OW35767   1.543   0.702   9.078 -0.0948 -0.3589 -0.1346
 8103SOL    HW135768   1.525   0.609   9.063 -0.7870 -0.1505 -0.5664
 8103SOL    HW235769   1.482   0.750   9.023 -0.4918 -0.4396  0.2418
 8104SOL     OW35770   0.650   4.080  12.941  0.0343 -0.0142 -0.2398
 8104SOL    HW135771   0.709   4.141  12.895 -1.4606 -0.3979 -2.6433
 8104SOL    HW235772   0.587   4.145  12.973 -0.7190 -0.2030 -1.3644
 8105SOL     OW35773   0.815   4.506   9.090  0.0484 -0.3327  0.8079
 8105SOL    HW135774   0.834   4.600   9.088  0.6048 -0.4623  0.2398
 8105SOL    HW235775   0.723   4.509   9.117 -0.9349  0.1445 -2.6429
 8106SOL     OW35776   1.927   4.245  17.608  0.0062  0.3544 -0.5795
 8106SOL    HW135777   1.972   4.223  17.689 -0.0879  1.9212 -0.1110
 8106SOL    HW235778   1.939   4.339  17.599  0.0309  0.2385 -1.8120
 8107SOL     OW35779   4.486   0.436  10.036  0.8501 -0.2045 -0.0730
 8107SOL    HW135780   4.513   0.489   9.961  0.9697 -0.5262 -0.2569
 8107SOL    HW235781   4.500   0.345  10.013  1.6596  0.3872 -1.8782
 8108SOL     OW35782   1.990   1.394   6.500  1.2907  0.1512 -0.1503
 8108SOL    HW135783   1.960   1.384   6.410  0.0728  1.8619  0.0651
 8108SOL    HW235784   1.916   1.433   6.546  0.0113 -3.1537  0.6244
 8109SOL     OW35785   1.900   1.086   8.273 -0.1104 -0.1127  0.0095
 8109SOL    HW135786   1.873   1.090   8.365 -0.2325 -3.4942  0.1494
 8109SOL    HW235787   1.859   1.165   8.238  0.1982  0.2203  0.4059
 8110SOL     OW35788   2.466   4.029   8.152 -0.0807  0.0982 -0.0221
 8110SOL    HW135789   2.547   4.047   8.103  0.8013 -0.7784  1.0883
 8110SOL    HW235790   2.400   4.082   8.109 -0.2038  1.7425  2.2055
 8111SOL     OW35791   1.403   1.713   1.376 -0.4840  0.3311 -0.3984
 8111SOL    HW135792   1.339   1.656   1.419 -2.8393  1.4518 -2.3792
 8111SOL    HW235793   1.412   1.665   1.293 -2.4987 -0.7402  0.0094
 8112SOL     OW35794   0.034   4.595  17.490  0.4776  0.5080  0.1611
 8112SOL    HW135795   0.042   4.508  17.529  1.0538 -0.8760 -3.0364
 8112SOL    HW235796   4.696   4.574  17.422  0.5569  1.3006 -0.1617
 8113SOL     OW35797   3.815   2.331  10.285 -0.1703  0.3782  0.4137
 8113SOL    HW135798   3.849   2.371  10.205  0.9280  0.9904  1.1871
 8113SOL    HW235799   3.893   2.324  10.341 -1.1792 -1.3641  1.6008
 8114SOL     OW35800   3.091   2.314  10.092 -0.0832 -0.0532 -0.4252
 8114SOL    HW135801   3.136   2.299  10.175 -1.9876 -0.9479  0.4440
 8114SOL    HW235802   3.085   2.409  10.079  0.1024 -0.2126 -1.7113
 8115SOL     OW35803   0.716   4.501   8.471 -0.0387  0.2072  0.2937
 8115SOL    HW135804   0.764   4.443   8.530 -0.0803 -0.2614 -0.1345
 8115SOL    HW235805   0.643   4.440   8.460 -0.8704  1.3699 -0.6232
 8116SOL     OW35806   4.299   0.571   2.000 -0.3622 -0.2537  0.0222
 8116SOL    HW135807   4.382   0.579   2.047 -1.2955  0.2622  1.5804
 8116SOL    HW235808   4.241   0.630   2.049 -0.9187 -0.8978  0.1346
 8117SOL     OW35809   3.830   1.566  17.472 -0.2981 -0.6984 -0.0115
 8117SOL    HW135810   3.853   1.572  17.379 -1.0735  0.1265 -0.1507
 8117SOL    HW235811   3.914   1.538  17.508  1.1251  1.7356 -1.3803
 8118SOL     OW35812   0.031   2.499   8.647  0.0957  0.2034  0.1570
 8118SOL    HW135813   4.669   2.488   8.609 -0.5609  1.3955  1.3143
 8118SOL    HW235814   0.021   2.442   8.724 -2.3475  1.4607  0.7538
 8119SOL     OW35815   3.832   0.978   7.554 -0.0271 -0.0021  0.4404
 8119SOL    HW135816   3.819   0.887   7.526 -0.4025 -0.1891  1.2177
 8119SOL    HW235817   3.921   0.979   7.589  0.4519  0.5523 -0.7920
 8120SOL     OW35818   2.650   1.065  12.256  0.2597 -0.3325  0.7819
 8120SOL    HW135819   2.693   1.134  12.205  0.1487 -1.0674 -0.2983
 8120SOL    HW235820   2.615   1.124  12.323  2.6835  0.1935  1.5690
 8121SOL     OW35821   1.589   3.189  15.427  0.4175 -0.1636  0.0299
 8121SOL    HW135822   1.647   3.119  15.396  0.1872 -1.4865  2.5544
 8121SOL    HW235823   1.506   3.144  15.411 -0.0054 -0.4100  2.8172
 8122SOL     OW35824   1.553   0.063   8.216 -0.1302 -0.3289 -0.0670
 8122SOL    HW135825   1.523   0.098   8.300 -0.0038 -0.8762  0.2105
 8122SOL    HW235826   1.624   0.011   8.253  0.3662  0.0326 -0.5228
 8123SOL     OW35827   2.975   1.275   5.828 -0.0915  0.4410 -0.0773
 8123SOL    HW135828   2.962   1.247   5.738  2.6115 -0.5090 -0.1875
 8123SOL    HW235829   3.071   1.281   5.826 -0.1283 -0.1255 -3.7685
 8124SOL     OW35830   0.532   0.583   6.292  0.3504 -0.3826  0.2973
 8124SOL    HW135831   0.576   0.561   6.374 -0.2525  0.6473  0.8852
 8124SOL    HW235832   0.492   0.498   6.271 -2.0217  0.8120  0.0218
 8125SOL     OW35833   1.467   3.765   6.628  0.0250  0.1172 -0.2102
 8125SOL    HW135834   1.434   3.677   6.648  1.0006 -0.2822 -0.3375
 8125SOL    HW235835   1.441   3.811   6.708  2.3776  1.2964 -0.1302
 8126SOL     OW35836   0.287   2.876   8.405 -0.2803  0.1943 -0.3601
 8126SOL    HW135837   0.198   2.870   8.439 -0.2181 -2.2460 -0.6375
 8126SOL    HW235838   0.273   2.871   8.310 -2.5257  3.1786 -0.2005
 8127SOL     OW35839   0.190   1.452   7.244 -0.6903  0.1109  0.6558
 8127SOL    HW135840   0.126   1.433   7.177 -0.7364 -0.1716  0.7786
 8127SOL    HW235841   0.205   1.544   7.220 -0.0450 -0.2047 -0.1599
 8128SOL     OW35842   0.542   2.303   9.875 -0.3716 -0.4190 -0.0517
 8128SOL    HW135843   0.595   2.257   9.939 -0.1552  2.5421  1.9237
 8128SOL    HW235844   0.500   2.229   9.831  0.0179 -0.3213 -0.5888
 8129SOL     OW35845   4.522   2.426   8.536 -0.1873 -0.1829 -0.0291
 8129SOL    HW135846   4.532   2.346   8.486  0.9815  0.2698 -0.5320
 8129SOL    HW235847   4.429   2.419   8.553 -0.0262 -0.9522  0.5242
 8130SOL     OW35848   2.162   0.571   5.855 -0.3082  0.1963 -0.2665
 8130SOL    HW135849   2.085   0.514   5.858 -1.0436  1.2249  0.6285
 8130SOL    HW235850   2.221   0.514   5.904 -1.4710 -0.7959 -0.0291
 8131SOL     OW35851   4.163   3.363   9.680 -0.6867  0.8171  0.4118
 8131SOL    HW135852   4.129   3.278   9.648 -1.1138  1.1783 -0.1039
 8131SOL    HW235853   4.257   3.350   9.678 -0.9845 -1.2120 -1.7119
 8132SOL     OW35854   2.762   2.220   0.112 -0.1529  0.2632  0.5230
 8132SOL    HW135855   2.820   2.289   0.079 -0.6424  0.5788  0.3304
 8132SOL    HW235856   2.712   2.261   0.182 -1.2727  4.5661 -2.8108
 8133SOL     OW35857   2.886   2.641   6.416 -0.3476  0.1328 -0.7089
 8133SOL    HW135858   2.936   2.563   6.440 -0.1873 -0.1389 -1.8897
 8133SOL    HW235859   2.949   2.682   6.357  1.5710  0.0378  1.2691
 8134SOL     OW35860   4.098   1.593   8.304  0.0248  0.0002 -0.4224
 8134SOL    HW135861   4.158   1.555   8.369 -0.9942 -0.8072  0.0427
 8134SOL    HW235862   4.017   1.553   8.335 -0.1582  0.1939 -0.6545
 8135SOL     OW35863   1.612   1.566   1.931  0.5628  0.2082  0.1437
 8135SOL    HW135864   1.623   1.486   1.879 -2.6272 -1.1745  1.6314
 8135SOL    HW235865   1.675   1.560   2.003 -1.4868 -0.2209  1.9074
 8136SOL     OW35866   1.971   2.312  11.107 -0.7080  0.1749 -0.2831
 8136SOL    HW135867   2.044   2.281  11.161 -0.5143 -0.5553 -0.9650
 8136SOL    HW235868   2.017   2.323  11.024  1.9217 -2.9255  0.7564
 8137SOL     OW35869   2.991   0.192   3.590  0.1639  0.9866 -0.5278
 8137SOL    HW135870   3.004   0.109   3.635  0.1306 -0.8183 -3.8118
 8137SOL    HW235871   3.078   0.224   3.568  0.5003  0.0122 -0.6374
 8138SOL     OW35872   3.845   2.406   7.666  0.4412  0.2537 -0.1490
 8138SOL    HW135873   3.894   2.331   7.698  3.6556  1.5093 -2.1791
 8138SOL    HW235874   3.755   2.374   7.670  0.3671  0.4783  0.0093
 8139SOL     OW35875   3.488   2.123   5.953 -0.7738  0.5440  0.3535
 8139SOL    HW135876   3.426   2.148   6.022 -1.6745  1.8988 -0.9463
 8139SOL    HW235877   3.440   2.047   5.920  1.2019  0.0570 -1.3877
 8140SOL     OW35878   1.137   2.806  11.559  0.4070  0.7757 -0.3189
 8140SOL    HW135879   1.141   2.881  11.619 -1.7615  0.3062  0.4150
 8140SOL    HW235880   1.042   2.816  11.549  0.4981  3.7005  1.5571
 8141SOL     OW35881   0.314   3.776   7.233  0.2721 -0.1963  0.5322
 8141SOL    HW135882   0.382   3.723   7.274  0.6796  0.2410  0.4190
 8141SOL    HW235883   0.293   3.835   7.305  0.0639 -0.7008  0.8839
 8142SOL     OW35884   2.539   2.232   1.403  0.0450  0.1287  0.4993
 8142SOL    HW135885   2.464   2.195   1.357  0.1340  0.5408  0.0279
 8142SOL    HW235886   2.595   2.266   1.333  0.8485  0.1226  1.1407
 8143SOL     OW35887   0.068   1.541   2.165 -0.1741  0.4160 -0.0310
 8143SOL    HW135888   0.004   1.539   2.094  0.1303 -3.1338 -0.1928
 8143SOL    HW235889   0.019   1.541   2.246 -0.0169 -0.3392  0.0599
 8144SOL     OW35890   3.681   3.590   2.437 -0.5312 -0.2807  0.2612
 8144SOL    HW135891   3.648   3.588   2.347 -0.2805  1.6935  0.1285
 8144SOL    HW235892   3.653   3.677   2.467  0.9758 -0.1296  1.2592
 8145SOL     OW35893   2.693   1.356   2.163  0.0139 -0.5961 -0.8831
 8145SOL    HW135894   2.646   1.373   2.082 -0.0468 -1.0983 -0.9522
 8145SOL    HW235895   2.713   1.444   2.195 -1.5320 -0.4262 -0.3541
 8146SOL     OW35896   0.595   1.792   9.004  0.0855  0.0101 -0.0836
 8146SOL    HW135897   0.504   1.810   8.977  0.3587 -0.4864 -1.3284
 8146SOL    HW235898   0.610   1.700   8.983 -1.6233 -0.5295  1.0311
 8147SOL     OW35899   1.911   0.577   4.224  0.3903 -0.4461 -0.2911
 8147SOL    HW135900   1.844   0.630   4.267  1.4846  1.0994 -0.5151
 8147SOL    HW235901   1.905   0.497   4.277  0.2040 -0.5887 -0.5260
 8148SOL     OW35902   2.541   4.474  16.849  0.0783 -0.7946 -0.0756
 8148SOL    HW135903   2.489   4.544  16.888  0.4426  1.2842 -3.3325
 8148SOL    HW235904   2.511   4.482  16.758  1.7912  1.3550 -0.4622
 8149SOL     OW35905   3.379   0.474   5.383  0.2127  0.1158 -0.7512
 8149SOL    HW135906   3.425   0.390   5.390 -1.3650 -0.7200 -0.4981
 8149SOL    HW235907   3.340   0.474   5.296 -1.9895 -0.6174  0.2409
 8150SOL     OW35908   1.993   2.193   4.541  0.2446  0.2740  0.3784
 8150SOL    HW135909   2.002   2.174   4.635  0.1284 -0.7231  0.1835
 8150SOL    HW235910   2.023   2.117   4.492  1.3667  0.5187  0.6772
 8151SOL     OW35911   1.578   2.974   8.511  0.1582 -0.2449  0.0042
 8151SOL    HW135912   1.664   3.003   8.542  0.0437  0.2282 -0.1226
 8151SOL    HW235913   1.553   3.048   8.455  1.3266  0.6021  0.6168
 8152SOL     OW35914   2.788   0.422  14.111 -0.0859 -0.5419  0.4608
 8152SOL    HW135915   2.742   0.341  14.134 -0.9174  0.0440  0.8596
 8152SOL    HW235916   2.739   0.493  14.152 -0.4559 -0.3151 -0.3649
 8153SOL     OW35917   2.083   3.858   7.395 -0.1202 -0.1673  0.8846
 8153SOL    HW135918   2.098   3.913   7.317  1.0755 -0.8180  0.6615
 8153SOL    HW235919   2.007   3.808   7.363  1.0917 -1.6370  0.3121
 8154SOL     OW35920   0.294   1.089   7.741  0.1865 -0.0319  0.4024
 8154SOL    HW135921   0.240   1.025   7.787 -1.3408  2.2740  1.8028
 8154SOL    HW235922   0.381   1.049   7.744  0.7639  1.0835 -1.1562
 8155SOL     OW35923   0.924   2.945   3.898  0.4638  0.2792 -0.2462
 8155SOL    HW135924   0.890   3.020   3.849  1.6381  0.6257 -0.5227
 8155SOL    HW235925   0.966   2.891   3.831 -0.4266 -0.6378 -0.0553
 8156SOL     OW35926   0.861   3.463  13.878  0.0526  0.0653  0.1301
 8156SOL    HW135927   0.832   3.401  13.945  2.0527 -2.5640 -1.4271
 8156SOL    HW235928   0.874   3.541  13.931 -2.5549  0.0444  0.7982
 8157SOL     OW35929   2.452   2.018   2.990 -0.2331 -0.3716  0.0987
 8157SOL    HW135930   2.465   1.948   2.926  1.0289 -0.6669  0.6806
 8157SOL    HW235931   2.364   2.002   3.025 -0.8196  3.4948  0.4047
 8158SOL     OW35932   1.613   0.638   5.801  0.1802 -0.1744  0.4815
 8158SOL    HW135933   1.558   0.596   5.867  0.0142 -0.8421 -0.0846
 8158SOL    HW235934   1.651   0.712   5.848  0.9557 -0.6073  0.5399
 8159SOL     OW35935   0.813   1.207   3.713  0.0848 -0.0005  0.1215
 8159SOL    HW135936   0.774   1.273   3.657 -1.0851 -1.2588 -0.5558
 8159SOL    HW235937   0.896   1.181   3.674  0.6790  2.5675 -0.3323
 8160SOL     OW35938   1.916   0.398  11.546 -0.1607  0.0209  0.1044
 8160SOL    HW135939   1.940   0.408  11.638 -0.4400  0.0843  0.1700
 8160SOL    HW235940   1.829   0.360  11.561 -0.7306  0.2495 -2.5253
 8161SOL     OW35941   4.614   4.211   5.251 -0.4421  0.1431  0.3315
 8161SOL    HW135942   4.521   4.228   5.266 -0.4406  0.5237 -0.1050
 8161SOL    HW235943   4.623   4.185   5.160 -0.1713  0.1777  0.3485
 8162SOL     OW35944   0.982   2.890   0.710 -0.5637  0.6149 -0.4496
 8162SOL    HW135945   1.053   2.881   0.646  0.1015  1.1196  0.2170
 8162SOL    HW235946   0.950   2.802   0.728  0.6571  0.3811  0.5236
 8163SOL     OW35947   0.623   4.235  16.888  0.6256 -0.0594 -0.0489
 8163SOL    HW135948   0.686   4.305  16.869  1.1466 -0.1903  1.2382
 8163SOL    HW235949   0.679   4.164  16.859 -1.8734 -1.9679 -0.2328
 8164SOL     OW35950   2.773   3.792   4.980 -0.3941  0.5506 -0.9037
 8164SOL    HW135951   2.858   3.814   5.017  0.7049 -1.5767 -2.1637
 8164SOL    HW235952   2.778   3.698   4.962 -2.4065 -0.0914  1.8565
 8165SOL     OW35953   0.336   2.915   5.883 -0.4706 -0.2352 -0.1523
 8165SOL    HW135954   0.246   2.942   5.901 -0.8869  0.2073 -2.9264
 8165SOL    HW235955   0.333   2.890   5.791 -1.3741 -2.0228  0.3548
 8166SOL     OW35956   0.023   1.692   1.825 -0.2432  0.2892 -0.2189
 8166SOL    HW135957   4.653   1.706   1.834 -0.4056 -0.2808 -1.1584
 8166SOL    HW235958   0.055   1.743   1.900 -1.8728 -0.5259  1.0546
 8167SOL     OW35959   3.613   4.561   8.073  0.0037  0.0977 -0.8713
 8167SOL    HW135960   3.544   4.549   8.008  1.0319  2.1163 -2.3377
 8167SOL    HW235961   3.575   4.523   8.152  2.5052  0.8957  0.7215
 8168SOL     OW35962   3.107   2.384   5.379  0.5119  0.0862  0.1791
 8168SOL    HW135963   3.058   2.383   5.297  1.9037  1.3340 -0.6805
 8168SOL    HW235964   3.143   2.295   5.384  0.8057  0.2189  0.3960
 8169SOL     OW35965   1.422   1.111   2.540 -0.3153 -0.1903  0.1266
 8169SOL    HW135966   1.393   1.160   2.616  0.0541 -1.7143  1.2513
 8169SOL    HW235967   1.483   1.050   2.582  0.9118  2.2168  1.8173
 8170SOL     OW35968   0.839   4.479   5.444 -0.6536 -0.5613  0.4737
 8170SOL    HW135969   0.870   4.570   5.451  1.1639 -1.0958 -0.8873
 8170SOL    HW235970   0.922   4.432   5.448 -0.4086 -0.0543  1.5690
 8171SOL     OW35971   3.172   4.494   8.699  0.8961 -0.3512 -0.2643
 8171SOL    HW135972   3.154   4.400   8.702  0.2556 -0.2232 -0.0928
 8171SOL    HW235973   3.182   4.497   8.794 -3.3392  0.3100  0.1191
 8172SOL     OW35974   4.309   3.774  10.402 -0.2214  0.2854 -0.4697
 8172SOL    HW135975   4.345   3.817  10.324  1.5492  1.1246  0.8045
 8172SOL    HW235976   4.261   3.694  10.381  0.3714 -0.8244  2.4395
 8173SOL     OW35977   0.175   0.426  12.679  0.4436 -0.0614 -0.1081
 8173SOL    HW135978   0.093   0.461  12.715  0.6988  0.3008  0.1181
 8173SOL    HW235979   0.236   0.472  12.737  1.3988  1.3403 -2.1939
 8174SOL     OW35980   1.141   0.480   3.276  0.1934 -0.5227 -0.0842
 8174SOL    HW135981   1.121   0.426   3.352 -4.6737 -1.3663 -1.9793
 8174SOL    HW235982   1.091   0.561   3.286 -1.1915 -1.3209 -0.5066
 8175SOL     OW35983   0.601   1.478   1.522  0.6187  0.0559 -0.1505
 8175SOL    HW135984   0.574   1.492   1.613  2.1961  1.6553  0.0944
 8175SOL    HW235985   0.535   1.424   1.480 -0.7564  1.2643  0.4822
 8176SOL     OW35986   3.422   3.499   0.446  0.4674 -0.6873 -0.4251
 8176SOL    HW135987   3.338   3.518   0.488  0.0043  0.3837 -1.8255
 8176SOL    HW235988   3.414   3.403   0.441  2.3400 -0.9066  0.9498
 8177SOL     OW35989   2.324   4.268   4.503  0.4705 -0.6710  0.5883
 8177SOL    HW135990   2.281   4.349   4.532  0.8962  0.7400 -2.7819
 8177SOL    HW235991   2.401   4.300   4.456  0.8868  0.4801  2.0501
 8178SOL     OW35992   1.582   1.699  12.730  0.7100  0.1764  0.4314
 8178SOL    HW135993   1.678   1.691  12.729  0.8834  1.8617  2.3461
 8178SOL    HW235994   1.553   1.666  12.645 -1.7577  1.5878  0.7131
 8179SOL     OW35995   1.405   3.190   4.110 -0.3789 -0.0173 -0.1721
 8179SOL    HW135996   1.317   3.222   4.130  0.1196  0.6906  0.8606
 8179SOL    HW235997   1.442   3.263   4.060  1.9952 -0.2084  1.2955
 8180SOL     OW35998   4.011   3.810   7.179 -0.2106  0.1699  0.7870
 8180SOL    HW135999   3.949   3.762   7.234  0.5844 -2.1261 -0.3004
 8180SOL    HW236000   4.050   3.731   7.142 -0.8769  0.8095 -1.3061
 8181SOL     OW36001   3.730   0.075  15.864 -0.0976  0.0632  0.0762
 8181SOL    HW136002   3.736   0.163  15.827 -0.8858  0.0495 -0.0798
 8181SOL    HW236003   3.746   0.098  15.955  1.1737  0.5525 -0.2714
 8182SOL     OW36004   4.554   2.136   1.903  0.1599 -0.0215  0.4889
 8182SOL    HW136005   4.554   2.070   1.833 -0.9438  0.8144 -0.3028
 8182SOL    HW236006   4.595   2.095   1.978  1.0083  0.1718  0.1277
 8183SOL     OW36007   0.518   0.582   4.120  0.0066  0.0216  0.6706
 8183SOL    HW136008   0.517   0.549   4.030  0.5054 -3.8651  2.0904
 8183SOL    HW236009   0.441   0.539   4.158 -0.0134 -0.4995  0.0356
 8184SOL     OW36010   2.333   4.362   5.236  0.3051 -0.9849 -0.1603
 8184SOL    HW136011   2.278   4.284   5.224 -0.7460 -0.5965  2.1237
 8184SOL    HW236012   2.396   4.365   5.164 -0.6406 -2.1815 -1.0409
 8185SOL     OW36013   1.539   0.554   8.753 -0.9090 -0.0989  0.0013
 8185SOL    HW136014   1.470   0.606   8.793  0.9560  1.6422  0.9749
 8185SOL    HW236015   1.617   0.610   8.761 -1.8962  1.5084 -1.6076
 8186SOL     OW36016   4.474   1.962  15.140 -0.5386 -0.3914 -0.2793
 8186SOL    HW136017   4.400   1.956  15.080 -0.6406  0.8751 -0.2960
 8186SOL    HW236018   4.429   1.953  15.224  0.8721 -0.5050  0.4562
 8187SOL     OW36019   2.646   1.731   5.434 -0.1823 -0.1158  0.0774
 8187SOL    HW136020   2.579   1.770   5.490  2.1214  3.5043  0.2570
 8187SOL    HW236021   2.617   1.640   5.422  0.0372 -0.0163 -1.2041
 8188SOL     OW36022   0.990   3.746   2.814  0.2790 -0.2887 -0.0089
 8188SOL    HW136023   1.042   3.666   2.812  0.0730 -0.3821 -1.8167
 8188SOL    HW236024   1.016   3.774   2.902 -4.4235  2.6447  0.4264
 8189SOL     OW36025   1.321   2.969   5.341 -0.3487 -0.0430  0.3348
 8189SOL    HW136026   1.258   3.041   5.334 -0.7456 -0.4489 -0.2795
 8189SOL    HW236027   1.399   3.013   5.309 -1.8896  1.3345 -1.4755
 8190SOL     OW36028   4.717   2.142  15.131  0.1442  0.5970 -0.0854
 8190SOL    HW136029   0.049   2.121  15.058  0.9287  2.3597  0.0312
 8190SOL    HW236030   4.638   2.102  15.096  0.9802  0.6963 -2.0445
 8191SOL     OW36031   0.836   3.087   8.061 -0.0505  0.5484 -0.2434
 8191SOL    HW136032   0.742   3.079   8.076 -0.0358  1.2883  0.1967
 8191SOL    HW236033   0.874   3.040   8.135  0.6124 -1.1559 -1.6535
 8192SOL     OW36034   0.643   0.891   0.763 -0.0877 -0.4995 -0.0777
 8192SOL    HW136035   0.739   0.891   0.765 -0.0465  1.5220 -3.0949
 8192SOL    HW236036   0.630   0.827   0.693  1.0250 -0.3727 -0.4024
 8193SOL     OW36037   3.251   1.010   7.375 -0.3243  0.5542 -0.0876
 8193SOL    HW136038   3.186   1.002   7.445  0.4021  0.1049  0.5251
 8193SOL    HW236039   3.287   0.922   7.368 -1.7763  0.1325 -2.5005
 8194SOL     OW36040   0.748   0.778   0.414 -0.1018 -0.0223  0.0358
 8194SOL    HW136041   0.737   0.687   0.388  0.7222 -0.8753  2.6935
 8194SOL    HW236042   0.823   0.775   0.474 -0.5995 -0.5717  0.6305
 8195SOL     OW36043   2.469   4.280   5.453  0.2356 -0.4219 -0.5084
 8195SOL    HW136044   2.430   4.327   5.379  0.5401  0.5316 -0.0648
 8195SOL    HW236045   2.519   4.209   5.415 -0.6464 -2.2848  1.8116
 8196SOL     OW36046   3.730   2.318   3.959  0.0459  0.6599 -0.2909
 8196SOL    HW136047   3.693   2.344   4.044  0.3057  2.0077 -0.5876
 8196SOL    HW236048   3.656   2.286   3.908  0.8110 -0.1474 -0.8986
 8197SOL     OW36049   0.678   1.466   8.211 -0.1770  0.3467 -0.3124
 8197SOL    HW136050   0.722   1.387   8.242 -0.1514 -0.1010 -1.4920
 8197SOL    HW236051   0.587   1.439   8.207  0.3388 -1.6503  1.7755
 8198SOL     OW36052   4.352   3.885   2.998  0.6314 -0.3218  0.0545
 8198SOL    HW136053   4.271   3.865   3.045 -1.3572 -1.6435 -3.9223
 8198SOL    HW236054   4.393   3.798   2.999  0.3155 -0.4540  0.8259
 8199SOL     OW36055   4.206   1.251   8.919  0.6326  0.1238 -0.4444
 8199SOL    HW136056   4.287   1.266   8.870 -0.1191  0.7651 -1.4755
 8199SOL    HW236057   4.162   1.335   8.909 -0.2761 -0.3182 -0.1659
 8200SOL     OW36058   2.576   0.667   4.442 -0.4366  0.1648  0.2466
 8200SOL    HW136059   2.661   0.625   4.445 -0.1371  0.9133  2.0509
 8200SOL    HW236060   2.586   0.753   4.483  1.6098 -0.9404  2.0380
 8201SOL     OW36061   0.342   0.306  16.304 -0.3176  0.6422 -0.1475
 8201SOL    HW136062   0.329   0.218  16.341 -0.8608  0.0190 -1.8040
 8201SOL    HW236063   0.432   0.299  16.272 -0.7395  1.1883 -1.4355
 8202SOL     OW36064   1.037   3.213  12.709  0.6346 -0.9218 -0.0883
 8202SOL    HW136065   0.990   3.137  12.674  1.2745 -0.9860 -0.8324
 8202SOL    HW236066   1.129   3.186  12.702  1.0027 -0.1321  1.7426
 8203SOL     OW36067   2.833   0.709   4.740  0.1490  0.1754 -1.0477
 8203SOL    HW136068   2.755   0.703   4.795 -1.5480  1.6997 -3.2869
 8203SOL    HW236069   2.822   0.656   4.661  3.8141 -1.8410 -0.2300
 8204SOL     OW36070   2.569   1.157   8.186  0.7995 -0.3440  0.4588
 8204SOL    HW136071   2.580   1.213   8.263  1.5382 -3.0713  2.3538
 8204SOL    HW236072   2.583   1.226   8.121 -1.3284  0.1463  0.5345
 8205SOL     OW36073   3.916   2.239   0.489  0.2592  0.7429 -0.6679
 8205SOL    HW136074   3.963   2.156   0.481  1.1701  1.1300  0.6350
 8205SOL    HW236075   3.840   2.219   0.435  1.5644 -1.2594 -1.7638
 8206SOL     OW36076   1.937   4.082   3.974 -0.3560  0.1602 -0.2529
 8206SOL    HW136077   1.861   4.024   3.972 -0.6609  0.5814 -1.3073
 8206SOL    HW236078   1.970   4.063   4.062 -0.3807 -0.9025 -0.4654
 8207SOL     OW36079   2.966   0.269  15.001  0.3082 -0.1778  0.3977
 8207SOL    HW136080   3.019   0.237  15.074  3.4503  0.5604 -1.5536
 8207SOL    HW236081   3.032   0.315  14.949  0.5824 -0.3492  0.5918
 8208SOL     OW36082   1.548   2.722   8.198 -0.3547  0.5407  0.2322
 8208SOL    HW136083   1.557   2.704   8.292  1.2855 -0.4046 -0.1227
 8208SOL    HW236084   1.605   2.795   8.174  0.6992 -0.5594 -0.6135
 8209SOL     OW36085   3.981   4.609   4.204  0.1722  0.7857  0.2562
 8209SOL    HW136086   3.921   4.536   4.223  2.7674 -1.6886 -1.0094
 8209SOL    HW236087   3.996   4.660   4.284 -0.9962 -0.1353  1.0663
 8210SOL     OW36088   1.873   0.728   2.046 -0.6380  0.8134  0.2649
 8210SOL    HW136089   1.849   0.780   2.123 -0.7162  0.8810  0.1951
 8210SOL    HW236090   1.817   0.650   2.049 -0.3882  0.5883 -0.9379
 8211SOL     OW36091   1.487   3.783   7.415  0.6260 -0.1877  0.2127
 8211SOL    HW136092   1.455   3.744   7.497  1.1873 -1.5664 -0.2186
 8211SOL    HW236093   1.563   3.829   7.450  0.1966  1.2702 -0.7653
 8212SOL     OW36094   2.651   3.978   1.656  0.3338  0.7086  0.9352
 8212SOL    HW136095   2.645   3.907   1.720  0.1475  1.3520  1.6357
 8212SOL    HW236096   2.680   4.043   1.720 -1.4460  2.6179 -0.1987
 8213SOL     OW36097   3.523   2.633   3.293 -0.1376  0.1325  0.3835
 8213SOL    HW136098   3.608   2.619   3.250 -0.0073 -0.7005  0.9206
 8213SOL    HW236099   3.470   2.666   3.220  0.1370  1.3111  0.7068
 8214SOL     OW36100   3.726   1.106   5.571 -0.6112  0.3227 -0.4222
 8214SOL    HW136101   3.635   1.100   5.601 -0.4216  0.1332  0.1061
 8214SOL    HW236102   3.726   1.030   5.513  0.4023 -1.0086  1.3148
 8215SOL     OW36103   3.269   3.273   9.389 -0.3862  0.2116  0.0637
 8215SOL    HW136104   3.186   3.256   9.434  0.0930 -0.6418  0.6104
 8215SOL    HW236105   3.325   3.316   9.454  0.7140  1.2594 -1.6041
 8216SOL     OW36106   2.804   3.788   2.195 -0.8100 -0.0627 -0.2361
 8216SOL    HW136107   2.830   3.715   2.251 -1.3031 -0.2190 -0.2120
 8216SOL    HW236108   2.847   3.857   2.245 -1.2765  0.6076 -0.7514
 8217SOL     OW36109   0.451   4.104   2.898  0.6463 -0.4158 -0.3757
 8217SOL    HW136110   0.503   4.173   2.859  1.7501 -0.7830  0.4605
 8217SOL    HW236111   0.508   4.030   2.877 -0.4647 -0.9916 -1.3930
 8218SOL     OW36112   0.515   2.494  13.742  0.4562 -0.7877  1.0125
 8218SOL    HW136113   0.600   2.532  13.719 -0.3941  0.6142  0.1578
 8218SOL    HW236114   0.514   2.539  13.827  2.1184 -0.9223  1.1089
 8219SOL     OW36115   0.222   0.589   8.620 -0.4289  0.6574 -0.4140
 8219SOL    HW136116   0.295   0.584   8.559 -1.3418  1.8365 -1.5992
 8219SOL    HW236117   0.219   0.682   8.641  0.6274  0.7673 -0.7328
 8220SOL     OW36118   3.805   4.093   7.811  0.1791  0.4607  0.4693
 8220SOL    HW136119   3.745   4.065   7.880  0.6989  0.8478  1.0710
 8220SOL    HW236120   3.744   4.148   7.761  1.1506  1.0628 -0.0504
 8221SOL     OW36121   3.540   1.609   8.742 -0.3004 -0.8961  0.2917
 8221SOL    HW136122   3.461   1.575   8.786 -1.8121  0.7310 -1.2022
 8221SOL    HW236123   3.520   1.702   8.754 -0.8219 -1.0709  0.7985
 8222SOL     OW36124   4.449   2.161  12.551 -0.5012 -0.2319  0.3877
 8222SOL    HW136125   4.478   2.073  12.574 -0.3808  0.0391  1.2643
 8222SOL    HW236126   4.354   2.157  12.551 -0.4812 -0.7179 -1.2012
 8223SOL     OW36127   1.367   1.824   8.422 -0.3295 -0.2539  0.0418
 8223SOL    HW136128   1.444   1.880   8.418 -0.3839 -0.1733  0.1294
 8223SOL    HW236129   1.336   1.808   8.333  0.4823  2.2093 -0.6905
 8224SOL     OW36130   2.175   4.116   2.737  0.6175 -0.2957  0.1504
 8224SOL    HW136131   2.123   4.191   2.766  0.9770 -0.4908  1.3188
 8224SOL    HW236132   2.179   4.059   2.814 -1.2139 -1.1572 -0.4030
 8225SOL     OW36133   1.350   2.062   4.572  0.0813 -0.1664 -0.6664
 8225SOL    HW136134   1.316   2.127   4.510  2.3197  2.7481  1.1459
 8225SOL    HW236135   1.411   2.012   4.518  1.0333 -0.7489  0.9741
 8226SOL     OW36136   1.583   4.323   4.955 -0.0496 -0.2246  0.0570
 8226SOL    HW136137   1.563   4.322   5.049  1.2034  1.3237  0.3421
 8226SOL    HW236138   1.627   4.407   4.944 -0.3932  0.0007  0.3778
 8227SOL     OW36139   2.330   3.986   1.831  0.4885 -0.4059 -0.0541
 8227SOL    HW136140   2.317   3.892   1.841  2.1088 -0.4495  1.5857
 8227SOL    HW236141   2.282   4.002   1.750 -0.4391  0.4437  0.6489
 8228SOL     OW36142   2.737   0.348  10.331 -0.2164  0.0340 -0.5536
 8228SOL    HW136143   2.699   0.412  10.271 -2.7375  1.4517  2.5741
 8228SOL    HW236144   2.703   0.369  10.417  2.0293 -1.4772  0.6940
 8229SOL     OW36145   4.064   0.094   2.691  0.4651 -0.0315 -0.2153
 8229SOL    HW136146   4.007   0.078   2.767  0.1294 -0.4094 -0.5498
 8229SOL    HW236147   4.134   0.038   2.726 -0.0418  0.1004  1.0205
 8230SOL     OW36148   2.701   4.182   7.630  0.1045  0.2019  0.0617
 8230SOL    HW136149   2.707   4.275   7.609  0.5957  0.3798  1.0039
 8230SOL    HW236150   2.682   4.153   7.541 -2.0385 -4.2469  1.9780
 8231SOL     OW36151   1.127   1.950   1.663  0.1608 -0.2681 -0.4021
 8231SOL    HW136152   1.215   1.984   1.678 -1.2148  3.4805 -0.8388
 8231SOL    HW236153   1.140   1.859   1.690 -0.5883 -0.6649 -1.3432
 8232SOL     OW36154   0.529   4.143   2.426  0.0764 -0.2839 -0.0929
 8232SOL    HW136155   0.596   4.089   2.384  0.6441  0.6295 -0.3434
 8232SOL    HW236156   0.580   4.200   2.483 -0.7512  0.4115 -0.0578
 8233SOL     OW36157   1.005   3.413   3.376 -0.2141 -0.1642  0.5343
 8233SOL    HW136158   0.939   3.440   3.440 -0.1013 -3.1639  1.8848
 8233SOL    HW236159   0.949   3.416   3.298 -1.0807 -1.6756  1.1102
 8234SOL     OW36160   3.595   2.098   5.014  0.5879  0.1901  0.2056
 8234SOL    HW136161   3.638   2.101   4.928 -1.0363  2.3903 -0.5256
 8234SOL    HW236162   3.619   2.016   5.058 -0.9399 -1.3417 -1.8154
 8235SOL     OW36163   0.456   1.835   1.232 -0.4839 -0.1837  0.5075
 8235SOL    HW136164   0.362   1.817   1.236 -0.2448 -1.4621  0.3759
 8235SOL    HW236165   0.488   1.789   1.310 -1.0696  0.5468  1.1737
 8236SOL     OW36166   4.354   1.682   0.285 -0.1231  0.1719  0.0288
 8236SOL    HW136167   4.439   1.726   0.275 -1.2023  1.6677 -2.3399
 8236SOL    HW236168   4.347   1.658   0.193 -0.7188 -2.4027  0.7555
 8237SOL     OW36169   4.205   3.934  10.190 -0.6967 -0.0212 -0.1980
 8237SOL    HW136170   4.291   3.970  10.211 -1.2968  1.0135  0.4890
 8237SOL    HW236171   4.141   4.006  10.183  2.1404  2.4920 -0.3544
 8238SOL     OW36172   4.387   0.296   5.975  0.0805 -0.1143 -0.2593
 8238SOL    HW136173   4.369   0.253   5.892  3.5413  0.7691 -1.4410
 8238SOL    HW236174   4.474   0.260   5.992  0.3147  0.6140  0.0491
 8239SOL     OW36175   2.746   0.581  15.791  0.2326 -0.3352 -0.2340
 8239SOL    HW136176   2.715   0.623  15.710 -3.3867  0.7204  1.6702
 8239SOL    HW236177   2.821   0.538  15.751  0.3791 -0.3275  0.0333
 8240SOL     OW36178   1.598   1.028  12.345  0.2704 -0.4495 -0.0695
 8240SOL    HW136179   1.502   1.026  12.349  0.2451  1.5969  0.6410
 8240SOL    HW236180   1.619   0.935  12.339 -1.2491 -0.8029  0.2237
 8241SOL     OW36181   3.834   3.020   5.937 -0.3438  0.1575 -0.5474
 8241SOL    HW136182   3.855   3.058   5.852  0.9298 -0.4881 -0.5279
 8241SOL    HW236183   3.769   2.956   5.908  1.6561 -2.1248 -0.0811
 8242SOL     OW36184   2.052   0.483   1.929  0.2658  0.5674  0.0498
 8242SOL    HW136185   1.992   0.474   2.003 -2.6042 -0.3584 -2.3537
 8242SOL    HW236186   2.124   0.535   1.963 -0.5849  0.4466  2.0046
 8243SOL     OW36187   1.650   3.171  13.340  0.5775 -0.3087  0.4010
 8243SOL    HW136188   1.622   3.234  13.407  1.4690  0.7180 -0.1960
 8243SOL    HW236189   1.576   3.110  13.344  1.1358 -1.0999 -1.4279
 8244SOL     OW36190   3.228   4.503   8.937  0.5196  0.1392 -0.2290
 8244SOL    HW136191   3.172   4.553   8.996  0.1246 -0.9413  0.3124
 8244SOL    HW236192   3.310   4.529   8.978  0.6419  1.7790 -1.4922
 8245SOL     OW36193   1.260   3.997   6.502 -0.3126 -0.1279 -0.3635
 8245SOL    HW136194   1.293   4.042   6.424  1.6096  0.0857  0.5900
 8245SOL    HW236195   1.276   3.904   6.486 -1.7178 -0.2825 -0.8876
 8246SOL     OW36196   2.705   3.825   7.061  0.2438 -0.6376  0.0867
 8246SOL    HW136197   2.755   3.828   6.979  0.6551 -0.2862  0.3530
 8246SOL    HW236198   2.620   3.793   7.030 -1.1623  0.1747  3.1016
 8247SOL     OW36199   1.988   0.905  14.954 -0.0828 -0.1580  0.8743
 8247SOL    HW136200   2.080   0.879  14.958  0.1994  0.8585  0.9069
 8247SOL    HW236201   1.978   0.934  15.044 -1.3260  1.5450  0.1941
 8248SOL     OW36202   3.990   1.514   4.884 -0.0991 -0.2246  0.1049
 8248SOL    HW136203   3.937   1.448   4.929 -0.8867  1.7653  2.0966
 8248SOL    HW236204   4.052   1.528   4.956  1.9615  0.2068 -1.7495
 8249SOL     OW36205   4.496   3.486   4.288 -0.1141  0.0071 -0.7291
 8249SOL    HW136206   4.465   3.410   4.338  0.2486  0.8128  0.7170
 8249SOL    HW236207   4.447   3.482   4.205 -1.6845 -0.1702  0.1967
 8250SOL     OW36208   4.668   3.637   1.401  0.0162  0.9852 -0.2166
 8250SOL    HW136209   4.641   3.729   1.395 -1.5499  0.4725 -1.0834
 8250SOL    HW236210   4.588   3.590   1.425  0.6378  1.1537  2.2289
 8251SOL     OW36211   1.558   2.055   8.338  0.1220  0.1858 -1.0224
 8251SOL    HW136212   1.565   2.114   8.412 -0.6274 -3.1157  1.6849
 8251SOL    HW236213   1.585   2.123   8.276  1.2843  1.7644  1.2431
 8252SOL     OW36214   3.726   2.236   1.701  0.0500  0.6809 -0.5146
 8252SOL    HW136215   3.658   2.169   1.705 -0.6577  1.3326 -1.6902
 8252SOL    HW236216   3.738   2.233   1.606 -1.1489  3.1929 -0.7519
 8253SOL     OW36217   2.314   0.426   5.040 -0.4228 -0.4594 -0.0633
 8253SOL    HW136218   2.231   0.380   5.034 -0.4538 -0.3491 -0.4648
 8253SOL    HW236219   2.374   0.352   5.042 -1.6350 -1.4521 -0.6846
 8254SOL     OW36220   0.858   1.726   1.620 -0.2441 -0.1909  0.2280
 8254SOL    HW136221   0.801   1.786   1.572  1.3677  0.4708 -0.8677
 8254SOL    HW236222   0.819   1.710   1.706 -1.6315 -0.8159 -0.5263
 8255SOL     OW36223   0.585   0.237   1.161  0.5340 -0.1775  0.3407
 8255SOL    HW136224   0.533   0.166   1.198  0.0267  0.1489  0.2533
 8255SOL    HW236225   0.675   0.205   1.174  1.4460  2.7124  1.2323
 8256SOL     OW36226   1.029   3.402   9.277  1.0008 -0.1165  0.5551
 8256SOL    HW136227   1.001   3.340   9.344  0.9307 -0.0330  0.6030
 8256SOL    HW236228   1.113   3.368   9.246 -0.1531 -0.9810 -1.6642
 8257SOL     OW36229   0.116   3.879   4.660 -0.2864 -0.4047  0.0502
 8257SOL    HW136230   0.085   3.826   4.733 -0.2753  0.6122  0.7823
 8257SOL    HW236231   0.037   3.881   4.607  0.2493 -2.7847 -0.8576
 8258SOL     OW36232   0.623   1.619   2.725 -0.3669 -0.4023 -0.3872
 8258SOL    HW136233   0.708   1.647   2.690 -0.5557  1.4953  0.6709
 8258SOL    HW236234   0.590   1.690   2.781 -0.5970 -1.4087  0.7556
 8259SOL     OW36235   4.165   0.535   5.455 -0.2893 -0.1241 -0.0785
 8259SOL    HW136236   4.137   0.569   5.370 -0.8033  0.0860  0.1706
 8259SOL    HW236237   4.250   0.579   5.450  0.5801 -1.6714  1.0606
 8260SOL     OW36238   1.462   0.982   3.484  0.5148  0.1928  0.0739
 8260SOL    HW136239   1.373   0.950   3.466  0.9031 -1.7240  1.5654
 8260SOL    HW236240   1.461   1.019   3.573 -0.9721 -0.9589  0.5517
 8261SOL     OW36241   3.542   2.231  14.980  0.2689 -0.2029 -0.1672
 8261SOL    HW136242   3.505   2.309  14.939 -1.1209  0.0688  1.6288
 8261SOL    HW236243   3.617   2.274  15.019  0.4125  1.2266 -2.0444
 8262SOL     OW36244   1.431   3.971   3.415  0.3029  0.1558  0.0400
 8262SOL    HW136245   1.355   3.951   3.361 -0.2789 -2.6599  1.9236
 8262SOL    HW236246   1.491   3.898   3.397 -0.3168 -0.6395  1.2083
 8263SOL     OW36247   0.243   0.130  14.478 -0.1144  0.1607  0.1214
 8263SOL    HW136248   0.338   0.135  14.466 -0.1783 -0.5967 -0.7160
 8263SOL    HW236249   0.234   0.120  14.383  0.5792 -1.7078  0.2636
 8264SOL     OW36250   0.583   2.870  16.392 -0.0796  0.4357  0.2596
 8264SOL    HW136251   0.579   2.778  16.418 -0.4925 -0.1468 -1.8480
 8264SOL    HW236252   0.573   2.864  16.297  1.7742  3.3517 -0.1291
 8265SOL     OW36253   1.023   2.235   1.556 -0.7807  0.5271 -0.9575
 8265SOL    HW136254   0.944   2.284   1.532 -1.8106 -1.1261 -0.8737
 8265SOL    HW236255   1.007   2.147   1.522  1.8364 -1.0169  1.8157
 8266SOL     OW36256   1.384   0.946   6.271  0.5810 -0.3604  0.5055
 8266SOL    HW136257   1.379   0.942   6.176  0.7225 -0.3954  0.4993
 8266SOL    HW236258   1.465   0.897   6.288  1.6113  1.4063  0.6296
 8267SOL     OW36259   3.854   0.660   6.537  0.0645  0.4751  0.5637
 8267SOL    HW136260   3.928   0.705   6.497 -1.6351  0.4151 -2.6180
 8267SOL    HW236261   3.862   0.699   6.624  1.6696  0.7815  0.2830
 8268SOL     OW36262   1.201   0.865   2.276 -0.5739  0.0839  0.1073
 8268SOL    HW136263   1.201   0.787   2.222  0.9394  0.7494 -0.8549
 8268SOL    HW236264   1.123   0.842   2.327 -0.0391 -0.2590  0.7731
 8269SOL     OW36265   4.227   2.646   2.365  0.3093 -0.1508  0.0632
 8269SOL    HW136266   4.136   2.665   2.339  0.8492  0.2072 -1.5843
 8269SOL    HW236267   4.229   2.550   2.367 -2.1785 -0.1909  0.6345
 8270SOL     OW36268   4.724   4.224   6.370  0.2595 -0.0238 -0.2402
 8270SOL    HW136269   0.036   4.182   6.447 -2.7576  1.0357  1.7617
 8270SOL    HW236270   0.075   4.215   6.312 -0.6687 -0.7101 -1.3640
 8271SOL     OW36271   4.649   1.375   8.488  0.1043  0.1160  0.3611
 8271SOL    HW136272   0.016   1.375   8.462 -0.0374 -0.5289 -0.1239
 8271SOL    HW236273   4.643   1.284   8.517  1.4933  1.0761  3.6641
 8272SOL     OW36274   3.115   3.241  17.433  0.2988  0.9501  0.4440
 8272SOL    HW136275   3.094   3.169  17.373  2.8006  0.1628  0.5158
 8272SOL    HW236276   3.208   3.254  17.418  0.2211 -0.4927 -1.3886
 8273SOL     OW36277   4.086   1.898   3.074 -0.2973  0.1981  0.0733
 8273SOL    HW136278   4.048   1.983   3.096  1.7630  0.5381  2.3509
 8273SOL    HW236279   4.130   1.866   3.154 -0.4363 -0.9722 -0.3167
 8274SOL     OW36280   2.087   0.343  17.640  0.2862  0.1649  0.3365
 8274SOL    HW136281   2.035   0.369  17.564  0.5826 -0.3782 -0.0515
 8274SOL    HW236282   2.115   0.424  17.683 -1.4082  0.4863  0.8165
 8275SOL     OW36283   4.194   0.399   8.772 -0.4604  0.8233 -0.2399
 8275SOL    HW136284   4.219   0.470   8.713  2.1719  1.6165  1.8177
 8275SOL    HW236285   4.149   0.453   8.837  0.3746  0.8905  0.2856
 8276SOL     OW36286   0.914   3.689  13.663 -0.2260  1.0247  0.3113
 8276SOL    HW136287   0.854   3.649  13.726  1.4996  0.7467  1.7767
 8276SOL    HW236288   0.870   3.772  13.646 -1.4773  0.1165 -0.8578
 8277SOL     OW36289   2.864   3.102   7.912  0.0256 -0.1050 -0.4245
 8277SOL    HW136290   2.918   3.029   7.943  0.4451 -0.3655 -1.7449
 8277SOL    HW236291   2.783   3.056   7.889  0.6142 -0.4628 -1.7948
 8278SOL     OW36292   0.787   0.561   4.202  0.5128  0.0239  0.1445
 8278SOL    HW136293   0.825   0.617   4.134  2.9469  0.1688  1.6270
 8278SOL    HW236294   0.695   0.587   4.194 -0.3804 -3.2729 -0.4323
 8279SOL     OW36295   4.023   4.361   5.847  0.2725 -0.0736  0.3983
 8279SOL    HW136296   4.046   4.273   5.816  1.6245  0.2377  0.5293
 8279SOL    HW236297   4.014   4.347   5.941 -2.9790 -0.4164  0.0427
 8280SOL     OW36298   4.418   0.964   8.600 -0.0649 -0.5863 -0.0151
 8280SOL    HW136299   4.325   0.942   8.605 -0.1673 -0.1905 -0.1448
 8280SOL    HW236300   4.459   0.928   8.679 -0.4784  0.9887  0.9227
 8281SOL     OW36301   3.688   2.923   3.025 -0.3981  0.0400  0.0499
 8281SOL    HW136302   3.728   2.908   3.110 -2.2448 -2.5082  0.4774
 8281SOL    HW236303   3.664   2.835   2.992 -1.6221 -0.0200  1.0953
 8282SOL     OW36304   2.498   3.871   7.396 -0.0117  0.4608  0.2034
 8282SOL    HW136305   2.457   3.859   7.311 -0.5366 -2.2368  0.8202
 8282SOL    HW236306   2.523   3.780   7.412 -0.3037  0.5877  1.3946
 8283SOL     OW36307   2.533   1.496   7.597  0.2809  0.0455  0.3129
 8283SOL    HW136308   2.547   1.438   7.522 -0.6719  1.9591 -1.3326
 8283SOL    HW236309   2.438   1.494   7.604  0.2514  1.9572  0.4903
 8284SOL     OW36310   2.864   1.754   8.754 -0.1656 -0.3946 -0.1592
 8284SOL    HW136311   2.881   1.664   8.726  0.3161  0.3698 -2.3696
 8284SOL    HW236312   2.835   1.747   8.845 -2.1422  0.5374 -0.7183
 8285SOL     OW36313   2.322   0.743   6.162 -0.0666 -0.2540  0.0204
 8285SOL    HW136314   2.365   0.658   6.164 -1.0185 -0.8123 -3.8218
 8285SOL    HW236315   2.297   0.764   6.253 -0.6643 -0.2896 -0.1319
 8286SOL     OW36316   0.635   2.335   6.987 -0.1863  0.3193  0.3261
 8286SOL    HW136317   0.672   2.252   6.957  0.3979 -0.0315  2.0142
 8286SOL    HW236318   0.628   2.382   6.903  0.1871  1.4130  0.9046
 8287SOL     OW36319   0.567   2.894   8.424 -0.3291  0.2567  0.7131
 8287SOL    HW136320   0.579   2.988   8.408 -0.1512  0.0189 -0.6304
 8287SOL    HW236321   0.473   2.882   8.412 -0.3070  1.6209 -0.8600
 8288SOL     OW36322   3.162   3.820   9.160  0.2527 -0.2269 -0.1041
 8288SOL    HW136323   3.207   3.890   9.209 -1.3724  0.4502  0.4038
 8288SOL    HW236324   3.194   3.747   9.213 -1.0620 -0.6793  0.0646
 8289SOL     OW36325   1.039   0.537   0.536 -0.4987  0.0902  0.3377
 8289SOL    HW136326   1.082   0.519   0.452  1.0696  0.3445  1.0814
 8289SOL    HW236327   1.033   0.449   0.573  4.0965 -0.7197 -0.8684
 8290SOL     OW36328   0.044   0.741   5.373 -0.3289 -0.5312 -0.7190
 8290SOL    HW136329   0.098   0.667   5.347  2.2867  1.3636 -0.7471
 8290SOL    HW236330   0.091   0.774   5.449 -1.5578 -0.8446  0.1724
 8291SOL     OW36331   2.356   1.403   2.217  0.2209  0.1661  0.0214
 8291SOL    HW136332   2.379   1.414   2.309  0.1645 -0.5617  0.1227
 8291SOL    HW236333   2.333   1.489   2.183  2.1257  0.7080  0.1129
 8292SOL     OW36334   2.475   3.148   7.923  0.3893 -0.6808  0.0246
 8292SOL    HW136335   2.546   3.086   7.910  0.8098  0.4485 -3.0069
 8292SOL    HW236336   2.512   3.204   7.991 -2.7881 -1.3743  2.3345
 8293SOL     OW36337   1.243   1.914  10.238 -0.1619 -0.0594  0.1783
 8293SOL    HW136338   1.158   1.909  10.282 -0.8967 -0.5571 -1.2958
 8293SOL    HW236339   1.219   1.888  10.149 -0.1485  0.2905  0.0719
 8294SOL     OW36340   2.277   2.328   6.120  0.2215 -0.1411  0.6239
 8294SOL    HW136341   2.305   2.333   6.211 -1.1728  1.3709  0.9701
 8294SOL    HW236342   2.345   2.370   6.067  1.7003 -0.3166  2.3731
 8295SOL     OW36343   0.930   1.168   1.614  0.3237  0.0262  0.4877
 8295SOL    HW136344   0.920   1.154   1.520 -1.3600  0.8147  0.5555
 8295SOL    HW236345   0.921   1.262   1.626  2.5486  0.1851  0.8692
 8296SOL     OW36346   4.054   3.898   6.757  0.1352  0.5513 -0.1804
 8296SOL    HW136347   4.123   3.872   6.818  0.0361  1.9515  0.5278
 8296SOL    HW236348   3.976   3.895   6.812  0.7921 -0.9283  0.6866
 8297SOL     OW36349   1.618   2.754   6.090  0.0043 -0.7717 -0.0527
 8297SOL    HW136350   1.628   2.673   6.140 -2.8597  1.4282  4.0944
 8297SOL    HW236351   1.617   2.822   6.156  1.9810  0.9332 -1.7692
 8298SOL     OW36352   0.493   0.547  12.590  0.8220 -0.6671 -0.1170
 8298SOL    HW136353   0.475   0.589  12.675 -0.2385  1.8392 -1.5592
 8298SOL    HW236354   0.584   0.571  12.576  0.6612 -0.9605 -1.5780
 8299SOL     OW36355   2.180   4.159   1.621 -0.1103  0.0314 -0.1024
 8299SOL    HW136356   2.263   4.145   1.575 -0.8292 -0.7231 -1.1941
 8299SOL    HW236357   2.165   4.249   1.592  2.1171  0.0987 -1.0422
 8300SOL     OW36358   3.128   0.648  13.489  0.3721 -0.6137 -0.0696
 8300SOL    HW136359   3.178   0.615  13.564 -0.4028 -0.4023  0.5527
 8300SOL    HW236360   3.151   0.583  13.422  1.0722 -1.2145  0.7452
 8301SOL     OW36361   1.070   0.518   0.813 -0.6129  0.1953  0.5233
 8301SOL    HW136362   0.980   0.518   0.846  0.1567 -0.6943  2.5873
 8301SOL    HW236363   1.051   0.568   0.733 -1.4070  1.5564  1.5640
 8302SOL     OW36364   2.901   2.584   8.109 -0.4839 -0.2007 -0.3284
 8302SOL    HW136365   2.930   2.495   8.127  1.2935  0.4691  0.0661
 8302SOL    HW236366   2.890   2.583   8.014  2.9000  0.4139 -0.7174
 8303SOL     OW36367   2.174   4.142  14.947 -0.0206 -0.4055 -0.3367
 8303SOL    HW136368   2.204   4.220  14.994  1.2347 -0.5625 -0.8673
 8303SOL    HW236369   2.247   4.079  14.952 -0.4302 -0.7739  0.9745
 8304SOL     OW36370   4.203   3.299   8.640  0.4996 -0.1980  0.3121
 8304SOL    HW136371   4.278   3.278   8.695 -0.6935  1.5818  2.6346
 8304SOL    HW236372   4.199   3.228   8.576  0.5623 -1.7877  2.0756
 8305SOL     OW36373   1.701   0.610   7.134 -0.0842  0.8188 -0.1675
 8305SOL    HW136374   1.654   0.692   7.120 -0.5545  0.5022 -0.4357
 8305SOL    HW236375   1.789   0.645   7.148 -0.1646  0.3902  1.4130
 8306SOL     OW36376   3.925   1.522  14.069 -0.0562  0.3828  0.7525
 8306SOL    HW136377   3.965   1.457  14.127  1.9112  0.3157 -0.6479
 8306SOL    HW236378   3.839   1.483  14.056 -0.6919  1.7851  0.8189
 8307SOL     OW36379   2.230   0.787   6.721 -0.1172  0.2113  0.1587
 8307SOL    HW136380   2.172   0.756   6.791 -0.1354  2.0624  0.9393
 8307SOL    HW236381   2.204   0.879   6.723  1.5552  0.7103 -1.1927
 8308SOL     OW36382   0.878   1.137   8.838 -0.0122  0.5004  0.0879
 8308SOL    HW136383   0.888   1.217   8.785 -0.7243  0.1787 -0.5377
 8308SOL    HW236384   0.955   1.137   8.895 -0.4333  2.0561  0.6617
 8309SOL     OW36385   2.051   0.066  17.611 -0.1274 -0.2697  0.2367
 8309SOL    HW136386   2.052   0.158  17.636 -1.0235 -0.0679 -0.4701
 8309SOL    HW236387   2.032   0.077  17.518 -0.1103  1.7100  0.4792
 8310SOL     OW36388   0.863   1.274   9.186  0.2030 -0.0287 -1.1562
 8310SOL    HW136389   0.923   1.201   9.201 -0.4466 -0.2277  0.4883
 8310SOL    HW236390   0.930   1.342   9.179 -0.3389  0.6250 -0.0195
 8311SOL     OW36391   4.155   3.474   4.299 -0.0986  0.6357 -0.1594
 8311SOL    HW136392   4.155   3.504   4.390 -1.9628  0.6499 -0.1648
 8311SOL    HW236393   4.134   3.383   4.319 -1.4690  0.9641 -0.1216
 8312SOL     OW36394   0.138   4.163   3.417  0.1420 -0.4908  0.1087
 8312SOL    HW136395   0.214   4.121   3.458  2.1989  2.1524 -0.9971
 8312SOL    HW236396   0.113   4.106   3.345 -3.1979  0.1193  0.8070
 8313SOL     OW36397   0.804   1.379   7.963  0.4492 -0.1574  0.1548
 8313SOL    HW136398   0.746   1.394   8.037  0.6648 -0.3510  0.3641
 8313SOL    HW236399   0.776   1.455   7.912  1.4151 -1.5307 -2.4334
 8314SOL     OW36400   2.089   1.889   5.941  0.3314  0.1620 -0.6590
 8314SOL    HW136401   2.112   1.866   5.851 -0.6816 -2.1405 -0.3290
 8314SOL    HW236402   2.014   1.948   5.928 -0.6835 -1.0083 -0.1383
 8315SOL     OW36403   4.556   4.321  15.717  0.1112 -0.4148  0.1639
 8315SOL    HW136404   4.506   4.400  15.698  0.6058  0.3415  1.9790
 8315SOL    HW236405   4.507   4.286  15.791  0.5017  1.2668  1.2196
 8316SOL     OW36406   3.209   0.685  11.587  0.0143 -0.0356  0.1590
 8316SOL    HW136407   3.187   0.614  11.527  1.7987  0.6393 -1.3085
 8316SOL    HW236408   3.234   0.636  11.665 -0.3617  0.3274  0.5068
 8317SOL     OW36409   4.337   1.214  12.573 -0.1346  0.1239 -0.7379
 8317SOL    HW136410   4.407   1.245  12.630 -1.4735  0.6626  0.6001
 8317SOL    HW236411   4.386   1.153  12.518 -0.1370 -0.1071 -0.4821
 8318SOL     OW36412   2.087   1.931   4.451 -0.5432  0.3318  0.7211
 8318SOL    HW136413   2.119   1.961   4.366 -0.9116 -0.4413  0.3082
 8318SOL    HW236414   2.082   1.836   4.442 -0.9235  0.2531  1.7354
 8319SOL     OW36415   0.547   4.341   2.797  0.0126 -0.2398 -0.2214
 8319SOL    HW136416   0.513   4.398   2.728 -0.3093  1.8590  1.6739
 8319SOL    HW236417   0.623   4.311   2.746 -0.5981 -2.2620  0.0535
 8320SOL     OW36418   1.711   3.941   4.076  0.2081 -0.2891  0.4412
 8320SOL    HW136419   1.677   4.002   4.142  2.5122  0.0208  1.3319
 8320SOL    HW236420   1.779   3.893   4.123  0.5717 -0.1705  0.0336
 8321SOL     OW36421   1.254   4.131   5.958  0.5485 -0.2629 -0.3665
 8321SOL    HW136422   1.254   4.057   5.897 -2.0545 -1.0526  0.6019
 8321SOL    HW236423   1.333   4.177   5.929  0.9821 -2.2895 -2.4193
 8322SOL     OW36424   0.663   0.106   4.885  0.6830  0.0057  0.3580
 8322SOL    HW136425   0.731   0.147   4.939  0.3231  1.7463 -0.4984
 8322SOL    HW236426   0.622   0.045   4.947  0.6948  0.3732  0.7297
 8323SOL     OW36427   4.453   4.451   3.071 -0.3679 -0.0906 -0.0949
 8323SOL    HW136428   4.364   4.424   3.095 -0.2192  0.1033  0.6966
 8323SOL    HW236429   4.497   4.367   3.065  1.4453  0.9690 -1.5860
 8324SOL     OW36430   1.746   4.006   4.909 -0.0675 -0.4602 -0.1053
 8324SOL    HW136431   1.658   3.986   4.876 -1.2960 -0.7509  3.3269
 8324SOL    HW236432   1.745   4.090   4.956 -2.4951 -1.2228  1.2335
 8325SOL     OW36433   0.695   2.300  13.956  0.5561  0.3410 -0.6197
 8325SOL    HW136434   0.649   2.344  13.885  1.3914  0.7629 -0.9056
 8325SOL    HW236435   0.783   2.308  13.920  0.6706 -1.4651 -0.7419
 8326SOL     OW36436   2.417   1.102   3.301  0.4185  0.2676 -0.2736
 8326SOL    HW136437   2.391   1.012   3.278 -1.1969  0.6389  0.1200
 8326SOL    HW236438   2.507   1.086   3.329  0.0535 -0.4207  0.5272
 8327SOL     OW36439   0.953   1.106   7.126  0.2382  0.1721 -0.3122
 8327SOL    HW136440   0.965   1.012   7.140 -1.8706 -0.2788 -1.5491
 8327SOL    HW236441   0.876   1.106   7.068 -0.5475 -1.8674  0.7423
 8328SOL     OW36442   3.210   3.926   2.328  0.3289  0.3903 -0.0039
 8328SOL    HW136443   3.264   3.953   2.253  2.3951 -0.8280  1.0661
 8328SOL    HW236444   3.236   3.989   2.395 -1.5023  2.2263 -0.9891
 8329SOL     OW36445   0.124   4.246   9.509  0.7077  0.0936 -0.2183
 8329SOL    HW136446   0.150   4.303   9.581  3.3809  0.1782 -1.2240
 8329SOL    HW236447   0.210   4.234   9.470 -0.6350 -2.9011 -2.1877
 8330SOL     OW36448   3.451   3.795   7.200  0.1828  0.3565 -0.0546
 8330SOL    HW136449   3.501   3.744   7.263 -3.5179 -0.5419  2.1959
 8330SOL    HW236450   3.407   3.716   7.167 -0.1069  0.1402  0.8480
 8331SOL     OW36451   2.431   0.617   2.670 -0.0085  0.1517 -0.0159
 8331SOL    HW136452   2.417   0.561   2.747 -1.4293 -0.3879 -0.6593
 8331SOL    HW236453   2.444   0.544   2.609 -2.6675 -0.8732  0.6313
 8332SOL     OW36454   3.435   2.238   9.871 -0.0883  0.3690  0.2040
 8332SOL    HW136455   3.481   2.168   9.827 -0.5493  0.2627 -0.1153
 8332SOL    HW236456   3.353   2.244   9.821  0.3470 -0.0235 -0.5444
 8333SOL     OW36457   0.791   3.811   3.396 -0.4886 -0.1768  0.6496
 8333SOL    HW136458   0.836   3.871   3.456  0.7223  1.4995 -1.9157
 8333SOL    HW236459   0.701   3.806   3.429 -1.0098 -1.9832 -1.0791
 8334SOL     OW36460   3.549   0.326   0.099 -0.1824  0.0456  0.0874
 8334SOL    HW136461   3.534   0.232   0.111 -0.3983  0.0354 -0.2545
 8334SOL    HW236462   3.491   0.364   0.165 -3.0227  0.9672 -2.9219
 8335SOL     OW36463   4.360   1.718   5.874 -0.3847  0.4019  0.0935
 8335SOL    HW136464   4.370   1.735   5.781 -1.5213  0.9781  0.0707
 8335SOL    HW236465   4.448   1.747   5.898  0.2982 -1.6689  0.1034
 8336SOL     OW36466   4.148   2.845   9.223  0.6611  0.1129  0.3666
 8336SOL    HW136467   4.137   2.931   9.265  0.3096  0.5655 -0.6431
 8336SOL    HW236468   4.130   2.797   9.304 -1.0641  0.3120  0.0989
 8337SOL     OW36469   1.068   2.192   6.281 -0.3025  0.3361  0.2581
 8337SOL    HW136470   1.044   2.281   6.256 -1.6605 -0.0503  0.2087
 8337SOL    HW236471   1.025   2.189   6.366 -0.5791 -1.7185  0.0364
 8338SOL     OW36472   1.937   0.092   4.049 -1.0712  0.0373 -0.2789
 8338SOL    HW136473   1.914   0.101   3.957  0.1745 -1.0848 -0.6980
 8338SOL    HW236474   2.000   0.021   4.037 -3.8729 -2.4903 -0.0663
 8339SOL     OW36475   4.147   1.079   1.713  0.6152  0.0437  0.0613
 8339SOL    HW136476   4.102   1.029   1.645  0.4539 -1.3425  1.1682
 8339SOL    HW236477   4.202   1.132   1.657  0.0926 -0.3196 -0.7994
 8340SOL     OW36478   2.153   3.398  15.440 -0.0426  0.0385  0.5697
 8340SOL    HW136479   2.153   3.474  15.499  2.1671  1.1872 -0.9365
 8340SOL    HW236480   2.244   3.370  15.438  0.1798  0.5962  3.2900
 8341SOL     OW36481   3.596   4.108   7.998  0.5890 -0.1415  0.4188
 8341SOL    HW136482   3.544   4.182   7.967  0.4372 -0.4635 -0.0805
 8341SOL    HW236483   3.661   4.169   8.034  1.4578 -1.7016  1.5200
 8342SOL     OW36484   3.672   1.082  11.464  0.2428  0.4841  0.0453
 8342SOL    HW136485   3.678   1.103  11.371 -3.8583  1.1131 -0.0794
 8342SOL    HW236486   3.605   1.147  11.487 -1.8684 -1.5473 -0.3145
 8343SOL     OW36487   0.780   4.011   5.108  0.2916  0.2971 -0.1570
 8343SOL    HW136488   0.871   4.009   5.078  0.7500 -1.9331  1.3296
 8343SOL    HW236489   0.762   3.918   5.119 -0.1379  0.3983 -0.0367
 8344SOL     OW36490   4.206   0.364   8.006 -0.2899 -0.1353  0.0251
 8344SOL    HW136491   4.299   0.361   8.028 -0.4611 -1.3886  0.5340
 8344SOL    HW236492   4.189   0.299   7.937  0.8892 -0.3059 -0.0981
 8345SOL     OW36493   2.306   0.288   5.349  0.2125 -0.3080  0.3017
 8345SOL    HW136494   2.344   0.241   5.275  1.4182 -2.0144  1.9859
 8345SOL    HW236495   2.356   0.370   5.343 -0.1844 -0.0617  0.3957
 8346SOL     OW36496   2.993   1.083  10.029 -0.1545  0.0206  0.2344
 8346SOL    HW136497   2.928   1.032  10.078 -0.2732 -1.6380 -1.6230
 8346SOL    HW236498   2.989   1.034   9.946 -1.9890  1.9197 -0.8051
 8347SOL     OW36499   2.994   3.294  15.938  0.4367  0.3905 -0.5355
 8347SOL    HW136500   2.958   3.293  16.026 -0.0624  0.2746 -0.7367
 8347SOL    HW236501   2.914   3.271  15.890  0.5838 -1.0692 -0.0937
 8348SOL     OW36502   1.225   0.720  10.552 -1.1056  0.3495  0.4798
 8348SOL    HW136503   1.153   0.783  10.554  0.0989  1.7257 -0.1830
 8348SOL    HW236504   1.285   0.756  10.617 -1.2278  0.6823  0.4090
 8349SOL     OW36505   2.335   1.264   7.124 -0.4621  0.3163 -0.0923
 8349SOL    HW136506   2.294   1.233   7.206 -2.0147  2.3016 -0.1117
 8349SOL    HW236507   2.345   1.179   7.081  0.9483 -0.2163  1.2584
 8350SOL     OW36508   2.153   0.838   2.706 -0.2987 -0.1540 -0.1835
 8350SOL    HW136509   2.100   0.881   2.772 -0.0244  1.2398 -0.8789
 8350SOL    HW236510   2.140   0.744   2.722 -0.4610 -0.2893 -1.1003
 8351SOL     OW36511   3.274   2.379   1.697  0.0187 -0.0507 -0.4461
 8351SOL    HW136512   3.216   2.303   1.697 -0.1314  0.0648  0.6668
 8351SOL    HW236513   3.210   2.449   1.687  0.8276  0.7689  0.1537
 8352SOL     OW36514   2.158   2.259   7.387  0.4462 -0.2577 -0.2385
 8352SOL    HW136515   2.067   2.254   7.357  0.4217  2.7233 -0.6749
 8352SOL    HW236516   2.157   2.334   7.446  1.2429 -1.3669  1.1992
 8353SOL     OW36517   4.597   0.257   2.466  0.0465  0.1050  0.7756
 8353SOL    HW136518   4.656   0.302   2.527  0.5494 -0.7704  0.9323
 8353SOL    HW236519   4.520   0.267   2.521 -0.9570  2.1993 -1.0209
 8354SOL     OW36520   4.192   3.448   3.099  0.5481 -0.5684 -0.5462
 8354SOL    HW136521   4.268   3.497   3.131  0.8316 -0.5371 -1.2693
 8354SOL    HW236522   4.140   3.526   3.081 -2.0229 -1.9235  1.0244
 8355SOL     OW36523   0.825   4.350   3.709  0.3875 -0.7835 -0.9467
 8355SOL    HW136524   0.813   4.373   3.801 -0.1257 -0.2142 -1.1651
 8355SOL    HW236525   0.802   4.433   3.668 -2.1493 -1.1447 -0.2354
 8356SOL     OW36526   0.312   2.620   5.782  0.8059  0.0082  0.3845
 8356SOL    HW136527   0.286   2.589   5.695 -0.2685  2.7898 -0.3155
 8356SOL    HW236528   0.397   2.654   5.755  0.2757  1.4592  0.5094
 8357SOL     OW36529   3.384   3.813   8.993 -0.3989 -0.2766  0.1253
 8357SOL    HW136530   3.332   3.854   9.062 -1.9567 -1.4409 -0.3535
 8357SOL    HW236531   3.379   3.721   9.020  0.7172 -0.1101  0.8794
 8358SOL     OW36532   4.671   1.027   2.521 -0.5055 -0.0491  0.0902
 8358SOL    HW136533   0.027   1.005   2.476 -0.2268  3.7217 -1.2876
 8358SOL    HW236534   4.703   1.047   2.610  1.6072 -0.5246 -0.5761
 8359SOL     OW36535   2.307   3.547   8.976  0.1178  0.2263 -0.1195
 8359SOL    HW136536   2.263   3.612   8.921 -0.1886  0.7193  0.7076
 8359SOL    HW236537   2.395   3.584   8.983  0.2879 -0.2314  0.1447
 8360SOL     OW36538   1.578   3.358   7.353 -0.5126 -0.3516  0.4514
 8360SOL    HW136539   1.513   3.290   7.333  0.0064 -0.2568 -1.4977
 8360SOL    HW236540   1.529   3.404   7.422 -0.6514  0.8699 -0.4773
 8361SOL     OW36541   3.599   0.278   1.276  0.5515  0.2088 -0.0175
 8361SOL    HW136542   3.606   0.318   1.190 -0.2121 -0.0835 -0.2150
 8361SOL    HW236543   3.657   0.332   1.331  2.9643  0.9087 -3.2171
 8362SOL     OW36544   0.549   2.648   1.235 -0.0343 -0.4869  0.2920
 8362SOL    HW136545   0.474   2.618   1.286  1.5021 -1.0483  2.2391
 8362SOL    HW236546   0.575   2.731   1.275 -1.9382  0.8835 -1.2970
 8363SOL     OW36547   4.531   0.588   0.856  0.1862 -0.1304 -0.2296
 8363SOL    HW136548   4.610   0.588   0.803  0.0575 -0.4214 -0.4158
 8363SOL    HW236549   4.567   0.563   0.942  0.0609 -0.1862 -0.1938
 8364SOL     OW36550   2.252   2.504   5.515  0.2483 -0.4348 -0.3765
 8364SOL    HW136551   2.315   2.479   5.448 -0.2062  0.1999 -1.0452
 8364SOL    HW236552   2.176   2.512   5.457  0.4624 -2.5627 -0.9414
 8365SOL     OW36553   2.792   1.848   9.051  0.2917 -0.1679  0.4077
 8365SOL    HW136554   2.704   1.876   9.024  0.5149  0.6969  0.6011
 8365SOL    HW236555   2.840   1.929   9.065 -0.1103  0.3388 -1.0855
 8366SOL     OW36556   3.600   4.561   6.840 -0.6557 -0.0890 -0.8951
 8366SOL    HW136557   3.610   4.488   6.778 -0.0939 -0.8970  0.1497
 8366SOL    HW236558   3.594   4.642   6.789 -0.7674 -1.4637 -3.0712
 8367SOL     OW36559   4.027   2.146   3.132  0.1066  0.3284  0.9063
 8367SOL    HW136560   4.084   2.204   3.183  1.0858  0.3092 -0.1548
 8367SOL    HW236561   3.943   2.149   3.178 -1.5403 -2.4510 -1.9848
 8368SOL     OW36562   4.571   3.912   7.520 -0.5253  0.0492  0.4461
 8368SOL    HW136563   4.573   3.997   7.476 -0.4512 -2.1007 -3.6367
 8368SOL    HW236564   4.642   3.919   7.585  0.9019 -0.7975 -1.0343
 8369SOL     OW36565   2.200   3.763   9.403  0.2729 -0.1286 -0.4443
 8369SOL    HW136566   2.296   3.758   9.399  0.2850  0.3795 -0.6771
 8369SOL    HW236567   2.180   3.684   9.453 -2.5240  0.0658 -1.2585
 8370SOL     OW36568   2.198   3.319  16.123 -0.3538 -0.4057 -0.2556
 8370SOL    HW136569   2.265   3.264  16.084 -0.1392 -0.8485  0.7526
 8370SOL    HW236570   2.146   3.355  16.050 -1.2655  0.9905  1.0829
 8371SOL     OW36571   0.938   2.103  14.444  0.0547 -0.0143 -0.3310
 8371SOL    HW136572   0.903   2.038  14.382  0.8002 -0.4685 -0.2810
 8371SOL    HW236573   0.957   2.046  14.519 -0.1357 -0.7857 -0.8701
 8372SOL     OW36574   1.789   3.214   1.602 -0.1926  0.1483  0.7492
 8372SOL    HW136575   1.747   3.129   1.589  1.3917 -0.1415 -2.3041
 8372SOL    HW236576   1.868   3.187   1.648 -0.8270 -1.1817  1.0574
 8373SOL     OW36577   0.996   0.476  15.914 -0.4171 -0.1493  0.5820
 8373SOL    HW136578   0.948   0.396  15.935  0.1848 -0.9493 -1.0600
 8373SOL    HW236579   1.085   0.443  15.901 -0.5744  0.0972 -1.1378
 8374SOL     OW36580   0.438   3.954   0.105 -0.2540  0.3398  0.6565
 8374SOL    HW136581   0.473   4.024   0.161 -0.3744  1.9246 -1.2634
 8374SOL    HW236582   0.414   3.882   0.164  0.7249  0.4597  1.1937
 8375SOL     OW36583   0.810   3.717   8.265  0.2020 -0.5700 -0.1213
 8375SOL    HW136584   0.794   3.798   8.217 -0.8617 -0.8054 -0.1714
 8375SOL    HW236585   0.894   3.740   8.305  0.0980 -0.1312 -0.1565
 8376SOL     OW36586   3.233   1.796   7.805 -0.7988  0.2160 -0.6206
 8376SOL    HW136587   3.160   1.734   7.799 -2.3408  2.1336 -1.7510
 8376SOL    HW236588   3.181   1.873   7.828 -2.2584 -1.4462  1.6143
 8377SOL     OW36589   0.852   4.125   3.051  0.2977 -0.4679 -0.2938
 8377SOL    HW136590   0.849   4.162   3.140  0.0310 -1.7340  0.2172
 8377SOL    HW236591   0.849   4.208   3.002 -0.6459  0.6378  1.6039
 8378SOL     OW36592   2.153   2.060  16.127 -0.2846 -0.2544  0.5639
 8378SOL    HW136593   2.076   2.007  16.104 -0.4432 -0.1161  0.7820
 8378SOL    HW236594   2.211   1.993  16.163  0.6841  0.6953  0.7510
 8379SOL     OW36595   3.942   0.805   4.183  0.1304 -0.2043 -0.1760
 8379SOL    HW136596   3.931   0.891   4.142 -0.9608  0.7112  2.0292
 8379SOL    HW236597   4.035   0.797   4.161  0.4323 -0.9301  1.3831
 8380SOL     OW36598   4.013   0.883   8.055  0.1974  0.0996  0.0547
 8380SOL    HW136599   3.942   0.843   8.107  0.3613  1.0235  0.9854
 8380SOL    HW236600   4.067   0.804   8.043 -0.0225 -0.1740  0.8562
 8381SOL     OW36601   1.433   2.090  11.091  0.1063  0.3654 -0.3148
 8381SOL    HW136602   1.419   2.162  11.152  1.7508 -0.4687  1.0623
 8381SOL    HW236603   1.395   2.114  11.006 -0.0067 -1.4807 -0.7883
 8382SOL     OW36604   1.840   3.148   0.493 -1.0665 -0.0035 -0.0173
 8382SOL    HW136605   1.792   3.229   0.475 -2.4706 -0.6086  1.0698
 8382SOL    HW236606   1.888   3.175   0.571  1.3750 -0.9884 -1.1423
 8383SOL     OW36607   0.687   3.367   6.781 -0.4415 -0.4079 -0.0259
 8383SOL    HW136608   0.687   3.320   6.698 -1.4581  0.6429 -0.6129
 8383SOL    HW236609   0.773   3.409   6.784  0.3181 -1.9096 -0.9509
 8384SOL     OW36610   1.025   1.227   6.160  0.2079  0.1240 -0.3801
 8384SOL    HW136611   0.960   1.157   6.166 -0.9293  1.4192  2.2040
 8384SOL    HW236612   0.999   1.280   6.235  1.4626  0.0253  0.1241
 8385SOL     OW36613   4.545   3.960  13.815  0.1976  0.2189  0.4051
 8385SOL    HW136614   4.522   4.039  13.863  1.7199  0.7390  0.2830
 8385SOL    HW236615   4.586   3.994  13.735 -0.0091 -0.7828 -0.1273
 8386SOL     OW36616   4.625   0.134   8.238 -0.5422 -0.2031  0.2117
 8386SOL    HW136617   4.679   0.137   8.317  0.5638 -0.4318 -0.5214
 8386SOL    HW236618   4.541   0.152   8.279 -1.3985 -2.1899 -0.6762
 8387SOL     OW36619   2.764   2.553  12.442 -0.0091 -0.7479  0.2403
 8387SOL    HW136620   2.760   2.625  12.378  0.7348  0.5703  1.6635
 8387SOL    HW236621   2.825   2.492  12.401  0.1183  0.5039 -1.4347
 8388SOL     OW36622   2.741   1.368   6.101  0.0745 -0.4438  0.8990
 8388SOL    HW136623   2.735   1.415   6.019 -0.2573 -0.1055  1.1179
 8388SOL    HW236624   2.797   1.295   6.075  0.8059 -0.9953  3.9790
 8389SOL     OW36625   3.553   3.368   4.328  0.8975  0.0201  0.2428
 8389SOL    HW136626   3.566   3.441   4.267 -3.5087 -0.3297 -1.1208
 8389SOL    HW236627   3.484   3.393   4.388  2.5710  2.9998  0.9409
 8390SOL     OW36628   2.973   3.093   4.404 -0.3377  0.5571 -0.0680
 8390SOL    HW136629   2.880   3.102   4.427 -0.4887  0.3184 -0.5748
 8390SOL    HW236630   2.986   3.178   4.362  0.9725 -0.3416 -1.4917
 8391SOL     OW36631   2.974   3.357   6.345  0.3819 -0.0209 -0.4543
 8391SOL    HW136632   2.949   3.322   6.260 -1.7473 -1.5035  0.7886
 8391SOL    HW236633   2.892   3.400   6.370 -0.2724 -2.1353  1.0047
 8392SOL     OW36634   3.402   4.654   2.002  0.8110 -0.7423  0.0034
 8392SOL    HW136635   3.401   0.001   2.065  0.9107  2.2123 -3.3170
 8392SOL    HW236636   3.495   4.640   1.989  0.7729 -0.0297 -1.1213
 8393SOL     OW36637   1.359   3.616  10.971 -0.2712 -0.1047 -0.8396
 8393SOL    HW136638   1.328   3.541  10.920 -1.9360 -1.4988  2.1797
 8393SOL    HW236639   1.354   3.688  10.908 -0.8164  0.0430 -0.6301
 8394SOL     OW36640   2.624   2.351   6.850  0.0977  0.0615 -0.5056
 8394SOL    HW136641   2.550   2.332   6.908  0.1499 -0.0844 -0.4850
 8394SOL    HW236642   2.626   2.443   6.876  0.4534  0.2165 -1.0885
 8395SOL     OW36643   0.654   3.455  10.535 -0.8349 -0.6991  0.0084
 8395SOL    HW136644   0.573   3.405  10.544 -0.8341 -0.4116  1.6709
 8395SOL    HW236645   0.720   3.387  10.524 -0.0888  0.0345 -0.0553
 8396SOL     OW36646   1.827   4.383  13.308  0.5360  0.6843 -0.1159
 8396SOL    HW136647   1.772   4.456  13.337  0.0447  0.1430  0.3439
 8396SOL    HW236648   1.886   4.426  13.247 -0.5582 -0.1884 -1.8167
 8397SOL     OW36649   4.498   0.533   7.852 -0.0521 -0.1217 -0.2535
 8397SOL    HW136650   4.475   0.621   7.882 -1.5725  0.0068 -1.7506
 8397SOL    HW236651   4.462   0.473   7.917 -1.9059  0.9986 -0.2474
 8398SOL     OW36652   1.394   4.449   6.143  0.6115 -0.4883 -0.0105
 8398SOL    HW136653   1.418   4.415   6.057  1.5146  1.0165 -0.3460
 8398SOL    HW236654   1.325   4.385   6.164 -0.5028  0.5947 -0.3988
 8399SOL     OW36655   0.948   2.984  13.685  0.4317  0.0916  0.1427
 8399SOL    HW136656   0.968   2.891  13.686 -0.1780 -0.0721 -2.4941
 8399SOL    HW236657   0.888   2.997  13.758  1.7294 -2.2394  1.5819
 8400SOL     OW36658   4.021   4.475   0.180 -0.6885 -0.0729 -0.0836
 8400SOL    HW136659   3.999   4.441   0.267 -1.0176  1.5514  0.4806
 8400SOL    HW236660   3.980   4.419   0.114 -0.8240  0.7373 -0.6903
 8401SOL     OW36661   1.520   3.427   3.439 -0.0752  0.4025  0.0661
 8401SOL    HW136662   1.430   3.403   3.419 -0.3162  2.1300 -0.9407
 8401SOL    HW236663   1.569   3.374   3.377 -2.2283 -0.3798 -0.9372
 8402SOL     OW36664   3.465   0.974   4.961 -0.2838 -0.1462 -0.3738
 8402SOL    HW136665   3.419   0.924   5.028 -0.7812  2.4064  1.1752
 8402SOL    HW236666   3.504   0.900   4.914 -0.6050 -0.8166  0.4267
 8403SOL     OW36667   4.276   4.418   3.501  0.2026  0.2462 -0.2452
 8403SOL    HW136668   4.246   4.480   3.435  2.1258  0.5774 -0.8011
 8403SOL    HW236669   4.193   4.393   3.543 -1.5937  2.6133 -2.3703
 8404SOL     OW36670   2.329   0.359   5.978 -0.1166 -0.0765  0.2961
 8404SOL    HW136671   2.368   0.305   5.910  0.7579 -2.2438  2.4912
 8404SOL    HW236672   2.258   0.297   5.994 -2.7499  2.2305 -2.4942
 8405SOL     OW36673   0.553   1.442   6.836  0.3320 -0.2397  0.8719
 8405SOL    HW136674   0.477   1.399   6.796  0.6041  1.0877 -1.1046
 8405SOL    HW236675   0.591   1.475   6.754 -1.5033  2.3131  1.0397
 8406SOL     OW36676   2.489   0.192   7.524 -0.0104  0.0247 -0.2472
 8406SOL    HW136677   2.411   0.239   7.554  1.2624  0.8211  1.8651
 8406SOL    HW236678   2.536   0.265   7.483  1.7978 -1.6986 -1.1994
 8407SOL     OW36679   4.151   1.554   5.169  0.0774 -0.1400  0.4820
 8407SOL    HW136680   4.189   1.477   5.128  2.4900  1.9420 -1.2396
 8407SOL    HW236681   4.125   1.520   5.254  0.2677  0.6985  0.8786
 8408SOL     OW36682   3.071   0.019   4.989  0.0734 -0.1544  0.4825
 8408SOL    HW136683   3.023   0.097   4.961  1.1085 -0.4754 -2.1822
 8408SOL    HW236684   3.001   4.679   4.992 -0.8962  0.9647  2.0061
 8409SOL     OW36685   3.465   3.610  10.425  0.2672 -0.2528 -0.0493
 8409SOL    HW136686   3.491   3.587  10.514  0.9677 -0.7480 -0.3839
 8409SOL    HW236687   3.444   3.531  10.376  2.4614  0.5798 -2.3356
 8410SOL     OW36688   2.298   1.662   3.832  0.0275  0.0525  0.0283
 8410SOL    HW136689   2.223   1.603   3.842  0.3583 -0.1232  1.4807
 8410SOL    HW236690   2.281   1.718   3.907 -0.0160  0.3094 -0.1720
 8411SOL     OW36691   4.546   3.476   3.362  0.3780 -0.5006 -0.7909
 8411SOL    HW136692   4.550   3.489   3.457 -0.1005  1.0465 -0.9734
 8411SOL    HW236693   4.637   3.457   3.340  0.6057 -0.9985  0.6014
 8412SOL     OW36694   1.803   3.762   7.320 -0.4656 -0.5126 -0.4875
 8412SOL    HW136695   1.726   3.744   7.266 -0.8165  1.4903 -0.6749
 8412SOL    HW236696   1.821   3.680   7.365  0.2967 -1.1151 -1.9087
 8413SOL     OW36697   4.662   1.868  13.534 -0.2518 -0.8740 -0.2077
 8413SOL    HW136698   0.025   1.831  13.528 -0.4075 -1.5819  1.7056
 8413SOL    HW236699   4.637   1.853  13.626 -0.8315  0.6078 -0.1137
 8414SOL     OW36700   0.524   1.787   8.618  0.0318  0.8264 -1.0433
 8414SOL    HW136701   0.487   1.841   8.687 -1.4028 -0.2405 -0.9847
 8414SOL    HW236702   0.591   1.742   8.671  1.3121  2.4462 -1.2970
 8415SOL     OW36703   2.933   0.504  12.346  0.4487 -0.2191 -0.0199
 8415SOL    HW136704   2.856   0.534  12.395  0.8278  1.3920 -0.3937
 8415SOL    HW236705   2.904   0.413  12.340 -2.1687  0.5653  0.6599
 8416SOL     OW36706   0.207   3.592   2.635 -0.0776 -0.5971 -0.2772
 8416SOL    HW136707   0.127   3.643   2.639  1.0927  1.3033 -0.7965
 8416SOL    HW236708   0.272   3.654   2.600  0.4388 -0.7616  0.3969
 8417SOL     OW36709   4.339   4.519   8.828  0.3544  0.2459 -0.1712
 8417SOL    HW136710   4.353   4.474   8.744  0.3499  1.0899 -0.6313
 8417SOL    HW236711   4.414   4.579   8.829 -0.5349  1.3643  0.5972
 8418SOL     OW36712   0.604   3.317   3.449 -0.1125 -0.2613 -0.0925
 8418SOL    HW136713   0.516   3.289   3.423 -1.2993  4.2242 -0.8571
 8418SOL    HW236714   0.658   3.293   3.374  1.2905  0.1954  0.7794
 8419SOL     OW36715   3.810   0.378  11.568 -0.0375  0.1600 -0.1490
 8419SOL    HW136716   3.767   0.293  11.574  0.7227 -0.0961  1.8466
 8419SOL    HW236717   3.780   0.412  11.653  0.5492 -3.1782  1.3864
 8420SOL     OW36718   1.407   3.012   2.875  0.0372 -0.0607 -0.0322
 8420SOL    HW136719   1.457   3.014   2.956  0.4785 -1.0234 -0.2822
 8420SOL    HW236720   1.478   2.985   2.817  0.1341 -0.1680  0.1348
 8421SOL     OW36721   0.556   2.728   8.652  0.0345  0.3974  0.2091
 8421SOL    HW136722   0.572   2.796   8.588  0.4576 -0.6207 -0.7700
 8421SOL    HW236723   0.547   2.779   8.732  0.2989  0.0492  0.4605
 8422SOL     OW36724   1.144   3.186   5.330  0.2936 -0.1148 -0.3423
 8422SOL    HW136725   1.091   3.195   5.250  2.0351  1.2486 -1.3480
 8422SOL    HW236726   1.104   3.256   5.382  1.5735  1.0895 -1.0032
 8423SOL     OW36727   2.893   0.289   6.551 -0.4013  0.0472  0.7217
 8423SOL    HW136728   2.865   0.270   6.462  1.8041 -1.0356  0.2542
 8423SOL    HW236729   2.879   0.210   6.603 -0.9933  0.6782  1.5175
 8424SOL     OW36730   3.837   3.031   9.619  0.7113 -0.3268  0.0610
 8424SOL    HW136731   3.812   2.971   9.689 -0.2855 -1.9227 -1.6737
 8424SOL    HW236732   3.773   3.100   9.635  0.7783  0.4153 -2.9147
 8425SOL     OW36733   4.574   3.478  10.044  0.1079 -0.2487  0.2749
 8425SOL    HW136734   4.591   3.387  10.071  0.8701 -0.8255 -2.1471
 8425SOL    HW236735   4.654   3.496   9.995  0.8096 -0.9431  1.1541
 8426SOL     OW36736   3.898   3.383   4.641  0.1030  0.1141 -0.5495
 8426SOL    HW136737   3.985   3.415   4.666 -0.5176  0.4584  1.1877
 8426SOL    HW236738   3.860   3.464   4.607  0.0424 -0.3665 -1.6009
 8427SOL     OW36739   3.983   2.220   7.048  0.2496 -0.6733  0.2974
 8427SOL    HW136740   3.976   2.298   7.103 -2.0290 -0.5585 -0.1424
 8427SOL    HW236741   4.060   2.251   7.001 -2.6845  1.4113 -3.0986
 8428SOL     OW36742   3.432   4.323   9.203 -0.7009  1.0398  0.3862
 8428SOL    HW136743   3.415   4.254   9.139  0.5463  2.1493 -1.1341
 8428SOL    HW236744   3.430   4.407   9.157 -1.9688  1.0972  0.5432
 8429SOL     OW36745   1.582   3.454   5.618  0.1171 -0.2134 -0.5422
 8429SOL    HW136746   1.518   3.484   5.553  1.0562  1.4312 -0.7035
 8429SOL    HW236747   1.627   3.380   5.578 -0.5880  0.1381 -1.9966
 8430SOL     OW36748   0.061   0.266   9.972 -0.2105 -0.7775  0.5542
 8430SOL    HW136749   0.078   0.216   9.893  0.6196 -0.2272  0.3765
 8430SOL    HW236750   4.709   0.220  10.004 -0.4418  0.0981  1.2498
 8431SOL     OW36751   2.862   3.836   6.832  0.2620 -0.1693  0.3401
 8431SOL    HW136752   2.785   3.797   6.790 -0.6260  0.5856  1.3026
 8431SOL    HW236753   2.932   3.772   6.816  1.1211  0.8155  0.1294
 8432SOL     OW36754   1.387   0.942   5.570  0.7611  0.7060  0.6128
 8432SOL    HW136755   1.368   0.981   5.656 -1.5167  0.7107  0.1024
 8432SOL    HW236756   1.483   0.941   5.565  0.6067  1.3625 -2.0627
 8433SOL     OW36757   0.857   0.143  13.229 -0.0912 -0.1320 -0.3771
 8433SOL    HW136758   0.916   0.067  13.227 -0.3240 -0.3591  1.5383
 8433SOL    HW236759   0.830   0.140  13.321 -0.7478  1.3748 -0.5263
 8434SOL     OW36760   0.260   2.334  12.524  0.7349 -0.7162  0.3448
 8434SOL    HW136761   0.290   2.375  12.605 -0.9620 -0.4275  0.8143
 8434SOL    HW236762   0.274   2.245  12.558 -0.6072 -0.5067  1.4635
 8435SOL     OW36763   3.609   0.989   9.543 -0.6061  0.6282 -0.4707
 8435SOL    HW136764   3.614   1.081   9.517  0.1883  0.0812 -2.2610
 8435SOL    HW236765   3.611   0.940   9.461  3.9765 -0.2798  0.1992
 8436SOL     OW36766   3.213   3.750   8.216  0.3378 -0.0061 -0.4660
 8436SOL    HW136767   3.259   3.749   8.300 -0.1428 -0.4142 -0.2030
 8436SOL    HW236768   3.221   3.845   8.209  0.0211  0.1414  1.1994
 8437SOL     OW36769   2.357   3.841   7.163  0.3115 -0.2810 -0.0828
 8437SOL    HW136770   2.276   3.878   7.127 -0.5729  0.3913  2.6336
 8437SOL    HW236771   2.395   3.794   7.089  1.4312  1.3282 -0.5314
 8438SOL     OW36772   4.425   2.609   4.062 -0.5289  0.7561 -0.4670
 8438SOL    HW136773   4.489   2.679   4.075  0.8564 -0.3856 -1.1119
 8438SOL    HW236774   4.356   2.662   4.021 -0.1502 -0.3735 -2.5394
 8439SOL     OW36775   0.511   3.796   8.585  0.4207 -0.4817  0.6707
 8439SOL    HW136776   0.465   3.793   8.669 -0.6755  0.9468  0.1197
 8439SOL    HW236777   0.594   3.760   8.617 -0.3035  0.6731  3.8190
 8440SOL     OW36778   1.855   0.384   7.184 -0.4378  0.5447  0.1445
 8440SOL    HW136779   1.795   0.444   7.139 -0.9726  1.4119  1.9973
 8440SOL    HW236780   1.832   0.401   7.275  0.3606 -0.5296  0.5469
 8441SOL     OW36781   4.230   0.512  10.119 -0.4201  0.3863  0.5197
 8441SOL    HW136782   4.253   0.464  10.199 -0.4495  0.0448  0.3254
 8441SOL    HW236783   4.313   0.493  10.075 -0.6200  1.0900 -0.1447
 8442SOL     OW36784   2.202   3.648   6.784 -0.0902 -0.4237 -0.5524
 8442SOL    HW136785   2.148   3.654   6.863  1.2328  1.2188  0.2107
 8442SOL    HW236786   2.175   3.566   6.743 -1.6121 -0.2426  0.0798
 8443SOL     OW36787   2.551   3.797   3.155 -0.4970 -0.2282  0.2041
 8443SOL    HW136788   2.533   3.809   3.062 -0.3069  0.0932  0.2076
 8443SOL    HW236789   2.489   3.726   3.174  2.1277 -2.4206  0.6337
 8444SOL     OW36790   0.226   3.132   7.867 -0.0079 -0.4922  0.1379
 8444SOL    HW136791   0.165   3.062   7.890 -0.9051 -0.2829 -1.6401
 8444SOL    HW236792   0.300   3.080   7.835 -0.4896 -1.8318  1.1945
 8445SOL     OW36793   3.384   3.999   8.132 -0.1165 -0.1417  0.0464
 8445SOL    HW136794   3.463   4.013   8.081  1.2201  1.3632  2.5110
 8445SOL    HW236795   3.334   4.077   8.108  0.4507  0.8087  1.9346
 8446SOL     OW36796   0.441   1.411   3.729 -0.4331  0.4374  0.4017
 8446SOL    HW136797   0.425   1.503   3.750  1.1095  0.1955  2.6284
 8446SOL    HW236798   0.516   1.418   3.669  0.1552  1.6551  1.2834
 8447SOL     OW36799   0.962   0.626   5.468  0.1134 -0.1325  0.2194
 8447SOL    HW136800   0.948   0.668   5.553 -2.7660  0.5825 -0.5871
 8447SOL    HW236801   1.057   0.624   5.462  0.1060 -0.3084  0.1733
 8448SOL     OW36802   4.629   1.577   0.444 -0.8003  0.3922 -0.1527
 8448SOL    HW136803   4.632   1.497   0.391  1.5708  1.8674 -2.2849
 8448SOL    HW236804   4.615   1.642   0.375  1.0754  0.4976 -0.4419
 8449SOL     OW36805   1.010   0.300   7.698  0.6924  0.0497 -0.1133
 8449SOL    HW136806   1.026   0.393   7.683 -1.5820  0.4666 -0.0981
 8449SOL    HW236807   0.940   0.286   7.634  0.3383  0.5755  0.1574
 8450SOL     OW36808   2.206   2.294  14.040 -0.2120 -0.1251  0.0898
 8450SOL    HW136809   2.201   2.209  14.083  1.9277 -0.3028 -0.0064
 8450SOL    HW236810   2.211   2.341  14.123 -2.3239 -1.7086  1.1138
 8451SOL     OW36811   3.050   0.164   4.065 -0.3016  0.4734 -0.2725
 8451SOL    HW136812   3.084   0.200   4.147  1.8394  1.4533 -1.5544
 8451SOL    HW236813   3.122   0.188   4.006  1.8674  3.1104  3.3841
 8452SOL     OW36814   4.032   2.107  17.137  0.4249  0.2851  0.1650
 8452SOL    HW136815   3.971   2.178  17.118 -1.1328 -0.5762  1.9291
 8452SOL    HW236816   3.969   2.035  17.137 -0.2096  0.8594  4.3793
 8453SOL     OW36817   4.585   2.146  13.116 -0.3722 -0.8649 -0.0956
 8453SOL    HW136818   4.569   2.160  13.210 -0.1026  0.5738 -0.2619
 8453SOL    HW236819   4.671   2.105  13.125 -1.4099 -2.9932  0.0053
 8454SOL     OW36820   2.910   0.894   7.399  0.2076  0.0442  0.1336
 8454SOL    HW136821   2.919   0.885   7.304  1.4253  1.2542  0.1315
 8454SOL    HW236822   2.912   0.990   7.401  1.2384  0.0603 -1.7149
 8455SOL     OW36823   1.841   2.254   4.292  0.3878  0.3715  0.7959
 8455SOL    HW136824   1.907   2.276   4.358  0.0697  0.0047  1.2331
 8455SOL    HW236825   1.761   2.244   4.343 -0.7238  0.3420 -0.9637
 8456SOL     OW36826   0.370   0.212   7.487  0.4475 -0.2187 -0.3001
 8456SOL    HW136827   0.323   0.160   7.422 -1.9706  1.3467  0.1627
 8456SOL    HW236828   0.307   0.199   7.558 -0.4059  0.6687 -0.8765
 8457SOL     OW36829   1.005   3.850  11.427  0.0567  0.6834 -0.1524
 8457SOL    HW136830   1.024   3.921  11.366 -3.0364  0.8747 -0.9173
 8457SOL    HW236831   0.955   3.883  11.502 -2.5511  1.1373 -2.0599
 8458SOL     OW36832   3.734   1.397  17.105 -0.3766  0.2027 -0.1608
 8458SOL    HW136833   3.679   1.470  17.075 -0.6996  0.2505  0.5690
 8458SOL    HW236834   3.699   1.326  17.051 -1.8475  0.5350  0.3528
 8459SOL     OW36835   4.286   2.142   0.303 -0.5893 -0.0706 -0.0590
 8459SOL    HW136836   4.257   2.074   0.242 -1.2834  1.6120 -1.6235
 8459SOL    HW236837   4.381   2.134   0.311 -0.5045 -0.6237 -1.5903
 8460SOL     OW36838   1.843   2.805  13.499  0.0190  0.2515  0.4612
 8460SOL    HW136839   1.761   2.793  13.452  0.1346 -1.9536  0.8188
 8460SOL    HW236840   1.875   2.878  13.445  0.4915 -0.3580 -0.0794
 8461SOL     OW36841   0.511   4.011   6.323 -0.1997 -0.2196 -0.2437
 8461SOL    HW136842   0.542   3.960   6.398  1.8016 -0.1489 -1.0086
 8461SOL    HW236843   0.519   4.096   6.367 -0.1171  1.1323 -2.9121
 8462SOL     OW36844   3.075   2.134  17.635 -0.0098 -0.3333  0.3251
 8462SOL    HW136845   2.984   2.159  17.649 -0.1660 -0.8126  0.1349
 8462SOL    HW236846   3.096   2.208  17.577 -3.0728  1.2133  1.1899
 8463SOL     OW36847   0.156   3.755   2.969  0.3923  0.4071 -0.0057
 8463SOL    HW136848   0.091   3.704   2.922  0.5988  1.2737 -1.2225
 8463SOL    HW236849   0.236   3.733   2.922  0.3068  0.5991 -0.2435
 8464SOL     OW36850   0.974   0.862  10.784  0.2115 -0.7124 -0.2807
 8464SOL    HW136851   1.015   0.882  10.700 -1.9604 -0.6975 -1.3525
 8464SOL    HW236852   1.008   0.774  10.801 -2.2149 -1.6406 -0.2017
 8465SOL     OW36853   1.824   0.973  16.794  0.0522 -0.4351  0.0561
 8465SOL    HW136854   1.735   0.954  16.825 -0.3838 -1.4805 -1.8267
 8465SOL    HW236855   1.799   1.054  16.748 -1.3288  0.1597  1.8431
 8466SOL     OW36856   1.259   0.044   2.789 -0.6119  0.3777 -0.0127
 8466SOL    HW136857   1.335   0.033   2.732 -0.3927 -0.0906  0.3727
 8466SOL    HW236858   1.280   0.126   2.833  1.1411 -0.7211  1.1785
 8467SOL     OW36859   0.097   2.517  11.392 -0.0240  0.2120 -0.2347
 8467SOL    HW136860   0.063   2.482  11.309  4.5970 -1.3771 -1.4316
 8467SOL    HW236861   0.088   2.438  11.446  0.1354  0.5847  0.3329
 8468SOL     OW36862   4.637   0.050   5.473 -0.0909  0.2670 -0.2251
 8468SOL    HW136863   4.562   0.081   5.422 -0.5602 -3.1288 -1.5982
 8468SOL    HW236864   4.669   4.707   5.415  3.0041 -0.6276  2.5494
 8469SOL     OW36865   1.902   1.980   4.168 -0.2132  0.0706  0.5926
 8469SOL    HW136866   1.997   1.987   4.172 -0.0641 -0.8989 -1.3951
 8469SOL    HW236867   1.893   2.070   4.199 -1.8524 -0.4439  1.6588
 8470SOL     OW36868   3.807   2.422   3.609 -0.2846 -0.6297 -0.0344
 8470SOL    HW136869   3.797   2.497   3.668  0.9060  0.5828 -1.3797
 8470SOL    HW236870   3.726   2.426   3.557 -0.1355 -0.3721 -0.2493
 8471SOL     OW36871   3.780   3.633  10.595  0.3797  0.5503 -0.4431
 8471SOL    HW136872   3.844   3.561  10.595  1.5120  1.5434  2.9876
 8471SOL    HW236873   3.847   3.700  10.585  0.2775  0.4598 -1.7410
 8472SOL     OW36874   4.534   2.144   0.149 -0.5625  0.6359 -0.3803
 8472SOL    HW136875   4.589   2.067   0.134  0.2844  0.2769  4.9079
 8472SOL    HW236876   4.491   2.140   0.063  2.4706  1.4494 -1.9450
 8473SOL     OW36877   1.577   2.752  13.444 -0.2792  0.1006  0.0427
 8473SOL    HW136878   1.500   2.695  13.454 -1.1930  1.0973 -1.2300
 8473SOL    HW236879   1.533   2.829  13.407 -0.3769  0.0586  0.0702
 8474SOL     OW36880   4.381   1.806   9.600 -0.1433 -0.0263 -0.7078
 8474SOL    HW136881   4.434   1.726   9.594  3.1543  2.0051  1.6256
 8474SOL    HW236882   4.322   1.790   9.526  0.5136  0.3022 -1.2941
 8475SOL     OW36883   1.579   2.213   2.615 -0.3249  0.3814 -0.8428
 8475SOL    HW136884   1.660   2.191   2.569  0.6563  0.0899  0.9804
 8475SOL    HW236885   1.513   2.153   2.581 -1.3853  0.0736  1.7378
 8476SOL     OW36886   2.322   2.413   9.221  0.1734 -0.0847  0.4157
 8476SOL    HW136887   2.357   2.359   9.292 -1.5333 -0.4279  0.9878
 8476SOL    HW236888   2.302   2.492   9.270  0.5854  0.5847 -0.5127
 8477SOL     OW36889   0.926   2.361   3.226  0.0923  0.4892  0.4929
 8477SOL    HW136890   0.940   2.415   3.148 -1.4979  0.4195  0.1652
 8477SOL    HW236891   1.008   2.374   3.274  0.4333  0.9557 -0.2186
 8478SOL     OW36892   2.699   3.051   4.404  0.4748  1.0419  0.6166
 8478SOL    HW136893   2.682   3.044   4.498  2.0309 -0.9886  0.7374
 8478SOL    HW236894   2.674   2.963   4.377  1.7134  1.1496 -0.8317
 8479SOL     OW36895   3.965   2.993  10.365 -0.3710  0.8049 -0.2420
 8479SOL    HW136896   3.884   2.998  10.417  0.0118 -0.4114  0.4763
 8479SOL    HW236897   3.964   2.899  10.346  1.3706  0.6194  0.5788
 8480SOL     OW36898   4.481   1.843  13.350 -0.1021  0.0833  0.5109
 8480SOL    HW136899   4.560   1.860  13.401  1.0209 -0.4720 -1.0090
 8480SOL    HW236900   4.417   1.885  13.407 -1.6412 -1.5638 -0.0020
 8481SOL     OW36901   3.860   2.794   3.683 -0.2230  0.4271 -0.0616
 8481SOL    HW136902   3.780   2.743   3.673 -1.3077  2.1677 -0.3963
 8481SOL    HW236903   3.912   2.727   3.726 -1.2525  0.2108  0.8654
 8482SOL     OW36904   2.392   1.971  13.928  0.3453 -0.0084 -0.4371
 8482SOL    HW136905   2.397   1.908  14.000  2.6358  2.5113  1.6191
 8482SOL    HW236906   2.299   1.994  13.930 -0.2407 -2.5129  1.0111
 8483SOL     OW36907   4.350   4.708   5.077  0.2934 -0.0072  0.3643
 8483SOL    HW136908   4.357   4.642   5.146  1.5206  2.0331  2.1779
 8483SOL    HW236909   4.355   4.650   5.001 -1.2989 -0.6995  0.7722
 8484SOL     OW36910   1.898   0.539   0.449  0.2407 -0.4200  0.1378
 8484SOL    HW136911   1.866   0.569   0.534  3.0979 -0.9014  1.3907
 8484SOL    HW236912   1.985   0.578   0.452  0.1429  0.0027 -3.1068
 8485SOL     OW36913   2.417   1.261  15.770 -0.5878 -0.1865 -0.2191
 8485SOL    HW136914   2.386   1.232  15.856 -0.1026 -1.1881 -0.3845
 8485SOL    HW236915   2.492   1.204  15.758  0.1963  0.2940  2.2561
 8486SOL     OW36916   2.551   0.892   8.296 -0.0655 -0.3431  0.1340
 8486SOL    HW136917   2.517   0.853   8.216  1.0283 -0.8069 -0.1094
 8486SOL    HW236918   2.603   0.970   8.273 -1.6387  0.3045 -1.2719
 8487SOL     OW36919   3.400   3.705   4.756  0.5420 -0.1587  0.1672
 8487SOL    HW136920   3.424   3.757   4.679  0.2889  1.3961  1.1218
 8487SOL    HW236921   3.361   3.630   4.711  0.5650  0.6505 -1.2279
 8488SOL     OW36922   3.353   3.044  11.306  0.2171 -0.9029 -0.0996
 8488SOL    HW136923   3.436   3.047  11.258  0.0475  0.3470 -0.3150
 8488SOL    HW236924   3.300   2.984  11.253 -0.2989  0.0817 -0.6997
 8489SOL     OW36925   4.465   0.776   5.655  0.7321  0.4909  0.3166
 8489SOL    HW136926   4.438   0.843   5.718  3.1011  0.7049  1.0965
 8489SOL    HW236927   4.517   0.842   5.607 -4.1978  3.6052 -0.8327
 8490SOL     OW36928   1.707   2.538   5.549 -0.1438 -0.1887  0.1335
 8490SOL    HW136929   1.659   2.544   5.632 -0.2380 -3.0716  0.2647
 8490SOL    HW236930   1.779   2.599   5.565 -0.4702 -0.2787  1.9778
 8491SOL     OW36931   0.277   1.996  11.960  0.2005  0.1391 -0.3439
 8491SOL    HW136932   0.285   1.915  11.909 -1.8618 -0.8842  0.9779
 8491SOL    HW236933   0.329   1.972  12.037 -4.0337 -0.1781  2.3991
 8492SOL     OW36934   4.032   3.330  14.208 -0.3666 -0.0834 -0.6386
 8492SOL    HW136935   3.990   3.263  14.261  1.1453 -0.9412 -0.5226
 8492SOL    HW236936   4.123   3.301  14.212 -0.9979 -1.6640  2.0920
 8493SOL     OW36937   3.687   1.460   7.552 -0.3302 -0.3397  0.5566
 8493SOL    HW136938   3.665   1.398   7.482 -0.7518  0.3153  0.1107
 8493SOL    HW236939   3.655   1.410   7.627  0.3174  1.0972  1.7888
 8494SOL     OW36940   0.238   3.635  15.620 -0.0912 -0.7123 -0.1034
 8494SOL    HW136941   0.301   3.577  15.578 -0.3787 -0.0273 -1.5144
 8494SOL    HW236942   0.215   3.578  15.692  2.3054 -0.3383  0.9442
 8495SOL     OW36943   2.701   2.071  12.100 -0.1265  0.1086 -0.7619
 8495SOL    HW136944   2.695   2.151  12.049  0.1278  0.1459 -0.7335
 8495SOL    HW236945   2.669   2.005  12.039 -1.7752 -0.3303  0.5709
 8496SOL     OW36946   2.302   2.418   0.464 -0.1331  0.2641  0.3494
 8496SOL    HW136947   2.316   2.432   0.557 -0.9131  3.3988 -0.0246
 8496SOL    HW236948   2.245   2.341   0.474  1.7726 -1.3244 -0.9633
 8497SOL     OW36949   2.102   2.398  13.663  0.3241  0.2049 -0.4063
 8497SOL    HW136950   2.065   2.354  13.739  0.2022  1.8354  0.4718
 8497SOL    HW236951   2.040   2.468  13.641  1.8535  1.2472 -1.4724
 8498SOL     OW36952   3.545   2.190   6.913 -0.2850  0.1977 -0.1790
 8498SOL    HW136953   3.568   2.229   6.997 -0.5508 -0.5705  0.2562
 8498SOL    HW236954   3.603   2.236   6.853 -0.9395  1.1692 -0.0599
 8499SOL     OW36955   2.301   3.356   2.414  0.3711 -0.5878  0.1779
 8499SOL    HW136956   2.221   3.306   2.399  0.6671 -1.3747  1.2137
 8499SOL    HW236957   2.314   3.374   2.321  1.3922  1.0154  0.6282
 8500SOL     OW36958   2.400   4.686   6.367  0.1022  0.7017  0.1103
 8500SOL    HW136959   2.460   0.036   6.373  0.6012  0.5481 -3.3972
 8500SOL    HW236960   2.457   4.618   6.403  1.2196  0.6069 -1.8358
 8501SOL     OW36961   3.322   1.016   2.731  0.0779  0.1665  0.3059
 8501SOL    HW136962   3.307   0.930   2.691  3.5202  0.5111 -1.7363
 8501SOL    HW236963   3.368   1.052   2.655  0.1114  1.3428  0.8912
 8502SOL     OW36964   4.492   1.737   8.205  0.2212 -0.2821 -0.5009
 8502SOL    HW136965   4.455   1.804   8.147 -2.7299 -2.1767 -0.7853
 8502SOL    HW236966   4.411   1.716   8.251  1.1804 -2.1513  0.3479
 8503SOL     OW36967   4.459   0.407   3.033 -0.1910 -0.0155 -0.0859
 8503SOL    HW136968   4.404   0.330   3.050  1.1694 -1.6828 -3.0971
 8503SOL    HW236969   4.517   0.416   3.108  2.0938  1.7045 -2.0528
 8504SOL     OW36970   1.305   1.250  11.543  0.5798 -0.3362  0.6095
 8504SOL    HW136971   1.249   1.188  11.496  2.0486 -1.8024  0.8002
 8504SOL    HW236972   1.337   1.181  11.601  3.5566  2.0017  1.7657
 8505SOL     OW36973   0.619   1.213   1.030 -0.3091 -0.3423 -0.0285
 8505SOL    HW136974   0.600   1.233   1.121 -1.1622  2.1797 -0.7554
 8505SOL    HW236975   0.619   1.299   0.988  3.8403 -0.3862 -0.2029
 8506SOL     OW36976   0.385   1.138   4.104  0.8056 -0.2179 -0.8707
 8506SOL    HW136977   0.443   1.066   4.127  0.1781  0.7013  3.4763
 8506SOL    HW236978   0.374   1.181   4.188  0.2862 -0.8742 -0.6083
 8507SOL     OW36979   1.039   1.726   6.761 -0.5019  0.8418 -0.3364
 8507SOL    HW136980   1.075   1.692   6.843  1.4625  0.7567 -1.2364
 8507SOL    HW236981   0.946   1.704   6.773 -0.6215  1.9598  0.7424
 8508SOL     OW36982   2.928   0.885   5.877  0.0345 -0.5549  0.5445
 8508SOL    HW136983   2.999   0.943   5.849  1.1292 -0.4177  3.6513
 8508SOL    HW236984   2.943   0.802   5.831  1.1656  0.2344 -0.5081
 8509SOL     OW36985   1.750   4.622   3.152  0.1732  0.3090  0.1388
 8509SOL    HW136986   1.820   4.568   3.115 -1.2724 -2.1986  1.0625
 8509SOL    HW236987   1.706   4.582   3.227  1.0598 -1.1078 -0.0746
 8510SOL     OW36988   0.097   4.381   7.025  0.3349 -0.1190  0.8735
 8510SOL    HW136989   0.136   4.463   7.053 -1.8151  1.1087  0.3028
 8510SOL    HW236990   0.099   4.391   6.930 -1.3755  0.6927  0.9248
 8511SOL     OW36991   0.841   1.713  16.463 -0.5504  0.1187  0.0968
 8511SOL    HW136992   0.757   1.735  16.503 -1.0155 -1.4261 -0.0144
 8511SOL    HW236993   0.877   1.802  16.467  3.0996 -1.4450  2.4300
 8512SOL     OW36994   1.769   1.540   6.277 -0.2194 -0.4848  0.6300
 8512SOL    HW136995   1.845   1.486   6.256  1.7678  2.0905  1.2408
 8512SOL    HW236996   1.788   1.620   6.229 -0.1751  0.5997  2.4422
 8513SOL     OW36997   1.035   3.729   6.651  0.1948 -0.1256 -0.0415
 8513SOL    HW136998   1.072   3.642   6.637  1.4917  0.8129 -2.4497
 8513SOL    HW236999   1.035   3.732   6.746  1.5790  0.1763 -0.0616
 8514SOL     OW37000   3.120   4.037   2.832 -0.3343  0.0492 -0.4077
 8514SOL    HW137001   3.050   4.068   2.775 -0.8463  0.0654  0.2257
 8514SOL    HW237002   3.111   4.098   2.906  3.3905 -0.6006  0.5780
 8515SOL     OW37003   2.306   2.873   6.540  0.2606  0.0477  0.3068
 8515SOL    HW137004   2.215   2.847   6.551  0.5790 -0.7422  1.0934
 8515SOL    HW237005   2.343   2.886   6.627 -0.5009 -1.3751  0.8465
 8516SOL     OW37006   1.897   1.188   7.345 -0.5116 -0.4267  0.4986
 8516SOL    HW137007   1.939   1.141   7.273 -0.6787  0.0155  0.1146
 8516SOL    HW237008   1.804   1.172   7.329  0.0002 -1.4979 -1.4180
 8517SOL     OW37009   4.703   1.747   7.924 -0.3699 -0.1789 -0.3000
 8517SOL    HW137010   4.710   1.839   7.899  1.8175 -0.0522  0.7693
 8517SOL    HW237011   4.633   1.753   7.989  0.8571  0.1406  0.9805
 8518SOL     OW37012   4.705   0.814   6.341  0.2753  0.1845  0.4074
 8518SOL    HW137013   0.028   0.804   6.259  0.4543 -2.5330  0.8635
 8518SOL    HW237014   0.053   0.848   6.393  0.8110 -0.2039 -0.0993
 8519SOL     OW37015   1.477   1.938   4.817 -0.0165  0.3859 -0.0494
 8519SOL    HW137016   1.454   1.988   4.738  0.3610  0.7228  0.0572
 8519SOL    HW237017   1.408   1.871   4.823 -0.5911  0.7901 -2.1220
 8520SOL     OW37018   3.610   4.476  12.373 -0.3656  0.2881 -0.3363
 8520SOL    HW137019   3.673   4.518  12.432 -1.7960 -0.6178  1.8054
 8520SOL    HW237020   3.670   4.466  12.299 -0.0250  1.7430 -0.2498
 8521SOL     OW37021   2.178   3.548   6.004  0.3779  0.5131  0.6588
 8521SOL    HW137022   2.197   3.550   5.911  0.3468  0.5608  0.6533
 8521SOL    HW237023   2.087   3.521   5.988  0.2579  1.2968  0.0437
 8522SOL     OW37024   0.744   3.833  12.982  0.0037 -0.0578 -0.0246
 8522SOL    HW137025   0.798   3.861  13.056 -3.4729  2.9786  1.3176
 8522SOL    HW237026   0.705   3.917  12.956 -1.1995 -0.1330  1.5800
 8523SOL     OW37027   0.927   2.760   4.598  0.2208 -0.3462 -0.3034
 8523SOL    HW137028   0.914   2.676   4.553 -1.8231  0.1946 -0.7376
 8523SOL    HW237029   1.021   2.774   4.596  0.3968 -1.5247 -0.6712
 8524SOL     OW37030   3.095   1.852   8.550 -0.7854  0.3088  0.3266
 8524SOL    HW137031   3.022   1.840   8.489  1.1713 -1.0563 -1.7276
 8524SOL    HW237032   3.066   1.809   8.630 -0.2496 -0.3936  0.1441
 8525SOL     OW37033   2.422   2.168   2.156 -0.1569  0.2518  0.2961
 8525SOL    HW137034   2.512   2.138   2.149  0.4744  2.0887  0.5694
 8525SOL    HW237035   2.414   2.179   2.061  0.7121  0.3732  0.2398
 8526SOL     OW37036   1.143   2.345  11.564 -0.1037 -0.2766  0.1684
 8526SOL    HW137037   1.107   2.373  11.480  0.3276  0.5260  0.2520
 8526SOL    HW237038   1.110   2.413  11.624  1.8883  0.8967 -0.0670
 8527SOL     OW37039   0.055   2.897  16.538 -0.7946 -0.0019 -0.4866
 8527SOL    HW137040   0.061   2.980  16.585 -1.4478 -0.8570  1.0997
 8527SOL    HW237041   0.103   2.842  16.600  1.0467  0.3526 -1.5887
 8528SOL     OW37042   0.123   4.377  11.632 -0.0081  0.4243 -0.4900
 8528SOL    HW137043   0.111   4.402  11.723  1.7355  1.4450 -0.5475
 8528SOL    HW237044   0.076   4.447  11.588 -1.4332 -1.2170 -1.5936
 8529SOL     OW37045   0.784   2.816   8.869  0.4413  0.1609  0.2405
 8529SOL    HW137046   0.699   2.852   8.897  0.2661  0.0136 -0.1012
 8529SOL    HW237047   0.790   2.725   8.898 -3.9365 -0.2767 -0.1219
 8530SOL     OW37048   0.135   0.923   7.531  0.4843 -0.0329 -0.2295
 8530SOL    HW137049   0.104   0.921   7.440 -0.5507 -1.7737  0.1677
 8530SOL    HW237050   0.066   0.877   7.578  0.4078  2.3127  1.9367
 8531SOL     OW37051   3.549   4.378   9.476  0.4594  0.3690 -0.2891
 8531SOL    HW137052   3.494   4.347   9.404  0.8660 -1.8931  0.3745
 8531SOL    HW237053   3.495   4.443   9.519 -2.4487 -2.1199 -0.1889
 8532SOL     OW37054   1.426   2.413   8.046  0.1326 -0.2088  0.1816
 8532SOL    HW137055   1.440   2.496   8.000 -2.6562  0.9016  1.3612
 8532SOL    HW237056   1.424   2.440   8.137 -0.5570  0.4769 -0.0340
 8533SOL     OW37057   3.251   2.770  11.239 -0.1417 -0.5106 -0.0787
 8533SOL    HW137058   3.281   2.702  11.300 -0.1043 -1.0026 -0.6533
 8533SOL    HW237059   3.225   2.719  11.163 -1.4125  0.6330 -0.4047
 8534SOL     OW37060   3.372   0.904   4.345  0.1046 -0.2406  0.5617
 8534SOL    HW137061   3.346   0.927   4.255  2.3387  0.1710  0.0181
 8534SOL    HW237062   3.373   0.993   4.379 -0.7248  0.0324 -0.1213
 8535SOL     OW37063   0.325   0.398   5.916 -0.6093 -0.0828  0.0098
 8535SOL    HW137064   0.274   0.322   5.887 -0.1403 -0.6951  0.7854
 8535SOL    HW237065   0.327   0.377   6.010  0.5655  1.9201  0.4320
 8536SOL     OW37066   2.095   0.737   3.877  0.2888 -0.3155  0.1597
 8536SOL    HW137067   2.055   0.749   3.963 -0.1705  2.9494 -0.5172
 8536SOL    HW237068   2.029   0.762   3.812  0.2435  1.6320  0.9474
 8537SOL     OW37069   2.943   2.101  12.821  0.1954  0.5617  0.2360
 8537SOL    HW137070   3.001   2.101  12.745 -0.9654  2.2449 -0.6541
 8537SOL    HW237071   2.897   2.185  12.815 -1.4622 -0.3150  0.4894
 8538SOL     OW37072   2.405   3.519   8.549 -0.2284 -0.0085  0.1291
 8538SOL    HW137073   2.425   3.496   8.458  0.2344 -3.5252  1.1209
 8538SOL    HW237074   2.426   3.436   8.591 -1.2493 -0.3639 -0.0582
 8539SOL     OW37075   0.903   2.873   8.622 -0.4590 -0.1659  0.2556
 8539SOL    HW137076   0.839   2.837   8.684 -0.3048  1.3097  1.2814
 8539SOL    HW237077   0.967   2.909   8.684 -0.6443 -2.3166  1.6930
 8540SOL     OW37078   0.086   2.658   0.286  0.1104 -0.3677  0.5519
 8540SOL    HW137079   0.096   2.657   0.381  0.8140  0.0783  0.4808
 8540SOL    HW237080   4.721   2.626   0.280 -0.5048  1.4333  0.4117
 8541SOL     OW37081   4.003   0.349   2.649 -0.3855 -0.4918 -0.1889
 8541SOL    HW137082   3.919   0.372   2.689 -0.5174 -0.3389 -0.5528
 8541SOL    HW237083   3.993   0.254   2.647  1.1430 -0.6405 -0.2961
 8542SOL     OW37084   4.124   0.966   0.024 -0.0535  0.1272  0.8188
 8542SOL    HW137085   4.050   0.947  17.668 -0.4650  0.2568  1.3087
 8542SOL    HW237086   4.156   1.042  17.678  1.6977 -3.2769 -3.5040
 8543SOL     OW37087   1.011   2.308   3.840 -0.0903 -0.3871  0.2817
 8543SOL    HW137088   1.029   2.388   3.889 -0.1014 -0.8205  0.9985
 8543SOL    HW237089   1.003   2.348   3.753  0.7677 -0.1003  0.3294
 8544SOL     OW37090   2.869   0.822   5.009 -0.5264  0.6464  0.1667
 8544SOL    HW137091   2.855   0.805   4.916  1.2124 -1.4359  0.2756
 8544SOL    HW237092   2.920   0.903   5.008  1.1648 -0.4154 -0.4748
 8545SOL     OW37093   1.882   4.160   5.785  0.5831  0.1511 -0.7636
 8545SOL    HW137094   1.919   4.239   5.745  1.4977 -0.3243 -0.8588
 8545SOL    HW237095   1.905   4.088   5.726  2.3235  1.1180 -1.2609
 8546SOL     OW37096   0.526   3.736   8.310 -0.4177  0.6953 -0.4302
 8546SOL    HW137097   0.621   3.733   8.308 -0.3682  0.9966  1.3023
 8546SOL    HW237098   0.516   3.769   8.399  0.5975  1.8725 -0.7526
 8547SOL     OW37099   1.417   2.055   3.696 -0.3194  0.2829  0.2442
 8547SOL    HW137100   1.487   2.018   3.642  1.1575 -1.0448  3.0526
 8547SOL    HW237101   1.383   2.107   3.624  2.1136 -2.0323 -2.5945
 8548SOL     OW37102   3.039   2.728  10.778  0.9897  0.0686 -0.2298
 8548SOL    HW137103   2.973   2.684  10.832  2.3588 -1.8813 -0.1385
 8548SOL    HW237104   2.999   2.815  10.782 -1.2501 -1.0184  0.8649
 8549SOL     OW37105   1.935   1.874  11.726 -0.0592 -0.2501 -0.0081
 8549SOL    HW137106   2.026   1.851  11.712  0.3489  1.4763 -0.2488
 8549SOL    HW237107   1.938   1.970  11.727  3.4976 -0.3435 -4.3577
 8550SOL     OW37108   0.090   2.724   5.978  0.1766  0.5410 -0.4229
 8550SOL    HW137109   0.163   2.665   6.001  1.6595  2.0355 -1.3157
 8550SOL    HW237110   0.068   2.679   5.897 -1.5753 -1.1730  1.0009
 8551SOL     OW37111   4.483   1.519   7.296  0.2302 -0.2741 -0.1706
 8551SOL    HW137112   4.425   1.513   7.220  1.5464 -0.4633 -1.1843
 8551SOL    HW237113   4.441   1.452   7.350 -2.4374  2.0061  0.5234
 8552SOL     OW37114   2.697   3.245   0.123  0.2120  0.4527  0.1088
 8552SOL    HW137115   2.775   3.192   0.103  0.4275  0.1166  1.8399
 8552SOL    HW237116   2.670   3.223   0.212  0.3127 -0.0256  0.0206
 8553SOL     OW37117   4.350   1.331   0.864 -0.0774 -0.5146  0.3152
 8553SOL    HW137118   4.424   1.330   0.925  0.8443  0.4727 -0.7679
 8553SOL    HW237119   4.364   1.419   0.828  0.6114 -1.3294 -1.4031
 8554SOL     OW37120   3.636   2.325   0.970  0.0783  0.1307 -0.2021
 8554SOL    HW137121   3.704   2.362   0.913 -0.4522 -0.7922 -1.4348
 8554SOL    HW237122   3.620   2.403   1.023  0.2368  1.2201 -1.7618
 8555SOL     OW37123   2.869   3.760   4.217 -0.6169 -0.7946  0.2223
 8555SOL    HW137124   2.894   3.721   4.133 -3.2316 -2.4337  0.2281
 8555SOL    HW237125   2.935   3.717   4.272  0.1068 -2.0168 -1.6016
 8556SOL     OW37126   3.618   2.651   3.696 -1.4216 -0.1185 -0.0511
 8556SOL    HW137127   3.584   2.584   3.636 -0.4888 -0.0723 -0.6337
 8556SOL    HW237128   3.548   2.717   3.696 -1.9634 -0.6863 -1.3163
 8557SOL     OW37129   4.517   4.718   3.135  0.0468 -0.6073  0.2822
 8557SOL    HW137130   4.461   0.055   3.090  0.9649  0.1575  0.2074
 8557SOL    HW237131   4.510   4.633   3.091  0.0953  0.1727 -1.2337
 8558SOL     OW37132   0.095   1.790  12.454  0.1352  0.0970  0.7101
 8558SOL    HW137133   0.133   1.783  12.541 -0.0418 -2.2234  0.5957
 8558SOL    HW237134   0.172   1.764  12.403  0.0820  0.2649  0.5397
 8559SOL     OW37135   3.361   2.093  15.638  0.7720 -0.2717  0.6624
 8559SOL    HW137136   3.417   2.152  15.587  0.2927  0.5334  1.0677
 8559SOL    HW237137   3.318   2.153  15.699  2.3407  0.9861  0.5227
 8560SOL     OW37138   2.439   1.423   3.991 -0.0678 -0.3111 -0.4235
 8560SOL    HW137139   2.363   1.438   4.047  1.7153  1.1889  1.6212
 8560SOL    HW237140   2.483   1.508   3.985 -1.7999  0.6369  0.5308
 8561SOL     OW37141   2.837   2.548  10.948  0.0795  0.2847  0.3954
 8561SOL    HW137142   2.918   2.498  10.943  0.5450  0.9150  1.5950
 8561SOL    HW237143   2.793   2.502  11.019 -2.5201 -0.5208 -1.7625
 8562SOL     OW37144   0.093   1.921   3.676  0.5863  0.3023  0.2166
 8562SOL    HW137145   0.045   1.956   3.751 -2.8433 -1.7572 -0.9989
 8562SOL    HW237146   0.179   1.909   3.715  0.2877  0.6061  0.9706
 8563SOL     OW37147   1.507   2.336   6.506 -0.3130  0.6151 -0.1365
 8563SOL    HW137148   1.419   2.359   6.477 -0.6959 -0.8264 -0.1230
 8563SOL    HW237149   1.541   2.287   6.432  1.4487 -0.9014  1.6814
 8564SOL     OW37150   0.418   3.202   5.359 -0.6085  0.2106 -0.0209
 8564SOL    HW137151   0.489   3.245   5.311 -0.9457 -0.1314 -0.8369
 8564SOL    HW237152   0.445   3.110   5.349 -1.5679  0.0285 -0.8430
 8565SOL     OW37153   1.090   0.941   8.063  0.1057  0.0954 -0.3026
 8565SOL    HW137154   1.103   0.940   8.158  0.0668  3.0515 -0.2819
 8565SOL    HW237155   0.999   0.914   8.059  0.4564 -1.3361  1.3216
 8566SOL     OW37156   3.907   3.355   8.612 -0.5214  0.0063  0.5615
 8566SOL    HW137157   3.924   3.297   8.686 -1.6324 -2.7146 -1.3084
 8566SOL    HW237158   3.981   3.415   8.618  0.8576 -1.2950 -3.2096
 8567SOL     OW37159   3.364   3.465  15.006 -0.1300  0.6789 -0.3369
 8567SOL    HW137160   3.306   3.437  15.077  2.2568  1.7928  2.0690
 8567SOL    HW237161   3.321   3.550  14.996  2.1418  2.1228  2.0601
 8568SOL     OW37162   0.084   0.655   1.439  0.2769  0.2322  0.2487
 8568SOL    HW137163   0.153   0.656   1.506 -0.3186  0.8629  0.8564
 8568SOL    HW237164   0.110   0.588   1.376 -1.5932 -0.6409  0.3860
 8569SOL     OW37165   1.022   1.320   5.255 -0.1778  0.1042 -0.1448
 8569SOL    HW137166   1.030   1.351   5.345  1.6088 -3.4757  0.9472
 8569SOL    HW237167   1.013   1.407   5.216  0.9470  0.3524  0.1522
 8570SOL     OW37168   2.298   4.024   5.800 -0.6247 -0.5705  0.0724
 8570SOL    HW137169   2.239   3.952   5.825 -0.8124 -1.3635 -2.6850
 8570SOL    HW237170   2.266   4.059   5.717  0.7377  0.9078  0.1729
 8571SOL     OW37171   3.678   3.611  10.234 -0.3696 -0.5506  0.4182
 8571SOL    HW137172   3.762   3.655  10.247  0.6998 -2.1430 -1.0619
 8571SOL    HW237173   3.645   3.597  10.323 -0.2430 -1.1272  0.3787
 8572SOL     OW37174   4.170   3.551   8.961 -0.3706  0.0272 -0.2008
 8572SOL    HW137175   4.220   3.551   8.880 -3.0821  1.6532 -1.8861
 8572SOL    HW237176   4.237   3.563   9.028 -2.9093  1.6890  2.0457
 8573SOL     OW37177   3.738   0.976  15.568  0.3538 -0.2078  0.3573
 8573SOL    HW137178   3.662   0.976  15.627 -0.0463  2.1809 -0.1786
 8573SOL    HW237179   3.791   1.044  15.609  0.6820 -1.7743  2.5644
 8574SOL     OW37180   0.752   3.588   4.153 -0.0480  0.1908 -0.0888
 8574SOL    HW137181   0.785   3.636   4.229  2.4661 -2.3151  0.4021
 8574SOL    HW237182   0.675   3.639   4.128  1.9153  1.4385 -3.6251
 8575SOL     OW37183   1.832   2.171   7.405 -0.5061 -0.5195  0.6793
 8575SOL    HW137184   1.841   2.192   7.498 -1.3216  0.2902  0.5840
 8575SOL    HW237185   1.816   2.255   7.363 -1.0163 -0.2345  1.4365
 8576SOL     OW37186   2.476   4.716   3.092 -0.0717  0.6081  0.4176
 8576SOL    HW137187   2.496   4.650   3.026 -1.9391 -0.7219  1.1604
 8576SOL    HW237188   2.410   4.661   3.136 -0.8945 -0.7007 -2.4174
 8577SOL     OW37189   4.228   3.225   2.166 -0.4686  0.3595  0.0867
 8577SOL    HW137190   4.278   3.260   2.239  0.3376  2.9318 -1.6894
 8577SOL    HW237191   4.233   3.133   2.190  0.1780 -0.0934 -1.7642
 8578SOL     OW37192   4.622   2.530   6.060 -0.1867 -0.1090 -0.3203
 8578SOL    HW137193   4.645   2.618   6.030 -2.7915  1.0508  1.0811
 8578SOL    HW237194   4.691   2.504   6.122 -0.0453 -1.2027 -0.9512
 8579SOL     OW37195   4.642   1.313   2.761 -0.3085  0.4190 -0.4571
 8579SOL    HW137196   4.716   1.374   2.759 -1.2264  1.5039 -1.7668
 8579SOL    HW237197   4.625   1.320   2.855  1.8632  1.3285 -0.1383
 8580SOL     OW37198   1.049   2.535   5.350 -0.4708 -0.1644 -0.4704
 8580SOL    HW137199   1.121   2.586   5.313  0.5495 -1.0937  0.2276
 8580SOL    HW237200   0.978   2.591   5.320 -0.8992 -0.6853 -0.4295
 8581SOL     OW37201   3.409   0.423   0.366 -0.5619 -0.5551  0.8714
 8581SOL    HW137202   3.339   0.486   0.349 -0.6314 -0.9713 -0.3455
 8581SOL    HW237203   3.376   0.353   0.311  1.9053 -1.6627  0.8097
 8582SOL     OW37204   3.364   4.216   6.684  0.0422  0.4943 -0.4871
 8582SOL    HW137205   3.300   4.271   6.729 -1.2075  0.4642 -2.1967
 8582SOL    HW237206   3.423   4.180   6.750 -2.3435 -0.1842  1.2844
 8583SOL     OW37207   3.179   2.984   7.220  0.1027 -0.1841  0.3260
 8583SOL    HW137208   3.261   3.016   7.182 -0.2175 -0.9737 -1.0101
 8583SOL    HW237209   3.120   3.026   7.158  2.2414  1.3695 -0.6657
 8584SOL     OW37210   1.017   3.365   8.236 -0.0086 -0.4762 -0.0576
 8584SOL    HW137211   0.962   3.367   8.158  0.2272  1.7148 -0.1699
 8584SOL    HW237212   0.953   3.398   8.299  0.9906  4.0336 -1.4048
 8585SOL     OW37213   0.939   3.071  11.125  0.0123 -0.3897  0.0787
 8585SOL    HW137214   0.883   2.997  11.149 -1.0591  0.5292  0.4550
 8585SOL    HW237215   1.000   3.023  11.069  1.4049 -0.1955  1.4293
 8586SOL     OW37216   4.501   4.038   1.064  0.1050 -0.1649  0.3862
 8586SOL    HW137217   4.584   4.066   1.104  0.0087  0.2328  0.3018
 8586SOL    HW237218   4.441   4.063   1.134 -1.2954  0.3027 -0.9995
 8587SOL     OW37219   3.688   3.053   0.413  0.3595  0.2210  0.0028
 8587SOL    HW137220   3.763   3.112   0.411 -0.1597  0.9047  0.4468
 8587SOL    HW237221   3.620   3.112   0.380  1.1244  1.4156  0.5762
 8588SOL     OW37222   1.150   2.806  10.051 -0.3223 -0.0953  0.1948
 8588SOL    HW137223   1.201   2.787  10.130 -0.9438 -1.1437  0.3421
 8588SOL    HW237224   1.218   2.787   9.985 -0.8637 -1.2019 -0.0463
 8589SOL     OW37225   0.446   3.963   4.587 -0.0121  0.3633 -0.3602
 8589SOL    HW137226   0.351   3.965   4.587 -0.0155 -0.0520  0.6970
 8589SOL    HW237227   0.475   4.045   4.547 -0.4973  0.7821  0.1503
 8590SOL     OW37228   3.255   2.507   7.739 -0.3288  0.3282 -0.6085
 8590SOL    HW137229   3.270   2.559   7.818 -2.8781 -2.7318  1.8997
 8590SOL    HW237230   3.241   2.579   7.678  0.4224  0.0112 -1.1653
 8591SOL     OW37231   3.861   0.891   3.879 -0.3811 -0.0773 -0.7635
 8591SOL    HW137232   3.785   0.949   3.881 -0.2782  0.0274  0.5277
 8591SOL    HW237233   3.821   0.813   3.839 -2.1160  0.3441  0.1328
 8592SOL     OW37234   4.337   3.170   3.439  0.3005 -0.5328 -0.2265
 8592SOL    HW137235   4.431   3.156   3.428  0.1350 -1.5012 -0.3995
 8592SOL    HW237236   4.297   3.144   3.356 -1.0354 -2.2902  0.9647
 8593SOL     OW37237   3.062   1.613   5.948 -0.3617 -0.2823 -0.5208
 8593SOL    HW137238   3.148   1.571   5.944 -1.4148 -2.6782  2.0323
 8593SOL    HW237239   3.058   1.649   5.860  0.0973  1.5369  0.1917
 8594SOL     OW37240   3.585   3.519   6.647 -0.8489  0.1981  0.0072
 8594SOL    HW137241   3.527   3.595   6.649 -0.1053  0.6820  2.7957
 8594SOL    HW237242   3.603   3.519   6.553 -1.5478  2.7084 -0.1221
 8595SOL     OW37243   1.758   3.956   7.131  0.1562 -0.0722 -0.4421
 8595SOL    HW137244   1.786   3.919   7.215  0.4902 -2.3090 -1.5443
 8595SOL    HW237245   1.731   4.044   7.157 -0.6206  0.2964 -2.5180
 8596SOL     OW37246   0.442   1.303   5.645  0.9504 -0.1695  0.5715
 8596SOL    HW137247   0.433   1.269   5.556 -0.0369 -2.1192  1.3995
 8596SOL    HW237248   0.352   1.320   5.672  1.2427  1.1666  0.7164
 8597SOL     OW37249   2.245   2.262   3.123  0.3536 -0.2620  0.3493
 8597SOL    HW137250   2.302   2.297   3.054  1.3190  1.0346  1.8063
 8597SOL    HW237251   2.158   2.281   3.089 -0.8224 -0.2081  3.4112
 8598SOL     OW37252   1.388   1.523  12.857 -0.0404 -1.0579  0.0251
 8598SOL    HW137253   1.332   1.539  12.781 -0.9858 -4.6313 -0.0546
 8598SOL    HW237254   1.460   1.576  12.824 -0.3186 -1.6359 -1.4980
 8599SOL     OW37255   3.557   4.685  12.991 -0.3018  0.2479  0.5727
 8599SOL    HW137256   3.576   0.030  12.928  0.2077  0.1025  0.5682
 8599SOL    HW237257   3.564   0.018  13.066  1.9490  2.7227 -1.5895
 8600SOL     OW37258   0.307   3.343   2.743 -0.0785  0.0049  0.5381
 8600SOL    HW137259   0.274   3.430   2.724 -0.1336  0.0890  1.0231
 8600SOL    HW237260   0.245   3.287   2.696  0.3879 -0.6340  0.6744
 8601SOL     OW37261   2.870   3.961  11.276  0.2830  0.6642  0.5767
 8601SOL    HW137262   2.811   3.995  11.209  2.4806 -0.2953 -1.8800
 8601SOL    HW237263   2.885   3.880  11.227  2.2942  1.0444  0.5497
 8602SOL     OW37264   1.135   0.839   6.390 -0.4671 -0.2293 -0.1745
 8602SOL    HW137265   1.207   0.894   6.361  0.3753 -0.7384  0.9585
 8602SOL    HW237266   1.166   0.764   6.341 -1.1240 -1.1961  0.8860
 8603SOL     OW37267   1.973   1.934   7.221 -0.0188 -0.8511 -0.5227
 8603SOL    HW137268   1.984   2.008   7.281 -1.2230 -0.5146 -0.7199
 8603SOL    HW237269   1.877   1.933   7.216 -0.1692  0.6284  2.1834
 8604SOL     OW37270   0.744   3.564   5.243  0.0491  0.1053  0.0532
 8604SOL    HW137271   0.834   3.577   5.216 -0.3728 -0.3236 -1.5547
 8604SOL    HW237272   0.685   3.612   5.185  0.9007  2.7774  1.3724
 8605SOL     OW37273   2.948   3.460   9.263 -0.3729 -0.5722 -0.4494
 8605SOL    HW137274   3.041   3.473   9.247 -0.3649  0.3077  0.3711
 8605SOL    HW237275   2.902   3.542   9.248  0.7632 -0.0994 -1.3160
 8606SOL     OW37276   4.393   0.135   6.555  0.9572  0.1244  0.3087
 8606SOL    HW137277   4.359   0.053   6.517  1.7368  0.3952 -0.9624
 8606SOL    HW237278   4.486   0.117   6.561  0.5628 -1.5456  1.3534
 8607SOL     OW37279   2.869   1.995   0.872  0.2263  0.3159  0.4876
 8607SOL    HW137280   2.916   1.986   0.789  0.6224  0.7419  0.6609
 8607SOL    HW237281   2.892   1.910   0.910  0.2394 -0.8955 -2.2604
 8608SOL     OW37282   2.199   4.527   2.966  0.1668 -0.7631 -0.0343
 8608SOL    HW137283   2.152   4.511   3.047 -0.8908 -2.5985 -1.0049
 8608SOL    HW237284   2.135   4.566   2.907  0.9364  0.0434 -0.3415
 8609SOL     OW37285   2.866   4.707   1.873 -0.1078 -0.7658  0.7634
 8609SOL    HW137286   2.952   0.018   1.897  0.3443 -1.9427  0.9191
 8609SOL    HW237287   2.875   4.684   1.781 -0.9200 -1.9732  0.9926
 8610SOL     OW37288   1.727   2.944  10.092 -0.7338  0.4029  0.0359
 8610SOL    HW137289   1.645   2.968  10.135  0.4907  0.7575  2.1708
 8610SOL    HW237290   1.744   2.851  10.104  0.3568  0.4580 -1.1265
 8611SOL     OW37291   3.334   2.655   2.987  0.1457 -0.7905 -0.2978
 8611SOL    HW137292   3.265   2.623   2.930 -0.6348  2.2134 -1.0325
 8611SOL    HW237293   3.289   2.723   3.036 -2.2263 -1.8769 -0.9813
 8612SOL     OW37294   1.691   0.680   4.364 -0.0987  0.5221 -0.2924
 8612SOL    HW137295   1.654   0.625   4.433 -0.3555 -0.2128 -1.0177
 8612SOL    HW237296   1.611   0.695   4.314  1.5316  0.2694 -3.0095
 8613SOL     OW37297   3.635   2.476   9.017 -0.7441 -0.1743 -0.4554
 8613SOL    HW137298   3.563   2.495   8.957 -0.3673 -2.2422 -1.5688
 8613SOL    HW237299   3.664   2.555   9.062  0.6925 -1.0111  0.0852
 8614SOL     OW37300   1.036   3.302   7.698  0.4009  0.2620  0.1220
 8614SOL    HW137301   1.105   3.350   7.653 -0.0448 -1.2855 -2.1852
 8614SOL    HW237302   0.965   3.341   7.648  0.8972  4.0892  2.4195
 8615SOL     OW37303   1.140   3.092   8.075  0.1862  0.2079 -0.2339
 8615SOL    HW137304   1.168   3.182   8.055  2.9650 -0.3286  1.2052
 8615SOL    HW237305   1.046   3.092   8.056 -0.1015 -2.0542  1.1627
 8616SOL     OW37306   0.837   1.516   1.147 -0.1474  0.5256 -0.5756
 8616SOL    HW137307   0.902   1.508   1.077 -0.3910  2.3941 -1.0359
 8616SOL    HW237308   0.754   1.513   1.098  0.8319 -1.2676 -2.0941
 8617SOL     OW37309   4.282   0.910   6.858  0.0759  0.1454  0.2425
 8617SOL    HW137310   4.332   0.832   6.880  1.2895  1.1897  1.1305
 8617SOL    HW237311   4.282   0.937   6.950 -0.5470  1.1232 -0.0370
 8618SOL     OW37312   0.599   2.730  14.831 -0.2851 -0.0035 -0.8712
 8618SOL    HW137313   0.590   2.824  14.815 -0.3547  0.4541  1.8544
 8618SOL    HW237314   0.619   2.732  14.924 -0.0315  0.0091 -0.9253
 8619SOL     OW37315   1.467   0.000   3.105  0.0136  0.1210  0.0726
 8619SOL    HW137316   1.558   0.014   3.076  0.0529  0.7950  0.5239
 8619SOL    HW237317   1.480   4.664   3.177 -1.7383 -2.2129 -1.5873
 8620SOL     OW37318   1.876   2.791   5.993  0.7733  0.2782 -0.2764
 8620SOL    HW137319   1.797   2.845   5.985 -0.0958 -0.9357  0.2069
 8620SOL    HW237320   1.840   2.706   6.015 -1.3230  1.2856  0.1710
 8621SOL     OW37321   2.984   2.498  11.234 -0.0550  0.0992  0.1917
 8621SOL    HW137322   2.987   2.574  11.291 -1.8394  1.5526 -1.6598
 8621SOL    HW237323   3.054   2.514  11.171 -0.6775 -1.4036 -0.8829
 8622SOL     OW37324   1.041   3.575   8.595 -0.2658 -0.7540 -0.7525
 8622SOL    HW137325   1.045   3.495   8.647  1.4904 -1.0245 -1.2882
 8622SOL    HW237326   1.006   3.643   8.653  2.3410 -0.9998  1.1354
 8623SOL     OW37327   2.858   3.824  14.990  0.2947  0.0429 -0.8357
 8623SOL    HW137328   2.822   3.798  14.905  1.6442 -2.5950 -0.5957
 8623SOL    HW237329   2.937   3.875  14.968  0.4682 -0.7842 -2.1181
 8624SOL     OW37330   1.454   3.634   2.835 -0.2881  0.4693 -0.3520
 8624SOL    HW137331   1.446   3.726   2.860  0.5891  1.1085 -2.3904
 8624SOL    HW237332   1.457   3.631   2.739  0.0480 -1.2626 -0.2857
 8625SOL     OW37333   1.626   0.256  17.064 -0.4943  0.2160  0.0436
 8625SOL    HW137334   1.660   0.327  17.009 -0.5058 -0.5966 -0.9896
 8625SOL    HW237335   1.537   0.248  17.029 -0.2193  0.5050 -0.7269
 8626SOL     OW37336   0.408   4.029   6.589 -0.2659  0.4393  0.5215
 8626SOL    HW137337   0.473   3.960   6.581  0.5588  1.3521 -0.5428
 8626SOL    HW237338   0.399   4.049   6.682 -0.1668  1.7262  0.2631
 8627SOL     OW37339   2.210   4.534   8.562  0.3193  0.2627 -0.1499
 8627SOL    HW137340   2.139   4.555   8.623 -1.4593 -1.3692 -1.6611
 8627SOL    HW237341   2.233   4.446   8.590  2.0431  0.7734  0.0333
 8628SOL     OW37342   1.639   2.756  10.317 -0.0221 -0.3811  0.5978
 8628SOL    HW137343   1.582   2.712  10.379  1.7533 -3.5350 -0.0112
 8628SOL    HW237344   1.675   2.832  10.364  0.1279 -0.0775 -0.0032
 8629SOL     OW37345   4.440   1.742   5.318 -0.5825 -0.2011  0.7054
 8629SOL    HW137346   4.420   1.668   5.260  3.3719  0.1969 -1.1605
 8629SOL    HW237347   4.500   1.792   5.263 -0.2564 -3.4771 -1.8963
 8630SOL     OW37348   2.385   1.004   4.907  0.2683  0.9508 -0.0273
 8630SOL    HW137349   2.402   0.981   4.998  1.2471  0.1061 -0.4218
 8630SOL    HW237350   2.328   1.081   4.911 -1.6616 -0.5861  2.1997
 8631SOL     OW37351   4.036   2.623  12.161 -0.2526 -0.0975  0.1649
 8631SOL    HW137352   3.954   2.672  12.165  0.4603  1.3630 -2.9670
 8631SOL    HW237353   4.018   2.555  12.097  0.5476  0.4628 -0.6584
 8632SOL     OW37354   4.622   3.307   7.507 -0.8962  0.3381  0.3600
 8632SOL    HW137355   4.694   3.244   7.509 -1.5799 -0.3746  1.8297
 8632SOL    HW237356   4.654   3.346   7.589  1.0169  2.4171 -1.3564
 8633SOL     OW37357   4.580   0.216  11.277 -0.4299  0.1222  0.1037
 8633SOL    HW137358   4.526   0.253  11.206  2.1660 -2.1432 -3.0551
 8633SOL    HW237359   4.566   0.124  11.254 -2.7752  0.0993  1.6666
 8634SOL     OW37360   2.618   3.455  12.805  0.4384 -0.5620  0.2399
 8634SOL    HW137361   2.582   3.391  12.743 -0.7463 -1.3351  1.7287
 8634SOL    HW237362   2.651   3.527  12.750 -0.6511  0.1317  0.4958
 8635SOL     OW37363   2.847   3.955   2.593  0.3093 -0.4849  0.3484
 8635SOL    HW137364   2.877   3.975   2.505 -1.5775  0.5164 -0.0834
 8635SOL    HW237365   2.876   4.036   2.635  0.3387 -0.4083  0.1806
 8636SOL     OW37366   2.858   1.531  16.423  0.3759  0.1325 -0.2996
 8636SOL    HW137367   2.887   1.465  16.486  1.9567  2.2925  1.2462
 8636SOL    HW237368   2.765   1.538  16.446  0.2627  0.9163 -1.0192
 8637SOL     OW37369   2.868   2.292   6.787  0.0093 -0.2532 -0.7118
 8637SOL    HW137370   2.777   2.310   6.811  0.5732 -0.3793  1.4932
 8637SOL    HW237371   2.905   2.379   6.804 -0.1053  0.2198 -2.8566
 8638SOL     OW37372   0.478   2.076  14.599  0.0728 -0.4018 -0.4413
 8638SOL    HW137373   0.492   2.064  14.505 -2.3247 -0.6282 -0.7775
 8638SOL    HW237374   0.533   2.154  14.607  0.6355 -0.8005 -0.4267
 8639SOL     OW37375   3.095   4.367   4.031  0.6321  0.3729  0.3418
 8639SOL    HW137376   3.106   4.356   4.125 -1.7279 -0.5477  0.5017
 8639SOL    HW237377   3.148   4.444   4.010  0.6088 -0.2049 -1.8033
 8640SOL     OW37378   4.030   1.838  10.091  0.5461 -0.1988 -0.0969
 8640SOL    HW137379   3.941   1.824  10.059  0.1222  1.0365  0.5409
 8640SOL    HW237380   4.052   1.911  10.033  2.1284 -1.4842 -1.1286
 8641SOL     OW37381   0.740   1.397   2.567  0.5374 -0.5795 -0.2056
 8641SOL    HW137382   0.794   1.324   2.596  0.5788  0.6318  2.7553
 8641SOL    HW237383   0.684   1.407   2.644  0.5645 -3.7535  0.2304
 8642SOL     OW37384   3.762   4.305   5.010  0.0906 -0.1201  0.4684
 8642SOL    HW137385   3.779   4.328   4.918  1.2005  0.7912  0.8965
 8642SOL    HW237386   3.816   4.226   5.020  0.9262 -0.0414 -3.3035
 8643SOL     OW37387   2.606   1.412   9.059  0.2121 -0.0784 -0.0720
 8643SOL    HW137388   2.601   1.320   9.031  0.7548 -0.0290 -0.3275
 8643SOL    HW237389   2.654   1.399   9.140 -2.7019 -0.6973  1.5634
 8644SOL     OW37390   4.359   4.416   7.287 -0.1782  0.1815  0.3404
 8644SOL    HW137391   4.335   4.407   7.380  1.3139  1.2456  0.8313
 8644SOL    HW237392   4.324   4.336   7.247  1.3949 -0.0324 -0.5892
 8645SOL     OW37393   2.674   0.971   5.832 -0.1321  0.8196 -0.0296
 8645SOL    HW137394   2.617   0.897   5.810 -2.3716  1.9898  1.8246
 8645SOL    HW237395   2.753   0.924   5.858 -0.6796 -0.6925 -1.0944
 8646SOL     OW37396   3.784   2.134   8.662  0.0653 -0.6058 -0.4295
 8646SOL    HW137397   3.843   2.081   8.716 -2.1624 -0.0907  2.5438
 8646SOL    HW237398   3.731   2.171   8.733 -2.7461 -2.6957 -1.4080
 8647SOL     OW37399   3.459   1.013   5.605  0.8569  0.4079 -0.8464
 8647SOL    HW137400   3.416   0.932   5.634 -0.1485  1.6945  1.2187
 8647SOL    HW237401   3.419   1.033   5.520 -0.5677 -0.1136 -0.3093
 8648SOL     OW37402   1.509   4.102   1.571  0.8135  0.2223 -0.2665
 8648SOL    HW137403   1.498   4.177   1.629  0.9492 -3.1125  4.0946
 8648SOL    HW237404   1.548   4.043   1.636  2.1734 -0.3290 -1.5578
 8649SOL     OW37405   4.434   1.392   6.325  0.5412  0.3628  0.1261
 8649SOL    HW137406   4.460   1.484   6.328  0.1948  0.5150 -1.6948
 8649SOL    HW237407   4.338   1.394   6.321  0.5672  1.8114  0.4970
 8650SOL     OW37408   4.277   2.217   7.467 -0.4046  0.2800  0.2848
 8650SOL    HW137409   4.355   2.261   7.503 -1.2503  1.3613  0.7950
 8650SOL    HW237410   4.209   2.284   7.469  0.7699  1.4217  2.5436
 8651SOL     OW37411   2.092   1.259   2.821  0.1827  0.2093  0.4762
 8651SOL    HW137412   2.127   1.260   2.732  1.2779 -1.1908  0.9033
 8651SOL    HW237413   2.170   1.220   2.861  0.4878 -1.2624 -1.5107
 8652SOL     OW37414   3.510   4.520  13.312 -0.3694  0.0198 -0.8521
 8652SOL    HW137415   3.419   4.539  13.292  0.1442  1.5016 -1.7744
 8652SOL    HW237416   3.564   4.562  13.246  1.2015  0.0428  0.4311
 8653SOL     OW37417   3.900   2.610   5.237  0.1076  0.3011  0.4318
 8653SOL    HW137418   3.972   2.599   5.299  0.3082  1.1438  0.3602
 8653SOL    HW237419   3.852   2.533   5.267  0.2242 -0.1214 -0.4746
 8654SOL     OW37420   1.986   3.263   6.891  0.1459  0.0405  0.2577
 8654SOL    HW137421   1.896   3.279   6.919  0.2711 -1.8644  1.7526
 8654SOL    HW237422   2.033   3.257   6.974  2.6735 -2.2154 -1.3358
 8655SOL     OW37423   1.807   1.335   5.898 -0.0488 -0.4539 -0.4654
 8655SOL    HW137424   1.832   1.305   5.811 -1.2042  1.4814 -1.4876
 8655SOL    HW237425   1.714   1.356   5.889  0.1040  0.2333 -0.4434
 8656SOL     OW37426   1.743   3.402  13.048 -0.3138  0.5290  0.3263
 8656SOL    HW137427   1.741   3.401  13.144 -0.4267  2.2373  0.3351
 8656SOL    HW237428   1.801   3.476  13.029  0.0993 -0.0425 -0.6441
 8657SOL     OW37429   2.647   4.190   9.080 -0.1834  0.1190  0.3931
 8657SOL    HW137430   2.664   4.127   9.011  0.1348  2.2982 -1.5242
 8657SOL    HW237431   2.617   4.264   9.026  2.2481  2.4340  2.1829
 8658SOL     OW37432   2.724   2.148   3.860  0.0957  0.8657 -0.1105
 8658SOL    HW137433   2.669   2.069   3.858  0.2569  0.7314  0.6727
 8658SOL    HW237434   2.796   2.108   3.910  0.9507  2.6213  0.0429
 8659SOL     OW37435   1.397   4.607   3.919 -0.6025  0.1351  0.5870
 8659SOL    HW137436   1.479   4.640   3.881 -0.2011  1.2664  2.4071
 8659SOL    HW237437   1.420   4.621   4.011 -0.0016 -2.2292  0.8104
 8660SOL     OW37438   1.742   0.128   5.299 -0.1814  0.1999 -0.5178
 8660SOL    HW137439   1.779   0.199   5.247  0.8101 -0.1421 -0.2907
 8660SOL    HW237440   1.825   0.086   5.325 -1.6686 -0.2913  3.5076
 8661SOL     OW37441   0.746   0.386   6.857  0.3375 -0.3830 -0.6145
 8661SOL    HW137442   0.653   0.406   6.857  0.7787  1.6648 -0.0656
 8661SOL    HW237443   0.748   0.322   6.785  0.4733 -2.0662  0.8963
 8662SOL     OW37444   3.657   4.642  15.210  0.0523  0.1191  0.1273
 8662SOL    HW137445   3.665   4.569  15.272 -3.7885  0.0231  0.4934
 8662SOL    HW237446   3.740   4.685  15.234  1.2139 -1.6211 -0.8395
 8663SOL     OW37447   0.031   0.892   7.236 -0.1755 -0.0141  0.2558
 8663SOL    HW137448   0.115   0.862   7.202 -0.9154 -3.6167  1.6073
 8663SOL    HW237449   4.722   0.818   7.287  0.3828 -1.4727 -1.5238
 8664SOL     OW37450   3.091   2.015   7.911 -0.1181 -0.2021 -0.0842
 8664SOL    HW137451   3.119   2.103   7.884  0.4515 -0.4171 -0.1985
 8664SOL    HW237452   3.028   1.993   7.842  1.6656 -1.5630 -1.2761
 8665SOL     OW37453   3.408   1.644   6.577 -0.0348 -0.0206  0.2956
 8665SOL    HW137454   3.400   1.736   6.551 -2.2199 -1.1146 -2.7791
 8665SOL    HW237455   3.479   1.608   6.525 -0.6014 -2.1226  1.0037
 8666SOL     OW37456   4.685   4.284   3.713 -0.3919 -0.1031 -0.5015
 8666SOL    HW137457   4.642   4.203   3.685  2.3476 -2.0903  1.0923
 8666SOL    HW237458   4.689   4.329   3.629 -1.1737  1.7472  0.4536
 8667SOL     OW37459   3.624   0.848  13.498 -0.3758 -0.2860  0.4898
 8667SOL    HW137460   3.591   0.894  13.421 -0.4796 -2.3844 -0.7241
 8667SOL    HW237461   3.561   0.777  13.507  2.0954 -2.4597  0.6441
 8668SOL     OW37462   1.131   1.846   5.603  0.4253  0.2233 -0.2044
 8668SOL    HW137463   1.224   1.867   5.597  0.0512  1.4173 -1.7722
 8668SOL    HW237464   1.117   1.888   5.687  2.7346 -0.2249  0.4134
 8669SOL     OW37465   3.995   3.518   7.663 -0.5832  0.4853 -0.1797
 8669SOL    HW137466   4.060   3.525   7.593 -1.3375  2.6393 -0.6591
 8669SOL    HW237467   4.004   3.604   7.704  1.3854  0.7498 -1.1755
 8670SOL     OW37468   0.331   2.923  10.496 -0.0355 -0.2618  0.0432
 8670SOL    HW137469   0.278   2.845  10.510 -1.2626  0.6796  0.6041
 8670SOL    HW237470   0.309   2.973  10.575 -0.9691 -0.6876  0.0459
 8671SOL     OW37471   1.576   1.321   5.541  0.4887 -0.3096  0.7978
 8671SOL    HW137472   1.666   1.315   5.572  1.1002 -1.1770 -1.1718
 8671SOL    HW237473   1.581   1.268   5.462  1.8094  0.0911  0.6228
 8672SOL     OW37474   0.659   2.634  15.373 -0.1290 -0.1200 -0.5560
 8672SOL    HW137475   0.749   2.636  15.407 -1.2957  2.2184  2.4654
 8672SOL    HW237476   0.647   2.539  15.381  1.8800 -0.1671  2.2282
 8673SOL     OW37477   1.052   4.568   7.840 -0.0491 -0.2332  0.5827
 8673SOL    HW137478   1.070   4.662   7.842 -0.6779 -0.1027  0.3224
 8673SOL    HW237479   0.975   4.570   7.784 -1.2941  1.5239  2.3461
 8674SOL     OW37480   4.554   4.698   8.862  0.0472 -0.6819 -0.4273
 8674SOL    HW137481   4.605   4.690   8.943 -3.3292  0.3894  1.8536
 8674SOL    HW237482   4.626   4.721   8.805  1.9907 -1.1444  1.8321
 8675SOL     OW37483   1.106   2.292  16.638 -0.0933  0.2995  0.1218
 8675SOL    HW137484   1.049   2.357  16.596  0.8419  1.2284  0.2973
 8675SOL    HW237485   1.042   2.221  16.649  0.2950 -0.2011 -0.7720
 8676SOL     OW37486   2.916   2.274   5.126  0.1358  0.0815 -0.2837
 8676SOL    HW137487   2.899   2.235   5.211  1.0264  0.9212  0.2790
 8676SOL    HW237488   2.830   2.305   5.098  0.1298 -0.4114 -0.8028
 8677SOL     OW37489   3.117   1.109  10.253 -0.6383  0.1757 -0.4555
 8677SOL    HW137490   3.143   1.017  10.248  2.0440  0.9841 -1.4306
 8677SOL    HW237491   3.084   1.121  10.164  2.2665 -0.4541 -1.6492
 8678SOL     OW37492   0.139   0.854  10.694  0.5972 -0.7083  0.0487
 8678SOL    HW137493   0.117   0.869  10.786  2.0256 -2.1751  0.6141
 8678SOL    HW237494   0.068   0.802  10.658  0.0038 -1.0913  1.8030
 8679SOL     OW37495   2.058   0.791   5.635 -0.3183  0.7069  0.1910
 8679SOL    HW137496   2.097   0.712   5.596  0.4978  1.5655 -0.7198
 8679SOL    HW237497   2.095   0.793   5.723 -1.8806 -0.4938  0.8690
 8680SOL     OW37498   4.362   4.522  11.797  0.0026  0.3455  0.4938
 8680SOL    HW137499   4.363   4.614  11.825  1.4026  0.1742  0.9586
 8680SOL    HW237500   4.454   4.500  11.807  1.1030  3.6649 -2.2659
 8681SOL     OW37501   3.760   1.903   8.936  0.3150 -0.6726  0.5365
 8681SOL    HW137502   3.719   1.822   8.965 -1.5066 -0.0097 -0.1694
 8681SOL    HW237503   3.763   1.951   9.020 -1.3407  0.2332  0.0772
 8682SOL     OW37504   3.315   0.223   0.239 -0.0522 -0.3972 -0.4370
 8682SOL    HW137505   3.237   0.205   0.291  0.4639  0.5006  0.6505
 8682SOL    HW237506   3.334   0.140   0.195 -0.9588 -1.8450  1.9183
 8683SOL     OW37507   3.684   3.662   6.290  0.2458  0.2465 -0.2515
 8683SOL    HW137508   3.669   3.637   6.199  1.0498  0.8890 -0.5554
 8683SOL    HW237509   3.623   3.605   6.337 -0.1452  0.9251  0.0726
 8684SOL     OW37510   1.800   0.578  16.179 -0.6247 -0.1709 -0.5835
 8684SOL    HW137511   1.868   0.579  16.247 -0.7354 -2.0316 -0.4450
 8684SOL    HW237512   1.763   0.495  16.208 -1.7079  0.7969  0.8720
 8685SOL     OW37513   2.913   4.506   8.916  0.2866  0.4375  0.7385
 8685SOL    HW137514   2.973   4.576   8.941  0.7279  0.3720 -0.1483
 8685SOL    HW237515   2.847   4.520   8.984  0.6658 -4.2637  2.1084
 8686SOL     OW37516   2.883   2.565   4.989  0.4232 -0.1753  0.3305
 8686SOL    HW137517   2.893   2.538   4.898  3.6717 -0.8736  0.8707
 8686SOL    HW237518   2.814   2.505   5.018  0.4038 -0.1367  0.3639
 8687SOL     OW37519   2.991   0.228   5.886  0.9980  0.3161 -0.2940
 8687SOL    HW137520   3.049   0.165   5.928  2.3742  1.8728  0.1279
 8687SOL    HW237521   2.982   0.283   5.964  0.2307  0.1258 -0.2473
 8688SOL     OW37522   1.425   3.850   3.135  0.2106  0.2797  0.0554
 8688SOL    HW137523   1.339   3.868   3.173 -0.7263 -0.0599 -1.9318
 8688SOL    HW237524   1.432   3.755   3.130  1.0881  0.4030 -1.0278
 8689SOL     OW37525   0.754   4.408   6.712  0.3310  0.9676  0.3905
 8689SOL    HW137526   0.689   4.463   6.757  0.4505 -1.0726  3.0321
 8689SOL    HW237527   0.737   4.321   6.748  3.1330  0.0944 -0.3739
 8690SOL     OW37528   2.732   0.992  16.407  0.0951 -0.2106 -0.3279
 8690SOL    HW137529   2.657   0.947  16.448 -1.1497  1.2316 -1.0327
 8690SOL    HW237530   2.703   1.083  16.400 -0.3997 -0.3323  0.0855
 8691SOL     OW37531   2.543   3.182   2.884  0.3274 -0.3357  1.0347
 8691SOL    HW137532   2.603   3.256   2.898  0.8776 -0.4109 -0.8482
 8691SOL    HW237533   2.538   3.174   2.789  0.3011 -2.3051  1.2152
 8692SOL     OW37534   2.845   1.791   8.379 -0.0908  0.3791  0.2725
 8692SOL    HW137535   2.923   1.786   8.323  0.2716  1.2408  0.7034
 8692SOL    HW237536   2.817   1.700   8.391 -1.9799  1.1182  1.4397
 8693SOL     OW37537   4.690   1.477   7.053  0.1849  0.4670 -0.3656
 8693SOL    HW137538   4.640   1.398   7.072  1.1371 -0.1390 -0.4075
 8693SOL    HW237539   4.617   1.529   7.019 -1.9373 -1.3586  1.4707
 8694SOL     OW37540   3.517   0.752   8.335 -0.1662 -0.6149 -0.0406
 8694SOL    HW137541   3.473   0.669   8.350 -2.5444  0.5782 -0.4786
 8694SOL    HW237542   3.472   0.779   8.255 -1.2167 -0.8098  0.4951
 8695SOL     OW37543   0.023   2.349   1.931  0.2158  0.4696  0.4025
 8695SOL    HW137544   4.677   2.284   1.939 -2.5273  3.1915 -2.0128
 8695SOL    HW237545   0.082   2.287   1.889  1.2846  0.9445  1.2145
 8696SOL     OW37546   3.348   0.963   3.759  0.2301 -0.3228  0.2000
 8696SOL    HW137547   3.369   0.942   3.850  1.2725 -1.5985 -0.3357
 8696SOL    HW237548   3.313   1.052   3.762 -1.1542 -0.8841  0.5787
 8697SOL     OW37549   2.299   3.995   2.997 -0.4583 -0.3398 -0.1370
 8697SOL    HW137550   2.357   4.062   3.033  2.0974 -2.5759 -0.0834
 8697SOL    HW237551   2.278   3.942   3.074  0.6167  1.1757  1.2018
 8698SOL     OW37552   0.780   1.407  16.448  0.1265 -0.4475  0.0212
 8698SOL    HW137553   0.793   1.501  16.454  2.1837 -0.6662 -0.7819
 8698SOL    HW237554   0.692   1.405  16.411  0.6809  0.1556 -1.3549
 8699SOL     OW37555   1.299   4.195   0.684  0.0804 -0.4683 -0.1748
 8699SOL    HW137556   1.231   4.184   0.750  0.9548 -0.2450  0.7576
 8699SOL    HW237557   1.250   4.156   0.612 -0.3616 -1.6118  0.7408
 8700SOL     OW37558   3.272   0.519  13.684 -0.3156 -0.2152  0.6910
 8700SOL    HW137559   3.287   0.427  13.705  0.5663 -0.0490  0.7988
 8700SOL    HW237560   3.273   0.558  13.771  1.4884  1.8383 -0.2435
 8701SOL     OW37561   3.368   1.904   2.522 -0.1934 -0.8568  0.3001
 8701SOL    HW137562   3.282   1.944   2.511  0.3260  1.0853  3.5107
 8701SOL    HW237563   3.358   1.834   2.458  0.3150  0.5135 -1.2910
 8702SOL     OW37564   2.488   2.617   6.148  0.2176 -0.1796 -0.1236
 8702SOL    HW137565   2.531   2.588   6.229  0.5198 -0.3727 -0.3505
 8702SOL    HW237566   2.486   2.540   6.091  2.8120  0.1815 -0.7120
 8703SOL     OW37567   2.253   4.279   7.511 -0.3094  0.5949 -0.1419
 8703SOL    HW137568   2.198   4.357   7.512  1.4791  1.8728 -1.4037
 8703SOL    HW237569   2.312   4.297   7.437  1.3523 -1.6823  0.6348
 8704SOL     OW37570   1.750   1.293   8.207  0.2582 -0.1028  0.2423
 8704SOL    HW137571   1.760   1.326   8.297 -0.6682  0.1133  0.2645
 8704SOL    HW237572   1.720   1.366   8.152 -0.3510 -1.8362 -1.7027
 8705SOL     OW37573   1.720   3.903   6.860  0.5121  0.2801 -0.3182
 8705SOL    HW137574   1.725   3.918   6.955 -2.3918  2.1830 -0.4759
 8705SOL    HW237575   1.656   3.972   6.845 -0.8999 -0.5799  1.6499
 8706SOL     OW37576   4.144   3.972   9.366  0.2057 -0.0576 -0.6073
 8706SOL    HW137577   4.064   3.946   9.321  0.3641  0.2318 -1.0590
 8706SOL    HW237578   4.211   3.944   9.303  0.6971  1.5829 -0.8058
 8707SOL     OW37579   3.072   2.903   2.566 -0.2431 -0.0984 -0.3911
 8707SOL    HW137580   3.009   2.969   2.595  0.3062 -0.1922  1.0455
 8707SOL    HW237581   3.028   2.834   2.615 -2.2899  0.6527 -1.1886
 8708SOL     OW37582   1.249   2.719   5.306  0.4438 -0.2010  0.4948
 8708SOL    HW137583   1.271   2.812   5.316  1.0156 -0.2288 -0.4485
 8708SOL    HW237584   1.335   2.677   5.316 -0.0351 -1.5585 -1.1111
 8709SOL     OW37585   0.018   3.819   6.596  0.0438 -0.2173  0.4399
 8709SOL    HW137586   4.651   3.841   6.603  0.0701  0.0088  0.0713
 8709SOL    HW237587   0.033   3.774   6.679 -0.9573 -0.8593  0.2595
 8710SOL     OW37588   2.611   2.520   6.383 -0.1514  0.6355 -0.3026
 8710SOL    HW137589   2.579   2.606   6.412  0.2547  0.1564  1.5438
 8710SOL    HW237590   2.705   2.533   6.376 -0.1330  2.7518  3.8621
 8711SOL     OW37591   2.803   4.330   3.264 -0.5782 -0.2781 -0.3573
 8711SOL    HW137592   2.820   4.382   3.186  1.6054 -1.0402 -0.3984
 8711SOL    HW237593   2.893   4.310   3.290 -0.5027  1.4371  0.7128
 8712SOL     OW37594   2.532   1.821   7.525 -0.0584  0.4406 -0.1555
 8712SOL    HW137595   2.619   1.791   7.550 -0.2308  1.2547  1.4146
 8712SOL    HW237596   2.471   1.753   7.549 -0.7924  1.5309  1.0540
 8713SOL     OW37597   3.051   1.812  15.338  0.7163 -0.0329 -0.2925
 8713SOL    HW137598   2.981   1.771  15.389  1.0184  0.6926  0.7035
 8713SOL    HW237599   3.120   1.751  15.362  0.3170 -0.6666 -0.7521
 8714SOL     OW37600   4.353   3.619   1.715  0.1276  0.2772 -0.5274
 8714SOL    HW137601   4.282   3.555   1.707  0.0299  0.1768  1.0524
 8714SOL    HW237602   4.310   3.686   1.661 -0.0479  0.6154  0.0330
 8715SOL     OW37603   0.327   0.826   0.248  0.2545  0.3996 -0.4666
 8715SOL    HW137604   0.379   0.828   0.168 -2.6301 -0.7742 -2.3800
 8715SOL    HW237605   0.391   0.818   0.318  2.2179  2.4601 -2.0100
 8716SOL     OW37606   2.184   2.098   2.223 -0.0224  0.8693 -0.1918
 8716SOL    HW137607   2.166   2.159   2.294 -0.3491 -0.0355  0.4993
 8716SOL    HW237608   2.272   2.125   2.198  0.2900 -0.6089 -0.7053
 8717SOL     OW37609   1.900   2.214   2.646  0.6605  0.3084 -0.0846
 8717SOL    HW137610   1.867   2.218   2.556 -0.0206  1.5527  0.2272
 8717SOL    HW237611   1.905   2.119   2.659  4.9620  0.4476 -0.9248
 8718SOL     OW37612   4.146   3.314   6.269 -0.4120  0.0867 -0.3910
 8718SOL    HW137613   4.158   3.377   6.339 -1.1254 -0.3657  0.1332
 8718SOL    HW237614   4.094   3.245   6.311  1.5331 -0.1439  1.6191
 8719SOL     OW37615   2.259   2.944   8.110  0.6353  0.2155 -0.0346
 8719SOL    HW137616   2.252   2.986   8.196 -0.9719 -0.4994  0.1879
 8719SOL    HW237617   2.353   2.931   8.109  0.5977 -0.1526  0.8801
 8720SOL     OW37618   3.725   2.920   8.632  0.0104  0.2104  0.1054
 8720SOL    HW137619   3.683   3.004   8.653 -0.1415 -0.2486  1.6283
 8720SOL    HW237620   3.643   2.876   8.610 -0.2147  0.7197 -0.0911
 8721SOL     OW37621   1.183   0.699   3.771 -0.4164 -0.6751 -0.1662
 8721SOL    HW137622   1.235   0.623   3.797  0.9679  0.0923 -0.6453
 8721SOL    HW237623   1.160   0.723   3.861 -0.5560 -0.8194 -0.1635
 8722SOL     OW37624   0.048   0.581   3.494 -0.1750 -0.2274  0.0383
 8722SOL    HW137625   4.689   0.559   3.534 -0.6835  3.2461  0.9079
 8722SOL    HW237626   0.008   0.645   3.434 -1.2634 -0.0002  1.0074
 8723SOL     OW37627   0.832   0.469  14.692 -0.5486 -0.0734  0.2957
 8723SOL    HW137628   0.818   0.504  14.604 -1.6043  2.1932  1.3674
 8723SOL    HW237629   0.927   0.477  14.697 -0.5410  1.1011 -1.7087
 8724SOL     OW37630   3.131   2.153   4.972  0.4089 -0.3639 -0.6863
 8724SOL    HW137631   3.087   2.108   4.899 -0.1601  1.3463 -1.3809
 8724SOL    HW237632   3.074   2.228   4.988  1.1226  0.1833 -0.7285
 8725SOL     OW37633   1.836   1.749   4.530  0.3710 -0.0350 -0.3185
 8725SOL    HW137634   1.914   1.697   4.548  0.6081  0.7526  0.9206
 8725SOL    HW237635   1.824   1.793   4.614 -0.8495  0.4171 -0.7192
 8726SOL     OW37636   1.210   2.710   0.221  0.0520  0.0285  0.3237
 8726SOL    HW137637   1.273   2.708   0.293  1.9138  1.5003 -1.2640
 8726SOL    HW237638   1.274   2.697   0.151  1.0763 -0.2652  1.3121
 8727SOL     OW37639   1.401   4.684  11.684 -0.1096  0.3935  0.3204
 8727SOL    HW137640   1.326   4.687  11.624  3.6273 -0.1650 -4.4130
 8727SOL    HW237641   1.466   4.639  11.630 -2.3724 -2.0312 -0.3707
 8728SOL     OW37642   2.696   2.839  15.477 -0.2725 -0.3505  0.1307
 8728SOL    HW137643   2.621   2.892  15.504 -0.7843 -0.5954 -0.7874
 8728SOL    HW237644   2.734   2.874  15.396 -1.4983 -1.8267 -1.0774
 8729SOL     OW37645   1.956   4.192   0.792  0.0858  0.4316 -0.3443
 8729SOL    HW137646   1.986   4.277   0.824 -0.9151  0.0462  1.6164
 8729SOL    HW237647   1.887   4.213   0.728  1.3174  0.1056 -1.7854
 8730SOL     OW37648   3.383   4.461  12.972  0.2620 -0.6016  0.1837
 8730SOL    HW137649   3.419   4.549  12.981  2.0385 -1.2187 -0.9331
 8730SOL    HW237650   3.308   4.468  13.031  1.3609  1.5404  1.3296
 8731SOL     OW37651   3.128   4.070   1.323  0.4132  0.5098 -0.1412
 8731SOL    HW137652   3.113   4.039   1.412  0.4744  1.0652  0.0663
 8731SOL    HW237653   3.147   3.991   1.272  0.7007 -0.5497  1.6215
 8732SOL     OW37654   1.071   3.995   3.771 -0.7059 -0.2168 -0.3596
 8732SOL    HW137655   1.140   4.047   3.729 -1.9150  1.6601  0.0114
 8732SOL    HW237656   1.035   4.070   3.819  0.1270  0.2051 -0.3891
 8733SOL     OW37657   1.389   1.781   0.696  0.6679 -0.3826 -0.0252
 8733SOL    HW137658   1.441   1.771   0.775  1.0276  0.6077 -0.1418
 8733SOL    HW237659   1.325   1.849   0.715  0.5971 -0.5284  0.2599
 8734SOL     OW37660   0.341   2.498   1.751 -0.1994 -0.6050  0.2000
 8734SOL    HW137661   0.314   2.458   1.668  2.2223 -1.2704 -0.2490
 8734SOL    HW237662   0.259   2.497   1.801 -1.0925 -1.0724 -1.2594
 8735SOL     OW37663   0.505   3.575   3.445 -0.1070  0.8102 -0.1002
 8735SOL    HW137664   0.571   3.507   3.436 -0.7594  0.1075  0.3660
 8735SOL    HW237665   0.559   3.650   3.468  2.1555 -0.7922 -0.2454
 8736SOL     OW37666   2.013   3.696   2.518 -0.1279  0.4951  0.2522
 8736SOL    HW137667   2.075   3.668   2.451 -0.8049 -0.9111  0.2026
 8736SOL    HW237668   2.057   3.764   2.569 -0.2541  1.9087 -1.5425
 8737SOL     OW37669   0.989   1.959   8.487 -0.0624  1.5683 -0.8244
 8737SOL    HW137670   0.956   2.048   8.470 -2.4399  0.4146 -2.3801
 8737SOL    HW237671   0.940   1.906   8.424  0.2258  0.7399 -0.3464
 8738SOL     OW37672   4.164   0.854   5.430 -0.7347  0.1180  0.1658
 8738SOL    HW137673   4.252   0.818   5.423  0.2312  2.6503 -0.7428
 8738SOL    HW237674   4.129   0.865   5.341 -4.1223 -1.2635  1.3240
 8739SOL     OW37675   0.602   2.976  17.225 -0.1059  0.2096  0.2252
 8739SOL    HW137676   0.514   3.014  17.231 -1.4220 -3.0989  2.0331
 8739SOL    HW237677   0.622   2.965  17.318 -0.5449 -3.2123 -0.0679
 8740SOL     OW37678   3.367   3.149   1.795 -0.4707 -0.2328  0.4242
 8740SOL    HW137679   3.462   3.147   1.803 -0.3583 -0.5856 -0.9710
 8740SOL    HW237680   3.357   3.239   1.766  2.7975  0.3394  1.0879
 8741SOL     OW37681   4.507   4.513   4.614 -0.8408 -0.2320 -0.5120
 8741SOL    HW137682   4.564   4.459   4.669 -0.8707 -1.1968 -1.4205
 8741SOL    HW237683   4.581   4.561   4.576 -0.5149 -0.4455 -0.1421
 8742SOL     OW37684   3.986   1.933   5.646  0.4283 -0.2359 -0.3685
 8742SOL    HW137685   4.006   1.906   5.556 -3.7427  0.4377 -1.4914
 8742SOL    HW237686   4.013   1.857   5.697 -2.3605 -1.0779 -0.1574
 8743SOL     OW37687   0.643   0.151   8.338 -0.0670 -0.3893 -0.3642
 8743SOL    HW137688   0.651   0.215   8.409  3.3067 -2.3895  1.0248
 8743SOL    HW237689   0.606   0.198   8.262  0.1390 -0.6032 -0.5934
 8744SOL     OW37690   0.230   1.893   2.907  0.2223  0.7036  1.1090
 8744SOL    HW137691   0.204   1.939   2.987  0.0343 -1.7472  2.4309
 8744SOL    HW237692   0.220   1.967   2.846  0.4869 -0.4040 -0.2706
 8745SOL     OW37693   1.353   2.388   7.165  0.0553  0.5931 -0.3802
 8745SOL    HW137694   1.333   2.316   7.224  1.8558 -0.6522 -1.2728
 8745SOL    HW237695   1.424   2.349   7.114 -1.7094 -1.7627 -1.0079
 8746SOL     OW37696   1.941   2.344   9.201 -0.1973 -0.4101 -0.0929
 8746SOL    HW137697   1.915   2.338   9.293 -2.3405  0.2554 -0.6757
 8746SOL    HW237698   2.006   2.274   9.188 -0.8900 -0.6575 -2.2785
 8747SOL     OW37699   4.032   3.715   4.638 -0.0603 -0.4797 -0.1884
 8747SOL    HW137700   4.102   3.779   4.627  1.1009 -1.5154  1.1668
 8747SOL    HW237701   4.071   3.630   4.659 -1.2633 -0.8586  0.5497
 8748SOL     OW37702   3.477   0.125   7.755 -0.3652  0.0380  0.2734
 8748SOL    HW137703   3.421   0.189   7.799  1.2127 -0.5408  3.1312
 8748SOL    HW237704   3.432   0.114   7.671  2.3172 -1.8554 -0.9353
 8749SOL     OW37705   4.647   4.404   7.239 -0.1751 -0.0283  0.0117
 8749SOL    HW137706   4.618   4.343   7.172  1.1280 -2.4079  1.6236
 8749SOL    HW237707   4.564   4.443   7.265  0.3795 -0.3507  2.2625
 8750SOL     OW37708   2.508   3.675   4.731 -0.0576  0.2131 -0.4204
 8750SOL    HW137709   2.514   3.584   4.701  1.0195  0.3202 -0.5388
 8750SOL    HW237710   2.455   3.667   4.811  2.3347 -0.9085  1.0683
 8751SOL     OW37711   0.824   0.595  15.348  0.4479 -0.0903  0.0236
 8751SOL    HW137712   0.859   0.506  15.356  1.4709  0.3073  0.0417
 8751SOL    HW237713   0.767   0.596  15.271 -1.2444 -1.1714  1.2763
 8752SOL     OW37714   0.757   1.823   6.515 -0.0925 -0.0228  0.2057
 8752SOL    HW137715   0.779   1.805   6.607 -0.6593  0.7111  0.4852
 8752SOL    HW237716   0.662   1.835   6.524  0.0429  2.0773 -1.1504
 8753SOL     OW37717   0.156   1.816   1.241 -0.2393 -0.1700  0.5581
 8753SOL    HW137718   0.089   1.769   1.192  1.4211 -4.6350  2.4593
 8753SOL    HW237719   0.134   1.800   1.333  0.5187 -0.1391  0.7429
 8754SOL     OW37720   3.163   2.199  12.029 -0.2793 -0.0251  0.9027
 8754SOL    HW137721   3.115   2.282  12.034 -0.1972  0.0391  0.6476
 8754SOL    HW237722   3.250   2.228  12.059  0.6915 -0.0574 -1.8256
 8755SOL     OW37723   3.868   0.625   9.587  0.4039 -0.3727  0.1235
 8755SOL    HW137724   3.877   0.716   9.561 -0.8006 -0.6802 -1.3472
 8755SOL    HW237725   3.875   0.641   9.682  3.6436 -0.2950 -0.1332
 8756SOL     OW37726   1.075   2.137   8.691 -0.4409  0.2886 -0.3790
 8756SOL    HW137727   1.047   2.125   8.782 -1.1181  0.4552 -0.5706
 8756SOL    HW237728   1.021   2.209   8.658  0.7470  0.7073 -1.4028
 8757SOL     OW37729   2.777   3.338   8.981 -0.2733  0.0250 -0.3024
 8757SOL    HW137730   2.834   3.375   8.913 -1.5911  1.1527 -0.7904
 8757SOL    HW237731   2.701   3.396   8.980 -0.4316 -0.1712  0.3044
 8758SOL     OW37732   3.829   3.502   2.708  0.4274 -0.0514 -0.1128
 8758SOL    HW137733   3.765   3.490   2.638  0.5123 -0.3818 -0.1329
 8758SOL    HW237734   3.871   3.416   2.704  0.4991 -0.0491  0.5291
 8759SOL     OW37735   3.234   0.580  10.431 -0.2492  0.0117 -0.1129
 8759SOL    HW137736   3.143   0.598  10.409 -0.4865 -0.7701  0.2341
 8759SOL    HW237737   3.244   0.629  10.513 -0.8018 -0.7240  0.3965
 8760SOL     OW37738   1.810   1.774   9.436 -0.1227  0.1693  0.0245
 8760SOL    HW137739   1.852   1.754   9.352  0.9737  0.6186  0.4604
 8760SOL    HW237740   1.727   1.731   9.415  0.1338  0.2846 -1.2295
 8761SOL     OW37741   3.716   1.255   3.506  0.3120  0.9670  0.0156
 8761SOL    HW137742   3.675   1.340   3.494 -3.1754 -1.1292 -2.8114
 8761SOL    HW237743   3.796   1.264   3.454  0.4853 -0.0412  0.0887
 8762SOL     OW37744   1.035   3.518   7.145  0.4333 -0.2413  0.7754
 8762SOL    HW137745   1.126   3.493   7.163  0.0309 -2.2030  0.1075
 8762SOL    HW237746   1.046   3.610   7.120  0.9658 -0.3652  0.5489
 8763SOL     OW37747   3.711   3.792   0.099 -0.0455 -1.0439  0.1920
 8763SOL    HW137748   3.650   3.763   0.167  0.2454 -0.5642  0.6614
 8763SOL    HW237749   3.783   3.820   0.156 -0.1409 -1.3839  0.4773
 8764SOL     OW37750   1.022   3.368  11.463  0.3551 -0.0494  0.0423
 8764SOL    HW137751   0.968   3.399  11.536 -0.5012 -2.4506  0.4254
 8764SOL    HW237752   1.063   3.447  11.427 -1.6333  1.4150  0.9420
 8765SOL     OW37753   4.068   4.034   3.746 -0.1153 -0.4137 -0.4817
 8765SOL    HW137754   4.026   4.102   3.799  0.3435  1.2853 -2.3074
 8765SOL    HW237755   4.064   3.964   3.812  0.4637  0.0173  0.0085
 8766SOL     OW37756   1.034   3.667   7.525 -0.3808 -0.4843  0.0948
 8766SOL    HW137757   1.112   3.699   7.479  0.6441  0.2913  2.3590
 8766SOL    HW237758   1.013   3.740   7.583 -0.5850  0.4457 -1.1448
 8767SOL     OW37759   1.103   4.281   5.781 -0.2004 -0.9197 -0.0351
 8767SOL    HW137760   1.178   4.245   5.829 -1.3443 -0.5917  1.9953
 8767SOL    HW237761   1.073   4.350   5.841 -0.4410  1.1741 -2.5470
 8768SOL     OW37762   4.538   0.861   6.990  0.6146  0.1902 -0.5897
 8768SOL    HW137763   4.630   0.849   6.968  0.2100  0.8708 -2.5859
 8768SOL    HW237764   4.557   0.904   7.074 -0.0189 -0.5763 -0.0429
 8769SOL     OW37765   2.800   1.411  13.140  0.4335  0.7063  0.0048
 8769SOL    HW137766   2.740   1.338  13.123  1.4779 -0.4516  1.2194
 8769SOL    HW237767   2.857   1.402  13.064  0.0078 -2.6227  0.0538
 8770SOL     OW37768   4.558   3.949   8.583 -0.3266 -0.8304  0.2116
 8770SOL    HW137769   4.538   3.868   8.537 -1.4339  0.4407 -1.5524
 8770SOL    HW237770   4.569   3.915   8.672  1.8542 -0.0048  0.2645
 8771SOL     OW37771   0.711   1.272   8.417  0.0941 -0.0842  0.4491
 8771SOL    HW137772   0.772   1.213   8.373  0.2629  1.2807 -1.1161
 8771SOL    HW237773   0.754   1.283   8.502  1.0258  1.4854 -0.2192
 8772SOL     OW37774   2.351   4.473   4.033  0.7884 -0.2294  0.5353
 8772SOL    HW137775   2.391   4.482   3.946 -0.8749  1.8466 -0.0087
 8772SOL    HW237776   2.367   4.380   4.051  1.0383  0.0117  1.5884
 8773SOL     OW37777   4.190   0.131   8.806  0.7138  0.5189 -0.0865
 8773SOL    HW137778   4.125   0.125   8.736 -2.3182  0.9171  2.7086
 8773SOL    HW237779   4.201   0.226   8.799  1.8032  0.5124  1.4968
 8774SOL     OW37780   2.293   0.598   2.016 -0.1077  0.1296 -0.1844
 8774SOL    HW137781   2.269   0.669   2.075  1.4959 -0.1901  0.8574
 8774SOL    HW237782   2.383   0.578   2.040 -0.3735 -1.7089 -0.6991
 8775SOL     OW37783   0.291   0.782   4.812 -0.0992 -0.3227 -0.7791
 8775SOL    HW137784   0.196   0.798   4.815  0.4565  2.7272  0.0116
 8775SOL    HW237785   0.317   0.805   4.723  1.4420 -2.9633 -1.0147
 8776SOL     OW37786   3.141   3.745   7.772 -0.1435  0.1368 -0.3755
 8776SOL    HW137787   3.108   3.800   7.701 -0.7278  0.4130  0.1179
 8776SOL    HW237788   3.234   3.768   7.778 -0.8450  3.2253 -1.1830
 8777SOL     OW37789   3.128   1.464   4.374  0.0208 -0.1120 -0.3788
 8777SOL    HW137790   3.050   1.467   4.318 -0.7962 -0.3787  0.7416
 8777SOL    HW237791   3.141   1.559   4.378 -0.3889 -0.1159  1.1209
 8778SOL     OW37792   4.289   0.716   0.045  0.1679 -0.0087  0.4537
 8778SOL    HW137793   4.225   0.665   0.093 -2.3074 -0.9485 -3.8935
 8778SOL    HW237794   4.251   0.804   0.053 -0.9528 -0.2159 -2.4170
 8779SOL     OW37795   2.173   1.212  13.951  0.2647 -0.1214  0.2643
 8779SOL    HW137796   2.108   1.145  13.931  0.0641  0.1611 -0.0223
 8779SOL    HW237797   2.229   1.220  13.874  1.7502  0.8497  1.4382
 8780SOL     OW37798   2.906   4.211   2.705 -0.4358 -0.4129 -0.1936
 8780SOL    HW137799   2.922   4.277   2.638 -1.4898  2.1917  2.1331
 8780SOL    HW237800   2.827   4.254   2.737 -0.0445 -0.5605  0.9671
 8781SOL     OW37801   4.227   1.238   8.343  0.0475 -0.2480 -0.0862
 8781SOL    HW137802   4.318   1.221   8.316 -0.1550 -0.1192 -0.8245
 8781SOL    HW237803   4.238   1.290   8.423  0.0405 -1.5093  0.7451
 8782SOL     OW37804   2.950   0.567   7.418  0.4185 -0.3477 -0.1856
 8782SOL    HW137805   2.889   0.544   7.348 -0.3471 -0.2101  0.4315
 8782SOL    HW237806   2.902   0.589   7.499 -0.4401 -0.6293 -0.6219
 8783SOL     OW37807   3.465   0.276   8.241  0.5036 -0.1514 -0.4251
 8783SOL    HW137808   3.478   0.213   8.313  0.6615  1.4055  0.8993
 8783SOL    HW237809   3.556   0.303   8.231  0.7823 -0.5852  0.8422
 8784SOL     OW37810   4.299   2.434   1.393 -0.1907  0.2324  0.1708
 8784SOL    HW137811   4.324   2.377   1.320  1.1974  2.1045 -0.8272
 8784SOL    HW237812   4.360   2.407   1.461  0.7981  2.1349  0.0436
 8785SOL     OW37813   2.831   0.130  12.632 -0.0712 -0.0626  0.4075
 8785SOL    HW137814   2.905   0.070  12.622  0.4841  1.2269 -3.1038
 8785SOL    HW237815   2.857   0.187  12.704 -0.0384 -0.6704  0.8853
 8786SOL     OW37816   2.988   3.772   8.042  0.6415  0.1685 -0.0543
 8786SOL    HW137817   3.080   3.747   8.049  0.5382 -0.0421  0.5269
 8786SOL    HW237818   2.994   3.857   7.999  0.8292 -0.2742 -0.9133
 8787SOL     OW37819   0.377   0.340   0.829  0.5788 -0.4071  0.0705
 8787SOL    HW137820   0.290   0.302   0.819  0.4213  0.0234 -0.1962
 8787SOL    HW237821   0.373   0.399   0.754 -2.0438 -1.4686 -0.6267
 8788SOL     OW37822   2.340   0.867  17.022  0.4086 -0.0163  0.4696
 8788SOL    HW137823   2.343   0.859  16.927 -0.4070  1.2385  0.3342
 8788SOL    HW237824   2.435   0.873  17.027  0.4706 -1.0324  0.4068
 8789SOL     OW37825   0.772   3.064  13.377 -0.5569 -0.4187 -0.0686
 8789SOL    HW137826   0.717   3.023  13.444 -0.1584  1.4538  1.4189
 8789SOL    HW237827   0.702   3.070  13.313  1.0012  0.4313 -1.6778
 8790SOL     OW37828   0.852   3.475  11.639 -0.1535  0.0462  0.1722
 8790SOL    HW137829   0.905   3.471  11.719 -0.0133 -0.9640  0.0304
 8790SOL    HW237830   0.810   3.561  11.641  1.4354  0.7933  0.7983
 8791SOL     OW37831   1.328   1.418  15.846  0.1574  0.5304 -0.6342
 8791SOL    HW137832   1.380   1.373  15.780  2.9612  1.4770  0.9179
 8791SOL    HW237833   1.378   1.500  15.845 -1.7057  1.6865  1.2326
 8792SOL     OW37834   1.110   1.440   5.494 -0.1792  0.1481 -0.3941
 8792SOL    HW137835   1.199   1.444   5.458 -1.3291  0.6142 -3.1328
 8792SOL    HW237836   1.125   1.442   5.589 -0.1687  1.3717 -0.4303
 8793SOL     OW37837   0.779   4.442  17.556 -0.1379  0.4210  0.0464
 8793SOL    HW137838   0.847   4.485  17.504 -1.9060 -0.1728 -2.8270
 8793SOL    HW237839   0.721   4.417  17.484 -0.3400 -0.1703  0.4145
 8794SOL     OW37840   0.570   2.826   3.135  0.2983  0.4736 -0.3566
 8794SOL    HW137841   0.573   2.906   3.188  0.6605  0.1390  0.1376
 8794SOL    HW237842   0.545   2.860   3.049  0.1199  0.1236 -0.4454
 8795SOL     OW37843   3.855   1.549  14.389 -0.5554  0.1779 -1.0859
 8795SOL    HW137844   3.876   1.456  14.396 -0.2702  0.2856 -0.4654
 8795SOL    HW237845   3.891   1.575  14.474 -1.9586 -0.5248 -0.2842
 8796SOL     OW37846   1.985   1.011   2.060  0.2940  0.4110 -0.2243
 8796SOL    HW137847   1.952   0.964   2.136 -3.0211  1.7639 -0.8272
 8796SOL    HW237848   1.905   1.044   2.020  0.5361 -0.2163 -1.2442
 8797SOL     OW37849   3.022   0.675  11.213  0.2079  0.2307 -0.3129
 8797SOL    HW137850   3.045   0.767  11.224  0.3569  0.3254 -1.4245
 8797SOL    HW237851   3.053   0.630  11.292 -1.3016 -0.8556 -0.3465
 8798SOL     OW37852   0.570   1.784  10.467  0.2388 -0.6417  0.5598
 8798SOL    HW137853   0.644   1.724  10.480  0.0245 -0.9463  0.3798
 8798SOL    HW237854   0.501   1.725  10.435  0.8355 -1.3419  0.5592
 8799SOL     OW37855   2.004   3.045  17.492 -0.2425  0.0289  0.3520
 8799SOL    HW137856   1.996   3.103  17.567 -0.6690 -2.6633  2.3912
 8799SOL    HW237857   2.094   3.059  17.461 -0.3024  1.8589  1.0226
 8800SOL     OW37858   3.347   0.139   2.194  0.3291 -0.3879  0.5102
 8800SOL    HW137859   3.354   0.222   2.241 -2.1585 -0.2388  0.6317
 8800SOL    HW237860   3.279   0.099   2.247 -0.7698  0.5753 -0.1732
 8801SOL     OW37861   4.145   1.212   1.342 -0.2646 -0.2673  0.1183
 8801SOL    HW137862   4.223   1.234   1.393 -0.3098  0.1804 -0.0084
 8801SOL    HW237863   4.137   1.119   1.364  1.1413 -0.7823 -1.5019
 8802SOL     OW37864   3.028   3.834   5.052 -0.0208 -0.1976  0.4185
 8802SOL    HW137865   3.120   3.849   5.032 -0.6244  0.1694 -1.9901
 8802SOL    HW237866   3.051   3.760   5.109 -0.9900  1.5198  3.0426
 8803SOL     OW37867   3.887   1.108   0.751  0.2877 -0.3194 -0.7340
 8803SOL    HW137868   3.963   1.132   0.805 -1.3965  2.2943  0.4871
 8803SOL    HW237869   3.933   1.087   0.670 -0.8222  0.3689 -1.5449
 8804SOL     OW37870   3.832   1.507  12.686 -0.4978  0.3342 -0.1305
 8804SOL    HW137871   3.793   1.553  12.760  0.1426 -1.1975  1.1683
 8804SOL    HW237872   3.780   1.427  12.692 -1.0412  0.7188  0.1861
 8805SOL     OW37873   3.054   1.880   8.163 -0.0063 -0.4508  0.3349
 8805SOL    HW137874   3.010   1.946   8.109 -0.2911 -1.5172 -0.7180
 8805SOL    HW237875   3.144   1.914   8.162 -0.3162  0.4127  1.4927
 8806SOL     OW37876   2.905   1.653   1.979 -0.0890 -0.2651  0.8082
 8806SOL    HW137877   2.936   1.563   1.983 -3.4531 -1.4143  0.9503
 8806SOL    HW237878   2.949   1.695   2.054  2.3459 -2.3566  0.5702
 8807SOL     OW37879   1.857   1.427  17.087  0.0121  0.2133 -0.3389
 8807SOL    HW137880   1.781   1.399  17.138  0.6781 -2.3173 -0.7243
 8807SOL    HW237881   1.889   1.338  17.075  3.3081  0.8049  4.1445
 8808SOL     OW37882   4.433   0.040   0.487  0.3657 -0.1016  0.0255
 8808SOL    HW137883   4.349   0.084   0.502 -0.1291 -1.4210  1.1873
 8808SOL    HW237884   4.422   0.007   0.398 -0.8322 -0.8706  0.4520
 8809SOL     OW37885   1.546   1.271   2.306  0.2326  0.4034  0.2418
 8809SOL    HW137886   1.505   1.357   2.311  0.4819  0.4836  0.8210
 8809SOL    HW237887   1.513   1.233   2.387  1.2836  1.4953  1.1764
 8810SOL     OW37888   1.618   3.649  15.026  0.3955  0.1634  0.1477
 8810SOL    HW137889   1.568   3.595  14.965  0.6773  1.0568 -0.8691
 8810SOL    HW237890   1.620   3.733  14.981  1.0429 -1.1197 -2.1985
 8811SOL     OW37891   2.761   1.320   1.389 -0.3791  0.3123 -0.6639
 8811SOL    HW137892   2.724   1.303   1.302  0.6505  2.1083 -1.4389
 8811SOL    HW237893   2.851   1.345   1.371  0.3909 -0.4870  2.0528
 8812SOL     OW37894   2.695   0.922   5.181 -0.6954 -0.1388  0.5029
 8812SOL    HW137895   2.675   0.881   5.265  2.6377  2.0774  2.4007
 8812SOL    HW237896   2.774   0.877   5.151  0.3542  1.2827  1.1116
 8813SOL     OW37897   1.644   4.418   1.599 -0.1509 -0.6185  0.6397
 8813SOL    HW137898   1.584   4.380   1.663 -0.1847  1.1097  1.6318
 8813SOL    HW237899   1.587   4.491   1.579 -0.0343 -0.9410 -0.8598
 8814SOL     OW37900   1.236   3.040  13.714 -0.1749  0.5633  0.4501
 8814SOL    HW137901   1.145   3.013  13.723 -0.3069  1.0729  0.6401
 8814SOL    HW237902   1.223   3.113  13.653  4.1301  1.4195  0.5705
 8815SOL     OW37903   4.022   3.654   5.764  0.6169  0.2407  0.4588
 8815SOL    HW137904   4.074   3.641   5.844 -0.2618 -0.4958  0.9066
 8815SOL    HW237905   3.974   3.735   5.780 -1.0272 -0.3330 -1.5760
 8816SOL     OW37906   4.231   1.777   1.795 -1.1333  0.2592  0.0730
 8816SOL    HW137907   4.158   1.779   1.734 -0.4911 -0.0100 -0.7157
 8816SOL    HW237908   4.232   1.868   1.825 -0.4229  1.0272 -2.2855
 8817SOL     OW37909   1.504   2.781   7.574  0.1261  0.3500 -0.1877
 8817SOL    HW137910   1.531   2.720   7.505 -0.3661  3.2171 -2.9180
 8817SOL    HW237911   1.486   2.717   7.642 -1.1114  1.7482  0.7840
 8818SOL     OW37912   4.036   4.699  16.592  0.0555  0.1454 -0.0754
 8818SOL    HW137913   4.094   4.680  16.666 -1.1393 -0.6010  0.6706
 8818SOL    HW237914   4.087   4.715  16.513 -0.3404 -1.2587 -0.6108
 8819SOL     OW37915   3.753   0.666   7.818 -0.1299 -0.1763 -0.0743
 8819SOL    HW137916   3.831   0.637   7.771 -1.1377 -2.4465 -0.3640
 8819SOL    HW237917   3.781   0.751   7.851 -0.4222 -0.6361  1.3369
 8820SOL     OW37918   1.722   4.455   5.185 -0.4034 -0.4335 -0.0184
 8820SOL    HW137919   1.762   4.487   5.104  0.4536  0.3357  0.7057
 8820SOL    HW237920   1.647   4.508   5.211 -2.1174 -2.5777 -0.6089
 8821SOL     OW37921   2.799   3.499   6.697  0.4213 -0.1035 -0.2380
 8821SOL    HW137922   2.746   3.579   6.698  1.6135  0.7207 -2.2293
 8821SOL    HW237923   2.734   3.429   6.700 -0.3931  0.7187  1.2087
 8822SOL     OW37924   0.019   1.184   3.579 -0.0362 -0.6156 -0.0060
 8822SOL    HW137925   0.103   1.150   3.549 -0.1278 -1.8104  1.0567
 8822SOL    HW237926   0.001   1.119   3.648  0.5368 -0.1779  0.5591
 8823SOL     OW37927   4.513   2.596  11.018 -0.2606  0.2841 -0.6780
 8823SOL    HW137928   4.598   2.577  11.059 -1.6783  1.4602  2.8855
 8823SOL    HW237929   4.538   2.683  10.985 -1.3531  1.1805  0.8447
 8824SOL     OW37930   2.036   2.803   3.394  0.0841 -0.6895 -0.1012
 8824SOL    HW137931   2.047   2.806   3.299 -1.6252  1.3479 -0.2256
 8824SOL    HW237932   1.940   2.798   3.391 -0.1401  3.3521  0.6276
 8825SOL     OW37933   1.694   1.680   2.374  0.4038 -0.2801  0.0653
 8825SOL    HW137934   1.611   1.631   2.373  2.4041 -3.6536 -2.0814
 8825SOL    HW237935   1.709   1.693   2.467 -1.3071 -0.7670  0.4026
 8826SOL     OW37936   2.523   0.809   9.162 -0.6876  0.4388  0.3993
 8826SOL    HW137937   2.550   0.736   9.219 -1.9488  0.8721  1.5671
 8826SOL    HW237938   2.439   0.771   9.134 -0.6364  0.7402 -0.1563
 8827SOL     OW37939   4.234   0.789   3.569  1.0385  0.3603 -0.4539
 8827SOL    HW137940   4.189   0.782   3.653  2.2656  2.5238  0.3712
 8827SOL    HW237941   4.164   0.828   3.517 -0.1796 -1.6935 -0.3800
 8828SOL     OW37942   0.280   0.145   8.962  0.0726  0.0109 -0.2557
 8828SOL    HW137943   0.234   0.090   8.899 -2.0727  1.4193  0.0749
 8828SOL    HW237944   0.361   0.168   8.915  1.4469 -4.3297 -0.0584
 8829SOL     OW37945   4.127   1.905  10.899  0.0102 -0.1931 -0.3903
 8829SOL    HW137946   4.133   1.827  10.953 -0.7065  2.0009  2.8720
 8829SOL    HW237947   4.212   1.942  10.923 -0.3011 -1.4893  2.7689
 8830SOL     OW37948   1.972   3.945   7.667  0.5462  0.1433  0.7152
 8830SOL    HW137949   1.989   3.897   7.586 -0.3913 -3.4452  2.6774
 8830SOL    HW237950   1.902   4.005   7.638  3.0014  2.4066 -0.5541
 8831SOL     OW37951   2.517   3.717   8.112 -0.0708  0.1316  0.1576
 8831SOL    HW137952   2.599   3.753   8.079  0.3157 -2.3152 -1.5623
 8831SOL    HW237953   2.504   3.658   8.038 -0.1039 -0.7367  0.8658
 8832SOL     OW37954   3.939   2.177   7.451 -0.0898 -0.2650 -0.2446
 8832SOL    HW137955   3.984   2.167   7.535  0.5314  1.7745 -0.3258
 8832SOL    HW237956   3.974   2.104   7.399  0.7260 -1.3309  1.8214
 8833SOL     OW37957   0.686   0.733   9.441  0.0048 -0.7011  0.0611
 8833SOL    HW137958   0.688   0.769   9.352 -0.3037  1.0410  0.7553
 8833SOL    HW237959   0.667   0.640   9.436  0.1525 -0.6089 -2.4421
 8834SOL     OW37960   1.730   3.837  16.668  0.5207 -0.3153  0.3755
 8834SOL    HW137961   1.682   3.760  16.700  1.3466 -0.6877  0.7379
 8834SOL    HW237962   1.725   3.831  16.572  0.4971  0.7276  0.3113
 8835SOL     OW37963   2.160   2.654  15.770  0.0563 -0.5606  0.4293
 8835SOL    HW137964   2.073   2.656  15.731  0.7744  0.5572 -1.1127
 8835SOL    HW237965   2.183   2.562  15.778 -2.1999 -1.0752  1.1283
 8836SOL     OW37966   3.829   2.809   0.011 -0.4775  0.5290  0.1820
 8836SOL    HW137967   3.843   2.858  17.632  1.5989 -0.2428  0.0813
 8836SOL    HW237968   3.870   2.872   0.070  1.6035  0.6360 -1.3925
 8837SOL     OW37969   4.076   3.430   6.653 -0.1583 -0.8231 -0.2920
 8837SOL    HW137970   3.986   3.425   6.684  0.5135  0.5302  1.9070
 8837SOL    HW237971   4.098   3.338   6.639  1.9597 -0.5448  1.3061
 8838SOL     OW37972   2.412   4.608   8.108 -0.4148  0.3337 -0.0109
 8838SOL    HW137973   2.505   4.608   8.084  0.1644 -1.4651  2.2798
 8838SOL    HW237974   2.387   4.683   8.054 -0.5559 -0.5441 -1.1732
 8839SOL     OW37975   3.707   2.395   7.961 -0.1874 -0.5408  0.2416
 8839SOL    HW137976   3.671   2.346   7.888  1.6180  2.0257 -2.3462
 8839SOL    HW237977   3.768   2.341   8.010 -0.9166 -2.8368 -1.3996
 8840SOL     OW37978   1.733   3.815   3.843  0.6556 -0.7080 -0.0621
 8840SOL    HW137979   1.674   3.872   3.793  0.6347 -0.7503 -0.0851
 8840SOL    HW237980   1.717   3.862   3.925  1.6450 -1.0060  0.2974
 8841SOL     OW37981   4.254   1.250   4.320  0.2026 -0.3372  0.2091
 8841SOL    HW137982   4.171   1.216   4.286  0.5887  1.9431 -3.0486
 8841SOL    HW237983   4.320   1.190   4.284 -0.0842 -0.9575  0.7236
 8842SOL     OW37984   0.095   3.068  14.593 -0.4610 -0.4181  0.3211
 8842SOL    HW137985   0.015   3.015  14.594  0.2342 -1.4607  1.1679
 8842SOL    HW237986   0.156   3.017  14.540  2.5649  1.7327  1.7914
 8843SOL     OW37987   2.127   0.409   7.410 -0.1187  0.8554 -0.3954
 8843SOL    HW137988   2.195   0.413   7.477 -0.2201  0.0299 -0.2416
 8843SOL    HW237989   2.058   0.438   7.470  1.3202  0.7854  1.2878
 8844SOL     OW37990   3.300   4.348   3.066 -0.6165 -0.1247  0.2914
 8844SOL    HW137991   3.391   4.374   3.084  0.2291 -1.8577 -1.4588
 8844SOL    HW237992   3.257   4.433   3.052  0.0797  0.3901  1.2178
 8845SOL     OW37993   3.551   4.138   6.851  0.1576  0.2570  0.2057
 8845SOL    HW137994   3.572   4.074   6.919  1.6369  0.2717 -0.2485
 8845SOL    HW237995   3.637   4.174   6.829 -0.0870  0.6291 -0.1438
 8846SOL     OW37996   2.119   3.956  17.232  0.2271  0.0175 -0.1613
 8846SOL    HW137997   2.148   4.022  17.168  2.2476 -2.0447 -1.4085
 8846SOL    HW237998   2.054   4.001  17.285 -0.0156  0.3759 -0.7627
 8847SOL     OW37999   1.697   3.674   7.684  0.2530  0.4676  0.1414
 8847SOL    HW138000   1.740   3.627   7.612 -0.2597  0.8597 -0.4133
 8847SOL    HW238001   1.687   3.763   7.652 -1.9128 -0.3734 -1.5143
 8848SOL     OW38002   4.358   1.120   3.797 -0.5455  0.3502  0.0302
 8848SOL    HW138003   4.381   1.208   3.825  0.9801  0.0618 -0.3029
 8848SOL    HW238004   4.279   1.132   3.744 -2.3129 -0.2091  2.5435
 8849SOL     OW38005   3.432   3.297  10.652 -0.3422 -0.7311  0.3281
 8849SOL    HW138006   3.499   3.332  10.711 -0.0718 -0.5434 -0.0888
 8849SOL    HW238007   3.472   3.220  10.613  2.6393  1.6770 -1.3922
 8850SOL     OW38008   1.150   3.460   6.745  0.1081  0.2946  0.1571
 8850SOL    HW138009   1.210   3.416   6.805 -0.7495 -0.6325  0.3359
 8850SOL    HW238010   1.205   3.498   6.675 -1.1175 -0.5411 -1.2578
 8851SOL     OW38011   4.230   2.754  10.329 -0.3375  0.0381  0.0066
 8851SOL    HW138012   4.240   2.754  10.234  0.5395 -1.6049  0.0960
 8851SOL    HW238013   4.307   2.701  10.348  0.4261  1.2024  0.1547
 8852SOL     OW38014   2.063   3.921   1.665  0.1875 -0.0345 -0.7850
 8852SOL    HW138015   2.102   4.009   1.665  0.1937 -0.0408  1.0854
 8852SOL    HW238016   2.110   3.887   1.589  2.1549  1.6401 -0.3417
 8853SOL     OW38017   4.466   4.089   9.477 -0.3224 -0.2540  0.2944
 8853SOL    HW138018   4.518   4.135   9.543 -0.8592 -0.2816  0.7346
 8853SOL    HW238019   4.386   4.092   9.528 -1.1274  1.4977 -1.0729
 8854SOL     OW38020   0.079   2.233   7.787  0.0342  0.0184  0.4004
 8854SOL    HW138021   0.060   2.285   7.709 -0.9889 -1.8265 -0.6044
 8854SOL    HW238022   0.173   2.218   7.783 -0.0778 -0.6775  0.2506
 8855SOL     OW38023   4.478   1.700   3.869 -0.1896  0.3146 -0.1847
 8855SOL    HW138024   4.479   1.680   3.963 -0.8284 -0.8721 -0.4335
 8855SOL    HW238025   4.408   1.764   3.871  2.4656  3.1686  1.0203
 8856SOL     OW38026   2.271   4.580   4.849 -0.8117  0.1470 -0.5888
 8856SOL    HW138027   2.331   4.519   4.892 -1.1952  1.4215  1.7874
 8856SOL    HW238028   2.207   4.591   4.920 -2.3964 -2.0633 -1.6710
 8857SOL     OW38029   1.551   2.221   7.028  0.4338  0.2487  0.4563
 8857SOL    HW138030   1.513   2.135   7.044  0.3861 -0.0717 -1.3968
 8857SOL    HW238031   1.537   2.241   6.935 -0.2393 -3.0186 -0.1183
 8858SOL     OW38032   4.139   1.923   7.861 -0.6476  0.3753 -0.5965
 8858SOL    HW138033   4.066   1.916   7.923  1.1837  0.8434  1.6320
 8858SOL    HW238034   4.215   1.922   7.920  0.4212 -0.3702 -1.9882
 8859SOL     OW38035   0.981   2.533   8.841  0.2294 -0.2882  0.3889
 8859SOL    HW138036   0.905   2.540   8.899  0.7626 -2.3826  1.3392
 8859SOL    HW238037   1.048   2.564   8.901 -0.3788 -0.5798  1.2241
 8860SOL     OW38038   2.565   3.329   3.807 -0.4341 -0.0427 -0.2453
 8860SOL    HW138039   2.589   3.339   3.715  0.6936 -0.1932  0.0351
 8860SOL    HW238040   2.527   3.243   3.795  0.7055 -0.9176  2.3034
 8861SOL     OW38041   1.004   0.773  16.216  0.1251  0.0284  0.0538
 8861SOL    HW138042   0.995   0.771  16.121  2.3489  0.7790 -0.1844
 8861SOL    HW238043   1.042   0.689  16.243 -0.4653  0.0873  1.0376
 8862SOL     OW38044   2.394   3.608  12.671  0.2205 -0.4583  0.0481
 8862SOL    HW138045   2.436   3.581  12.590  0.4934 -3.3131  1.1212
 8862SOL    HW238046   2.305   3.626  12.641  0.3676 -0.3592 -0.3309
 8863SOL     OW38047   3.813   3.864  11.624 -0.5171 -0.3118 -0.1196
 8863SOL    HW138048   3.873   3.817  11.682 -1.3644 -1.2806 -0.0210
 8863SOL    HW238049   3.727   3.834  11.654 -0.0896 -0.7391  0.6764
 8864SOL     OW38050   3.133   4.061   7.333  0.1330 -0.1923  0.6144
 8864SOL    HW138051   3.169   4.086   7.248  0.1121  2.2921  1.3377
 8864SOL    HW238052   3.064   4.002   7.301  0.0403  1.0431 -1.4721
 8865SOL     OW38053   4.159   0.182  12.657  0.2329  0.6184 -0.2500
 8865SOL    HW138054   4.139   0.182  12.750  0.5776  0.7418 -0.1766
 8865SOL    HW238055   4.212   0.102  12.651 -0.5244  0.1173 -0.1891
 8866SOL     OW38056   4.362   2.119  13.614 -0.2482  1.0619 -1.0323
 8866SOL    HW138057   4.272   2.110  13.643 -0.1135  0.2251 -0.8624
 8866SOL    HW238058   4.385   2.026  13.621 -3.7110  0.1428 -2.1119
 8867SOL     OW38059   3.831   2.275   9.973 -0.2977  0.1260 -0.0266
 8867SOL    HW138060   3.820   2.190  10.017  2.8185  0.3875  1.2309
 8867SOL    HW238061   3.926   2.281   9.971 -0.3232  0.9129  0.8306
 8868SOL     OW38062   0.298   2.921   9.276  0.0397  0.4619 -0.1875
 8868SOL    HW138063   0.311   2.994   9.215 -2.8244  1.4419  0.4019
 8868SOL    HW238064   0.241   2.974   9.331 -1.5464 -0.9352 -0.4831
 8869SOL     OW38065   1.967   2.441   7.157 -0.3950  0.1216 -0.5160
 8869SOL    HW138066   1.943   2.355   7.124  2.5886 -1.1064  0.5494
 8869SOL    HW238067   2.009   2.475   7.078  1.0624 -0.5110 -0.0197
 8870SOL     OW38068   0.198   4.244   9.837  0.7032 -0.1166  0.0061
 8870SOL    HW138069   0.288   4.238   9.870  0.8655 -2.2077 -0.8237
 8870SOL    HW238070   0.209   4.312   9.772 -2.5055  3.0508  2.7790
 8871SOL     OW38071   4.203   2.718   0.642 -0.7221 -0.2840 -0.0473
 8871SOL    HW138072   4.154   2.723   0.723 -2.3337  0.2865 -1.0589
 8871SOL    HW238073   4.131   2.686   0.588 -0.9492  1.0053 -0.5094
 8872SOL     OW38074   2.237   4.713   1.372  0.0364 -0.6541  0.4792
 8872SOL    HW138075   2.180   4.643   1.341  1.5699 -1.6826  0.0132
 8872SOL    HW238076   2.308   4.711   1.308 -1.0710  2.9317 -0.9233
 8873SOL     OW38077   2.519   0.922   2.195 -0.2125  0.1307  0.1477
 8873SOL    HW138078   2.490   0.999   2.243 -2.3384 -1.3522  1.2610
 8873SOL    HW238079   2.440   0.907   2.144  0.5087 -0.2974 -0.8610
 8874SOL     OW38080   0.264   1.732   7.552 -0.3887  0.3631 -0.6531
 8874SOL    HW138081   0.224   1.808   7.595  1.1531  0.9616 -0.2775
 8874SOL    HW238082   0.280   1.674   7.626 -0.3401 -0.2258 -1.1325
 8875SOL     OW38083   2.524   0.224  16.086  0.1519 -0.0120  0.0790
 8875SOL    HW138084   2.603   0.268  16.055  1.4715 -1.0987  1.8663
 8875SOL    HW238085   2.484   0.308  16.104  0.6711  0.0874  0.7605
 8876SOL     OW38086   2.422   2.907   6.107 -0.4786  1.1732  0.2134
 8876SOL    HW138087   2.506   2.952   6.106  1.3457 -2.2316  0.2780
 8876SOL    HW238088   2.447   2.815   6.101 -0.8309  1.1000 -0.1621
 8877SOL     OW38089   0.446   2.131   2.906  0.0490  0.4871  0.0387
 8877SOL    HW138090   0.358   2.158   2.882  0.9087  1.6646 -1.8527
 8877SOL    HW238091   0.487   2.210   2.941 -1.0896  0.4569  1.4276
 8878SOL     OW38092   2.801   0.552  11.601 -0.5219 -0.1029 -0.2397
 8878SOL    HW138093   2.729   0.576  11.543 -1.8130  1.4943  2.0185
 8878SOL    HW238094   2.846   0.634  11.618 -3.2535  1.7245 -1.8845
 8879SOL     OW38095   0.364   4.211  13.021  0.3343 -0.3619  0.2386
 8879SOL    HW138096   0.364   4.278  12.953  1.7927  2.6940  3.2761
 8879SOL    HW238097   0.338   4.249  13.105  0.3503 -1.8968  0.9527
 8880SOL     OW38098   2.609   4.594  10.778  0.1912  0.1222 -0.1202
 8880SOL    HW138099   2.646   4.543  10.850  1.6579  0.7477 -0.4351
 8880SOL    HW238100   2.588   4.675  10.824  0.5824 -1.1739  2.3537
 8881SOL     OW38101   3.639   0.695   4.610 -0.0784 -0.1490 -0.1534
 8881SOL    HW138102   3.708   0.701   4.544  0.6317 -0.3333  0.5722
 8881SOL    HW238103   3.590   0.621   4.574  0.8199 -1.5564  1.5373
 8882SOL     OW38104   3.827   3.992   3.968 -0.1092 -0.2113  0.3410
 8882SOL    HW138105   3.851   4.085   3.972  1.9627 -0.6661 -1.6060
 8882SOL    HW238106   3.906   3.944   3.946 -1.0450 -1.5861 -0.0231
 8883SOL     OW38107   3.827   0.981   7.012  0.5802 -0.3357  0.2728
 8883SOL    HW138108   3.821   0.891   6.977 -0.4242 -0.5472  0.9947
 8883SOL    HW238109   3.757   0.978   7.077  0.4282 -0.2467  0.1149
 8884SOL     OW38110   1.018   1.062   9.217  0.1327 -0.1823 -0.3105
 8884SOL    HW138111   1.028   0.985   9.272 -0.5212 -1.0160 -1.3587
 8884SOL    HW238112   0.956   1.026   9.154  0.1236 -2.8256  1.2350
 8885SOL     OW38113   0.223   0.193  12.828 -0.3560 -0.1639  0.2169
 8885SOL    HW138114   0.213   0.270  12.773 -0.7296 -0.4445 -0.1049
 8885SOL    HW238115   0.241   0.122  12.766 -0.4774  1.2010 -1.3930
 8886SOL     OW38116   2.210   2.682   6.114 -0.0187  0.4288  0.4360
 8886SOL    HW138117   2.303   2.671   6.133 -0.0379  0.6431  0.6541
 8886SOL    HW238118   2.163   2.642   6.188 -2.2010  1.5629 -0.3331
 8887SOL     OW38119   3.506   2.729   8.630  0.0105  0.1951  0.4759
 8887SOL    HW138120   3.453   2.691   8.700 -0.2668 -1.9730 -0.9308
 8887SOL    HW238121   3.476   2.690   8.548 -2.2425 -0.0845  1.4465
 8888SOL     OW38122   1.918   3.604   6.737 -0.0401  0.4830 -0.7539
 8888SOL    HW138123   1.867   3.655   6.674  0.1471  1.2215 -0.3016
 8888SOL    HW238124   1.874   3.623   6.819  0.0810 -0.9558 -0.3501
 8889SOL     OW38125   2.857   0.316   1.354  0.5152  0.0085  0.2433
 8889SOL    HW138126   2.854   0.225   1.382  1.5937 -0.3291 -0.7592
 8889SOL    HW238127   2.929   0.345   1.409  0.6817  0.2782 -0.1125
 8890SOL     OW38128   3.476   1.525   6.959 -0.3608 -0.5115  0.0539
 8890SOL    HW138129   3.527   1.585   7.012  0.1217  0.5353 -1.5960
 8890SOL    HW238130   3.548   1.495   6.903  1.0892 -0.7428  2.0614
 8891SOL     OW38131   0.849   0.803   5.710 -0.0033  0.3040  0.1220
 8891SOL    HW138132   0.763   0.824   5.675  1.1547  1.0673 -2.2539
 8891SOL    HW238133   0.898   0.883   5.693 -0.6714  0.8846  0.9299
 8892SOL     OW38134   4.555   2.669  12.649 -0.1909  0.5039 -0.5376
 8892SOL    HW138135   4.558   2.618  12.568  1.3312 -0.7109  0.2794
 8892SOL    HW238136   4.643   2.675  12.688 -0.5539 -1.6237  0.5626
 8893SOL     OW38137   4.462   0.302  14.247 -0.2660 -0.4735 -0.0917
 8893SOL    HW138138   4.372   0.281  14.222  0.4586 -0.4087 -2.7612
 8893SOL    HW238139   4.470   0.390  14.211 -0.4638  0.0046  1.0391
 8894SOL     OW38140   1.561   0.066  17.258  0.1919 -0.2836  0.3540
 8894SOL    HW138141   1.571   0.126  17.184  3.3393 -0.5736  0.5307
 8894SOL    HW238142   1.546   4.710  17.209 -1.3477  0.2536 -0.0731
 8895SOL     OW38143   0.262   2.791  16.381 -0.2716  0.8147  0.0932
 8895SOL    HW138144   0.335   2.761  16.435 -0.2047 -0.6668 -0.8212
 8895SOL    HW238145   0.203   2.786  16.457  0.3315  1.1612  0.5766
 8896SOL     OW38146   2.091   0.163   6.038  0.3950  0.0331  0.2598
 8896SOL    HW138147   2.141   0.106   5.979 -0.7362 -1.1248  0.4323
 8896SOL    HW238148   2.005   0.121   6.039 -0.3117  1.3821 -3.1284
 8897SOL     OW38149   1.228   0.685  12.513  0.4257  0.0696 -0.2465
 8897SOL    HW138150   1.282   0.642  12.579  1.9049  1.3276 -0.6239
 8897SOL    HW238151   1.163   0.625  12.477 -1.2206  1.6147  0.1208
 8898SOL     OW38152   3.347   2.809   3.787  0.3518 -0.0565  0.3274
 8898SOL    HW138153   3.354   2.901   3.814 -3.0124 -0.5135  2.7365
 8898SOL    HW238154   3.352   2.766   3.873 -1.1573  0.4589  0.6702
 8899SOL     OW38155   2.071   4.192  14.467 -0.2644  0.1019  0.0451
 8899SOL    HW138156   2.048   4.284  14.483  2.6059  0.6317  1.0903
 8899SOL    HW238157   2.011   4.134  14.515 -1.9166 -0.9871 -3.3388
 8900SOL     OW38158   0.141   4.406   7.832 -0.2161 -0.4701 -0.1823
 8900SOL    HW138159   0.072   4.352   7.794  1.3664 -0.9658 -2.3626
 8900SOL    HW238160   0.215   4.357   7.796 -0.0189  0.3633 -0.9135
 8901SOL     OW38161   1.498   1.626   4.245  0.2336  0.1501 -0.2331
 8901SOL    HW138162   1.568   1.689   4.264 -2.8622  3.0413  1.7178
 8901SOL    HW238163   1.475   1.659   4.158  2.2027  0.3697 -0.6571
 8902SOL     OW38164   1.058   0.626   1.415  0.2493  0.2173  0.2387
 8902SOL    HW138165   0.987   0.569   1.386 -0.9003  2.0247 -0.5779
 8902SOL    HW238166   1.112   0.622   1.336 -1.4501  0.2061 -0.9204
 8903SOL     OW38167   2.249   0.925  16.241 -0.1426  0.2946  0.0636
 8903SOL    HW138168   2.229   0.952  16.330  0.6735  1.8382 -0.2251
 8903SOL    HW238169   2.162   0.893  16.217  0.0621 -1.1154  1.1767
 8904SOL     OW38170   3.214   2.549  12.194 -0.0237 -0.0859  0.4714
 8904SOL    HW138171   3.145   2.525  12.131  1.7255 -0.5148 -1.2829
 8904SOL    HW238172   3.157   2.569  12.268 -1.0740  0.2751 -0.4185
 8905SOL     OW38173   3.061   0.227   7.756 -0.2334  0.1160 -0.1838
 8905SOL    HW138174   3.003   0.189   7.822  0.9405  0.5378  1.0949
 8905SOL    HW238175   3.036   0.316   7.783  1.8042  0.7525 -0.3917
 8906SOL     OW38176   0.052   2.142   8.129 -0.5860  0.1673 -0.2093
 8906SOL    HW138177   0.096   2.093   8.198 -3.4886 -2.5055 -0.2495
 8906SOL    HW238178   0.081   2.230   8.153  0.7354 -0.3822  0.1851
 8907SOL     OW38179   1.790   0.057   8.433  0.5276 -0.8400  0.0422
 8907SOL    HW138180   1.703   0.085   8.463  0.7141 -1.3893  1.0807
 8907SOL    HW238181   1.766   4.690   8.419 -0.1360 -0.6367 -0.1624
 8908SOL     OW38182   3.306   3.590   5.610  0.4504 -0.3235 -0.1798
 8908SOL    HW138183   3.358   3.511   5.627  1.2526  0.8341  2.7210
 8908SOL    HW238184   3.220   3.555   5.631 -0.3807  0.3226 -2.4745
 8909SOL     OW38185   0.208   3.634  16.680 -0.2708  0.2578 -0.0631
 8909SOL    HW138186   0.215   3.683  16.762 -1.0521  0.0093  0.1478
 8909SOL    HW238187   0.293   3.591  16.668 -0.5628  0.5620 -3.2446
 8910SOL     OW38188   3.928   0.222   5.415 -0.2065  0.1479  0.1677
 8910SOL    HW138189   3.987   0.241   5.488 -0.0598  0.9939 -0.1664
 8910SOL    HW238190   3.982   0.260   5.345 -0.1716 -0.0451  0.0911
 8911SOL     OW38191   2.624   2.616   5.312  0.0424  0.5876  0.1104
 8911SOL    HW138192   2.666   2.545   5.264 -0.2761  1.1681 -1.0152
 8911SOL    HW238193   2.671   2.611   5.396 -2.4640 -0.0261  1.4706
 8912SOL     OW38194   4.321   2.488   5.607 -0.1190 -0.4874  0.5392
 8912SOL    HW138195   4.247   2.451   5.560 -0.8090  0.3284  0.9868
 8912SOL    HW238196   4.372   2.409   5.625  1.6432  0.4613 -0.3368
 8913SOL     OW38197   0.423   0.115  11.557 -0.0067  0.0953  0.2825
 8913SOL    HW138198   0.368   0.123  11.480  0.5372  0.1597 -0.1014
 8913SOL    HW238199   0.351   0.109  11.620 -1.8190  2.6345 -1.5721
 8914SOL     OW38200   2.142   2.573   8.394  0.1264 -0.6830  1.1050
 8914SOL    HW138201   2.090   2.590   8.316 -0.7296  3.2273  2.5211
 8914SOL    HW238202   2.118   2.484   8.420 -0.4588 -1.3065 -1.6131
 8915SOL     OW38203   1.447   0.392  17.529 -0.2810  0.0995 -0.2296
 8915SOL    HW138204   1.507   0.433  17.592  2.0002 -0.9529 -1.6911
 8915SOL    HW238205   1.502   0.408  17.452 -1.1235 -1.9687 -1.2600
 8916SOL     OW38206   1.001   3.007   7.697  0.1164  0.3483 -0.2728
 8916SOL    HW138207   1.008   3.102   7.684  1.2843  0.2529 -0.3356
 8916SOL    HW238208   0.908   2.987   7.703  0.6274 -1.2501  2.0154
 8917SOL     OW38209   0.796   0.955  13.459 -0.0785  0.4969 -0.2237
 8917SOL    HW138210   0.803   0.939  13.553  1.4480  0.1413 -0.4015
 8917SOL    HW238211   0.768   0.866  13.439  1.0299  0.2319 -0.5702
 8918SOL     OW38212   0.846   4.716   6.827 -0.0200 -0.2871  0.0586
 8918SOL    HW138213   0.885   0.052   6.890  0.5427 -0.2015 -0.3678
 8918SOL    HW238214   0.754   0.013   6.842 -0.1634 -1.0202  0.2330
 8919SOL     OW38215   1.273   3.192   0.517 -0.2023  0.0450 -0.1831
 8919SOL    HW138216   1.235   3.116   0.473  1.2156  1.3269 -3.5903
 8919SOL    HW238217   1.366   3.191   0.495 -0.7432 -0.3658 -2.4141
 8920SOL     OW38218   4.604   3.298   8.944 -0.1329 -0.2364 -0.1922
 8920SOL    HW138219   4.588   3.387   8.913 -2.3865 -0.7631 -0.5413
 8920SOL    HW238220   4.690   3.280   8.908  0.9796  4.0296  0.3169
 8921SOL     OW38221   2.426   1.317  11.499 -0.2012  1.0111  0.4692
 8921SOL    HW138222   2.406   1.399  11.455 -0.8712  0.3220 -0.5153
 8921SOL    HW238223   2.521   1.324  11.506 -0.3627  2.0324  1.6768
 8922SOL     OW38224   1.335   3.976   6.229 -0.2633 -0.0717 -0.3362
 8922SOL    HW138225   1.316   3.897   6.279  0.9629 -0.3999 -0.3814
 8922SOL    HW238226   1.413   3.941   6.186  0.0592  0.3302 -0.0712
 8923SOL     OW38227   1.694   4.619   5.558 -0.0274  0.0226 -0.2215
 8923SOL    HW138228   1.729   4.609   5.470 -1.7973 -1.1686 -0.7848
 8923SOL    HW238229   1.753   4.681   5.602 -1.1845  0.1768  1.1477
 8924SOL     OW38230   2.241   2.544   3.266 -0.4498  0.3290  0.7292
 8924SOL    HW138231   2.191   2.542   3.185  0.3681 -0.3580  0.2411
 8924SOL    HW238232   2.318   2.592   3.238 -0.5552 -0.2751 -0.5851
 8925SOL     OW38233   2.311   3.025  13.569  0.3313 -0.3537  0.1113
 8925SOL    HW138234   2.251   2.982  13.507  0.6226 -0.0660 -0.3684
 8925SOL    HW238235   2.390   3.041  13.518  1.5073 -0.4200  1.9271
 8926SOL     OW38236   2.190   2.483   7.568  0.0880 -0.1800 -0.3098
 8926SOL    HW138237   2.275   2.447   7.544  0.5737  1.2438 -0.7142
 8926SOL    HW238238   2.187   2.457   7.660 -0.8562 -1.5613 -0.7341
 8927SOL     OW38239   2.499   2.237  15.458 -0.0237 -0.0840  0.6804
 8927SOL    HW138240   2.503   2.319  15.507 -1.3703  1.0899 -1.1511
 8927SOL    HW238241   2.430   2.188  15.503  1.3345  0.2898  3.1518
 8928SOL     OW38242   1.093   1.379  11.697  0.1675 -0.4165  0.2926
 8928SOL    HW138243   1.106   1.474  11.699  0.2676 -0.4242  0.0505
 8928SOL    HW238244   1.181   1.349  11.672  0.2261 -0.9609  1.1602
 8929SOL     OW38245   0.317   0.051  12.628  0.5013  0.2685 -0.6982
 8929SOL    HW138246   0.294   0.053  12.535 -0.1817 -3.0782 -0.5818
 8929SOL    HW238247   0.395   0.106  12.636 -0.8536  1.9914  0.7671
 8930SOL     OW38248   2.526   2.045   6.862 -0.0841 -0.2267 -0.3099
 8930SOL    HW138249   2.566   2.021   6.946  1.2020  2.0208 -0.3005
 8930SOL    HW238250   2.602   2.077   6.814  0.5144 -0.6675  0.3391
 8931SOL     OW38251   1.672   3.371   6.074  0.3877 -0.3970  0.3766
 8931SOL    HW138252   1.638   3.432   6.140 -0.2405 -0.3931  0.0517
 8931SOL    HW238253   1.649   3.288   6.115  2.3551 -0.4719  1.3277
 8932SOL     OW38254   2.097   4.314   0.154 -0.5764 -0.2167 -0.8159
 8932SOL    HW138255   2.094   4.377   0.082 -1.1017 -0.0473 -0.6456
 8932SOL    HW238256   2.184   4.274   0.146 -0.6490 -0.8094  1.3174
 8933SOL     OW38257   3.562   1.804   4.868 -0.5705 -0.1953 -0.1107
 8933SOL    HW138258   3.537   1.763   4.785 -0.4695  1.3758 -0.9140
 8933SOL    HW238259   3.627   1.870   4.845 -0.7648 -0.1935 -0.6701
 8934SOL     OW38260   2.942   3.253   6.091 -0.1920 -0.2534 -0.3144
 8934SOL    HW138261   2.856   3.294   6.085 -0.1956 -0.3096 -0.6745
 8934SOL    HW238262   2.942   3.191   6.018  2.4644  0.2851 -0.7822
 8935SOL     OW38263   1.296   4.046   3.674 -0.3816  0.0916 -0.1733
 8935SOL    HW138264   1.313   3.963   3.719  2.3986  0.6895 -0.1136
 8935SOL    HW238265   1.333   4.016   3.591 -0.3879  0.0033 -0.1446
 8936SOL     OW38266   3.561   3.309   9.362  0.1881 -0.2182 -0.2693
 8936SOL    HW138267   3.651   3.340   9.354  0.1212 -0.1418 -0.7241
 8936SOL    HW238268   3.527   3.318   9.273 -2.5047  2.3787  1.0149
 8937SOL     OW38269   1.102   1.596  10.363  0.2889  0.4295  0.0213
 8937SOL    HW138270   1.082   1.659  10.433 -1.7986  1.2623 -1.2993
 8937SOL    HW238271   1.062   1.632  10.283 -0.2922 -1.6916 -0.6395
 8938SOL     OW38272   1.261   3.462   8.205  0.0042  0.1556  0.0988
 8938SOL    HW138273   1.170   3.437   8.223 -0.1369  0.0759 -0.7587
 8938SOL    HW238274   1.277   3.402   8.133  2.7934  0.4383  0.4920
 8939SOL     OW38275   1.292   1.315   5.157 -0.2644 -0.2714 -0.2613
 8939SOL    HW138276   1.304   1.344   5.247 -2.5528 -0.7961  0.2264
 8939SOL    HW238277   1.198   1.298   5.151 -0.6499  1.1700  1.5823
 8940SOL     OW38278   3.076   3.371   8.582  0.2737  0.3259  0.1254
 8940SOL    HW138279   3.114   3.304   8.525  0.8466 -0.0056  0.9022
 8940SOL    HW238280   2.985   3.346   8.598  1.0572 -1.7992  1.1497
 8941SOL     OW38281   1.599   0.664   2.008 -0.5797  0.1716  0.0807
 8941SOL    HW138282   1.505   0.679   2.008 -0.7793 -1.0613 -0.7161
 8941SOL    HW238283   1.619   0.652   2.101  2.1511 -0.6609 -0.5878
 8942SOL     OW38284   0.189   1.746   7.194  0.1927 -0.1121  0.7158
 8942SOL    HW138285   0.198   1.754   7.099  1.6935  1.4340  0.9896
 8942SOL    HW238286   0.097   1.725   7.207  0.2987  1.1154  3.5043
 8943SOL     OW38287   4.214   3.229   4.094 -0.4808  0.5253 -0.6365
 8943SOL    HW138288   4.151   3.265   4.031 -1.3977 -0.9376 -0.5599
 8943SOL    HW238289   4.159   3.153   4.113  2.2404 -1.2859 -0.0487
 8944SOL     OW38290   1.762   2.224   2.408 -0.0529  0.2258  0.5857
 8944SOL    HW138291   1.715   2.304   2.386 -1.9047 -1.1699 -0.5257
 8944SOL    HW238292   1.773   2.186   2.321  0.2900 -1.1999  1.2355
 8945SOL     OW38293   2.040   3.982   7.122 -0.5574  0.4460 -0.2713
 8945SOL    HW138294   2.095   4.052   7.087 -0.4058  0.0387 -0.8505
 8945SOL    HW238295   1.949   4.011   7.112 -0.4519  0.4447 -1.2352
 8946SOL     OW38296   3.183   3.105   8.503  0.4540  0.5959  0.5468
 8946SOL    HW138297   3.156   3.013   8.500  0.7357  0.4977  0.9232
 8946SOL    HW238298   3.222   3.106   8.591  2.0811 -0.4847 -0.1684
 8947SOL     OW38299   3.819   2.514   7.208 -0.0714 -0.8954  0.4619
 8947SOL    HW138300   3.779   2.570   7.141  0.1809 -0.2234  0.8789
 8947SOL    HW238301   3.867   2.585   7.249 -2.9067  1.4554 -0.2270
 8948SOL     OW38302   1.323   0.513   4.910 -0.3644 -0.6523  0.5186
 8948SOL    HW138303   1.379   0.568   4.965  0.9076 -0.0868 -1.3250
 8948SOL    HW238304   1.267   0.470   4.974 -2.3498  1.9999  0.5812
 8949SOL     OW38305   1.092   1.554   2.371  0.2460 -0.5583 -0.2749
 8949SOL    HW138306   1.157   1.621   2.350  0.7892 -1.0572 -0.1923
 8949SOL    HW238307   1.006   1.591   2.352  0.6827  1.0812  0.9990
 8950SOL     OW38308   2.336   2.364   5.032 -0.0981 -0.0878  0.1705
 8950SOL    HW138309   2.383   2.377   4.950 -1.3008 -0.6468 -0.5988
 8950SOL    HW238310   2.244   2.371   5.006  0.0807 -0.8841 -0.6743
 8951SOL     OW38311   0.118   2.392  11.922 -0.2642  0.9917 -0.1823
 8951SOL    HW138312   0.105   2.306  11.882 -2.4317  1.0198  0.4724
 8951SOL    HW238313   0.039   2.412  11.972  1.1801 -0.8021  2.8467
 8952SOL     OW38314   4.286   1.286   4.597 -0.1567  0.0469 -0.3617
 8952SOL    HW138315   4.233   1.312   4.522  0.8310  1.2687 -0.6463
 8952SOL    HW238316   4.372   1.278   4.556 -0.7296 -0.2188 -1.4993
 8953SOL     OW38317   1.594   2.999   3.074  0.3831 -0.1867 -0.0881
 8953SOL    HW138318   1.629   2.912   3.093  0.2320 -0.0042  1.0126
 8953SOL    HW238319   1.677   3.045   3.063  0.2764  0.1370  0.5063
 8954SOL     OW38320   2.223   0.400  11.633  0.3636 -0.5468  0.3572
 8954SOL    HW138321   2.168   0.334  11.673  1.1482 -1.5716 -0.2454
 8954SOL    HW238322   2.310   0.371  11.663 -0.6909 -0.6849  3.2994
 8955SOL     OW38323   2.257   3.226   4.412  0.0058  0.2801  0.1189
 8955SOL    HW138324   2.194   3.158   4.388 -1.0094  1.9043 -1.7691
 8955SOL    HW238325   2.247   3.277   4.332 -0.5458  0.9791  0.6354
 8956SOL     OW38326   0.358   1.739   5.627 -0.2815 -0.2669  0.0404
 8956SOL    HW138327   0.293   1.687   5.580  0.5525 -0.1158 -1.2573
 8956SOL    HW238328   0.426   1.672   5.636  1.0813  0.7850 -2.5536
 8957SOL     OW38329   1.789   4.136   7.567 -0.5950 -0.3349 -0.2971
 8957SOL    HW138330   1.832   4.190   7.501  1.6108 -0.8495  0.7163
 8957SOL    HW238331   1.726   4.200   7.602 -0.8361 -0.5299 -0.3736
 8958SOL     OW38332   2.507   2.817   7.111  0.0914  0.0762  0.5423
 8958SOL    HW138333   2.522   2.809   7.206  0.0018  0.4962  0.5924
 8958SOL    HW238334   2.518   2.727   7.079 -1.4212  0.1330 -0.1275
 8959SOL     OW38335   1.532   3.210   6.253 -0.0033  0.2241 -0.1925
 8959SOL    HW138336   1.557   3.123   6.285 -1.3938  0.4140  1.4328
 8959SOL    HW238337   1.438   3.203   6.272 -0.2560 -0.3856 -1.6350
 8960SOL     OW38338   1.408   0.830   5.237  0.4217  0.1640 -0.3016
 8960SOL    HW138339   1.427   0.865   5.324 -0.7504  0.2720 -0.0903
 8960SOL    HW238340   1.313   0.836   5.225  0.5094  1.6086 -0.2636
 8961SOL     OW38341   3.850   1.911   6.245 -0.3483  0.4716  0.6211
 8961SOL    HW138342   3.916   1.859   6.198 -0.5678  0.3073  0.4975
 8961SOL    HW238343   3.822   1.965   6.171 -3.6718 -0.8502  0.9128
 8962SOL     OW38344   3.893   0.123   6.153 -0.2295 -0.2667  0.4048
 8962SOL    HW138345   3.908   0.217   6.151  0.3087 -0.3227  1.9444
 8962SOL    HW238346   3.980   0.084   6.162  0.0577  0.6192  1.3526
 8963SOL     OW38347   0.161   3.234  11.041 -0.9397 -0.2577 -0.1423
 8963SOL    HW138348   0.186   3.326  11.034  1.2311 -1.0569 -2.6815
 8963SOL    HW238349   0.195   3.212  11.128 -0.0768  0.8048 -0.2138
 8964SOL     OW38350   2.231   0.813   8.504  0.6403 -0.0778 -0.2582
 8964SOL    HW138351   2.311   0.821   8.556  1.2641 -1.2465 -1.0505
 8964SOL    HW238352   2.244   0.868   8.427  0.1953  1.4764  0.7876
 8965SOL     OW38353   0.928   3.222   6.160 -0.2481 -0.7698  0.0651
 8965SOL    HW138354   0.885   3.250   6.080 -0.2707 -0.8218  0.0588
 8965SOL    HW238355   0.901   3.283   6.228  1.2451 -0.1555  0.1153
 8966SOL     OW38356   3.196   3.496   7.899  0.0993  0.2381 -0.2932
 8966SOL    HW138357   3.140   3.440   7.845 -0.5028  1.6493 -1.1493
 8966SOL    HW238358   3.180   3.572   7.843  1.5558 -0.5623 -1.8121
 8967SOL     OW38359   3.750   0.586   5.260 -0.0486  0.2893  0.2143
 8967SOL    HW138360   3.689   0.655   5.286  0.6058  0.8578  0.2589
 8967SOL    HW238361   3.733   0.510   5.315 -3.1449  0.7430 -0.1292
 8968SOL     OW38362   1.554   1.585  11.260  0.1899 -0.0336 -0.1657
 8968SOL    HW138363   1.568   1.676  11.234  1.5562 -0.0347  0.6191
 8968SOL    HW238364   1.622   1.566  11.324 -0.5543  1.3076  1.0321
 8969SOL     OW38365   1.314   2.346   7.736  0.1134 -0.8900 -0.2277
 8969SOL    HW138366   1.265   2.428   7.738  2.6524  0.5755  1.4754
 8969SOL    HW238367   1.287   2.305   7.818  0.3364 -0.3676  0.1052
 8970SOL     OW38368   4.599   2.843   1.972  0.2750  0.0181 -0.0848
 8970SOL    HW138369   4.664   2.780   2.003 -0.0162  0.4059  1.3280
 8970SOL    HW238370   4.660   2.900   1.924 -1.4660 -0.1857 -2.5639
 8971SOL     OW38371   2.997   1.157   1.118 -0.2763  0.0024  0.0632
 8971SOL    HW138372   2.985   1.179   1.026  0.4683 -0.1410 -0.0736
 8971SOL    HW238373   2.995   1.241   1.164 -0.3242 -0.9350  1.7602
 8972SOL     OW38374   1.215   4.526  11.268  0.0245 -0.7840 -0.0883
 8972SOL    HW138375   1.272   4.454  11.292  0.5857 -0.5085 -0.5752
 8972SOL    HW238376   1.245   4.551  11.180 -3.8620  1.9892 -0.6493
 8973SOL     OW38377   3.688   1.613   8.424 -0.2352 -0.9261 -0.1206
 8973SOL    HW138378   3.629   1.613   8.348  0.5109  1.6185 -0.7300
 8973SOL    HW238379   3.614   1.623   8.484 -1.1324 -1.5210 -1.1088
 8974SOL     OW38380   4.398   2.478   7.294  0.0474 -0.2706  0.0704
 8974SOL    HW138381   4.305   2.475   7.272 -0.4243  0.3068  2.0032
 8974SOL    HW238382   4.408   2.458   7.387 -0.8200  2.1084  0.6734
 8975SOL     OW38383   1.143   0.648   1.132  0.3897 -0.7674  0.0599
 8975SOL    HW138384   1.176   0.568   1.092 -1.3726 -1.7574  0.5689
 8975SOL    HW238385   1.184   0.721   1.085  0.2246 -0.5900  0.1895
 8976SOL     OW38386   2.279   1.192   9.066  0.4338  0.7029  0.3052
 8976SOL    HW138387   2.200   1.137   9.063  0.6888  0.3866 -0.6698
 8976SOL    HW238388   2.303   1.200   9.158  1.5873 -0.6650  0.1392
 8977SOL     OW38389   3.679   0.496  13.401  0.3226 -0.2278 -0.6180
 8977SOL    HW138390   3.741   0.568  13.400 -1.3422  1.2448  1.8247
 8977SOL    HW238391   3.683   0.469  13.310 -0.2549  1.4839 -1.1529
 8978SOL     OW38392   4.325   0.912  11.967  0.4717  0.0724  0.4322
 8978SOL    HW138393   4.247   0.883  12.014  0.5325 -0.5795  0.1274
 8978SOL    HW238394   4.286   0.981  11.914  2.0736  0.0351 -0.7977
 8979SOL     OW38395   1.558   2.679   4.868 -0.0668  0.5284 -0.0492
 8979SOL    HW138396   1.522   2.616   4.931  0.3533  0.5741  0.2357
 8979SOL    HW238397   1.592   2.748   4.926 -2.0459  0.7609  0.8357
 8980SOL     OW38398   2.097   1.920   8.474  0.1719 -0.2835 -0.7132
 8980SOL    HW138399   2.029   1.901   8.538  1.7004  0.2764  1.1009
 8980SOL    HW238400   2.127   1.829   8.469 -2.2849 -1.2408  1.8351
 8981SOL     OW38401   1.409   1.344   7.545  0.2965  0.5022  0.0900
 8981SOL    HW138402   1.397   1.412   7.611  1.9941 -0.8596  1.8321
 8981SOL    HW238403   1.362   1.390   7.475  1.5089  1.7837  0.1122
 8982SOL     OW38404   4.033   2.602   3.782  0.1370 -0.2508  0.0696
 8982SOL    HW138405   3.966   2.578   3.846 -1.6147  0.5334 -1.4566
 8982SOL    HW238406   4.065   2.516   3.755  1.8832  1.0206 -1.9331
 8983SOL     OW38407   3.361   3.829   2.609 -0.1366  0.4286 -0.0613
 8983SOL    HW138408   3.455   3.811   2.609 -0.3855 -0.8823  0.7481
 8983SOL    HW238409   3.347   3.903   2.550 -1.2589  1.2830  1.2815
 8984SOL     OW38410   0.688   1.005   2.602  0.1539 -0.1594  0.0305
 8984SOL    HW138411   0.765   1.050   2.637 -0.8321  0.7287  1.0171
 8984SOL    HW238412   0.633   1.081   2.587  2.2904  1.4674  0.4376
 8985SOL     OW38413   2.973   4.700  17.403 -0.7601 -0.6794  0.1478
 8985SOL    HW138414   3.001   0.056  17.445 -1.2294 -0.4631  0.0417
 8985SOL    HW238415   2.881   4.721  17.388 -0.5225  2.8749  3.5831
 8986SOL     OW38416   4.498   3.076  14.124  0.0834 -0.0623  0.0825
 8986SOL    HW138417   4.505   3.167  14.094 -1.2522  0.4777  1.3990
 8986SOL    HW238418   4.565   3.079  14.192  0.8589  2.3999 -0.7916
 8987SOL     OW38419   2.013   1.973   9.090  0.2025 -0.0836 -0.2626
 8987SOL    HW138420   2.030   1.954   8.998 -0.2075 -0.6898 -0.2112
 8987SOL    HW238421   2.077   2.039   9.115  2.8966 -2.4950 -0.8358
 8988SOL     OW38422   4.031   0.861   5.162 -0.0415 -0.5418  0.1069
 8988SOL    HW138423   4.056   0.902   5.079 -0.4754  0.6326  0.5561
 8988SOL    HW238424   3.940   0.890   5.168 -0.5180 -1.8974 -0.5913
 8989SOL     OW38425   2.371   1.621   5.998  0.3172 -0.3924  0.1018
 8989SOL    HW138426   2.289   1.626   6.047  0.4989  0.1903  0.3330
 8989SOL    HW238427   2.434   1.664   6.055  1.1485 -0.9728 -0.3571
 8990SOL     OW38428   0.817   3.890   2.648  0.3850 -0.7915 -0.2981
 8990SOL    HW138429   0.760   3.814   2.636  0.2548 -0.7052 -0.2273
 8990SOL    HW238430   0.892   3.850   2.693 -0.5007 -1.0100  0.9738
 8991SOL     OW38431   0.242   0.329   1.489  0.2532 -0.3799 -0.5563
 8991SOL    HW138432   0.328   0.288   1.474  0.2194 -0.2446 -1.1308
 8991SOL    HW238433   0.232   0.387   1.414  0.0210  0.9121  0.4807
 8992SOL     OW38434   3.108   3.045   9.577  0.2327  0.4299 -0.1402
 8992SOL    HW138435   3.156   3.039   9.660  0.7172  0.7499 -0.3912
 8992SOL    HW238436   3.138   2.966   9.533 -0.1306  0.9170 -1.2537
 8993SOL     OW38437   3.542   1.182  11.078  0.1163  0.1919  0.3916
 8993SOL    HW138438   3.510   1.271  11.067 -0.0693  0.0230 -0.4287
 8993SOL    HW238439   3.625   1.198  11.122  1.0552 -0.8473 -0.9911
 8994SOL     OW38440   0.326   2.896   2.337 -0.1423  0.5440  0.2889
 8994SOL    HW138441   0.391   2.826   2.339  0.1805  0.8148 -0.6754
 8994SOL    HW238442   0.259   2.846   2.383  0.8158 -0.3850  0.6910
 8995SOL     OW38443   0.026   1.767   8.340  0.0666  0.1857  0.4050
 8995SOL    HW138444   4.699   1.786   8.418 -0.8459 -0.5395 -0.0318
 8995SOL    HW238445   4.674   1.757   8.284  1.1844 -1.1279 -0.8985
 8996SOL     OW38446   0.661   3.116   7.269 -0.2676  0.4684 -0.2402
 8996SOL    HW138447   0.654   3.133   7.363  1.8314 -0.1571  0.0252
 8996SOL    HW238448   0.732   3.177   7.249 -0.9415  1.1780 -0.4611
 8997SOL     OW38449   2.724   2.502   1.765 -0.3059 -0.2402 -0.0301
 8997SOL    HW138450   2.698   2.413   1.742 -1.0771  0.0697 -0.3670
 8997SOL    HW238451   2.713   2.545   1.680  2.1819 -0.6297 -0.5424
 8998SOL     OW38452   2.034   1.006   4.645 -0.1345 -0.0425 -1.2414
 8998SOL    HW138453   2.079   0.964   4.718 -1.2420  0.0687 -0.5061
 8998SOL    HW238454   2.091   0.992   4.569 -0.0499 -0.9231 -1.0123
 8999SOL     OW38455   2.198   3.469  16.677 -0.3284  0.6797  0.6220
 8999SOL    HW138456   2.120   3.414  16.685 -0.8184  0.9534 -2.1954
 8999SOL    HW238457   2.163   3.545  16.723 -3.2068 -0.3887  0.1851
 9000SOL     OW38458   2.344   3.549   0.208  0.4781 -0.4679  0.8634
 9000SOL    HW138459   2.254   3.576   0.229  0.4293 -0.2422  0.3506
 9000SOL    HW238460   2.343   3.559   0.113 -0.8201  0.1521  0.9371
 9001SOL     OW38461   2.446   2.587   3.653  0.4267 -0.0781 -0.7333
 9001SOL    HW138462   2.375   2.649   3.668  0.5077 -0.4603  1.3683
 9001SOL    HW238463   2.445   2.552   3.743 -0.2567  0.5298 -0.5056
 9002SOL     OW38464   4.549   2.724  12.051  0.0622 -0.4256  0.2875
 9002SOL    HW138465   4.585   2.636  12.059  1.7794  0.3751  1.1481
 9002SOL    HW238466   4.621   2.776  12.016  1.1299 -1.2779  1.2312
 9003SOL     OW38467   3.779   2.086   8.385  0.3677  0.1642  0.3593
 9003SOL    HW138468   3.805   2.092   8.476 -0.7819 -1.1775  0.7845
 9003SOL    HW238469   3.831   2.006   8.374 -1.3069 -1.1752  2.1624
 9004SOL     OW38470   4.139   1.382   6.317 -0.0089  0.4602 -0.2983
 9004SOL    HW138471   4.109   1.361   6.405  0.5620  0.8049 -0.0216
 9004SOL    HW238472   4.092   1.463   6.297  0.1545  0.8896  1.0496
 9005SOL     OW38473   4.642   0.720   3.878  0.3603  0.6723  0.4190
 9005SOL    HW138474   4.623   0.686   3.965 -0.3391  1.1031  0.4276
 9005SOL    HW238475   0.009   0.747   3.882  0.9343 -1.1210 -0.8366
 9006SOL     OW38476   0.112   3.557   9.923  0.2766  0.5399 -0.0402
 9006SOL    HW138477   0.204   3.554   9.896  0.7477 -0.2356  1.6488
 9006SOL    HW238478   0.122   3.516  10.009  1.3701  1.1941  0.1523
 9007SOL     OW38479   1.635   3.317  17.640  0.3551  0.2328  0.1875
 9007SOL    HW138480   1.606   3.369  17.565  0.9076  0.5889  0.2245
 9007SOL    HW238481   1.556   3.265  17.655  0.0300  0.6063 -0.2342
 9008SOL     OW38482   2.163   3.057   5.440 -0.1652  0.2217 -0.7809
 9008SOL    HW138483   2.225   3.023   5.505 -0.7483  1.9315  0.6885
 9008SOL    HW238484   2.119   2.981   5.402  2.2565 -1.4864 -0.1530
 9009SOL     OW38485   2.631   4.411   8.439  0.5327 -0.2598 -0.8665
 9009SOL    HW138486   2.545   4.396   8.398  0.5651  1.9778 -1.7464
 9009SOL    HW238487   2.655   4.323   8.468 -2.7324 -0.2501  1.8984
 9010SOL     OW38488   4.508   2.022   5.528  1.1062  0.1170  0.1980
 9010SOL    HW138489   4.572   1.977   5.583  1.2987 -2.2101 -1.9306
 9010SOL    HW238490   4.495   1.960   5.456  2.8728  1.7695 -1.5367
 9011SOL     OW38491   0.644   1.765   0.514 -0.2849  0.1774 -0.3449
 9011SOL    HW138492   0.599   1.847   0.535 -0.0152  0.1615  0.2768
 9011SOL    HW238493   0.694   1.785   0.435  2.2852 -0.6785  1.0887
 9012SOL     OW38494   1.933   4.225   6.615 -0.4058 -0.3717 -0.5144
 9012SOL    HW138495   1.932   4.307   6.665  0.3376  0.1147 -1.3038
 9012SOL    HW238496   1.950   4.160   6.684 -2.3565  0.7902  1.0768
 9013SOL     OW38497   2.218   4.449   3.591 -0.5885  0.3633  0.0288
 9013SOL    HW138498   2.272   4.468   3.668 -0.6940 -3.0068  0.9339
 9013SOL    HW238499   2.169   4.373   3.622  1.4576 -1.2726 -0.7515
 9014SOL     OW38500   4.656   2.008  12.304  0.1102 -0.1797 -0.2697
 9014SOL    HW138501   4.715   1.933  12.311  0.4897 -0.0733 -2.1173
 9014SOL    HW238502   4.600   1.989  12.379 -0.0608 -0.6888 -0.5223
 9015SOL     OW38503   4.251   1.667   7.135  0.1964 -0.4370  0.0852
 9015SOL    HW138504   4.256   1.753   7.093 -0.5638 -0.1094  0.6759
 9015SOL    HW238505   4.214   1.625   7.057  2.5937  2.3849 -2.5739
 9016SOL     OW38506   2.799   1.342  16.219 -0.2396  0.2876 -0.4852
 9016SOL    HW138507   2.820   1.382  16.304  2.3620 -1.6067 -0.2258
 9016SOL    HW238508   2.734   1.280  16.253 -1.2345  0.0020 -2.9028
 9017SOL     OW38509   3.998   2.710   4.314  0.6394 -0.0339 -0.0354
 9017SOL    HW138510   4.088   2.712   4.346  0.3723  0.2629  0.6884
 9017SOL    HW238511   3.995   2.769   4.238  0.6823  1.4213  1.0868
 9018SOL     OW38512   0.592   2.655   5.518  0.3869  0.3343  0.6448
 9018SOL    HW138513   0.616   2.665   5.611  2.1624 -1.2263  0.3564
 9018SOL    HW238514   0.509   2.609   5.515  0.3603  0.4413 -0.2805
 9019SOL     OW38515   2.526   0.758   5.788  0.1527 -0.3392 -0.3411
 9019SOL    HW138516   2.494   0.712   5.710 -0.7839  0.9328 -0.7183
 9019SOL    HW238517   2.560   0.688   5.843  0.1208 -0.6421 -0.7005
 9020SOL     OW38518   2.661   1.293   2.488 -0.5942  0.3357  0.3306
 9020SOL    HW138519   2.598   1.365   2.489 -1.9505 -0.8494  0.6800
 9020SOL    HW238520   2.629   1.241   2.415  0.4853  0.3912 -0.1769
 9021SOL     OW38521   2.544   3.283   6.690 -0.3797  0.2328  0.1857
 9021SOL    HW138522   2.465   3.303   6.639  0.2622 -0.1094 -0.9519
 9021SOL    HW238523   2.507   3.276   6.778 -2.4057  0.2811 -0.6411
 9022SOL     OW38524   0.588   0.886   8.655  0.0102 -0.1464  0.6387
 9022SOL    HW138525   0.516   0.863   8.597  0.7600  1.2176 -0.8600
 9022SOL    HW238526   0.573   0.980   8.668  1.2343  0.0075  0.9421
 9023SOL     OW38527   0.130   2.593   4.018  0.1578  0.1893 -0.4091
 9023SOL    HW138528   0.110   2.502   4.037  1.2429 -0.5922 -3.0751
 9023SOL    HW238529   0.214   2.583   3.975  0.3393  0.8283 -0.2067
 9024SOL     OW38530   0.208   3.874   9.509 -0.0157 -0.4906  0.1669
 9024SOL    HW138531   0.165   3.922   9.580  2.4289  2.7217 -0.5140
 9024SOL    HW238532   0.164   3.908   9.432  0.3734 -0.9369 -0.2507
 9025SOL     OW38533   4.159   4.435   9.769  0.2109  0.3940 -0.4393
 9025SOL    HW138534   4.249   4.460   9.792 -0.7280  2.3803  1.0864
 9025SOL    HW238535   4.168   4.345   9.802  1.7473  0.5812 -0.3159
 9026SOL     OW38536   2.585   3.386  17.088 -0.0668 -0.0171 -0.4134
 9026SOL    HW138537   2.678   3.365  17.090 -0.1281  0.0184  2.7222
 9026SOL    HW238538   2.608   3.469  17.045 -1.5081 -0.0756 -1.2843
 9027SOL     OW38539   1.455   2.389   1.769 -0.1478 -0.4342  0.1669
 9027SOL    HW138540   1.419   2.356   1.687 -0.3095  0.2284 -0.0203
 9027SOL    HW238541   1.390   2.452   1.800 -0.7591 -1.2499  0.5491
 9028SOL     OW38542   2.564   1.377   9.905  0.4309  0.0808 -0.3579
 9028SOL    HW138543   2.651   1.401   9.871 -0.3718  1.7092 -1.2588
 9028SOL    HW238544   2.605   1.304   9.951  1.8091 -0.0337 -1.7580
 9029SOL     OW38545   3.697   4.066  10.127  0.1543  0.3354  0.5085
 9029SOL    HW138546   3.603   4.049  10.128  0.3036 -0.4882  0.7446
 9029SOL    HW238547   3.692   4.142  10.069 -1.2971 -0.9496 -1.0665
 9030SOL     OW38548   1.046   1.958   1.417 -0.4669 -0.0968 -0.6125
 9030SOL    HW138549   1.078   1.970   1.506 -0.5864  1.6322 -0.8007
 9030SOL    HW238550   1.029   1.864   1.413 -2.7891  0.1936  2.5483
 9031SOL     OW38551   1.434   4.588  16.859 -0.1751 -0.0504  0.6768
 9031SOL    HW138552   1.502   4.654  16.849  1.8665 -2.5454 -1.7229
 9031SOL    HW238553   1.433   4.542  16.775 -0.1694 -0.3141  0.8218
 9032SOL     OW38554   4.535   1.902   5.931 -0.1283 -0.3553 -0.2378
 9032SOL    HW138555   4.579   1.901   5.846 -4.4188 -1.8787 -2.3957
 9032SOL    HW238556   4.604   1.926   5.993 -1.2846  0.0551  0.8856
 9033SOL     OW38557   4.031   0.830   4.722 -0.1461 -0.0280 -0.1899
 9033SOL    HW138558   3.991   0.744   4.712 -0.0652  0.0526 -1.2298
 9033SOL    HW238559   4.104   0.814   4.662 -1.5765  2.0498 -2.4911
 9034SOL     OW38560   2.988   4.457  11.855 -0.1480  0.5652 -0.0325
 9034SOL    HW138561   2.936   4.489  11.781 -0.4862 -1.6960 -0.7738
 9034SOL    HW238562   3.074   4.458  11.813  0.6434 -2.5530  1.5265
 9035SOL     OW38563   1.871   3.865   8.277 -0.3099 -0.2462  0.2413
 9035SOL    HW138564   1.908   3.815   8.350  2.1158  0.8877 -0.2106
 9035SOL    HW238565   1.782   3.832   8.292 -0.7413  0.5473 -0.5773
 9036SOL     OW38566   2.097   2.938   4.568  0.1094  0.0423 -0.3762
 9036SOL    HW138567   2.086   2.991   4.490 -0.0132 -0.9594 -1.0365
 9036SOL    HW238568   2.084   2.850   4.535 -1.3415 -0.1021  0.5814
 9037SOL     OW38569   4.420   0.836   2.319  0.2061  0.1878  0.4452
 9037SOL    HW138570   4.407   0.741   2.330  1.9187  0.1546  2.0720
 9037SOL    HW238571   4.448   0.847   2.228 -1.2059 -0.5874 -0.0919
 9038SOL     OW38572   4.380   0.621   7.329 -0.2195  0.4837  0.0241
 9038SOL    HW138573   4.414   0.588   7.412  0.2086 -0.4339 -0.5145
 9038SOL    HW238574   4.383   0.714   7.351  0.7595  0.4349  0.0845
 9039SOL     OW38575   3.929   2.735   7.328  0.0985  0.4640 -0.0787
 9039SOL    HW138576   3.880   2.709   7.406  2.2567  0.9256  1.4053
 9039SOL    HW238577   3.996   2.792   7.365 -1.8841  2.6699  0.1064
 9040SOL     OW38578   0.203   0.937   4.014  0.1055  0.4778  0.2188
 9040SOL    HW138579   0.245   1.013   4.054  3.5080 -0.6514 -1.1897
 9040SOL    HW238580   0.281   0.883   4.001 -0.7454 -0.7530  0.2479
 9041SOL     OW38581   2.850   3.947   5.452  0.3251  0.1845  0.2069
 9041SOL    HW138582   2.864   3.864   5.498 -2.6014 -0.7348 -0.5477
 9041SOL    HW238583   2.938   3.983   5.438  0.0138 -0.1319 -2.4551
 9042SOL     OW38584   4.664   0.612   7.225  0.5866  0.4940  0.0573
 9042SOL    HW138585   4.660   0.542   7.160  0.6430  0.1529  0.4213
 9042SOL    HW238586   4.595   0.580   7.283  0.3791  2.1579  0.7433
 9043SOL     OW38587   4.344   4.095   6.808 -0.5255  0.5968 -0.1465
 9043SOL    HW138588   4.409   4.164   6.816 -0.3236  0.1240  2.3943
 9043SOL    HW238589   4.284   4.131   6.743  0.4260  0.7994 -0.9055
 9044SOL     OW38590   3.169   0.256  11.877  0.0337  0.4425 -0.1879
 9044SOL    HW138591   3.124   0.221  11.954 -2.3102  1.7022 -0.9888
 9044SOL    HW238592   3.144   0.186  11.816  1.1427  1.1806 -1.4780
 9045SOL     OW38593   4.649   1.722   1.108  0.6498 -0.6297 -0.0157
 9045SOL    HW138594   4.679   1.702   1.019  2.1400 -0.1189  0.3603
 9045SOL    HW238595   4.587   1.791   1.086  1.7725 -0.2233 -1.9198
 9046SOL     OW38596   2.621   3.279   9.864  0.0089  0.1615 -0.2150
 9046SOL    HW138597   2.598   3.187   9.868  1.0716 -0.1898 -2.0328
 9046SOL    HW238598   2.678   3.279   9.940  0.1068  2.2748 -0.2860
 9047SOL     OW38599   1.802   1.457  12.401  0.5550  0.0470  0.2290
 9047SOL    HW138600   1.726   1.405  12.375  0.1192 -0.6613  2.9784
 9047SOL    HW238601   1.813   1.522  12.331  1.5437  2.2793  2.4550
 9048SOL     OW38602   4.158   0.926   2.423 -0.1138  0.7411 -0.7353
 9048SOL    HW138603   4.107   0.853   2.388 -0.4538  0.4995  0.2585
 9048SOL    HW238604   4.244   0.890   2.443  0.1750  0.9897 -1.5364
 9049SOL     OW38605   0.224   1.086   5.751 -0.5498  0.6679 -0.1552
 9049SOL    HW138606   0.161   1.077   5.823 -1.9864  0.5231 -1.4350
 9049SOL    HW238607   0.309   1.075   5.793 -0.5616 -0.0738 -0.3250
 9050SOL     OW38608   2.616   2.334   2.456 -0.1123 -0.0240  0.2723
 9050SOL    HW138609   2.598   2.241   2.441  1.2232  0.0676 -1.8472
 9050SOL    HW238610   2.694   2.352   2.403  0.4244  1.9094  1.7311
 9051SOL     OW38611   3.827   3.916  10.882 -0.2315 -0.0770  0.3769
 9051SOL    HW138612   3.866   3.938  10.967 -2.5715 -0.4169  1.5320
 9051SOL    HW238613   3.734   3.935  10.884  0.0186  1.3763 -2.0133
 9052SOL     OW38614   1.543   2.895  15.090  0.2488 -0.2133  0.0172
 9052SOL    HW138615   1.494   2.879  15.009 -1.1282  1.1517  0.5806
 9052SOL    HW238616   1.631   2.876  15.058  0.4865  0.7560  0.1037
 9053SOL     OW38617   0.702   0.927   6.627 -0.1609 -0.6691 -0.0106
 9053SOL    HW138618   0.669   0.938   6.537  1.4455  1.2880 -0.3639
 9053SOL    HW238619   0.774   0.865   6.618  1.3300  1.1219 -0.4992
 9054SOL     OW38620   0.269   0.867   2.579  0.6902 -0.6137  0.1596
 9054SOL    HW138621   0.220   0.879   2.497 -1.4058  0.9610  1.6360
 9054SOL    HW238622   0.287   0.960   2.595  0.5227 -1.1867  3.5804
 9055SOL     OW38623   4.702   0.397   5.456 -0.1032  0.6097  0.4792
 9055SOL    HW138624   4.635   0.405   5.388  0.5575  1.4448 -0.0634
 9055SOL    HW238625   4.651   0.381   5.536 -1.7908  1.3900 -0.4349
 9056SOL     OW38626   3.333   1.882   0.869  0.2891  0.0213  0.0944
 9056SOL    HW138627   3.241   1.856   0.874  0.5310 -0.5606  1.5313
 9056SOL    HW238628   3.332   1.973   0.839  0.6080  0.4760  1.4453
 9057SOL     OW38629   3.990   3.966  10.395  0.4995 -0.3772  0.4542
 9057SOL    HW138630   3.905   4.000  10.422  0.3786  0.9881 -1.5988
 9057SOL    HW238631   4.018   4.035  10.335  1.5713  0.5889  2.0923
 9058SOL     OW38632   2.560   1.786   2.834 -0.4674 -0.0518  0.5372
 9058SOL    HW138633   2.613   1.711   2.806  2.5759  1.1365  3.1179
 9058SOL    HW238634   2.500   1.747   2.897  0.6031 -2.8787 -0.2148
 9059SOL     OW38635   0.328   2.045   1.403  0.3458 -0.2776 -0.0249
 9059SOL    HW138636   0.233   2.055   1.414  0.6326 -0.1889  2.3965
 9059SOL    HW238637   0.326   1.973   1.339 -1.0118  0.0029 -0.2936
 9060SOL     OW38638   0.070   1.126   5.089  0.3172  0.5544 -0.5617
 9060SOL    HW138639   4.722   1.184   5.112 -0.0086  0.1845 -0.6645
 9060SOL    HW238640   0.100   1.078   5.166  1.0852  1.8314 -0.0603
 9061SOL     OW38641   4.204   1.507   7.553  0.4065  0.3611  0.2535
 9061SOL    HW138642   4.181   1.600   7.556 -0.5140  0.1521 -0.4082
 9061SOL    HW238643   4.298   1.521   7.545  0.1793  0.7967 -1.5282
 9062SOL     OW38644   1.867   3.676   8.046  0.3339 -0.1940  0.7300
 9062SOL    HW138645   1.914   3.690   8.128  1.2157 -1.2294  0.4118
 9062SOL    HW238646   1.866   3.766   8.014 -1.0701 -0.8022 -0.9320
 9063SOL     OW38647   1.003   3.158  17.081  0.3311 -0.3631 -0.2445
 9063SOL    HW138648   0.908   3.153  17.088  0.1284  3.8589 -0.5686
 9063SOL    HW238649   1.028   3.072  17.046 -2.0039 -1.0216 -0.3313
 9064SOL     OW38650   1.454   2.545   5.382 -0.0929 -0.2837 -0.0355
 9064SOL    HW138651   1.496   2.471   5.337 -1.6027 -1.8253  1.1333
 9064SOL    HW238652   1.527   2.581   5.433 -1.4898  3.7177 -0.8518
 9065SOL     OW38653   0.443   2.096   8.978 -0.0785 -0.3338 -0.2555
 9065SOL    HW138654   0.378   2.143   8.926 -0.3959 -0.0300  0.4218
 9065SOL    HW238655   0.403   2.013   8.952  0.4865 -1.5631  2.7726
 9066SOL     OW38656   2.776   3.211  10.074 -0.3557  0.1851 -0.0780
 9066SOL    HW138657   2.869   3.200  10.094 -1.2219 -2.2743  2.5817
 9066SOL    HW238658   2.737   3.196  10.160 -0.5865 -0.6345 -0.3262
 9067SOL     OW38659   4.690   2.407  14.993 -0.1572 -0.2390  0.0872
 9067SOL    HW138660   4.701   2.369  14.906 -1.4829  3.4514 -1.7055
 9067SOL    HW238661   4.670   2.329  15.045 -0.3097  0.5692  1.2403
 9068SOL     OW38662   2.540   3.580   0.569  0.0490 -0.1137  0.9025
 9068SOL    HW138663   2.588   3.498   0.581 -0.7817 -0.8680 -0.9512
 9068SOL    HW238664   2.571   3.618   0.651  1.5560  1.0430 -0.2243
 9069SOL     OW38665   1.496   3.276   9.259  0.0824  0.1672  0.4567
 9069SOL    HW138666   1.463   3.270   9.348 -2.4494 -2.4265 -0.6551
 9069SOL    HW238667   1.577   3.226   9.268 -0.3612 -1.1592 -2.7454
 9070SOL     OW38668   4.293   4.303   4.246  0.6115 -0.1832  0.3236
 9070SOL    HW138669   4.289   4.394   4.216  1.3713  0.0348  0.8825
 9070SOL    HW238670   4.286   4.320   4.341 -1.9051  0.3701  0.0530
 9071SOL     OW38671   2.821   3.673   2.594  0.0968 -0.4464  0.1403
 9071SOL    HW138672   2.866   3.658   2.511  1.2462  2.2023  0.2806
 9071SOL    HW238673   2.841   3.766   2.602 -0.3777 -0.3005 -0.3678
 9072SOL     OW38674   4.426   2.182  13.337  0.2722  0.5169 -0.1886
 9072SOL    HW138675   4.407   2.189  13.431 -0.6183  0.0211 -0.3320
 9072SOL    HW238676   4.361   2.120  13.304 -1.3372  1.8045  0.5610
 9073SOL     OW38677   2.220   1.215   7.401  0.2209  0.1494  0.5787
 9073SOL    HW138678   2.133   1.178   7.387  0.7581 -0.0065 -2.2993
 9073SOL    HW238679   2.269   1.137   7.425  1.0317  0.3979 -0.2752
 9074SOL     OW38680   2.834   3.075   7.243 -0.2620  0.2420  0.4643
 9074SOL    HW138681   2.899   3.104   7.180 -1.6140 -0.2836 -1.2000
 9074SOL    HW238682   2.810   3.162   7.275 -1.2842  0.9437 -2.2192
 9075SOL     OW38683   4.403   0.883   7.380 -0.0633  0.5899  0.1990
 9075SOL    HW138684   4.489   0.925   7.372  0.4733 -0.6159 -0.2350
 9075SOL    HW238685   4.356   0.947   7.434 -0.7454  0.8015 -0.6564
 9076SOL     OW38686   1.444   2.476   8.310  0.2588  0.0259 -0.1359
 9076SOL    HW138687   1.488   2.550   8.352  0.1744  0.0762 -0.1366
 9076SOL    HW238688   1.356   2.478   8.347 -0.4657 -2.6034 -1.7503
 9077SOL     OW38689   1.774   4.403   8.122  0.3832 -0.3111 -0.9430
 9077SOL    HW138690   1.681   4.383   8.109  0.0987  1.2666 -1.4341
 9077SOL    HW238691   1.809   4.314   8.121  2.0638  0.3468 -1.7349
 9078SOL     OW38692   0.342   3.583  14.646 -0.6601  0.2579 -0.0778
 9078SOL    HW138693   0.303   3.513  14.594  0.1937 -0.5474  0.3671
 9078SOL    HW238694   0.433   3.556  14.645 -0.8827 -0.5845  3.2421
 9079SOL     OW38695   1.572   3.995   8.537  0.6150 -0.3257  0.5191
 9079SOL    HW138696   1.601   3.941   8.610  2.0929  0.9837  0.8973
 9079SOL    HW238697   1.602   4.082   8.564  0.7327 -0.7262  1.6934
 9080SOL     OW38698   3.373   3.724   1.081  0.1722  0.1972 -0.8130
 9080SOL    HW138699   3.443   3.683   1.030  1.7644  0.5423  1.0970
 9080SOL    HW238700   3.294   3.688   1.039  0.5745 -1.8346  0.1657
 9081SOL     OW38701   0.752   0.092  15.323 -0.4173 -0.2081  0.4174
 9081SOL    HW138702   0.784   0.026  15.261 -2.1745  0.6105 -1.3751
 9081SOL    HW238703   0.685   0.148  15.283 -1.5832 -1.1475  1.0909
 9082SOL     OW38704   3.571   0.062   4.847 -0.0682  0.5703  0.1043
 9082SOL    HW138705   3.553   0.091   4.758  0.0414 -0.8498 -0.3815
 9082SOL    HW238706   3.484   0.039   4.879  0.2489 -0.4432  0.2377
 9083SOL     OW38707   3.236   0.104  12.477 -0.8366  0.0580 -0.7203
 9083SOL    HW138708   3.157   0.051  12.488 -0.9693  0.6288  1.0658
 9083SOL    HW238709   3.206   0.195  12.477  0.8919  0.6197 -0.7263
 9084SOL     OW38710   2.858   2.985   0.948  0.5482  0.4105 -0.2928
 9084SOL    HW138711   2.899   2.962   0.865  0.6233  1.4824 -0.5521
 9084SOL    HW238712   2.771   2.945   0.945  0.3147  1.0080 -1.5497
 9085SOL     OW38713   0.250   1.454   8.833  0.0297 -0.0897 -0.4915
 9085SOL    HW138714   0.323   1.508   8.801  0.7889 -0.6538  0.2911
 9085SOL    HW238715   0.303   1.392   8.882  0.9565  0.9464 -0.1792
 9086SOL     OW38716   0.001   0.089  17.230  0.6379 -0.2051 -0.0114
 9086SOL    HW138717   0.094   0.080  17.208  0.3507 -0.2629 -1.2336
 9086SOL    HW238718   4.688   0.002  17.238  1.9486 -1.0363 -2.6965
 9087SOL     OW38719   0.624   0.666   3.627  0.6540 -0.2611 -0.2108
 9087SOL    HW138720   0.682   0.743   3.633 -0.8842  1.0829 -2.4552
 9087SOL    HW238721   0.639   0.631   3.539  0.9429 -1.7690  0.4413
 9088SOL     OW38722   2.779   1.511  17.538 -0.6044 -0.1368 -0.0996
 9088SOL    HW138723   2.785   1.590  17.591 -1.9639 -0.4552  0.5303
 9088SOL    HW238724   2.782   1.450  17.612 -0.0884  0.6987  0.5661
 9089SOL     OW38725   4.690   2.717   4.206 -0.0185  0.1159  0.1525
 9089SOL    HW138726   0.014   2.774   4.265 -0.0798  0.0289  0.2894
 9089SOL    HW238727   0.026   2.699   4.135 -0.4812 -1.6658  0.1944
 9090SOL     OW38728   3.794   2.000   6.530 -0.3546 -0.0638 -0.2442
 9090SOL    HW138729   3.761   1.946   6.602 -1.5131  1.2465  0.1991
 9090SOL    HW238730   3.769   1.941   6.459 -1.0032 -0.7186  0.5292
 9091SOL     OW38731   1.126   2.746   4.181 -0.7236  0.0431  0.3890
 9091SOL    HW138732   1.193   2.805   4.147 -2.4454  1.3192 -0.7947
 9091SOL    HW238733   1.188   2.708   4.243 -1.0797  0.2503  0.8735
 9092SOL     OW38734   1.963   2.918   2.457  0.2867 -0.5722  0.7534
 9092SOL    HW138735   2.025   2.911   2.385 -2.5477  0.4775 -1.8174
 9092SOL    HW238736   1.881   2.904   2.410 -0.0233 -1.7023  1.6157
 9093SOL     OW38737   1.368   3.523   6.563  0.4029  0.4567  0.0780
 9093SOL    HW138738   1.329   3.455   6.509 -0.9063  1.7230 -0.5731
 9093SOL    HW238739   1.458   3.506   6.535 -0.0735  2.2971 -2.5619
 9094SOL     OW38740   0.972   1.240  15.492 -0.0325 -0.2427  0.2228
 9094SOL    HW138741   0.962   1.151  15.525  0.0476 -0.2069  0.3420
 9094SOL    HW238742   1.025   1.275  15.564 -0.6572 -1.1908  1.1305
 9095SOL     OW38743   2.467   3.039   1.505  0.2534 -0.0214  0.0919
 9095SOL    HW138744   2.543   3.097   1.513 -1.6294  2.5138 -0.6730
 9095SOL    HW238745   2.503   2.956   1.539  1.9567  1.3642  1.6558
 9096SOL     OW38746   0.584   4.718   8.593 -0.1957  0.8681 -0.0539
 9096SOL    HW138747   0.633   4.641   8.563 -0.9985  0.5585 -0.5597
 9096SOL    HW238748   0.494   4.686   8.591  0.6946 -1.6364  0.1141
 9097SOL     OW38749   3.303   0.591   2.337 -0.4512  0.2411  0.5711
 9097SOL    HW138750   3.260   0.632   2.261  0.5377  1.4860  0.6747
 9097SOL    HW238751   3.391   0.628   2.333 -0.0675 -0.6082  1.1323
 9098SOL     OW38752   3.747   3.079  10.131  0.6579 -0.2955  0.7969
 9098SOL    HW138753   3.707   3.143  10.190  1.6830 -0.9522  2.2238
 9098SOL    HW238754   3.682   3.008  10.124 -0.4445  0.4836  2.8396
 9099SOL     OW38755   2.090   4.573   4.003 -0.1726 -0.0776 -0.2516
 9099SOL    HW138756   2.090   4.494   3.949  3.6600  0.1395 -0.5918
 9099SOL    HW238757   2.185   4.581   4.018  0.2293 -2.1360 -1.7104
 9100SOL     OW38758   3.301   1.723   7.200  0.1816 -0.0106 -0.4685
 9100SOL    HW138759   3.391   1.709   7.169  0.8417  0.4010  1.2357
 9100SOL    HW238760   3.312   1.792   7.266 -0.3971 -0.5998  0.2380
 9101SOL     OW38761   1.799   2.872   5.021  0.1348  0.2067  0.3698
 9101SOL    HW138762   1.879   2.903   5.065 -1.1566  1.5876  1.7275
 9101SOL    HW238763   1.832   2.844   4.935 -2.4485 -1.3003 -0.0985
 9102SOL     OW38764   0.831   1.173  16.154 -0.0006  0.1042 -0.5620
 9102SOL    HW138765   0.913   1.195  16.109  1.8740 -0.1988  2.6815
 9102SOL    HW238766   0.856   1.184  16.246 -0.6912  1.3488 -0.5309
 9103SOL     OW38767   2.825   2.563  12.731 -0.1090  0.0629  0.4654
 9103SOL    HW138768   2.800   2.575  12.639 -0.8227  0.2079  0.6781
 9103SOL    HW238769   2.882   2.637  12.749  0.8328 -0.8558  1.2567
 9104SOL     OW38770   3.768   0.225   2.429 -0.3774 -0.4151  0.5636
 9104SOL    HW138771   3.810   0.153   2.383  2.3479  1.7349 -0.2898
 9104SOL    HW238772   3.725   0.179   2.502 -1.6599  1.2355  0.8494
 9105SOL     OW38773   1.094   3.770   8.371 -0.9383 -0.0434  0.0088
 9105SOL    HW138774   1.086   3.692   8.427  2.6301  1.6798  2.9317
 9105SOL    HW238775   1.151   3.825   8.424  0.7322 -0.8464 -0.9245
 9106SOL     OW38776   0.118   3.182   2.524  0.3418 -0.4667  0.2120
 9106SOL    HW138777   0.078   3.259   2.485 -0.3584 -1.0994 -0.3252
 9106SOL    HW238778   0.171   3.157   2.448  0.2887  1.7027 -0.5507
 9107SOL     OW38779   3.914   0.870   2.195 -0.3487 -0.2207  1.0477
 9107SOL    HW138780   3.840   0.925   2.169  1.2698  0.2441 -2.5161
 9107SOL    HW238781   3.892   0.839   2.283 -1.5542  1.7293  1.4408
 9108SOL     OW38782   4.493   1.582   8.615 -0.0633  0.0645 -0.1029
 9108SOL    HW138783   4.561   1.521   8.588  0.2960  0.1313  0.6491
 9108SOL    HW238784   4.554   1.654   8.602  1.4269 -1.2838 -0.5744
 9109SOL     OW38785   4.696   2.522   7.892  0.6525  0.1617  0.3450
 9109SOL    HW138786   4.608   2.490   7.914  0.8390 -0.7695 -0.2548
 9109SOL    HW238787   4.720   2.441   7.848  2.0071  0.0010  1.3922
 9110SOL     OW38788   3.567   0.076   6.702 -0.0659  0.7665  0.0334
 9110SOL    HW138789   3.654   0.110   6.727 -0.4071  0.8172  1.1709
 9110SOL    HW238790   3.533   0.142   6.642 -1.0394 -2.3036 -2.7707
 9111SOL     OW38791   2.220   4.490   6.564 -0.0262  0.2447  0.9411
 9111SOL    HW138792   2.241   4.404   6.600 -2.1799 -1.3701 -1.6514
 9111SOL    HW238793   2.201   4.544   6.641  2.1179  2.0576  0.2199
 9112SOL     OW38794   3.218   0.386  14.786 -0.3684  0.2103  0.0571
 9112SOL    HW138795   3.244   0.341  14.705 -0.2532  2.5873 -1.2276
 9112SOL    HW238796   3.273   0.345  14.852 -0.0020  1.4436  0.5102
 9113SOL     OW38797   0.632   2.348   5.758 -0.3841 -0.1554 -0.0784
 9113SOL    HW138798   0.688   2.394   5.695  0.5808 -0.2999  0.6684
 9113SOL    HW238799   0.661   2.389   5.840 -0.5541 -1.9846  0.8872
 9114SOL     OW38800   4.720   1.072   8.935 -0.5699 -0.3635 -0.3990
 9114SOL    HW138801   0.082   1.034   8.950 -0.1480 -0.3470 -2.8705
 9114SOL    HW238802   0.011   1.158   8.973 -0.1362  0.1736 -1.8165
 9115SOL     OW38803   1.361   3.247  12.133 -0.1451  0.0784  0.2544
 9115SOL    HW138804   1.421   3.174  12.152 -0.5502 -0.3446 -0.0991
 9115SOL    HW238805   1.425   3.318  12.131  0.8167 -0.8055 -0.1127
 9116SOL     OW38806   4.676   4.265   7.717  0.0188  0.0607  0.3959
 9116SOL    HW138807   4.691   4.291   7.627  0.2704 -0.9907  0.1355
 9116SOL    HW238808   4.592   4.308   7.731 -0.5483 -1.0347  0.3526
 9117SOL     OW38809   3.087   4.310   3.376  0.4170 -0.3180 -0.7349
 9117SOL    HW138810   3.062   4.403   3.377  2.8318  0.3145  1.1748
 9117SOL    HW238811   3.182   4.317   3.368  0.4924 -0.1711  0.2775
 9118SOL     OW38812   1.995   4.706   5.311 -0.0556 -0.1708  0.1062
 9118SOL    HW138813   1.987   4.719   5.405  1.1774  0.6635  0.0949
 9118SOL    HW238814   2.078   4.659   5.311 -0.7987 -1.4754  0.2781
 9119SOL     OW38815   3.752   0.420   3.122 -0.2374  0.3847  0.3499
 9119SOL    HW138816   3.847   0.425   3.113 -0.5770  0.0796 -3.1293
 9119SOL    HW238817   3.732   0.469   3.043  0.5775 -0.1777 -0.2111
 9120SOL     OW38818   4.321   3.856   5.999  0.1188 -0.2234  0.0293
 9120SOL    HW138819   4.392   3.880   6.058  0.4787  0.8022 -0.8298
 9120SOL    HW238820   4.348   3.882   5.911 -0.5048 -0.6020 -0.2709
 9121SOL     OW38821   0.370   1.234   0.143 -0.1375  0.1729 -0.3163
 9121SOL    HW138822   0.464   1.247   0.152  0.1227 -1.6633 -0.4096
 9121SOL    HW238823   0.333   1.304   0.196  2.0673  0.8464  0.3035
 9122SOL     OW38824   2.950   1.209   6.809  0.0508  1.4571  0.3309
 9122SOL    HW138825   3.032   1.174   6.773 -0.3471 -0.5568  1.4039
 9122SOL    HW238826   2.921   1.265   6.738  1.2013  1.0140 -0.4872
 9123SOL     OW38827   0.178   4.390   3.213 -0.6836 -0.0433  0.0369
 9123SOL    HW138828   0.176   4.312   3.268 -1.0679  0.2219  0.3957
 9123SOL    HW238829   0.123   4.451   3.261  0.8071  0.1568  1.4740
 9124SOL     OW38830   1.826   1.668   9.766  0.1886 -0.5405  0.2652
 9124SOL    HW138831   1.736   1.648   9.740  0.0837  0.4866 -0.1849
 9124SOL    HW238832   1.877   1.634   9.693 -0.6578  0.9351 -1.0319
 9125SOL     OW38833   2.015   1.699   6.374  0.5578 -0.1688  0.5857
 9125SOL    HW138834   2.059   1.710   6.290  2.0968 -0.1851  1.3930
 9125SOL    HW238835   2.046   1.614   6.404  2.0134 -0.1500 -0.8998
 9126SOL     OW38836   2.819   2.817  15.239  0.0441  0.0526 -0.8429
 9126SOL    HW138837   2.769   2.739  15.215 -1.3845  1.4824 -2.4588
 9126SOL    HW238838   2.907   2.782  15.225  0.0136 -0.6570  0.7212
 9127SOL     OW38839   0.436   2.614   5.122  0.1007  0.6090 -0.0244
 9127SOL    HW138840   0.508   2.653   5.073  2.3108 -1.0504  1.8981
 9127SOL    HW238841   0.478   2.537   5.159 -0.7267 -1.3350 -3.1958
 9128SOL     OW38842   2.171   0.878   2.365  0.4127 -0.6896 -0.3656
 9128SOL    HW138843   2.222   0.881   2.446 -0.8511 -3.0683  0.5179
 9128SOL    HW238844   2.126   0.794   2.373  0.3522 -0.6653 -0.4481
 9129SOL     OW38845   4.471   0.451  13.676 -0.0278  0.3050  0.3987
 9129SOL    HW138846   4.491   0.393  13.602  0.5149  0.8580  0.1181
 9129SOL    HW238847   4.508   0.394  13.744 -2.7869  0.4559  2.0202
 9130SOL     OW38848   2.246   2.497   4.555 -0.2844 -0.1143 -0.0930
 9130SOL    HW138849   2.226   2.434   4.486 -2.7036  1.1020 -0.4659
 9130SOL    HW238850   2.158   2.504   4.592  0.3019 -0.0163  1.3127
 9131SOL     OW38851   0.720   0.774   3.269 -0.4660 -0.5172  1.2157
 9131SOL    HW138852   0.642   0.726   3.296 -2.3996  1.2580 -1.2167
 9131SOL    HW238853   0.732   0.855   3.319  1.8317 -0.5145  0.6524
 9132SOL     OW38854   1.799   1.738   7.392 -0.1226 -0.0458 -0.6347
 9132SOL    HW138855   1.853   1.771   7.464 -1.9209  1.1583  0.1638
 9132SOL    HW238856   1.854   1.666   7.360  0.0965  0.1794 -0.7668
 9133SOL     OW38857   3.867   0.758  10.709 -0.2733 -0.3638 -0.1528
 9133SOL    HW138858   3.772   0.760  10.716 -0.2897 -1.1866 -0.1935
 9133SOL    HW238859   3.888   0.830  10.649  1.2982 -0.0191  0.8146
 9134SOL     OW38860   2.812   4.461   5.694 -0.0627  0.0068 -0.6790
 9134SOL    HW138861   2.820   4.381   5.643 -2.9964 -0.3597 -0.5762
 9134SOL    HW238862   2.769   4.428   5.773 -1.1311  2.2685 -0.3036
 9135SOL     OW38863   1.250   1.539   5.719 -0.0854 -0.6561  0.2340
 9135SOL    HW138864   1.196   1.606   5.762  0.8596  0.4385 -0.2680
 9135SOL    HW238865   1.336   1.565   5.752 -1.2791  2.2028  1.0780
 9136SOL     OW38866   2.871   4.434   9.367 -0.3593 -0.1377 -0.3802
 9136SOL    HW138867   2.947   4.462   9.419 -1.7458 -2.1163  2.7277
 9136SOL    HW238868   2.890   4.340   9.375 -1.0643 -0.1386  1.2617
 9137SOL     OW38869   4.348   2.950   9.846 -0.3230 -0.1526  0.5503
 9137SOL    HW138870   4.402   2.990   9.778 -1.9891  0.5069 -0.3848
 9137SOL    HW238871   4.270   2.929   9.794  1.7896  0.8635 -3.0320
 9138SOL     OW38872   3.264   4.567  17.635  0.2137  0.0013  0.2459
 9138SOL    HW138873   3.300   4.485  17.602 -0.9254 -0.4126  0.0230
 9138SOL    HW238874   3.191   4.535  17.689 -1.1326 -1.7397 -2.5671
 9139SOL     OW38875   1.995   1.220   3.885  0.0280 -0.2669 -0.3660
 9139SOL    HW138876   1.947   1.172   3.818  0.3959  0.4656 -1.1438
 9139SOL    HW238877   2.019   1.154   3.950  0.8065  2.3291  1.9846
 9140SOL     OW38878   3.401   0.845   1.751 -0.7768 -0.2010  0.0655
 9140SOL    HW138879   3.313   0.880   1.736  0.2319  1.6947 -1.3433
 9140SOL    HW238880   3.391   0.759   1.709 -2.2200  1.1933 -2.4410
 9141SOL     OW38881   0.316   3.506  10.252  0.1048 -0.0042  0.3442
 9141SOL    HW138882   0.347   3.539  10.337 -0.6801 -3.2126  1.8882
 9141SOL    HW238883   0.388   3.527  10.194 -0.6233 -1.3448 -1.0224
 9142SOL     OW38884   4.242   0.978   1.981 -0.1483  0.1508  0.3918
 9142SOL    HW138885   4.248   1.014   1.893 -0.0656  0.3139  0.4628
 9142SOL    HW238886   4.224   1.059   2.030  2.4867  1.8235 -1.3714
 9143SOL     OW38887   3.526   3.918   3.612  0.1956  0.3341  0.0705
 9143SOL    HW138888   3.499   3.870   3.690 -0.0141 -1.0465 -0.8501
 9143SOL    HW238889   3.439   3.930   3.574 -0.5075 -0.7295  1.3350
 9144SOL     OW38890   2.704   0.986   6.120 -0.7532  0.2803 -0.8802
 9144SOL    HW138891   2.665   0.996   6.033  1.0676  0.5484 -1.6539
 9144SOL    HW238892   2.793   1.016   6.105  0.4730 -2.3062  1.1622
 9145SOL     OW38893   0.474   1.223   2.540 -0.4492 -0.6985 -0.3283
 9145SOL    HW138894   0.486   1.298   2.481  0.4404 -0.3500  0.2959
 9145SOL    HW238895   0.485   1.272   2.621 -2.5418 -0.6302 -0.0826
 9146SOL     OW38896   1.281   3.061  14.336 -0.7255  0.5540 -0.0248
 9146SOL    HW138897   1.303   3.154  14.333  1.6166  0.0367  1.4878
 9146SOL    HW238898   1.362   3.017  14.313 -1.0899  0.0382 -0.3111
 9147SOL     OW38899   0.500   2.642   8.022  0.1420 -0.0748  0.1585
 9147SOL    HW138900   0.557   2.567   8.009  0.9362  0.8416 -1.7380
 9147SOL    HW238901   0.434   2.628   7.954 -0.6437  0.5531  0.7911
 9148SOL     OW38902   2.654   2.951   7.839  0.4524  0.4477  0.4908
 9148SOL    HW138903   2.649   2.918   7.749 -1.5216 -3.1746  1.9722
 9148SOL    HW238904   2.612   2.883   7.891  0.1482 -0.7190 -1.2752
 9149SOL     OW38905   4.656   2.219   9.418 -0.2411  0.3326 -0.1348
 9149SOL    HW138906   4.645   2.143   9.474 -1.0396  0.5403 -0.0061
 9149SOL    HW238907   4.566   2.242   9.392  0.8545  0.6138 -3.6016
 9150SOL     OW38908   4.427   3.344   4.876  0.1005  0.6162  0.1990
 9150SOL    HW138909   4.383   3.416   4.922 -1.9671  1.7201 -3.4684
 9150SOL    HW238910   4.397   3.270   4.928  0.2270 -0.9287 -1.9180
 9151SOL     OW38911   3.573   0.800  10.712 -0.3906 -0.2280  0.2756
 9151SOL    HW138912   3.545   0.876  10.662 -0.1165 -2.0507 -2.6662
 9151SOL    HW238913   3.569   0.728  10.649 -1.5038 -1.9110  2.2581
 9152SOL     OW38914   2.026   0.106  17.319 -0.1201  0.0717  0.1076
 9152SOL    HW138915   1.996   0.017  17.335  0.1941  0.3266  2.0297
 9152SOL    HW238916   1.963   0.145  17.259 -0.0727  0.4928  0.3325
 9153SOL     OW38917   4.095   3.099   9.309  0.2045 -0.0839  0.0525
 9153SOL    HW138918   4.153   3.175   9.306  0.7550 -0.4837  0.4862
 9153SOL    HW238919   4.009   3.139   9.297  1.1910  1.3158 -2.3103
 9154SOL     OW38920   0.077   4.035   9.681 -0.4474 -0.2854 -0.8714
 9154SOL    HW138921   0.080   4.098   9.609 -1.0540  2.0108  1.1047
 9154SOL    HW238922   0.110   4.091   9.751  0.9170 -1.8908 -0.2356
 9155SOL     OW38923   1.884   4.724  11.653 -0.0958  0.1283 -0.2479
 9155SOL    HW138924   1.893   4.629  11.661 -3.1768 -0.0296  1.1563
 9155SOL    HW238925   1.974   0.032  11.645 -0.8237  1.9124 -1.1272
 9156SOL     OW38926   4.575   2.819   2.678 -0.1414  0.4511  0.2459
 9156SOL    HW138927   4.522   2.800   2.601  0.3609 -0.2693  0.0755
 9156SOL    HW238928   4.599   2.912   2.670  0.0927  0.4795  1.2926
 9157SOL     OW38929   0.620   3.215  15.426  0.1827  0.2372 -0.0004
 9157SOL    HW138930   0.551   3.209  15.360  0.1639 -1.4994  0.1630
 9157SOL    HW238931   0.700   3.251  15.387 -0.6958  3.0799  0.8511
 9158SOL     OW38932   2.512   2.718   7.919 -0.6102 -0.1695  0.3233
 9158SOL    HW138933   2.513   2.624   7.937 -1.8985  0.0534  1.5496
 9158SOL    HW238934   2.420   2.729   7.896 -0.1379  0.2925 -1.4077
 9159SOL     OW38935   4.095   1.602   3.525 -0.1056  0.1638 -0.2825
 9159SOL    HW138936   4.000   1.608   3.534 -0.1673 -1.3080  0.0045
 9159SOL    HW238937   4.112   1.583   3.617  1.3084  0.9348 -0.3809
 9160SOL     OW38938   3.703   1.983  16.895 -0.0083 -0.0283 -0.0530
 9160SOL    HW138939   3.717   2.078  16.898 -3.2768  0.4059  1.0085
 9160SOL    HW238940   3.782   1.960  16.943  1.0170 -1.2690 -2.3445
 9161SOL     OW38941   2.030   3.820   6.437 -0.4905  0.5542  0.5428
 9161SOL    HW138942   1.974   3.764   6.383  0.0172 -0.8828  1.5273
 9161SOL    HW238943   1.962   3.844   6.500  1.1778  0.2247  2.4470
 9162SOL     OW38944   3.268   1.745  14.710  0.5049  0.0292  0.5904
 9162SOL    HW138945   3.308   1.695  14.781  2.6278  0.1582 -0.5263
 9162SOL    HW238946   3.330   1.818  14.706  0.3039  0.2106  0.7945
 9163SOL     OW38947   1.857   1.341  13.853 -0.0447  0.0893 -0.0824
 9163SOL    HW138948   1.783   1.337  13.792  0.9362 -2.7150 -1.1168
 9163SOL    HW238949   1.886   1.250  13.859  3.0297  1.0552 -0.3152
 9164SOL     OW38950   2.483   0.613   7.540 -0.6909  0.2247  0.6808
 9164SOL    HW138951   2.503   0.573   7.625  0.2004 -1.5082 -0.3568
 9164SOL    HW238952   2.484   0.538   7.481 -1.4879  1.4377 -0.8499
 9165SOL     OW38953   1.758   4.211   3.263 -0.1565  0.5501 -0.0265
 9165SOL    HW138954   1.692   4.219   3.194  1.3271 -3.3788 -1.8937
 9165SOL    HW238955   1.751   4.290   3.316  0.2751 -0.4252  1.4908
 9166SOL     OW38956   0.803   0.724   2.261 -0.0801  0.4085 -0.3650
 9166SOL    HW138957   0.871   0.669   2.221  1.1481  1.2041  0.6274
 9166SOL    HW238958   0.720   0.684   2.235 -1.9165  1.6566  3.5621
 9167SOL     OW38959   0.946   3.805  14.797 -0.0600 -0.1403  0.1726
 9167SOL    HW138960   0.956   3.730  14.739 -2.0296  0.4781 -0.9497
 9167SOL    HW238961   1.039   3.823  14.813 -0.3516  0.5476  1.1241
 9168SOL     OW38962   0.303   2.093   2.188 -0.0749 -0.2689  0.1117
 9168SOL    HW138963   0.310   2.063   2.279  0.3546 -0.1786  0.1092
 9168SOL    HW238964   0.291   2.009   2.145 -0.9113  0.5081 -1.1667
 9169SOL     OW38965   2.219   1.864   4.023 -0.0130  0.0787  0.1540
 9169SOL    HW138966   2.227   1.930   3.954 -1.4764  0.2518  0.1467
 9169SOL    HW238967   2.206   1.918   4.101  2.6682 -0.6276  1.0835
 9170SOL     OW38968   2.068   3.575   9.567  0.8779 -0.2967  0.4806
 9170SOL    HW138969   2.056   3.568   9.662 -0.7679 -0.5202  0.2465
 9170SOL    HW238970   2.004   3.516   9.529  0.4253  1.6845 -1.8725
 9171SOL     OW38971   4.050   1.329   1.121 -0.3168 -0.1513 -0.1596
 9171SOL    HW138972   4.070   1.419   1.145 -1.5689  0.4332 -1.2993
 9171SOL    HW238973   4.097   1.281   1.189 -0.9964 -1.3832 -0.5591
 9172SOL     OW38974   1.076   1.809   9.389 -0.2778 -0.2366  0.3159
 9172SOL    HW138975   1.159   1.773   9.422  1.0539  0.7392 -1.9405
 9172SOL    HW238976   1.060   1.885   9.445 -0.2980 -0.7746  1.0442
 9173SOL     OW38977   1.976   0.994   2.874  0.3526  0.3245 -0.2936
 9173SOL    HW138978   1.985   1.086   2.849 -3.0935 -0.0080 -2.7958
 9173SOL    HW238979   1.882   0.981   2.880  0.1368  1.9605 -0.0240
 9174SOL     OW38980   1.972   2.857  17.683  0.6500 -0.2075 -0.1572
 9174SOL    HW138981   1.985   2.919  17.611 -0.7621 -0.0749 -0.3067
 9174SOL    HW238982   2.001   2.780  17.634 -3.6714 -1.6273 -0.4978
 9175SOL     OW38983   4.318   2.771  10.053 -0.8252 -0.3698  0.3952
 9175SOL    HW138984   4.322   2.687  10.006  2.9574  0.8401 -1.4449
 9175SOL    HW238985   4.312   2.835   9.982 -0.0003 -1.1565 -0.4016
 9176SOL     OW38986   1.890   3.221   4.522 -0.4778  0.4802  0.1743
 9176SOL    HW138987   1.954   3.254   4.585 -1.0472  3.1139 -0.6250
 9176SOL    HW238988   1.845   3.150   4.568 -0.9816 -0.4283 -1.7407
 9177SOL     OW38989   1.165   2.729   4.863  0.1007  0.3033  0.1247
 9177SOL    HW138990   1.211   2.812   4.878  1.3697 -0.3696 -0.0170
 9177SOL    HW238991   1.165   2.745   4.769  0.3685 -1.1157 -0.1131
 9178SOL     OW38992   0.550   0.975   3.683  0.0820 -0.2060 -0.2359
 9178SOL    HW138993   0.494   1.029   3.738 -1.0184  1.0694 -2.6329
 9178SOL    HW238994   0.606   0.941   3.753  0.5433  1.3929  0.1778
 9179SOL     OW38995   2.671   2.634  15.763  0.0711 -0.0754 -0.9930
 9179SOL    HW138996   2.590   2.685  15.758 -0.8978 -1.6285 -0.8534
 9179SOL    HW238997   2.650   2.585  15.842 -0.6756 -1.8580 -2.3178
 9180SOL     OW38998   0.723   0.049   9.861  0.5209  0.4171 -0.4551
 9180SOL    HW138999   0.745   0.139   9.886 -2.1551  1.5256 -2.0797
 9180SOL    HW239000   0.629   0.065   9.857  0.7264  1.6681 -0.4620
 9181SOL     OW39001   2.660   0.762  14.084 -0.2509  0.0277  0.0497
 9181SOL    HW139002   2.594   0.762  14.015 -1.7374  0.4433  1.4810
 9181SOL    HW239003   2.718   0.833  14.059  1.7717 -1.5159  0.3481
 9182SOL     OW39004   2.925   1.625   0.351 -0.2953  0.5655 -0.4002
 9182SOL    HW139005   2.982   1.702   0.353 -1.5176  1.4849 -0.5275
 9182SOL    HW239006   2.900   1.604   0.441  0.2010 -0.9592 -0.6276
 9183SOL     OW39007   1.804   0.895  11.286  0.1918 -0.1815  0.3273
 9183SOL    HW139008   1.796   0.823  11.349 -0.6212 -2.2897 -2.1791
 9183SOL    HW239009   1.844   0.838  11.220 -2.1816 -0.5977 -0.7174
 9184SOL     OW39010   1.778   4.413   7.386  0.3705  0.1887  0.0453
 9184SOL    HW139011   1.745   4.400   7.475 -1.7154  4.2894 -0.1385
 9184SOL    HW239012   1.818   4.500   7.386 -0.4275  0.5373  3.6649
 9185SOL     OW39013   3.898   2.414  16.375  0.2293 -0.4139  0.4179
 9185SOL    HW139014   3.815   2.463  16.373  0.3432 -0.1332  2.8902
 9185SOL    HW239015   3.906   2.403  16.280  0.8427  0.8860  0.3289
 9186SOL     OW39016   2.735   1.739   4.291  0.4612  0.5695 -0.3161
 9186SOL    HW139017   2.810   1.793   4.269 -0.7158  1.7571 -1.3848
 9186SOL    HW239018   2.780   1.655   4.300 -1.9754 -0.9740 -2.6406
 9187SOL     OW39019   4.644   1.299   6.179 -0.0152  0.0468 -0.1731
 9187SOL    HW139020   4.568   1.331   6.227 -0.4311 -1.8949  0.5031
 9187SOL    HW239021   4.597   1.269   6.101 -0.0033  3.7456 -1.5964
 9188SOL     OW39022   3.829   0.675  10.321  0.4705  0.8327 -0.8683
 9188SOL    HW139023   3.919   0.650  10.340 -0.9135 -2.6491  1.1174
 9188SOL    HW239024   3.790   0.603  10.273 -0.4240  0.5390  0.2853
 9189SOL     OW39025   3.377   3.725   9.928 -0.2617 -0.0209 -0.6967
 9189SOL    HW139026   3.428   3.743  10.007  0.7350  0.2427 -1.4039
 9189SOL    HW239027   3.388   3.815   9.898  0.7615 -0.5441 -1.9249
 9190SOL     OW39028   3.926   2.432   2.529 -0.0772  1.3217 -0.0536
 9190SOL    HW139029   3.947   2.511   2.579  0.7875  1.5703 -0.8064
 9190SOL    HW239030   3.866   2.465   2.462 -0.0724 -0.6198 -1.0127
 9191SOL     OW39031   3.312   0.112   4.519  0.3216  0.0688  0.5099
 9191SOL    HW139032   3.286   0.158   4.599  0.3437  0.0631  0.5204
 9191SOL    HW239033   3.297   0.020   4.539 -4.1070  0.4978 -0.9837
 9192SOL     OW39034   1.530   2.742   3.655  0.1065  0.6666 -0.1707
 9192SOL    HW139035   1.624   2.732   3.668  0.0086  0.2211  0.2061
 9192SOL    HW239036   1.484   2.672   3.702  2.0760  0.4624  1.4613
 9193SOL     OW39037   2.887   0.523   8.320 -0.1948  0.4466 -0.0917
 9193SOL    HW139038   2.859   0.464   8.389 -0.9188  0.4323 -0.3999
 9193SOL    HW239039   2.811   0.564   8.280 -0.5024 -0.7860 -0.7710
 9194SOL     OW39040   3.533   2.313  10.164 -0.8644 -0.0714  0.4121
 9194SOL    HW139041   3.610   2.264  10.134 -1.9068 -0.6583 -1.2731
 9194SOL    HW239042   3.490   2.331  10.081 -0.3303 -0.0570  0.1366
 9195SOL     OW39043   4.121   4.487   5.597  0.2548 -0.0080 -0.3278
 9195SOL    HW139044   4.143   4.580   5.588 -0.1509  0.0897 -0.3491
 9195SOL    HW239045   4.068   4.485   5.677 -0.4342  0.7705 -0.7624
 9196SOL     OW39046   4.500   4.236   6.095  0.6175  0.3445  0.0473
 9196SOL    HW139047   4.433   4.276   6.040 -0.0827 -0.4107  0.3494
 9196SOL    HW239048   4.581   4.279   6.065 -0.3453  1.7914 -0.4698
 9197SOL     OW39049   4.291   1.829   3.563 -0.6068  0.2936 -0.8456
 9197SOL    HW139050   4.383   1.805   3.553 -0.3171  1.2810 -0.5580
 9197SOL    HW239051   4.252   1.742   3.552 -0.4656 -0.1986  2.6598
 9198SOL     OW39052   3.232   1.167  14.215 -0.7486 -0.3393 -0.7121
 9198SOL    HW139053   3.263   1.212  14.294 -1.7115 -1.5824  0.3736
 9198SOL    HW239054   3.166   1.231  14.189 -0.5713 -0.2699 -0.9920
 9199SOL     OW39055   0.718   0.908  15.402 -0.0133  0.1408 -0.1371
 9199SOL    HW139056   0.753   0.839  15.458 -4.1414 -0.4845  1.6423
 9199SOL    HW239057   0.773   0.897  15.324 -2.3798 -0.1036 -1.7592
 9200SOL     OW39058   1.969   4.549   8.727 -0.2478  0.4967 -0.8397
 9200SOL    HW139059   1.882   4.556   8.688 -0.1061  1.0832 -1.0609
 9200SOL    HW239060   1.948   4.500   8.806 -3.0118  1.5877 -0.9015
 9201SOL     OW39061   2.443   1.507   3.263  0.0436 -0.4362  0.4024
 9201SOL    HW139062   2.431   1.481   3.172  0.4891 -0.8553  0.4620
 9201SOL    HW239063   2.353   1.535   3.281  0.0522 -0.2655  0.1782
 9202SOL     OW39064   0.423   4.461  11.553 -0.3092 -0.0709 -0.1820
 9202SOL    HW139065   0.372   4.430  11.478  0.4330 -0.8335 -0.3786
 9202SOL    HW239066   0.360   4.506  11.609  0.9907 -0.4286  1.5809
 9203SOL     OW39067   4.629   1.990   7.442 -0.5080 -0.1193 -0.1715
 9203SOL    HW139068   4.613   2.072   7.395 -2.9967  0.4349  1.6343
 9203SOL    HW239069   4.616   1.917   7.382 -1.5824 -2.5293  2.9539
 9204SOL     OW39070   3.821   4.443   8.962 -0.2978 -0.1727  0.1290
 9204SOL    HW139071   3.756   4.512   8.949  1.2622  1.0805 -1.0673
 9204SOL    HW239072   3.777   4.359   8.949  0.5714 -0.5598 -0.3109
 9205SOL     OW39073   1.463   0.955   2.837  0.3308 -0.5823 -0.4650
 9205SOL    HW139074   1.451   0.867   2.802  0.4449  1.0070 -4.5455
 9205SOL    HW239075   1.387   1.002   2.802  0.6301  2.4492  2.9158
 9206SOL     OW39076   3.303   2.707   2.302  0.0524 -0.2405  0.5040
 9206SOL    HW139077   3.237   2.642   2.326 -1.8787  1.8603  0.8151
 9206SOL    HW239078   3.350   2.664   2.230  3.3513 -0.6689  2.9101
 9207SOL     OW39079   0.648   1.226  15.906 -0.0704  0.8582 -0.8735
 9207SOL    HW139080   0.685   1.239  15.993  0.0421 -3.4787 -0.2375
 9207SOL    HW239081   0.670   1.133  15.916  0.0112  1.0623  0.8089
 9208SOL     OW39082   3.122   3.112   9.903 -0.3827  0.5314  0.1901
 9208SOL    HW139083   3.131   3.194   9.855  1.1043  0.5109  0.4358
 9208SOL    HW239084   3.085   3.144   9.985 -0.9863  2.6221 -0.8964
 9209SOL     OW39085   1.659   1.151  16.075 -0.0489 -0.1740 -0.3043
 9209SOL    HW139086   1.651   1.236  16.033 -0.0441 -0.2755 -0.5075
 9209SOL    HW239087   1.595   1.101  16.023 -1.3181  1.4695 -0.3207
 9210SOL     OW39088   3.734   3.034   9.038  0.7222 -0.4220 -0.5271
 9210SOL    HW139089   3.812   2.994   9.000  1.7653  2.1270 -1.0488
 9210SOL    HW239090   3.752   3.030   9.132  1.2870 -0.5731 -0.6430
 9211SOL     OW39091   0.728   3.278   6.517 -0.0148 -0.1484 -0.5707
 9211SOL    HW139092   0.817   3.248   6.497  1.5274  1.8835  3.1353
 9211SOL    HW239093   0.737   3.356   6.462 -2.4146  0.0559 -0.6793
 9212SOL     OW39094   1.856   0.887  14.713 -0.4393 -0.2193  0.3090
 9212SOL    HW139095   1.875   0.892  14.806  0.6968  2.3663 -0.0851
 9212SOL    HW239096   1.866   0.792  14.699  1.4073 -0.2964  2.2141
 9213SOL     OW39097   4.501   1.940   1.084 -0.4726  0.6002 -0.3954
 9213SOL    HW139098   4.417   1.898   1.068  0.0590 -1.5336  2.4482
 9213SOL    HW239099   4.521   2.004   1.015 -1.0173 -0.1158 -1.2081
 9214SOL     OW39100   1.324   4.122   5.010  0.2716  0.2658  0.1078
 9214SOL    HW139101   1.377   4.052   4.971 -0.0055 -0.4415  1.0253
 9214SOL    HW239102   1.365   4.124   5.096 -0.6008  1.3448  0.4912
 9215SOL     OW39103   3.949   3.647   9.762 -0.6027 -0.8866 -0.3765
 9215SOL    HW139104   3.956   3.718   9.699  2.1522  0.0403  0.9657
 9215SOL    HW239105   3.862   3.666   9.799 -0.9177 -1.1704 -0.9649
 9216SOL     OW39106   2.667   4.312   5.101  0.3624 -0.2872 -0.1794
 9216SOL    HW139107   2.675   4.220   5.074 -0.2010  0.2058 -2.0381
 9216SOL    HW239108   2.723   4.313   5.178 -0.3986 -0.7315  0.3736
 9217SOL     OW39109   0.108   2.224   6.868  0.5482  0.0643  0.3252
 9217SOL    HW139110   0.130   2.282   6.795  1.5484  0.2820  0.8113
 9217SOL    HW239111   0.109   2.289   6.939 -1.0294  0.6959 -0.2165
 9218SOL     OW39112   1.498   3.385   2.259 -0.5728  0.4289  0.2720
 9218SOL    HW139113   1.499   3.341   2.343 -0.4495  0.4093  0.2612
 9218SOL    HW239114   1.416   3.349   2.226 -0.5902  1.3301 -0.6891
 9219SOL     OW39115   2.967   2.289  13.110 -0.1044 -0.3143 -0.4539
 9219SOL    HW139116   3.059   2.316  13.114 -0.9250  2.0470  2.2504
 9219SOL    HW239117   2.948   2.297  13.016  0.8806  0.3281 -0.6038
 9220SOL     OW39118   1.619   0.952   5.060 -0.5598 -0.1738  0.2369
 9220SOL    HW139119   1.619   1.021   4.993 -0.4659 -0.1349  0.2756
 9220SOL    HW239120   1.541   0.900   5.046  0.5695 -1.1658 -2.4208
 9221SOL     OW39121   2.027   1.077   9.349 -0.2299  0.1974 -0.1026
 9221SOL    HW139122   1.964   1.010   9.377 -1.9020  2.0814  0.6037
 9221SOL    HW239123   2.022   1.139   9.421 -1.6988 -0.0422  0.0044
 9222SOL     OW39124   0.336   0.360  14.950  0.1657  0.5905  0.4268
 9222SOL    HW139125   0.284   0.332  14.875  0.1207  1.7819  0.0086
 9222SOL    HW239126   0.411   0.303  14.931 -2.3994 -2.2473 -1.1641
 9223SOL     OW39127   4.291   0.622   8.597 -0.5394  0.2984 -0.4856
 9223SOL    HW139128   4.383   0.647   8.611 -0.7133  1.3183 -1.1572
 9223SOL    HW239129   4.242   0.703   8.607 -0.0869  0.4597  0.4119
 9224SOL     OW39130   0.805   1.163   5.187 -0.0651  0.8850 -0.0313
 9224SOL    HW139131   0.812   1.081   5.236 -0.0856 -0.1257 -1.7035
 9224SOL    HW239132   0.885   1.208   5.214 -0.2910  0.8974  0.6196
 9225SOL     OW39133   4.148   0.689  10.698 -0.4650 -0.0664 -0.2779
 9225SOL    HW139134   4.177   0.778  10.718 -1.7532  0.4436 -0.6937
 9225SOL    HW239135   4.072   0.685  10.757 -0.5642 -2.7930 -0.5749
 9226SOL     OW39136   0.064   2.125  11.865  0.6328 -0.8140 -0.0508
 9226SOL    HW139137   4.719   2.111  11.929 -1.3538  0.0787 -2.0189
 9226SOL    HW239138   0.138   2.075  11.900  1.7560  0.3569 -0.7525
 9227SOL     OW39139   2.841   1.281  11.114  0.0985 -0.6859 -0.0268
 9227SOL    HW139140   2.910   1.283  11.179  1.7345 -3.5285 -1.6748
 9227SOL    HW239141   2.857   1.196  11.073  0.3957 -0.7954  0.3212
 9228SOL     OW39142   4.064   0.362  11.477 -0.0202  0.2757  0.3922
 9228SOL    HW139143   4.102   0.336  11.561 -1.1187 -2.5762 -0.0053
 9228SOL    HW239144   3.976   0.375  11.512  0.7783 -1.4858  3.0882
 9229SOL     OW39145   2.656   0.712   8.456  0.5193 -0.0378  0.6755
 9229SOL    HW139146   2.586   0.647   8.459  0.5533  0.0056  2.1839
 9229SOL    HW239147   2.607   0.787   8.423  1.8254  0.9369  0.9528
 9230SOL     OW39148   0.491   0.118   2.520  0.2769 -0.1565 -0.4625
 9230SOL    HW139149   0.578   0.112   2.480  0.2248 -2.7695 -0.2401
 9230SOL    HW239150   0.446   0.154   2.443  0.9556 -2.6344 -2.0361
 9231SOL     OW39151   1.206   1.923  13.136  0.2575 -0.2835 -0.0062
 9231SOL    HW139152   1.128   1.890  13.182 -1.6648  2.4457 -1.3057
 9231SOL    HW239153   1.208   1.877  13.052  0.9903 -3.2755  1.6419
 9232SOL     OW39154   0.387   4.638   5.367 -0.6205  0.0904 -0.0341
 9232SOL    HW139155   0.415   4.602   5.451  1.8011  0.6426 -0.6094
 9232SOL    HW239156   0.355   4.720   5.404  0.5504  0.9595 -0.9911
 9233SOL     OW39157   2.634   2.261   9.642 -0.2747 -0.0973 -0.3045
 9233SOL    HW139158   2.600   2.173   9.659 -0.0116 -0.5676 -2.2633
 9233SOL    HW239159   2.686   2.237   9.565  0.1788  1.1022 -0.3669
 9234SOL     OW39160   4.012   3.107   3.076 -0.1350  0.2484 -0.4046
 9234SOL    HW139161   3.985   3.015   3.076 -0.6015  0.3836  1.8897
 9234SOL    HW239162   4.003   3.128   3.169  2.4174  0.8534 -0.2825
 9235SOL     OW39163   1.333   2.147  15.016 -0.4592 -0.2790  0.1364
 9235SOL    HW139164   1.311   2.107  14.931 -3.1916 -1.5582  1.4561
 9235SOL    HW239165   1.307   2.078  15.077 -2.2016  1.0712  0.9473
 9236SOL     OW39166   2.017   2.669   6.320  0.2159  0.0002  0.7920
 9236SOL    HW139167   2.023   2.757   6.285 -1.0329 -1.3568 -2.8116
 9236SOL    HW239168   2.002   2.685   6.413  1.3603  2.2417  0.5749
 9237SOL     OW39169   0.450   1.203   1.535  0.3218  0.3683  0.0108
 9237SOL    HW139170   0.455   1.108   1.543 -2.0580  0.2226 -0.1270
 9237SOL    HW239171   0.403   1.215   1.618  0.2155 -2.2935  0.3361
 9238SOL     OW39172   4.057   0.266  11.172 -0.2125 -0.1416  0.0381
 9238SOL    HW139173   3.983   0.303  11.124 -1.1097 -1.0835  0.7237
 9238SOL    HW239174   4.034   0.302  11.258 -2.2797 -1.0938 -0.1214
 9239SOL     OW39175   1.021   0.856   7.213 -0.4789 -0.3249 -0.2448
 9239SOL    HW139176   0.984   0.876   7.300 -0.7091  4.0358 -1.3646
 9239SOL    HW239177   1.103   0.812   7.234 -0.7648 -1.0453 -0.6433
 9240SOL     OW39178   1.048   1.615   2.756  0.2226 -0.2485  0.3643
 9240SOL    HW139179   0.968   1.619   2.704  0.4279 -0.9812 -0.0053
 9240SOL    HW239180   1.019   1.658   2.836  0.6718  0.5584  0.0882
 9241SOL     OW39181   4.317   3.825   1.959  0.5693  0.0777 -0.2959
 9241SOL    HW139182   4.349   3.742   1.924  1.6889 -0.3270  1.7266
 9241SOL    HW239183   4.228   3.806   1.987  1.1093  0.3472  1.5701
 9242SOL     OW39184   1.273   3.636   8.862 -0.7402 -0.5097 -0.2267
 9242SOL    HW139185   1.238   3.560   8.909 -1.3841 -1.1146 -1.6910
 9242SOL    HW239186   1.338   3.670   8.924 -2.6590  1.6037  0.6052
 9243SOL     OW39187   2.201   1.313   3.206  0.6532  0.4038  0.0384
 9243SOL    HW139188   2.273   1.315   3.144  0.0043  2.7034 -0.6229
 9243SOL    HW239189   2.248   1.287   3.286 -0.9977 -0.5104  0.7139
 9244SOL     OW39190   0.089   4.186  11.928  0.5562  0.1544 -0.8104
 9244SOL    HW139191   0.127   4.272  11.909 -0.8328  0.0524 -4.0878
 9244SOL    HW239192   0.050   4.165  11.844 -3.7653 -2.2962  1.8075
 9245SOL     OW39193   2.153   1.069   0.453  0.3968 -0.2920  0.1654
 9245SOL    HW139194   2.095   1.126   0.502  0.5907 -0.8616  1.0533
 9245SOL    HW239195   2.089   1.002   0.429 -0.7359  0.9947 -0.4076
 9246SOL     OW39196   4.107   2.205   0.833 -0.3190 -0.3265 -0.1173
 9246SOL    HW139197   4.110   2.128   0.777  0.1894 -2.1556  2.4390
 9246SOL    HW239198   4.104   2.165   0.920  0.1244  0.7209  0.3807
 9247SOL     OW39199   1.877   2.506   2.131 -0.5293 -0.1204 -0.1398
 9247SOL    HW139200   1.808   2.470   2.075 -0.5804 -1.5845  0.8519
 9247SOL    HW239201   1.938   2.547   2.071  1.9186  0.3069  2.6023
 9248SOL     OW39202   0.362   0.035   7.737 -0.2358  0.0972  0.7260
 9248SOL    HW139203   0.268   0.021   7.752 -0.5706  0.3608 -1.1119
 9248SOL    HW239204   0.385   4.669   7.718 -0.3959 -0.2219  2.0112
 9249SOL     OW39205   2.862   3.572   6.456  0.5847  0.4099  0.2754
 9249SOL    HW139206   2.768   3.564   6.472  0.8221  0.7914  1.8037
 9249SOL    HW239207   2.895   3.571   6.546  1.4335  1.1235 -0.0302
 9250SOL     OW39208   4.394   1.969   1.609 -0.2645  0.3350 -0.3015
 9250SOL    HW139209   4.330   1.909   1.646 -0.1919  0.6369  0.3154
 9250SOL    HW239210   4.367   1.975   1.517  1.0920 -0.5844 -0.7622
 9251SOL     OW39211   2.469   0.500  16.153  0.8713  0.3619 -0.1049
 9251SOL    HW139212   2.474   0.491  16.248 -0.6635  1.3735  0.0686
 9251SOL    HW239213   2.423   0.584  16.157 -0.9009 -0.6055 -0.2990
 9252SOL     OW39214   0.325   0.949   6.054  0.4157  0.0741  0.1024
 9252SOL    HW139215   0.313   0.882   6.121  1.4823  0.8912  1.0839
 9252SOL    HW239216   0.406   0.914   6.017  0.6901  0.4677  0.3404
 9253SOL     OW39217   1.120   0.135   7.893 -0.1063  0.2450 -0.3027
 9253SOL    HW139218   1.075   0.190   7.829 -0.6328  1.1723  0.8654
 9253SOL    HW239219   1.212   0.153   7.871 -0.8144  1.5252 -2.1662
 9254SOL     OW39220   1.967   2.527   1.536  0.5529  0.5853  0.0366
 9254SOL    HW139221   2.047   2.505   1.584  2.0444 -1.5915 -3.4191
 9254SOL    HW239222   1.981   2.608   1.486 -1.8746  1.6856  1.1919
 9255SOL     OW39223   2.506   1.741   4.105  0.1359  0.4467  0.5515
 9255SOL    HW139224   2.458   1.692   4.172 -0.3634 -1.6953 -1.3915
 9255SOL    HW239225   2.594   1.726   4.139  0.5939  2.5593  0.2964
 9256SOL     OW39226   4.019   0.364   9.999 -0.5459  1.1195  0.4602
 9256SOL    HW139227   4.038   0.284  10.049  0.6615  0.9914 -0.2011
 9256SOL    HW239228   4.066   0.440  10.033 -0.6844  0.6800  1.6704
 9257SOL     OW39229   2.068   1.315   8.451  0.1408 -0.8670 -0.1829
 9257SOL    HW139230   2.129   1.359   8.510 -1.4865  0.0931  0.7733
 9257SOL    HW239231   2.026   1.248   8.504  0.6834 -0.3235  0.9177
 9258SOL     OW39232   4.385   1.700   2.591  0.0729 -0.3290 -0.1336
 9258SOL    HW139233   4.476   1.705   2.622  1.1205 -1.8591 -2.9259
 9258SOL    HW239234   4.391   1.674   2.499  0.1904  0.5502 -0.3741
 9259SOL     OW39235   2.756   3.831  10.634  0.0934 -0.5248  0.2825
 9259SOL    HW139236   2.827   3.810  10.695  0.1891  1.3958  0.8340
 9259SOL    HW239237   2.688   3.774  10.669 -0.8134 -1.2512 -2.7048
 9260SOL     OW39238   3.250   3.925  15.407 -0.0861  0.0399 -0.6854
 9260SOL    HW139239   3.339   3.958  15.419 -0.2535 -0.0097  0.7221
 9260SOL    HW239240   3.266   3.831  15.400  2.0105  0.2682  0.8054
 9261SOL     OW39241   3.438   4.485   3.677  0.1913  0.5300  0.1913
 9261SOL    HW139242   3.504   4.538   3.721 -1.1521  1.2269  1.3987
 9261SOL    HW239243   3.433   4.408   3.735 -1.4001 -0.5003 -1.3046
 9262SOL     OW39244   0.582   4.232   2.140 -0.2171  0.1479  0.1367
 9262SOL    HW139245   0.669   4.269   2.157  1.2070 -2.6938 -1.0465
 9262SOL    HW239246   0.543   4.205   2.223 -1.4988 -2.0768 -1.2073
 9263SOL     OW39247   1.018   0.131  15.430  0.2790 -0.0868  0.1196
 9263SOL    HW139248   0.933   0.116  15.387  0.5725  0.5543 -0.6754
 9263SOL    HW239249   1.031   0.226  15.428 -0.9285  0.0636 -1.1791
 9264SOL     OW39250   4.432   3.421   1.997  0.1754  0.1626  0.3002
 9264SOL    HW139251   4.365   3.480   2.032 -1.2327 -1.1669 -0.1511
 9264SOL    HW239252   4.485   3.478   1.940  0.0188  0.6720  0.6626
 9265SOL     OW39253   1.965   0.819   8.561 -0.1539  0.2441 -0.0787
 9265SOL    HW139254   2.058   0.807   8.539 -0.1297  1.4555 -0.6200
 9265SOL    HW239255   1.944   0.896   8.509 -2.2452 -0.0897  0.2968
 9266SOL     OW39256   1.072   0.974  13.839  0.0664 -0.4168 -0.9475
 9266SOL    HW139257   1.018   0.895  13.844  1.5862 -1.4423 -0.4099
 9266SOL    HW239258   1.157   0.943  13.807  0.2479 -2.8169  1.8672
 9267SOL     OW39259   1.245   4.520   4.848  0.1649 -0.4533 -0.0137
 9267SOL    HW139260   1.326   4.561   4.818  0.1938 -1.1590 -0.8751
 9267SOL    HW239261   1.178   4.576   4.810  1.2004  1.5062  1.0057
 9268SOL     OW39262   2.287   1.359   7.810 -0.4757 -0.3867  0.3030
 9268SOL    HW139263   2.233   1.283   7.830 -1.6029  0.0948 -0.8839
 9268SOL    HW239264   2.241   1.395   7.734 -0.1820 -1.8492 -0.5625
 9269SOL     OW39265   2.793   0.361   9.230 -0.2745 -0.4296 -0.3230
 9269SOL    HW139266   2.788   0.315   9.146 -0.8215  0.3686 -0.7184
 9269SOL    HW239267   2.700   0.358   9.252 -0.1116  0.3524  0.4420
 9270SOL     OW39268   1.292   1.132   8.524  0.3246 -0.0784  0.3681
 9270SOL    HW139269   1.378   1.091   8.530  0.4517  0.3898  1.7042
 9270SOL    HW239270   1.289   1.173   8.611 -1.9954  0.4196  0.0591
 9271SOL     OW39271   4.544   0.818  10.918 -0.2432  0.4003 -0.3262
 9271SOL    HW139272   4.503   0.882  10.977 -2.3118 -1.3041  0.1163
 9271SOL    HW239273   4.615   0.787  10.974 -0.6907  0.0171  0.0397
 9272SOL     OW39274   2.751   2.031   4.993  0.3849 -0.1904  0.9899
 9272SOL    HW139275   2.664   2.068   5.005  0.2065 -0.4699  0.5699
 9272SOL    HW239276   2.795   2.092   4.934 -0.1841 -1.0196 -0.2780
 9273SOL     OW39277   0.976   0.402  17.231 -0.2019 -0.8004  0.0574
 9273SOL    HW139278   0.957   0.359  17.147  0.7753 -0.8068 -0.1550
 9273SOL    HW239279   0.975   0.494  17.206  1.7721 -0.4217  1.4446
 9274SOL     OW39280   3.886   1.600  12.423 -0.0845  0.7127 -0.0422
 9274SOL    HW139281   3.957   1.573  12.365  0.5201  0.7063  0.7004
 9274SOL    HW239282   3.895   1.551  12.505 -1.4098 -0.7285 -0.7487
 9275SOL     OW39283   3.648   2.288   7.184 -0.3420 -0.5281 -0.0235
 9275SOL    HW139284   3.677   2.214   7.238 -0.6996  1.4233  2.8829
 9275SOL    HW239285   3.728   2.342   7.181 -0.4137 -0.4428 -0.3635
 9276SOL     OW39286   0.366   0.696   1.709 -0.4033  0.0379  0.7203
 9276SOL    HW139287   0.334   0.737   1.790  0.8485  0.2861  1.0906
 9276SOL    HW239288   0.407   0.617   1.746 -2.0596 -2.2818 -2.4852
 9277SOL     OW39289   1.242   2.049   7.530  0.5004 -0.2244 -0.3138
 9277SOL    HW139290   1.240   2.061   7.625 -0.5539 -2.5339 -0.0367
 9277SOL    HW239291   1.308   2.118   7.519 -0.8916  0.9859 -1.2298
 9278SOL     OW39292   2.978   2.312   9.327  0.6691  0.0502 -0.0332
 9278SOL    HW139293   3.053   2.329   9.270 -1.4150 -1.8984 -3.3818
 9278SOL    HW239294   2.986   2.218   9.346  2.3874  0.0526 -0.8246
 9279SOL     OW39295   0.980   0.813  12.695 -0.1659 -0.3536  0.2895
 9279SOL    HW139296   1.045   0.810  12.765  1.0494  0.1521 -0.7969
 9279SOL    HW239297   1.034   0.820  12.616  0.7919 -3.4390  0.6767
 9280SOL     OW39298   4.002   2.993   0.720  0.6156 -0.0700  0.1570
 9280SOL    HW139299   4.035   2.925   0.779 -0.6264  0.8923  1.9597
 9280SOL    HW239300   3.967   3.057   0.782 -1.7512  0.3954 -1.6516
 9281SOL     OW39301   4.216   1.966   7.052 -0.0373 -0.0023  0.1151
 9281SOL    HW139302   4.177   2.010   6.975  0.9430  1.1226  0.2639
 9281SOL    HW239303   4.238   2.047   7.098 -1.0843  0.3869 -0.0430
 9282SOL     OW39304   3.448   0.361   6.845  0.0517 -0.6336  0.3800
 9282SOL    HW139305   3.381   0.300   6.815 -1.1578  1.8846 -2.0328
 9282SOL    HW239306   3.448   0.436   6.785 -1.1794  0.3592  1.6130
 9283SOL     OW39307   2.632   2.759   5.666 -0.0372 -0.0616 -0.5113
 9283SOL    HW139308   2.681   2.742   5.585 -0.1677  1.4451 -0.9208
 9283SOL    HW239309   2.688   2.711   5.726 -0.1815  0.8054  0.3088
 9284SOL     OW39310   4.521   1.861   2.216 -0.3540 -0.1055  0.1947
 9284SOL    HW139311   4.547   1.931   2.156  0.9436 -1.3140 -0.6632
 9284SOL    HW239312   4.603   1.850   2.265 -1.2504 -0.5997  1.5841
 9285SOL     OW39313   4.322   2.944   7.643 -0.5653  0.7024 -0.4539
 9285SOL    HW139314   4.331   3.020   7.584  0.2664 -0.0619 -1.3074
 9285SOL    HW239315   4.293   2.985   7.724  2.1221 -2.7730  2.2735
 9286SOL     OW39316   0.720   2.675   6.247  0.1177  0.4389 -0.2853
 9286SOL    HW139317   0.691   2.592   6.210 -0.0560  0.4037 -0.0688
 9286SOL    HW239318   0.770   2.707   6.172 -0.2313  1.1925 -0.2002
 9287SOL     OW39319   1.348   1.131   0.486  0.3879  0.1714  0.4513
 9287SOL    HW139320   1.329   1.224   0.486  2.0866  0.5136  0.3505
 9287SOL    HW239321   1.385   1.123   0.574 -1.4240  0.3157  1.2194
 9288SOL     OW39322   4.478   1.727   1.888  0.0204  0.4501 -0.2294
 9288SOL    HW139323   4.459   1.687   1.972 -0.7964  2.2404  0.4472
 9288SOL    HW239324   4.390   1.744   1.853 -0.4441 -0.0368  0.7126
 9289SOL     OW39325   1.207   2.272   6.061 -0.0177 -0.3319  0.1721
 9289SOL    HW139326   1.190   2.216   6.137  1.7301 -0.3662  0.5432
 9289SOL    HW239327   1.298   2.298   6.076 -0.1022 -0.6249  1.2221
 9290SOL     OW39328   3.079   0.355   4.913 -0.5125  0.0842 -0.3613
 9290SOL    HW139329   3.019   0.284   4.940  0.4643  0.3542  2.5144
 9290SOL    HW239330   3.032   0.438   4.917  0.6473  0.6953  0.3265
 9291SOL     OW39331   4.171   4.227   6.141  0.6963  0.4822 -0.5863
 9291SOL    HW139332   4.214   4.159   6.192 -1.3242  0.3264  0.9100
 9291SOL    HW239333   4.147   4.191   6.055 -0.5337  0.0294 -0.0404
 9292SOL     OW39334   3.811   2.456  15.743 -0.2783  0.1919 -0.1265
 9292SOL    HW139335   3.850   2.460  15.831 -0.6079 -0.6446  0.0555
 9292SOL    HW239336   3.794   2.549  15.727  2.8499  1.1975  2.4992
 9293SOL     OW39337   3.935   2.314   5.543 -0.1605  0.5654  0.3075
 9293SOL    HW139338   3.925   2.402   5.579  0.0243  0.7248 -0.0306
 9293SOL    HW239339   3.880   2.269   5.607  0.3777  1.9250  1.7306
 9294SOL     OW39340   1.163   0.779  16.905 -0.0321 -0.2428 -0.1355
 9294SOL    HW139341   1.198   0.705  16.955  0.7287 -0.2153 -0.6258
 9294SOL    HW239342   1.080   0.752  16.866 -0.9971 -0.2830  1.9273
 9295SOL     OW39343   1.258   4.230  10.158  0.0270  0.0456 -0.5437
 9295SOL    HW139344   1.211   4.189  10.084 -3.5888 -0.5197  2.0453
 9295SOL    HW239345   1.340   4.182  10.154  0.2006  0.4082 -1.2370
 9296SOL     OW39346   2.729   4.599   3.289 -0.2579 -0.3752  0.7313
 9296SOL    HW139347   2.682   4.527   3.330 -0.2163  0.2248  1.8113
 9296SOL    HW239348   2.776   4.555   3.217  1.0572  0.6097  0.9965
 9297SOL     OW39349   4.087   4.676   8.092 -0.2548 -0.1469  0.1190
 9297SOL    HW139350   4.059   0.031   8.048  1.2422  1.2995  1.8006
 9297SOL    HW239351   4.031   4.611   8.049  0.1813 -0.0417 -0.6032
 9298SOL     OW39352   3.592   2.967   3.970 -0.1229  0.1920 -0.7108
 9298SOL    HW139353   3.576   3.037   4.033 -2.1576 -1.0322  0.1217
 9298SOL    HW239354   3.508   2.922   3.964 -0.2326  0.2951  0.0529
 9299SOL     OW39355   0.143   3.196   8.870  0.0899 -0.1274  0.3527
 9299SOL    HW139356   0.180   3.114   8.836  0.6199  0.3402 -0.2135
 9299SOL    HW239357   0.139   3.246   8.788  2.1459  1.0393  0.9593
 9300SOL     OW39358   4.052   4.369   9.083 -0.5024 -0.3083 -0.3226
 9300SOL    HW139359   4.022   4.291   9.129  0.7802 -0.1584  0.7506
 9300SOL    HW239360   3.968   4.406   9.056 -1.4373 -1.2802  1.2766
 9301SOL     OW39361   2.151   2.711   0.945 -0.7392  0.1465  0.0071
 9301SOL    HW139362   2.149   2.791   0.997  0.1542  1.1067 -1.4171
 9301SOL    HW239363   2.080   2.721   0.882  0.6912 -2.3010 -1.9936
 9302SOL     OW39364   1.431   0.002   4.999  0.3766 -0.0052  0.2771
 9302SOL    HW139365   1.508   0.015   4.943  0.6680 -0.9092  0.4550
 9302SOL    HW239366   1.481   4.720   5.080  1.7249  1.6973 -0.4124
 9303SOL     OW39367   4.294   2.615   8.010  0.3651  0.4480 -0.4116
 9303SOL    HW139368   4.224   2.606   8.075 -0.0360  0.1301 -0.8869
 9303SOL    HW239369   4.321   2.705   8.026 -1.3204  0.8068  0.3862
 9304SOL     OW39370   2.585   4.473   8.704 -0.0640  0.3363 -0.2383
 9304SOL    HW139371   2.531   4.446   8.630  1.2240 -2.7585 -0.0258
 9304SOL    HW239372   2.668   4.475   8.657  0.7921  1.6305  1.3185
 9305SOL     OW39373   1.696   1.502   4.442  0.5653  0.4228  0.0349
 9305SOL    HW139374   1.777   1.552   4.452  1.4450 -0.8112 -0.7825
 9305SOL    HW239375   1.630   1.557   4.484 -1.1237 -0.9613 -0.8344
 9306SOL     OW39376   0.931   0.959   7.447  0.2975  0.6585 -0.0040
 9306SOL    HW139377   0.994   1.030   7.460  0.9514  0.5610 -2.6286
 9306SOL    HW239378   0.945   0.904   7.524 -0.3214  0.4107 -0.0752
 9307SOL     OW39379   0.637   1.780   7.191 -0.5322 -0.1898 -0.5429
 9307SOL    HW139380   0.574   1.743   7.253  0.6630 -1.1937  0.0643
 9307SOL    HW239381   0.586   1.766   7.111 -1.8684  0.5819  0.1747
 9308SOL     OW39382   0.334   2.113  12.276  0.6670 -0.0309 -0.4547
 9308SOL    HW139383   0.417   2.148  12.242  1.4748 -0.3475  1.2169
 9308SOL    HW239384   0.346   2.104  12.370  1.9377 -0.2151 -0.6228
 9309SOL     OW39385   2.804   1.444  16.740 -0.0093  0.5470 -0.5117
 9309SOL    HW139386   2.720   1.478  16.773 -0.1069  1.9837 -2.2424
 9309SOL    HW239387   2.862   1.519  16.751  0.2150  0.5994 -2.0557
 9310SOL     OW39388   4.702   0.449   4.707  0.6267 -0.1089 -0.3322
 9310SOL    HW139389   4.642   0.377   4.685  0.3518  0.1615 -0.4624
 9310SOL    HW239390   0.058   0.406   4.734  0.9179  0.4934 -0.2490
 9311SOL     OW39391   3.259   3.073   3.829  0.2539 -0.1862 -0.0173
 9311SOL    HW139392   3.194   3.060   3.898 -0.7143  1.2166 -0.6531
 9311SOL    HW239393   3.198   3.111   3.765 -0.5826  0.5642  1.2383
 9312SOL     OW39394   0.411   3.991   7.681  0.3124 -0.0674  0.1765
 9312SOL    HW139395   0.368   3.959   7.760  0.6128  0.0676  0.3939
 9312SOL    HW239396   0.499   3.954   7.684  0.3607  0.0017 -0.2906
 9313SOL     OW39397   1.968   3.950   8.726  0.1309  0.0513 -0.3850
 9313SOL    HW139398   2.007   3.931   8.640  2.4094  2.7259  0.0621
 9313SOL    HW239399   1.947   4.043   8.724 -2.5406 -0.5365 -0.4719
 9314SOL     OW39400   4.102   4.250   8.803 -0.3510 -0.4923 -0.0279
 9314SOL    HW139401   4.171   4.200   8.760 -1.1547 -0.3858 -1.4399
 9314SOL    HW239402   4.141   4.317   8.860  0.4124 -0.5437 -0.4951
 9315SOL     OW39403   2.392   0.179   4.838 -0.1916 -0.5635  0.4967
 9315SOL    HW139404   2.326   0.135   4.891  2.1920 -2.9274  1.5007
 9315SOL    HW239405   2.340   0.224   4.772  1.0502 -0.7836 -0.6343
 9316SOL     OW39406   2.153   1.884   5.657 -0.6772  0.6569  0.3660
 9316SOL    HW139407   2.118   1.895   5.569 -1.2058  1.2349  0.6507
 9316SOL    HW239408   2.241   1.921   5.647  0.1783 -1.7107 -0.9569
 9317SOL     OW39409   1.811   4.446   2.068 -0.0505 -0.1768 -0.3301
 9317SOL    HW139410   1.846   4.467   1.981  1.3978 -0.9303  0.0674
 9317SOL    HW239411   1.877   4.387   2.104 -2.4108 -1.6607  1.5426
 9318SOL     OW39412   2.685   2.270   2.708  0.4054  0.4362  0.2397
 9318SOL    HW139413   2.749   2.205   2.681  0.7401  1.1904 -0.7774
 9318SOL    HW239414   2.633   2.289   2.630  3.5094  2.3306 -1.3708
 9319SOL     OW39415   4.599   3.999   3.632  0.0810  0.1084  0.1087
 9319SOL    HW139416   4.613   3.939   3.559  0.3587  0.3501 -0.0369
 9319SOL    HW239417   4.559   3.940   3.696  1.0271 -1.3838 -0.6852
 9320SOL     OW39418   3.558   1.649  15.613  0.3835  0.5353 -0.2333
 9320SOL    HW139419   3.549   1.577  15.550  0.5909 -1.1138  1.5986
 9320SOL    HW239420   3.653   1.648  15.612  0.4589  1.8045  4.1179
 9321SOL     OW39421   2.933   2.222  16.250  0.2122 -0.0266 -0.2475
 9321SOL    HW139422   2.931   2.304  16.200  1.5782  0.8673  1.1553
 9321SOL    HW239423   2.842   2.231  16.279  1.0513  1.8955  1.8966
 9322SOL     OW39424   3.167   0.711   2.084 -0.1128  0.4169  0.3405
 9322SOL    HW139425   3.134   0.800   2.091 -0.7369  0.0714  1.6303
 9322SOL    HW239426   3.086   0.661   2.094 -0.3645  0.5309 -1.0396
 9323SOL     OW39427   4.151   0.342   3.935 -0.1283 -0.4898  0.2241
 9323SOL    HW139428   4.230   0.288   3.940  0.1215 -0.0151  1.4635
 9323SOL    HW239429   4.131   0.336   3.842  1.0152  2.3460 -0.2019
 9324SOL     OW39430   3.499   2.539   2.116 -0.2518 -0.1459  0.4919
 9324SOL    HW139431   3.423   2.535   2.058 -0.1402 -1.4680  0.4404
 9324SOL    HW239432   3.523   2.447   2.118  0.4998  0.0097 -1.3636
 9325SOL     OW39433   2.709   4.354   1.637 -0.1895 -0.1602  0.3562
 9325SOL    HW139434   2.773   4.400   1.582  1.0794  0.1873  2.1527
 9325SOL    HW239435   2.763   4.298   1.692 -2.7617 -1.9843  1.0593
 9326SOL     OW39436   0.634   1.751   2.350  0.3664  0.0113  0.1616
 9326SOL    HW139437   0.562   1.716   2.401  0.0638 -0.0951 -0.3427
 9326SOL    HW239438   0.622   1.843   2.376 -2.3626 -0.3684  0.2385
 9327SOL     OW39439   0.237   0.971   8.916  0.1007 -0.4615  0.9714
 9327SOL    HW139440   0.319   1.018   8.912  0.2488 -0.7893  0.1922
 9327SOL    HW239441   0.234   0.945   8.824 -3.8846 -0.4466  1.0711
 9328SOL     OW39442   2.239   1.234   4.913  0.0788 -0.5641  0.2300
 9328SOL    HW139443   2.228   1.293   4.988 -0.7548 -2.8842  1.9568
 9328SOL    HW239444   2.260   1.293   4.841  2.0041 -0.8088  0.5853
 9329SOL     OW39445   2.660   2.448   7.331  0.2335 -0.2274 -0.3244
 9329SOL    HW139446   2.685   2.522   7.387 -0.0578  0.7545 -1.5052
 9329SOL    HW239447   2.749   2.417   7.312  0.0071  0.7528 -2.9220
 9330SOL     OW39448   1.828   2.697   5.247  0.2094 -0.1685 -0.2961
 9330SOL    HW139449   1.817   2.752   5.169 -1.0886  0.0148  0.0041
 9330SOL    HW239450   1.759   2.727   5.306  0.7846 -1.1210  0.8501
 9331SOL     OW39451   2.398   2.118   4.343 -0.5012 -0.5748  0.6448
 9331SOL    HW139452   2.420   2.131   4.436 -3.1095  1.4902  0.9750
 9331SOL    HW239453   2.461   2.049   4.325  2.1215  1.8434  0.5040
 9332SOL     OW39454   1.214   4.115  17.205  0.3659  0.1461 -0.3302
 9332SOL    HW139455   1.299   4.151  17.227  0.7681 -0.8675 -0.2133
 9332SOL    HW239456   1.225   4.026  17.239 -0.0549 -0.0154 -0.6139
 9333SOL     OW39457   3.931   0.756   5.504 -0.2232 -0.1500  0.2063
 9333SOL    HW139458   3.873   0.829   5.482  1.1349  1.1034  0.7865
 9333SOL    HW239459   4.020   0.780   5.480 -0.2329 -1.5653 -1.2697
 9334SOL     OW39460   1.068   2.437  14.792  0.2849 -0.2938 -0.8447
 9334SOL    HW139461   1.119   2.357  14.777 -2.2620 -2.0436 -0.0511
 9334SOL    HW239462   0.985   2.408  14.829  1.0125  2.2141  2.7976
 9335SOL     OW39463   0.188   2.169   2.793 -0.4471  0.0250  0.1517
 9335SOL    HW139464   0.095   2.148   2.804 -0.7701  1.2499 -0.1847
 9335SOL    HW239465   0.174   2.255   2.754 -2.5572  0.0206  0.8760
 9336SOL     OW39466   0.653   3.680   0.076 -0.1272  0.4012  0.3175
 9336SOL    HW139467   0.608   3.704  17.696 -0.2644 -0.6735  0.0863
 9336SOL    HW239468   0.582   3.630   0.116 -1.3865  3.2360  1.6039
 9337SOL     OW39469   0.979   3.848   5.428  0.0154 -0.2782  0.6268
 9337SOL    HW139470   1.054   3.790   5.419  1.0262  1.4017 -1.8930
 9337SOL    HW239471   1.028   3.922   5.464  0.5161 -0.6595  0.7313
 9338SOL     OW39472   1.357   0.030   9.952 -0.7152 -0.2665 -0.3766
 9338SOL    HW139473   1.271   0.038   9.993 -1.5802 -3.8146 -1.5639
 9338SOL    HW239474   1.411   0.009  10.029  0.2477  1.8670 -0.4556
 9339SOL     OW39475   1.412   1.224  13.544 -0.0340  0.3566 -0.0454
 9339SOL    HW139476   1.409   1.128  13.543  3.7291  0.2648 -0.8553
 9339SOL    HW239477   1.388   1.253  13.457  1.1275  1.5549  0.0410
 9340SOL     OW39478   4.531   3.580   8.869 -0.0306 -0.3593  0.2699
 9340SOL    HW139479   4.471   3.577   8.944  0.8097 -0.7496  0.9214
 9340SOL    HW239480   4.457   3.582   8.809  0.5057  0.1840 -0.3613
 9341SOL     OW39481   1.820   2.511   6.009 -0.1423 -0.2368 -0.4252
 9341SOL    HW139482   1.787   2.492   6.097  2.1881 -0.2063  0.4516
 9341SOL    HW239483   1.885   2.444   5.988  0.5583  0.4206 -0.3351
 9342SOL     OW39484   4.640   0.159   4.873  0.5577 -0.1066 -0.0969
 9342SOL    HW139485   4.658   0.128   4.962 -1.1045  0.6085  0.4909
 9342SOL    HW239486   4.564   0.215   4.889 -0.7436 -1.9654  0.2426
 9343SOL     OW39487   2.662   1.983   0.018  0.2347  0.6198 -0.0520
 9343SOL    HW139488   2.569   2.006   0.015 -0.0561 -0.3929  1.2720
 9343SOL    HW239489   2.694   2.065   0.056 -0.1263  0.4663  0.5761
 9344SOL     OW39490   3.312   0.216  11.256  0.0176 -0.1572  0.1001
 9344SOL    HW139491   3.275   0.280  11.196  0.8342 -0.2887 -0.5339
 9344SOL    HW239492   3.286   0.253  11.340  0.8191 -1.9608  1.1473
 9345SOL     OW39493   0.413   2.500   8.266  0.0833  0.0750  0.4566
 9345SOL    HW139494   0.417   2.571   8.202  0.1093 -1.4539 -1.2278
 9345SOL    HW239495   0.372   2.547   8.339  0.2215  3.0385 -1.4017
 9346SOL     OW39496   0.898   0.846   9.579 -0.3589  0.5580 -0.4913
 9346SOL    HW139497   0.808   0.821   9.557 -0.9907  2.3987 -0.0083
 9346SOL    HW239498   0.921   0.759   9.612 -1.4850  0.4857  0.1082
 9347SOL     OW39499   4.179   2.011  14.266  1.0524 -0.1026 -0.1499
 9347SOL    HW139500   4.125   1.934  14.282 -0.3173  1.1127  1.0615
 9347SOL    HW239501   4.155   2.037  14.177  1.5960  2.7705  0.5287
 9348SOL     OW39502   1.366   3.455   4.908 -0.3032 -0.3961  0.2341
 9348SOL    HW139503   1.363   3.539   4.953 -1.1290 -0.3691  0.1357
 9348SOL    HW239504   1.410   3.492   4.831 -2.4272  1.5786 -0.0461
 9349SOL     OW39505   0.564   2.352   2.976  0.6586  0.0479  0.8621
 9349SOL    HW139506   0.539   2.435   3.015 -0.8641 -0.9535  2.0159
 9349SOL    HW239507   0.637   2.376   2.919  0.9419 -1.2961  0.6540
 9350SOL     OW39508   3.285   1.313   2.502  0.9318 -0.2596  0.0032
 9350SOL    HW139509   3.213   1.273   2.453 -0.2480  2.3845 -0.4269
 9350SOL    HW239510   3.295   1.394   2.453  1.6114 -1.1075 -1.2693
 9351SOL     OW39511   4.634   0.543   1.098  0.5935 -0.3769  0.3722
 9351SOL    HW139512   4.680   0.459   1.107  0.4661 -0.5618 -0.6661
 9351SOL    HW239513   4.706   0.601   1.076  1.2701 -1.1392  0.5642
 9352SOL     OW39514   0.387   0.787   1.988 -0.5519  0.4874  0.5113
 9352SOL    HW139515   0.481   0.789   2.004 -0.5463 -1.1369  0.6464
 9352SOL    HW239516   0.363   0.876   2.014  1.2599  1.2622 -0.4388
 9353SOL     OW39517   3.419   1.648  10.081  0.1582 -0.4016  0.1612
 9353SOL    HW139518   3.342   1.618  10.130 -0.6982  0.7190 -0.5075
 9353SOL    HW239519   3.405   1.741  10.064 -1.1390 -0.4432  1.0116
 9354SOL     OW39520   0.411   1.588   6.025  0.4163 -0.1946 -0.1568
 9354SOL    HW139521   0.479   1.653   6.045  1.6345 -1.6342  0.3753
 9354SOL    HW239522   0.457   1.506   6.007  4.0192  2.0619 -1.4143
 9355SOL     OW39523   4.520   3.909   4.827 -0.7936  0.2249 -0.2735
 9355SOL    HW139524   4.533   3.990   4.778  0.8788 -0.2481 -0.6216
 9355SOL    HW239525   4.542   3.933   4.917 -1.2156  0.0442 -0.1237
 9356SOL     OW39526   1.789   0.877   6.924 -0.0430 -0.0232  0.0819
 9356SOL    HW139527   1.711   0.904   6.972 -0.4358 -1.7177  0.3877
 9356SOL    HW239528   1.839   0.847   7.000  0.5525  0.7064 -0.0226
 9357SOL     OW39529   1.138   1.139  13.052  0.4566  0.2230  0.1041
 9357SOL    HW139530   1.177   1.197  13.116  2.6969 -0.0936 -0.9666
 9357SOL    HW239531   1.089   1.077  13.106  1.5425  0.8485  1.7973
 9358SOL     OW39532   4.324   2.075  12.135  0.1896  0.3850  0.0011
 9358SOL    HW139533   4.256   2.125  12.089  1.1032  0.8897 -0.7922
 9358SOL    HW239534   4.280   2.096  12.218  0.5937  1.4399 -0.0487
 9359SOL     OW39535   2.896   4.047   3.130  0.5563  0.0453 -0.1736
 9359SOL    HW139536   2.941   4.125   3.097 -0.5210  0.9072  0.3884
 9359SOL    HW239537   2.822   4.042   3.071  1.6099 -0.1639 -1.4665
 9360SOL     OW39538   1.062   0.863   7.703 -0.8076 -0.1733  0.3263
 9360SOL    HW139539   1.105   0.786   7.740 -0.0776 -0.6137 -1.4245
 9360SOL    HW239540   1.124   0.932   7.730 -1.5655 -0.0954  1.8271
 9361SOL     OW39541   1.617   0.398   4.916 -0.4238  0.5866 -0.3640
 9361SOL    HW139542   1.549   0.347   4.872 -0.6102  0.0574  0.5332
 9361SOL    HW239543   1.583   0.400   5.005 -0.6164 -1.1892 -0.3893
 9362SOL     OW39544   3.733   0.921   5.153  0.0053 -0.4120  0.3098
 9362SOL    HW139545   3.763   1.012   5.149 -0.7503 -0.1736  0.0055
 9362SOL    HW239546   3.678   0.912   5.075 -0.9449  1.9322  0.6897
 9363SOL     OW39547   2.898   3.937  10.885 -0.0840 -0.1047  0.5117
 9363SOL    HW139548   2.822   3.982  10.922  0.6033  0.6208  1.0264
 9363SOL    HW239549   2.928   3.893  10.964  0.2192  1.3507  1.2017
 9364SOL     OW39550   2.393   3.735   9.652  0.3695  0.4874  0.4144
 9364SOL    HW139551   2.459   3.756   9.717  1.4382  0.0073 -0.5190
 9364SOL    HW239552   2.365   3.646   9.672 -0.1217  0.5977  0.2223
 9365SOL     OW39553   3.395   1.272   7.966 -0.9774  0.0462  0.6694
 9365SOL    HW139554   3.473   1.276   8.021 -0.8755  0.6464  0.4817
 9365SOL    HW239555   3.348   1.199   8.006 -1.7603 -0.0153 -0.3765
 9366SOL     OW39556   1.361   4.723   7.135  0.7521 -0.2929 -0.2987
 9366SOL    HW139557   1.341   0.080   7.178 -2.8438 -0.5253 -1.5699
 9366SOL    HW239558   1.338   0.013   7.044 -0.1334 -0.3211 -0.0784
 9367SOL     OW39559   4.563   1.891  12.542  0.0990  0.0216  0.3048
 9367SOL    HW139560   4.506   1.816  12.560 -0.4087  0.2577 -0.3243
 9367SOL    HW239561   4.639   1.843  12.510 -0.9388 -1.5209  0.1341
 9368SOL     OW39562   3.837   3.130   7.461 -0.0647 -0.4201 -0.8528
 9368SOL    HW139563   3.855   3.057   7.521 -0.7566 -0.4781 -0.7179
 9368SOL    HW239564   3.808   3.087   7.381 -1.2182 -1.4276  0.1067
 9369SOL     OW39565   3.601   1.793   6.129  0.2714  0.0445 -0.0452
 9369SOL    HW139566   3.525   1.846   6.105 -0.0055  0.8836  2.7221
 9369SOL    HW239567   3.663   1.861   6.156 -0.4917 -0.0009  1.8033
 9370SOL     OW39568   0.715   0.517   2.557 -0.8136  0.0212  0.3385
 9370SOL    HW139569   0.648   0.586   2.554  0.5749  1.3654  0.4198
 9370SOL    HW239570   0.781   0.545   2.620 -0.3762  0.7365 -0.4362
 9371SOL     OW39571   0.401   2.976   7.180  0.6598  0.1669 -0.1468
 9371SOL    HW139572   0.462   3.016   7.242  0.1631 -0.6483  0.8906
 9371SOL    HW239573   0.336   2.945   7.244  0.0896 -0.4286 -1.0112
 9372SOL     OW39574   1.389   2.937   8.108  0.3084  0.0234  0.2199
 9372SOL    HW139575   1.391   2.868   8.175 -2.4653 -0.9995 -0.7400
 9372SOL    HW239576   1.296   2.958   8.101 -0.2484 -0.9373  4.2540
 9373SOL     OW39577   1.650   1.365  15.902  0.3556  0.3577  0.6344
 9373SOL    HW139578   1.635   1.460  15.899 -4.6759 -0.4015  1.0650
 9373SOL    HW239579   1.608   1.339  15.820 -2.3028  2.1943  1.3773
 9374SOL     OW39580   3.363   0.302   5.714 -0.6603 -0.2748 -0.6410
 9374SOL    HW139581   3.435   0.247   5.683 -0.2234  0.3234 -0.6859
 9374SOL    HW239582   3.327   0.237   5.775 -0.2931  0.2347  0.1155
 9375SOL     OW39583   0.835   3.254  13.626  0.0892 -0.1060 -0.5991
 9375SOL    HW139584   0.901   3.311  13.665 -1.1177  1.0220 -0.2218
 9375SOL    HW239585   0.749   3.273  13.665  0.0070 -1.1881 -0.2558
 9376SOL     OW39586   1.112   1.918   5.872 -0.6033 -0.9523 -0.2283
 9376SOL    HW139587   1.142   1.836   5.911 -0.9105 -1.3896 -0.9137
 9376SOL    HW239588   1.128   1.975   5.948 -0.0956 -0.0893 -0.9827
 9377SOL     OW39589   2.490   3.985   3.737 -0.2167  0.2238  0.6605
 9377SOL    HW139590   2.549   3.919   3.774 -0.9217  0.1426  1.6393
 9377SOL    HW239591   2.408   3.980   3.786 -1.2046  1.3744 -0.8500
 9378SOL     OW39592   3.047   3.869  15.640  0.1384  0.1503 -0.3346
 9378SOL    HW139593   3.109   3.798  15.655  0.8503  1.2517  2.0330
 9378SOL    HW239594   2.964   3.825  15.657  0.3391  0.7873  2.4627
 9379SOL     OW39595   4.641   1.425  15.912  0.2434  0.0038 -0.3874
 9379SOL    HW139596   4.556   1.418  15.869 -0.2028  2.3758  0.1034
 9379SOL    HW239597   4.641   1.342  15.959 -1.0276  1.0784  1.5286
 9380SOL     OW39598   2.762   0.913   8.639 -0.3025 -0.1189 -0.4206
 9380SOL    HW139599   2.731   0.840   8.586 -1.0536  0.8036 -1.2367
 9380SOL    HW239600   2.829   0.871   8.694 -0.9804  0.3531  0.7605
 9381SOL     OW39601   0.522   4.617   6.767 -0.4081  0.0994 -0.6112
 9381SOL    HW139602   0.484   4.655   6.687  0.0290 -1.8564 -1.7345
 9381SOL    HW239603   0.452   4.556   6.788  0.2030 -0.6105 -0.6569
 9382SOL     OW39604   1.912   4.705  15.969  0.2308  0.5971  0.1461
 9382SOL    HW139605   1.864   4.700  15.886 -0.7429 -3.0019  0.9462
 9382SOL    HW239606   1.967   0.058  15.962  2.1950 -0.7393  0.6613
 9383SOL     OW39607   3.164   0.301   1.264 -0.1496  0.0280 -0.2238
 9383SOL    HW139608   3.144   0.349   1.184 -1.4794 -0.4311 -0.1824
 9383SOL    HW239609   3.244   0.260   1.232  0.9798  0.9356  1.4740
 9384SOL     OW39610   4.546   4.581  16.939  0.0767  0.3366  0.1309
 9384SOL    HW139611   4.504   4.663  16.914 -0.4027 -0.5407 -1.9138
 9384SOL    HW239612   4.479   4.518  16.914  0.2028  0.2346  0.0536
 9385SOL     OW39613   2.488   1.187   2.271  0.5118 -0.0524  0.0429
 9385SOL    HW139614   2.446   1.250   2.213 -2.3322 -0.6489  1.4630
 9385SOL    HW239615   2.577   1.187   2.236  0.6875 -0.9764  0.4725
 9386SOL     OW39616   4.405   2.438   6.960  0.8891  0.3258  0.1014
 9386SOL    HW139617   4.452   2.502   7.014  0.4951  0.3484  0.4177
 9386SOL    HW239618   4.469   2.433   6.890  2.5655 -0.3220  1.6996
 9387SOL     OW39619   3.021   0.430   1.542 -0.4783 -0.1529 -0.2996
 9387SOL    HW139620   2.998   0.471   1.625 -3.3369 -0.6149 -0.8566
 9387SOL    HW239621   3.062   0.349   1.573  0.4976  0.8387  1.0028
 9388SOL     OW39622   4.462   0.088   3.416  0.1501  0.1119  0.1757
 9388SOL    HW139623   4.376   0.069   3.378  0.2180  0.8547 -0.3402
 9388SOL    HW239624   4.530   0.066   3.353  0.0479  0.2402  0.0197
 9389SOL     OW39625   0.531   1.738   1.460 -0.5909  0.3807 -0.3062
 9389SOL    HW139626   0.596   1.668   1.464  0.8707  1.6727 -1.5761
 9389SOL    HW239627   0.585   1.806   1.499 -1.3093 -0.0956  1.4860
 9390SOL     OW39628   3.027   3.094   5.824 -0.1001  0.0833 -0.1766
 9390SOL    HW139629   3.088   3.142   5.880 -1.6427  1.7989  0.0345
 9390SOL    HW239630   3.018   3.147   5.744 -1.9087  1.8907  1.2178
 9391SOL     OW39631   4.056   0.792   6.363 -0.8565 -0.6847 -0.6137
 9391SOL    HW139632   4.110   0.843   6.424  0.2366  1.1501 -3.1500
 9391SOL    HW239633   4.111   0.713   6.364 -1.3698 -0.9870  3.5941
 9392SOL     OW39634   3.414   1.159   2.226  0.2026 -0.0400 -0.0647
 9392SOL    HW139635   3.447   1.126   2.142  1.3179 -2.6581  1.3960
 9392SOL    HW239636   3.339   1.198   2.180  0.5785 -0.4598 -1.0306
 9393SOL     OW39637   0.549   2.158   4.216 -0.2131  0.2789 -0.3315
 9393SOL    HW139638   0.628   2.150   4.270  0.7476  0.2794 -1.7166
 9393SOL    HW239639   0.483   2.200   4.270 -0.4161  0.3788 -0.6600
 9394SOL     OW39640   3.656   1.589   1.596 -0.7605  0.3776  0.2717
 9394SOL    HW139641   3.630   1.645   1.669  1.2191  0.8850  0.5854
 9394SOL    HW239642   3.583   1.613   1.539 -2.0659 -1.7223  1.0396
 9395SOL     OW39643   1.294   2.012   6.938  0.1237  0.2657  0.3157
 9395SOL    HW139644   1.216   1.985   6.988  0.6902 -1.9316  0.0495
 9395SOL    HW239645   1.252   2.053   6.862  0.0543 -0.9305 -0.2963
 9396SOL     OW39646   3.497   2.619  12.218 -0.3885 -0.4828  0.2569
 9396SOL    HW139647   3.493   2.569  12.299 -0.1810 -0.1787  0.4533
 9396SOL    HW239648   3.412   2.594  12.181 -1.3336 -1.1586  2.9207
 9397SOL     OW39649   3.485   4.670  10.950 -0.1977  0.3441 -0.4645
 9397SOL    HW139650   3.512   4.583  10.921  0.0195  0.1573  0.3133
 9397SOL    HW239651   3.394   4.678  10.921  0.1377 -1.8156 -2.1099
 9398SOL     OW39652   3.739   3.544   9.579 -0.1811 -0.1963 -0.1389
 9398SOL    HW139653   3.717   3.598   9.655  0.7796 -0.8036  0.5744
 9398SOL    HW239654   3.833   3.530   9.584 -0.4560 -1.8271  0.4502
 9399SOL     OW39655   3.895   1.450  10.539  0.6590 -0.6313  0.0606
 9399SOL    HW139656   3.820   1.491  10.583  0.3882 -0.2553 -0.7604
 9399SOL    HW239657   3.880   1.357  10.552  2.4973 -0.7658  1.3504
 9400SOL     OW39658   1.287   4.409  17.203  0.0722  0.3235  0.2795
 9400SOL    HW139659   1.282   4.363  17.119  1.0759 -1.3577  1.1457
 9400SOL    HW239660   1.209   4.383  17.251  1.2928 -1.1438  1.4711
 9401SOL     OW39661   0.192   4.101   4.393 -0.3373 -0.1289  0.0243
 9401SOL    HW139662   0.113   4.086   4.340 -0.9434  0.3221  0.8061
 9401SOL    HW239663   0.260   4.065   4.337 -0.0306 -0.5391  0.6685
 9402SOL     OW39664   0.080   0.694   6.942 -0.2976  0.4612  0.4070
 9402SOL    HW139665   0.121   0.702   7.028 -0.0216  1.4542  0.1797
 9402SOL    HW239666   0.112   0.778   6.907 -0.3280  0.7519  1.0887
 9403SOL     OW39667   1.271   2.848   6.626  0.0552 -0.2955 -0.5407
 9403SOL    HW139668   1.325   2.788   6.575  1.8349  0.0359  0.9442
 9403SOL    HW239669   1.201   2.789   6.654 -0.3902 -0.0619 -1.1537
 9404SOL     OW39670   1.561   3.472  17.430 -0.7294  0.3997  0.5678
 9404SOL    HW139671   1.627   3.541  17.435  1.1302 -1.3260  0.0575
 9404SOL    HW239672   1.543   3.469  17.336 -1.0046  1.6798  0.5857
 9405SOL     OW39673   3.852   2.296   1.157  0.2882 -0.3931  0.2675
 9405SOL    HW139674   3.810   2.228   1.104 -1.2258  0.2501  0.6371
 9405SOL    HW239675   3.790   2.369   1.151 -1.2118 -1.5034  2.6471
 9406SOL     OW39676   3.488   4.343   7.930  0.3148 -0.1600  0.4316
 9406SOL    HW139677   3.482   4.404   7.857 -2.5659 -0.4550  0.3979
 9406SOL    HW239678   3.396   4.351   7.956 -0.1624 -0.4160 -1.2130
 9407SOL     OW39679   2.597   1.375  15.549  0.2991  0.1514 -0.4788
 9407SOL    HW139680   2.545   1.327  15.485  1.0659 -1.3177 -0.0011
 9407SOL    HW239681   2.537   1.366  15.623 -2.4519  1.3158 -2.5738
 9408SOL     OW39682   0.004   2.004   0.467  0.2785  0.1260  0.0974
 9408SOL    HW139683   0.084   2.002   0.415 -0.1492 -4.2971 -0.4038
 9408SOL    HW239684   0.011   2.082   0.522 -0.8555  1.2949 -1.3949
 9409SOL     OW39685   1.674   1.799   5.071  1.0214  0.3003 -0.1976
 9409SOL    HW139686   1.581   1.809   5.052  1.1606  1.8149 -0.1405
 9409SOL    HW239687   1.672   1.704   5.077 -0.0123  0.3228 -0.2440
 9410SOL     OW39688   3.532   0.792  10.969 -0.0036  0.4573 -0.2000
 9410SOL    HW139689   3.568   0.778  10.881  2.4180 -2.4610  1.2385
 9410SOL    HW239690   3.441   0.811  10.950 -0.9074 -3.1478  0.4648
 9411SOL     OW39691   2.976   0.238  10.410  0.3077  0.2007  0.1856
 9411SOL    HW139692   3.002   0.258  10.320  0.7189 -1.9115 -0.1699
 9411SOL    HW239693   2.889   0.277  10.399  0.8929  1.2418 -0.8044
 9412SOL     OW39694   1.585   4.102   5.190  0.1196  0.2719  0.3782
 9412SOL    HW139695   1.509   4.145   5.228  0.1536 -1.1065  2.0270
 9412SOL    HW239696   1.585   4.016   5.233  2.3114 -0.2325 -0.6261
 9413SOL     OW39697   2.503   3.695   3.599 -0.4096 -0.1790  0.9869
 9413SOL    HW139698   2.521   3.781   3.561 -0.8631 -0.5477 -0.0905
 9413SOL    HW239699   2.588   3.678   3.639  2.6140  0.5994 -5.0034
 9414SOL     OW39700   2.481   0.350   3.358 -0.4175  0.2029 -0.4570
 9414SOL    HW139701   2.550   0.292   3.326 -1.4125 -0.3059 -1.6589
 9414SOL    HW239702   2.509   0.431   3.316 -0.2806  1.2025  1.5549
 9415SOL     OW39703   3.733   2.679   2.185  0.2385 -0.2349  0.3934
 9415SOL    HW139704   3.647   2.639   2.168  0.0869  0.8735 -1.4361
 9415SOL    HW239705   3.733   2.751   2.123 -2.0818 -0.5332  0.0305
 9416SOL     OW39706   4.033   4.549   8.776  0.0117  0.0379  0.4983
 9416SOL    HW139707   4.128   4.533   8.770 -0.1934 -1.1625  0.3870
 9416SOL    HW239708   3.995   4.461   8.782  0.5117 -0.2168 -0.0120
 9417SOL     OW39709   3.261   1.561   1.955  0.4140  0.0884  0.0121
 9417SOL    HW139710   3.302   1.591   1.874 -0.3710  1.6289  0.1879
 9417SOL    HW239711   3.210   1.634   1.991  1.0490  1.6831 -2.3541
 9418SOL     OW39712   4.634   1.695  10.165 -0.7536 -0.4659  0.1044
 9418SOL    HW139713   4.720   1.716  10.202 -0.2916 -0.7821 -0.8047
 9418SOL    HW239714   4.577   1.731  10.233  1.4211  0.5176  1.3927
 9419SOL     OW39715   4.326   0.327  11.507  0.1164  0.2911 -0.4811
 9419SOL    HW139716   4.251   0.363  11.460 -0.5018  0.8429  0.9194
 9419SOL    HW239717   4.279   0.299  11.586 -0.9373 -1.5064 -1.7594
 9420SOL     OW39718   2.838   1.444   7.006  0.3090 -0.2067  0.7230
 9420SOL    HW139719   2.795   1.529   7.014 -2.0720 -1.4510  1.1235
 9420SOL    HW239720   2.878   1.461   6.921  0.9319 -0.7559  0.9100
 9421SOL     OW39721   2.925   3.913   9.704 -0.3660  0.2510  0.1246
 9421SOL    HW139722   2.947   3.869   9.622  1.7592  1.7390 -0.0942
 9421SOL    HW239723   3.006   3.953   9.735 -0.4360 -0.4128  1.1660
 9422SOL     OW39724   4.180   1.610  10.428  0.8855 -0.8682 -0.4830
 9422SOL    HW139725   4.145   1.693  10.460  1.3189 -0.5159 -0.9148
 9422SOL    HW239726   4.246   1.597  10.496  0.5944 -0.1715 -0.0729
 9423SOL     OW39727   0.312   3.023   7.501  0.3815 -0.0695  0.1351
 9423SOL    HW139728   0.329   2.977   7.583 -0.7829 -1.0412 -0.1636
 9423SOL    HW239729   0.217   3.033   7.510  0.2942 -0.1863 -0.6758
 9424SOL     OW39730   3.474   4.347   2.663 -0.1858 -0.2821  0.4717
 9424SOL    HW139731   3.380   4.356   2.647  0.1685 -0.7354 -1.8127
 9424SOL    HW239732   3.468   4.319   2.754  1.2828  0.1090  0.6953
 9425SOL     OW39733   3.648   2.321   6.678 -0.3177 -0.3303  0.4017
 9425SOL    HW139734   3.705   2.296   6.605 -2.5323 -1.1458 -1.0446
 9425SOL    HW239735   3.567   2.331   6.629  1.0621  1.9899 -1.4188
 9426SOL     OW39736   0.597   1.207   8.683 -0.9625 -0.0121  0.1692
 9426SOL    HW139737   0.688   1.229   8.667 -0.9971 -0.1135 -0.1730
 9426SOL    HW239738   0.550   1.279   8.642 -2.2756 -0.6126  0.6114
 9427SOL     OW39739   2.915   4.153  13.803  0.6198  0.4184 -0.0639
 9427SOL    HW139740   2.992   4.140  13.858 -0.1962 -0.5551  0.8696
 9427SOL    HW239741   2.884   4.062  13.794  0.4953  0.3661  0.8931
 9428SOL     OW39742   0.758   0.046   5.991  0.0011  0.4561  0.2107
 9428SOL    HW139743   0.719   0.004   5.914 -0.2153 -0.5893  0.8781
 9428SOL    HW239744   0.839   4.720   5.995  0.0704  0.6551  1.3227
 9429SOL     OW39745   2.816   1.966   2.921 -0.0409  0.3004  0.2330
 9429SOL    HW139746   2.736   1.913   2.913 -1.1359  2.0398 -0.2826
 9429SOL    HW239747   2.884   1.907   2.955 -0.5916 -0.8365 -0.6436
 9430SOL     OW39748   1.249   0.153   3.057 -0.2676 -0.1262 -0.7546
 9430SOL    HW139749   1.314   0.204   3.106 -0.5173  0.4844 -1.0538
 9430SOL    HW239750   1.295   0.069   3.053 -0.2875  0.0072 -3.7656
 9431SOL     OW39751   0.499   0.879  16.007 -0.4422 -0.3788  0.2315
 9431SOL    HW139752   0.478   0.899  15.916  0.7671  0.2165  0.0857
 9431SOL    HW239753   0.417   0.831  16.022  0.0919 -1.0101  1.1175
 9432SOL     OW39754   2.514   2.586   8.835  0.3192 -0.3043  0.1569
 9432SOL    HW139755   2.423   2.556   8.829 -0.2893  1.2292  1.5447
 9432SOL    HW239756   2.493   2.614   8.924  0.5462 -3.1876  1.0874
 9433SOL     OW39757   3.794   1.839   9.970  0.0810  0.0502 -0.6537
 9433SOL    HW139758   3.745   1.858   9.889 -0.1995 -1.0489 -0.7442
 9433SOL    HW239759   3.735   1.777  10.014 -0.4948  1.0280 -0.0477
 9434SOL     OW39760   3.375   1.840  15.538 -0.1923  0.2354 -0.1046
 9434SOL    HW139761   3.372   1.908  15.606  1.6921 -0.6912  0.9209
 9434SOL    HW239762   3.450   1.788  15.569 -0.0438 -0.0950 -1.0163
 9435SOL     OW39763   3.840   0.471   6.857  0.6995 -0.8320 -0.7073
 9435SOL    HW139764   3.824   0.389   6.811  0.2032 -1.6711  0.9288
 9435SOL    HW239765   3.920   0.448   6.904  1.3561  0.2035 -1.3379
 9436SOL     OW39766   3.153   0.362   2.120 -0.2823 -0.1770 -0.7665
 9436SOL    HW139767   3.188   0.391   2.036  1.7441  0.2729  0.2542
 9436SOL    HW239768   3.069   0.408   2.118 -0.1479  0.0340 -1.8113
 9437SOL     OW39769   2.873   0.512   3.574  0.0481 -0.3008 -0.5369
 9437SOL    HW139770   2.906   0.602   3.577 -0.1435 -0.2385 -0.1983
 9437SOL    HW239771   2.921   0.478   3.499  0.8654 -0.3569  0.0120
 9438SOL     OW39772   1.063   4.351   6.113  0.1407  0.1310 -0.3099
 9438SOL    HW139773   1.078   4.444   6.131  1.4878 -0.5066  1.8216
 9438SOL    HW239774   1.125   4.305   6.170 -0.0620 -0.5185 -0.6192
 9439SOL     OW39775   2.232   3.604   1.085 -0.2257  0.6408 -0.3819
 9439SOL    HW139776   2.152   3.623   1.035 -1.1641  0.7028  1.1425
 9439SOL    HW239777   2.179   3.597   1.165  1.4506 -1.2548  0.5546
 9440SOL     OW39778   1.280   3.337   3.370  0.4160 -0.0571 -0.4491
 9440SOL    HW139779   1.289   3.337   3.274 -1.3958  1.4706 -0.6168
 9440SOL    HW239780   1.192   3.374   3.382  0.3160 -1.1163  1.9747
 9441SOL     OW39781   2.236   0.490   3.412 -0.1959 -0.0996  0.5388
 9441SOL    HW139782   2.160   0.432   3.401  1.9375 -3.0095  1.4107
 9441SOL    HW239783   2.297   0.446   3.352 -0.3658 -0.7458  0.8417
 9442SOL     OW39784   1.669   3.422  14.360 -0.4929 -0.0327 -0.4321
 9442SOL    HW139785   1.762   3.433  14.340 -0.0659 -1.2469  0.9110
 9442SOL    HW239786   1.663   3.393  14.451 -0.5459 -2.2215 -1.1226
 9443SOL     OW39787   2.028   1.801   5.036 -0.2058 -0.2162 -0.3742
 9443SOL    HW139788   2.028   1.708   5.059  0.4333 -0.2881 -0.6621
 9443SOL    HW239789   2.088   1.799   4.962  1.5051  1.2793  0.9608
 9444SOL     OW39790   2.824   0.540   2.493 -0.7098  0.4746  0.3563
 9444SOL    HW139791   2.736   0.550   2.459 -1.6335 -2.3212  1.9591
 9444SOL    HW239792   2.839   0.446   2.498  0.4524  0.6363  0.1492
 9445SOL     OW39793   1.756   2.999   3.843 -0.4052  0.5882  0.0320
 9445SOL    HW139794   1.754   3.081   3.892 -1.0470  0.6293 -0.0594
 9445SOL    HW239795   1.686   2.996   3.777  0.2632  2.9593 -0.7876
 9446SOL     OW39796   4.587   2.130  12.049  0.4061  0.3236  0.1917
 9446SOL    HW139797   4.497   2.107  12.074 -0.1941 -0.0460 -2.3445
 9446SOL    HW239798   4.627   2.108  12.134  0.4037 -0.3074  0.0322
 9447SOL     OW39799   3.321   1.893   6.049  0.0504 -0.3675 -0.3991
 9447SOL    HW139800   3.258   1.915   6.118  1.3689 -1.6752  1.2146
 9447SOL    HW239801   3.282   1.822   5.997 -1.9218  0.3833  0.0256
 9448SOL     OW39802   0.400   0.694   2.335  0.4838  0.0263  0.7438
 9448SOL    HW139803   0.430   0.781   2.359  0.7313  0.3575 -0.7470
 9448SOL    HW239804   0.426   0.642   2.410 -0.3020 -2.2834 -0.5785
 9449SOL     OW39805   1.282   0.249   7.178  0.1026 -0.0899  0.1628
 9449SOL    HW139806   1.372   0.281   7.172  0.2681 -0.9022 -1.7292
 9449SOL    HW239807   1.230   0.316   7.132  0.1282  1.0712  1.8282
 9450SOL     OW39808   1.105   0.491  16.899 -0.6798  0.5192 -0.4013
 9450SOL    HW139809   1.030   0.547  16.916 -0.4033  0.7472  0.0447
 9450SOL    HW239810   1.090   0.424  16.966 -0.8674  2.9586  1.9819
 9451SOL     OW39811   2.187   0.373   3.114 -0.4588 -0.2527  0.2408
 9451SOL    HW139812   2.202   0.455   3.066  1.5362 -1.5384 -1.3114
 9451SOL    HW239813   2.100   0.398   3.146 -0.3296  0.8464 -0.2753
 9452SOL     OW39814   1.215   1.013   1.703 -0.2696  0.4911  0.2329
 9452SOL    HW139815   1.189   1.061   1.781 -0.7108  1.9465 -0.8275
 9452SOL    HW239816   1.132   0.970   1.682  0.4948 -0.1120 -1.5112
 9453SOL     OW39817   2.533   4.661   4.730  0.1683 -0.2205  0.4805
 9453SOL    HW139818   2.501   0.002   4.669  3.1122  0.7230 -0.0676
 9453SOL    HW239819   2.462   4.623   4.781  2.8537 -1.0546  3.6071
 9454SOL     OW39820   3.922   2.948  12.213  0.1117 -0.5947  0.2641
 9454SOL    HW139821   3.844   2.899  12.239 -0.3180 -1.0359 -1.9287
 9454SOL    HW239822   3.958   2.889  12.147 -1.0115 -0.1459 -0.7509
 9455SOL     OW39823   0.143   2.592  16.217  0.8482  0.0472 -0.6680
 9455SOL    HW139824   0.090   2.583  16.296 -0.8432  0.0267 -1.8078
 9455SOL    HW239825   0.191   2.672  16.239  1.1796  0.2167 -1.9769
 9456SOL     OW39826   0.336   0.379   6.430  0.0723 -0.0072 -0.0003
 9456SOL    HW139827   0.363   0.349   6.344  0.3451  0.4701 -0.0774
 9456SOL    HW239828   0.410   0.421   6.474 -1.6176  0.1447  2.7421
 9457SOL     OW39829   2.489   0.588  14.581  0.0165 -0.0638  0.9410
 9457SOL    HW139830   2.528   0.600  14.494  1.9961 -2.2062  1.5181
 9457SOL    HW239831   2.494   0.676  14.617  1.3196  0.6829 -1.0569
 9458SOL     OW39832   0.475   1.872   5.419  0.4332 -0.6152 -0.5618
 9458SOL    HW139833   0.447   1.809   5.485  0.2403  0.9584  0.8621
 9458SOL    HW239834   0.532   1.929   5.471 -1.0447 -1.7314  2.2353
 9459SOL     OW39835   1.873   4.136   9.248  0.3847 -0.1773 -0.3732
 9459SOL    HW139836   1.960   4.138   9.209 -0.4384 -0.8284 -2.2204
 9459SOL    HW239837   1.826   4.171   9.172 -1.5518  0.8147  1.2633
 9460SOL     OW39838   0.573   3.944   4.264  0.1466 -0.2649 -0.1171
 9460SOL    HW139839   0.488   3.953   4.220 -0.0806 -1.9635 -0.0224
 9460SOL    HW239840   0.570   3.994   4.345  1.9271  0.6465 -0.6174
 9461SOL     OW39841   0.207   4.286  12.709 -0.1966  0.7800 -0.1843
 9461SOL    HW139842   0.266   4.236  12.653 -0.7146 -0.9337  0.7914
 9461SOL    HW239843   0.253   4.370  12.720 -2.7353  1.9572  1.3711
 9462SOL     OW39844   1.943   1.164   5.322 -0.1125  0.6484 -0.5039
 9462SOL    HW139845   2.039   1.157   5.327 -0.0309  2.5650  0.9199
 9462SOL    HW239846   1.938   1.071   5.301  2.8414  0.5935 -1.0309
 9463SOL     OW39847   2.119   2.786   8.947  0.2265 -0.5407  0.0794
 9463SOL    HW139848   2.076   2.720   9.002 -0.4017 -0.2753 -0.0889
 9463SOL    HW239849   2.137   2.859   9.007  0.5358 -0.6940  0.1735
 9464SOL     OW39850   2.893   1.095   4.956  0.4947 -0.1079  0.5430
 9464SOL    HW139851   2.889   1.127   5.046 -0.5990 -1.5267  0.9905
 9464SOL    HW239852   2.802   1.099   4.927  0.2972 -0.0965  1.1805
 9465SOL     OW39853   1.681   0.992   1.189  0.1732  0.4119 -0.0442
 9465SOL    HW139854   1.752   0.928   1.195 -0.5220 -0.3642 -0.2148
 9465SOL    HW239855   1.606   0.934   1.182  0.5121 -0.0429  0.0815
 9466SOL     OW39856   3.940   0.201   7.279 -0.3481 -0.3674 -0.3797
 9466SOL    HW139857   4.024   0.217   7.236  0.7480 -0.3310  1.7409
 9466SOL    HW239858   3.918   0.114   7.245 -0.1346 -0.0574 -1.3045
 9467SOL     OW39859   3.587   0.915   8.876 -0.0190  0.4268  0.4409
 9467SOL    HW139860   3.497   0.948   8.869  0.5495  1.5297 -1.7276
 9467SOL    HW239861   3.613   0.963   8.798  0.6684  0.6810  0.8185
 9468SOL     OW39862   3.473   0.023   0.130 -0.1314 -0.2185 -0.1997
 9468SOL    HW139863   3.475   4.715   0.220 -0.0189 -2.5367 -1.0354
 9468SOL    HW239864   3.430   4.674   0.086  1.6867 -1.1922 -0.3138
 9469SOL     OW39865   2.889   2.357   6.100  0.2603 -0.0175  0.1817
 9469SOL    HW139866   2.814   2.315   6.056 -0.8274  1.7422  0.3434
 9469SOL    HW239867   2.871   2.311   6.182 -1.9152  0.5409  0.0186
 9470SOL     OW39868   3.697   2.492   9.452 -0.0014 -0.6951  0.3376
 9470SOL    HW139869   3.699   2.422   9.518  0.6285  2.5415  3.7245
 9470SOL    HW239870   3.709   2.570   9.505  2.2156 -0.3076 -0.7091
 9471SOL     OW39871   1.898   1.395  12.061  0.6150 -0.0043  0.0439
 9471SOL    HW139872   1.960   1.346  12.006 -1.2057 -1.7259 -0.4616
 9471SOL    HW239873   1.848   1.332  12.112 -1.5454  2.6445  1.1631
 9472SOL     OW39874   4.433   2.107   3.674  0.7029  0.6470  0.0782
 9472SOL    HW139875   4.354   2.105   3.728  0.8976  1.3921  0.3880
 9472SOL    HW239876   4.503   2.077   3.732  0.3218 -0.4779 -0.0517
 9473SOL     OW39877   0.237   1.035  15.562 -0.5789 -0.0504  0.8685
 9473SOL    HW139878   0.259   1.127  15.547 -0.8686 -0.0982  0.1293
 9473SOL    HW239879   0.276   0.994  15.485 -1.3883 -1.4192  1.1836
 9474SOL     OW39880   1.988   2.636  13.642  0.6762 -0.2220  0.5803
 9474SOL    HW139881   1.927   2.689  13.590  0.5795  0.8505  1.8055
 9474SOL    HW239882   2.050   2.704  13.667  1.7334 -1.2375  0.7449
 9475SOL     OW39883   3.434   0.095   4.101 -0.0338  0.2270  0.1647
 9475SOL    HW139884   3.442   0.188   4.124 -1.1370 -0.1381  2.0810
 9475SOL    HW239885   3.379   0.098   4.023  1.8134  0.9844 -1.1183
 9476SOL     OW39886   2.439   0.825   8.697  0.1315  0.4108 -0.1620
 9476SOL    HW139887   2.467   0.861   8.781  2.1694 -1.2729 -0.0980
 9476SOL    HW239888   2.477   0.738   8.708  0.6707  0.7463  0.6714
 9477SOL     OW39889   1.505   3.535  15.356 -0.2337 -0.0655  0.2305
 9477SOL    HW139890   1.532   3.444  15.369  1.5352  0.7461  2.2402
 9477SOL    HW239891   1.588   3.562  15.317 -0.1856 -0.1608  0.2681
 9478SOL     OW39892   3.378   2.309   5.081 -0.0237  0.1243  0.5814
 9478SOL    HW139893   3.458   2.256   5.076  1.4730  2.3200  1.5576
 9478SOL    HW239894   3.304   2.255   5.052  0.6134  0.6683 -2.0426
 9479SOL     OW39895   4.598   3.229   4.674 -0.4147  0.7208 -0.2016
 9479SOL    HW139896   4.563   3.283   4.744 -1.6625 -1.5252  0.9289
 9479SOL    HW239897   4.690   3.233   4.702  0.2255 -1.2633 -1.9566
 9480SOL     OW39898   1.892   3.540   3.440  0.2617 -0.1253 -0.2463
 9480SOL    HW139899   1.962   3.524   3.378 -0.1394  3.9226 -1.7463
 9480SOL    HW239900   1.819   3.512   3.384  1.8518  0.2458 -2.5000
 9481SOL     OW39901   2.849   1.157   2.221 -0.8614 -0.3488  0.6346
 9481SOL    HW139902   2.785   1.226   2.201 -0.2270  0.5355  1.6858
 9481SOL    HW239903   2.815   1.106   2.294  0.3439 -1.3195  0.5251
 9482SOL     OW39904   2.071   3.454   2.719 -0.0289  0.3959 -0.1746
 9482SOL    HW139905   2.065   3.509   2.641  1.6672  1.0269  0.1352
 9482SOL    HW239906   2.020   3.378   2.690  1.5755 -1.0285  0.7410
 9483SOL     OW39907   1.499   3.395  12.924 -0.0245 -1.0559  0.1071
 9483SOL    HW139908   1.412   3.358  12.941 -0.9156  0.6206 -0.7699
 9483SOL    HW239909   1.511   3.433  13.010 -0.4214 -1.0392  0.1569
 9484SOL     OW39910   1.321   2.076   8.173 -0.3444 -0.3724 -0.4930
 9484SOL    HW139911   1.410   2.086   8.141 -0.1893  0.3806  0.1678
 9484SOL    HW239912   1.341   2.071   8.267 -2.4281  0.8691  0.0322
 9485SOL     OW39913   3.833   0.714  13.426 -0.2793  0.8766  0.2499
 9485SOL    HW139914   3.750   0.762  13.434 -0.6835  0.2005  0.1105
 9485SOL    HW239915   3.863   0.744  13.512 -0.9672  0.6040  0.5871
 9486SOL     OW39916   0.392   1.483   9.917 -0.1700  0.1947 -0.5930
 9486SOL    HW139917   0.347   1.409   9.877  1.1716 -1.6534  1.3369
 9486SOL    HW239918   0.445   1.506   9.841  0.1025 -0.6123 -0.6417
 9487SOL     OW39919   1.538   0.083   7.668 -0.0808 -0.4778  0.0618
 9487SOL    HW139920   1.506   0.042   7.589  1.1852  0.8116 -1.1200
 9487SOL    HW239921   1.468   0.132   7.711 -0.1674 -1.5760  1.1722
 9488SOL     OW39922   4.063   1.076  10.135  0.1195 -0.0740 -0.4600
 9488SOL    HW139923   4.102   1.000  10.179  1.3437  0.8802  0.0935
 9488SOL    HW239924   4.053   1.147  10.199 -1.3159  1.2330 -2.1435
 9489SOL     OW39925   1.205   1.084  17.297  0.6470  0.0350 -0.3259
 9489SOL    HW139926   1.143   1.141  17.251 -0.0758 -0.5368 -0.0661
 9489SOL    HW239927   1.273   1.151  17.306  0.6257 -0.1616  1.4358
 9490SOL     OW39928   2.197   3.273   0.195 -0.1455  0.3726 -0.4028
 9490SOL    HW139929   2.219   3.216   0.269 -0.6844 -0.5872 -0.9888
 9490SOL    HW239930   2.279   3.267   0.146  0.2498 -0.4356  0.3354
 9491SOL     OW39931   3.573   3.767  11.676 -0.5479 -0.1702  0.1870
 9491SOL    HW139932   3.530   3.716  11.607 -2.0479 -0.9868  1.7282
 9491SOL    HW239933   3.536   3.743  11.761  0.1861 -1.1254  0.2342
 9492SOL     OW39934   1.543   2.270   8.498  0.3965 -0.2166  0.0983
 9492SOL    HW139935   1.500   2.339   8.448 -0.6835 -1.0661 -0.1633
 9492SOL    HW239936   1.628   2.310   8.514  1.0542 -1.7504  0.3981
 9493SOL     OW39937   4.464   0.842   2.931  0.0357 -0.2323 -0.3856
 9493SOL    HW139938   4.378   0.869   2.901  1.3674  3.9804 -0.4044
 9493SOL    HW239939   4.445   0.750   2.951  0.4512  0.3835  2.7523
 9494SOL     OW39940   2.220   2.735  11.388  0.7148  0.1450  0.5813
 9494SOL    HW139941   2.141   2.788  11.383  0.2808 -0.5082  0.4935
 9494SOL    HW239942   2.264   2.790  11.452  1.2494  0.4116 -0.0186
 9495SOL     OW39943   2.458   3.560   3.892  0.0839  0.2390 -0.2247
 9495SOL    HW139944   2.379   3.559   3.838  0.6162 -0.0009 -0.9871
 9495SOL    HW239945   2.502   3.482   3.860  2.5141  1.8895 -0.9064
 9496SOL     OW39946   0.531   1.950   3.165 -0.0516 -0.0628  0.0362
 9496SOL    HW139947   0.610   1.912   3.127 -1.2027 -1.4641 -0.9712
 9496SOL    HW239948   0.518   2.023   3.104 -1.9904  0.1902  0.7552
 9497SOL     OW39949   1.416   1.573   7.671 -0.5710  0.2281  0.3413
 9497SOL    HW139950   1.424   1.594   7.764 -1.3718 -0.9495  0.6685
 9497SOL    HW239951   1.431   1.660   7.633 -0.8344  0.1475  0.0474
 9498SOL     OW39952   4.060   2.880  11.929 -0.1267  0.5330  0.3258
 9498SOL    HW139953   4.022   2.817  11.867  1.1070  0.1600 -0.0589
 9498SOL    HW239954   4.154   2.862  11.925  0.2594  2.5717  0.2064
 9499SOL     OW39955   2.494   0.214   5.159  0.3656  0.0903  0.3215
 9499SOL    HW139956   2.544   0.286   5.198  1.3812 -1.5109  1.9813
 9499SOL    HW239957   2.553   0.152   5.118  0.8466  0.1423  0.9321
 9500SOL     OW39958   2.146   1.304  17.299  0.0159  0.3685 -0.0032
 9500SOL    HW139959   2.110   1.258  17.223 -2.1165  1.0310  0.6085
 9500SOL    HW239960   2.084   1.277  17.367 -2.5326  2.3689 -1.5238
 9501SOL     OW39961   4.009   0.495   3.096 -0.0825 -0.5844 -0.2337
 9501SOL    HW139962   4.010   0.550   3.018 -2.8861 -0.7465 -0.3832
 9501SOL    HW239963   4.090   0.536   3.126 -0.1018 -0.8560  0.1804
 9502SOL     OW39964   3.490   2.046   8.595 -0.4899 -0.3058 -0.3436
 9502SOL    HW139965   3.463   1.965   8.639 -3.0070  1.3023  1.0222
 9502SOL    HW239966   3.559   2.082   8.650  1.1254 -0.4336 -2.2853
 9503SOL     OW39967   2.892   2.749  15.652  0.8144  0.2526  0.3080
 9503SOL    HW139968   2.826   2.784  15.592 -1.2961 -1.6357  1.5340
 9503SOL    HW239969   2.829   2.704  15.709 -0.4001 -0.5247 -1.6532
 9504SOL     OW39970   3.692   0.831  16.505 -0.0611 -0.2468  0.6028
 9504SOL    HW139971   3.667   0.887  16.432  2.8458  0.2476 -0.0065
 9504SOL    HW239972   3.779   0.810  16.471 -0.1624 -1.1330  0.8831
 9505SOL     OW39973   3.192   0.844   9.080  0.6638 -0.4604  0.6738
 9505SOL    HW139974   3.245   0.920   9.101  2.7096 -1.5590 -0.5128
 9505SOL    HW239975   3.107   0.889   9.080  0.4278 -0.8894  1.7341
 9506SOL     OW39976   2.809   4.587   9.159  0.4134  0.3026 -0.4698
 9506SOL    HW139977   2.832   4.532   9.235 -0.1141 -1.3555 -1.5056
 9506SOL    HW239978   2.843   4.674   9.177  2.5489 -0.1348 -2.3392
 9507SOL     OW39979   0.369   1.462  13.950  0.0512 -0.0803  0.2233
 9507SOL    HW139980   0.451   1.484  13.906  1.0076  1.3498  2.7043
 9507SOL    HW239981   0.316   1.530  13.908 -1.5179 -1.2215  0.3606
 9508SOL     OW39982   3.920   1.888   5.154 -0.0016 -0.5051 -0.0521
 9508SOL    HW139983   3.894   1.820   5.092 -0.3764 -0.2971 -0.1185
 9508SOL    HW239984   3.985   1.937   5.104 -0.2250  0.8049  0.9449
 9509SOL     OW39985   0.988   1.674   1.360 -0.5294 -0.0586 -0.0788
 9509SOL    HW139986   1.056   1.610   1.381  1.8632  2.2329 -0.7511
 9509SOL    HW239987   0.919   1.671   1.426  1.4617 -2.2717  1.9043
 9510SOL     OW39988   2.550   3.325   4.353 -0.1731 -0.1319 -0.0851
 9510SOL    HW139989   2.488   3.252   4.359 -0.2326  0.0692  1.7507
 9510SOL    HW239990   2.633   3.280   4.339 -0.5295 -0.9713  0.4660
 9511SOL     OW39991   1.027   3.544  13.450 -0.1112  0.0592 -0.2154
 9511SOL    HW139992   1.063   3.615  13.397 -0.2038  1.0914  1.1066
 9511SOL    HW239993   1.014   3.581  13.537 -1.5579  1.0003 -0.8355
 9512SOL     OW39994   1.157   0.823   4.331 -0.1657  0.0656  0.2121
 9512SOL    HW139995   1.233   0.767   4.346 -0.2446 -0.8831 -2.7317
 9512SOL    HW239996   1.112   0.838   4.414  0.1625  1.5241  0.1224
 9513SOL     OW39997   3.803   4.003   4.748  0.4605 -0.0988 -0.7542
 9513SOL    HW139998   3.751   3.973   4.823 -0.1918  1.4593 -0.5668
 9513SOL    HW239999   3.752   3.974   4.672  0.7291 -3.3260  0.3032
 9514SOL     OW40000   4.332   0.078   9.058  0.1171 -0.1674 -0.7213
 9514SOL    HW140001   4.313   0.094   8.965 -0.0869 -1.1107 -0.8353
 9514SOL    HW240002   4.303   4.712   9.062  0.7601 -0.3854 -0.9123
 9515SOL     OW40003   2.576   4.359  13.994  0.0444 -0.4147 -0.5579
 9515SOL    HW140004   2.664   4.397  13.995  0.3798 -1.2856  4.2673
 9515SOL    HW240005   2.524   4.440  14.001  3.1503  1.4606  1.0363
 9516SOL     OW40006   2.360   0.724  11.630  0.1198  0.2188 -0.0292
 9516SOL    HW140007   2.377   0.765  11.715  1.5279  0.4540 -0.4320
 9516SOL    HW240008   2.439   0.745  11.582  0.4046  1.9709  1.1917
 9517SOL     OW40009   4.650   4.270   4.013 -0.0482 -0.3508  0.9113
 9517SOL    HW140010   4.697   4.258   3.931 -0.3928  2.5687  0.2532
 9517SOL    HW240011   4.639   4.184   4.052  0.3236 -0.9207 -0.2322
 9518SOL     OW40012   2.007   0.078   7.531  0.1035 -0.0152 -0.2764
 9518SOL    HW140013   2.090   0.104   7.573  1.6622  1.0535 -3.9632
 9518SOL    HW240014   1.951   0.151   7.554 -0.1242 -0.3773  0.3075
 9519SOL     OW40015   3.770   1.219   7.342 -0.0323 -0.3739 -0.6041
 9519SOL    HW140016   3.848   1.227   7.396  0.1858 -1.7058 -0.7257
 9519SOL    HW240017   3.710   1.173   7.401  0.8022  1.1363  1.4497
 9520SOL     OW40018   1.222   2.728   3.731 -0.3661  0.1413 -0.0511
 9520SOL    HW140019   1.298   2.670   3.725  0.9729  1.7943  0.7410
 9520SOL    HW240020   1.263   2.801   3.778 -1.2801  1.3114 -1.0421
 9521SOL     OW40021   3.653   2.702   7.070  0.7049 -0.0814  0.3046
 9521SOL    HW140022   3.568   2.690   7.113  1.8187  1.7426  3.0068
 9521SOL    HW240023   3.627   2.689   6.979  1.4291  1.3890 -0.1092
 9522SOL     OW40024   0.805   4.198   0.007  0.3349  0.0835  0.1886
 9522SOL    HW140025   0.825   4.281  17.665  1.0817 -0.2150 -0.0360
 9522SOL    HW240026   0.731   4.166  17.658  0.3103  2.1142 -1.0453
 9523SOL     OW40027   3.242   1.727  10.726  0.7762 -0.0852 -0.3637
 9523SOL    HW140028   3.192   1.749  10.805  0.6649 -1.4011 -0.0675
 9523SOL    HW240029   3.175   1.731  10.658  0.2911 -0.2168  0.1001
 9524SOL     OW40030   2.181   1.347   6.044 -0.4697 -0.2560  0.9066
 9524SOL    HW140031   2.260   1.315   6.088 -0.2563  0.0516  0.7453
 9524SOL    HW240032   2.174   1.276   5.981  0.5413  0.1547  0.3355
 9525SOL     OW40033   4.003   3.277   3.935 -0.2943 -0.2243  0.2150
 9525SOL    HW140034   3.996   3.308   3.845 -2.4307 -0.0061  0.4462
 9525SOL    HW240035   3.981   3.184   3.927 -1.4859  0.0865 -0.0915
 9526SOL     OW40036   3.454   2.136   3.181 -0.4190 -0.2251  0.4101
 9526SOL    HW140037   3.384   2.201   3.189 -0.4913 -0.2412 -0.0604
 9526SOL    HW240038   3.524   2.194   3.152 -0.7436  0.9984  2.0972
 9527SOL     OW40039   2.230   4.021   3.871 -0.5100  0.2932  0.6991
 9527SOL    HW140040   2.169   3.990   3.805  1.2133 -0.7032 -0.4421
 9527SOL    HW240041   2.195   3.977   3.948  0.8708 -0.5095  0.8801
 9528SOL     OW40042   2.045   3.914   2.286 -1.0566 -0.0782  0.1521
 9528SOL    HW140043   2.123   3.861   2.303 -1.3272 -1.1261 -1.8757
 9528SOL    HW240044   2.064   3.985   2.347 -0.3224 -0.7306  0.6790
 9529SOL     OW40045   0.775   3.887  16.929 -0.1018 -0.6378  0.2144
 9529SOL    HW140046   0.712   3.881  17.001  1.6397  0.6577  1.8399
 9529SOL    HW240047   0.821   3.806  16.949  1.0560  0.3296  1.5383
 9530SOL     OW40048   2.947   2.211   3.035  0.9773 -0.2486  0.1663
 9530SOL    HW140049   2.943   2.121   3.005  0.6617 -0.9867  2.4444
 9530SOL    HW240050   2.927   2.197   3.127 -0.0416  0.1132 -0.0024
 9531SOL     OW40051   0.232   1.363   9.260 -0.5555  0.4758  0.7815
 9531SOL    HW140052   0.292   1.398   9.193 -0.0660 -0.4303  0.7443
 9531SOL    HW240053   0.205   1.278   9.226 -1.2468  0.9379  0.1885
 9532SOL     OW40054   2.939   2.817   4.448  0.0697  0.2884 -0.3533
 9532SOL    HW140055   2.951   2.911   4.433 -1.5611  0.5931  0.2234
 9532SOL    HW240056   2.859   2.796   4.399  0.7445  0.9747 -1.7281
 9533SOL     OW40057   1.721   4.378   6.466  0.0133 -0.6723 -0.1922
 9533SOL    HW140058   1.788   4.378   6.397  0.4933  2.0201  0.2679
 9533SOL    HW240059   1.773   4.334   6.533  2.7966 -0.6355 -2.3227
 9534SOL     OW40060   4.377   0.903  17.321  0.3050 -0.2633 -0.1327
 9534SOL    HW140061   4.287   0.930  17.303 -0.5111 -1.6923  1.8553
 9534SOL    HW240062   4.362   0.825  17.374 -0.0612 -0.9900 -1.3074
 9535SOL     OW40063   3.616   2.706   6.230 -0.3325  0.2705  0.7354
 9535SOL    HW140064   3.665   2.628   6.255  0.1557  0.4360  0.3084
 9535SOL    HW240065   3.529   2.668   6.225  1.0564 -2.6370 -1.0796
 9536SOL     OW40066   1.643   0.023  16.872 -0.3303 -0.0385  0.3040
 9536SOL    HW140067   1.594   0.103  16.850 -2.7468 -1.5220  0.2832
 9536SOL    HW240068   1.725   0.066  16.847 -0.6988  0.4034 -0.1287
 9537SOL     OW40069   0.851   1.364  14.464 -0.3027 -0.6830 -0.3408
 9537SOL    HW140070   0.866   1.325  14.378  0.5087  2.9651 -1.8756
 9537SOL    HW240071   0.769   1.410  14.442 -0.4460 -0.4143  0.7681
 9538SOL     OW40072   1.726   1.400   9.647  0.1618 -0.3374 -0.5389
 9538SOL    HW140073   1.768   1.329   9.598  0.8801 -0.8129  0.7818
 9538SOL    HW240074   1.731   1.359   9.733 -0.6143 -0.2577 -0.4535
 9539SOL     OW40075   1.967   0.438   3.884  0.1995 -0.1423 -0.2794
 9539SOL    HW140076   1.948   0.502   3.816 -1.4682 -0.6962 -0.3251
 9539SOL    HW240077   1.957   0.355   3.837  1.4032  0.4359 -1.5448
 9540SOL     OW40078   0.825   1.883   1.234  0.2992  0.1045 -1.2558
 9540SOL    HW140079   0.872   1.800   1.243  0.6748  0.3665 -0.8178
 9540SOL    HW240080   0.861   1.930   1.159  0.9154  0.0784 -0.9769
 9541SOL     OW40081   4.493   1.330   4.883 -0.0139 -0.0214 -0.1461
 9541SOL    HW140082   4.573   1.340   4.833 -0.8799  3.3492 -0.8374
 9541SOL    HW240083   4.520   1.342   4.974 -0.5589 -0.1368  0.0332
 9542SOL     OW40084   1.647   2.559   6.869 -0.0061 -0.6495 -0.0210
 9542SOL    HW140085   1.587   2.605   6.927  2.3916  1.6892  0.5862
 9542SOL    HW240086   1.590   2.486   6.845 -1.8462  0.0462  2.2196
 9543SOL     OW40087   2.720   1.294  12.123 -0.0719  0.6503 -0.3285
 9543SOL    HW140088   2.803   1.305  12.077  1.2967 -0.2823  1.9009
 9543SOL    HW240089   2.699   1.385  12.143  0.2840  0.3895  1.3046
 9544SOL     OW40090   1.634   1.356  17.267 -0.4620  0.2137 -0.2144
 9544SOL    HW140091   1.680   1.416  17.325 -1.8521  1.9760 -0.9216
 9544SOL    HW240092   1.548   1.341  17.306  0.4853 -3.1730  0.4913
 9545SOL     OW40093   4.629   2.566   7.158 -0.4008  0.3700 -0.0524
 9545SOL    HW140094   4.667   2.651   7.183  1.0134 -0.6670  1.3324
 9545SOL    HW240095   4.564   2.555   7.227 -0.9939  0.9708 -0.5180
 9546SOL     OW40096   0.638   0.476  14.896  0.9066  0.4078  0.0726
 9546SOL    HW140097   0.720   0.475  14.846  0.4015 -0.3589 -0.7524
 9546SOL    HW240098   0.576   0.479  14.823 -0.6297  0.9731  1.4173
 9547SOL     OW40099   4.657   1.388   3.038  0.2728 -0.6845 -0.0527
 9547SOL    HW140100   4.569   1.358   3.061 -0.7963  0.1579 -2.9780
 9547SOL    HW240101   4.660   1.457   3.104 -0.0169  0.8385 -1.6184
 9548SOL     OW40102   2.556   1.395   4.433  0.3878  0.0816 -0.5697
 9548SOL    HW140103   2.500   1.469   4.409  0.7505 -0.1593 -2.1931
 9548SOL    HW240104   2.630   1.429   4.482 -1.4108  0.5465  1.8213
 9549SOL     OW40105   3.559   1.768  16.838 -0.0177 -0.0310 -0.0502
 9549SOL    HW140106   3.571   1.713  16.760 -2.9776  1.4509 -1.5310
 9549SOL    HW240107   3.649   1.796  16.857  0.0180 -0.8519  0.9728
 9550SOL     OW40108   0.809   2.096   0.424 -0.0574  0.0904 -0.9678
 9550SOL    HW140109   0.804   2.010   0.383  1.0139  0.6412 -2.2629
 9550SOL    HW240110   0.902   2.111   0.406  0.3457 -1.7524 -0.3497
 9551SOL     OW40111   1.912   3.758  15.129  0.0069 -0.1019  0.0761
 9551SOL    HW140112   1.942   3.805  15.207  0.5414 -1.7354  0.8539
 9551SOL    HW240113   1.921   3.829  15.065  1.2255  0.3452  0.7470
 9552SOL     OW40114   3.328   1.241  14.483 -0.0399  0.5703  1.0607
 9552SOL    HW140115   3.422   1.242  14.464 -0.1892 -1.6290  0.1836
 9552SOL    HW240116   3.305   1.155  14.517  0.6803  0.0449  0.2266
 9553SOL     OW40117   0.403   3.188   8.304  0.1266  0.1561 -0.5254
 9553SOL    HW140118   0.362   3.268   8.336  1.7320  0.6870  0.2097
 9553SOL    HW240119   0.462   3.168   8.377 -0.2305  0.2250 -0.2208
 9554SOL     OW40120   0.533   3.123   7.812  0.4554  0.5611  0.4989
 9554SOL    HW140121   0.493   3.037   7.809 -0.3491  0.9070  1.3280
 9554SOL    HW240122   0.559   3.128   7.904  0.3203 -0.0919  0.5723
 9555SOL     OW40123   2.820   3.350   8.233  0.2369 -0.1572  0.0773
 9555SOL    HW140124   2.910   3.342   8.202  0.4362  1.0908  0.3229
 9555SOL    HW240125   2.831   3.364   8.327 -0.7689  0.5628  0.0909
 9556SOL     OW40126   0.631   1.893   0.817 -0.7057  0.4404 -0.3104
 9556SOL    HW140127   0.706   1.856   0.770 -0.0803  2.4965 -0.9245
 9556SOL    HW240128   0.614   1.835   0.891  0.6771 -0.6363 -0.8399
 9557SOL     OW40129   1.118   4.261   7.323 -0.5150  0.1435  0.0378
 9557SOL    HW140130   1.094   4.265   7.416  0.3188  1.1104  0.2160
 9557SOL    HW240131   1.069   4.338   7.292 -1.3748  0.4896  2.2058
 9558SOL     OW40132   0.512   2.916   4.741 -0.2246 -0.5005 -0.5297
 9558SOL    HW140133   0.562   2.981   4.693 -0.7287 -0.3960 -0.9049
 9558SOL    HW240134   0.489   2.852   4.674 -2.0511 -0.8360  0.4373
 9559SOL     OW40135   0.706   3.921   0.179  0.3508 -0.5960  0.2779
 9559SOL    HW140136   0.694   3.834   0.142  2.7045  0.2025 -2.3360
 9559SOL    HW240137   0.735   3.896   0.267 -0.5299  0.1948  0.7930
 9560SOL     OW40138   1.452   3.024   6.010  0.6940  0.4749  0.5728
 9560SOL    HW140139   1.407   3.106   5.995  0.5848  0.3515  0.2260
 9560SOL    HW240140   1.387   2.967   5.967  2.5779 -1.5637  0.3802
 9561SOL     OW40141   4.561   2.105   1.291  0.4149 -0.0507  0.2012
 9561SOL    HW140142   4.560   2.022   1.243  1.2873  0.4176 -0.6275
 9561SOL    HW240143   4.483   2.143   1.251  0.8232  0.1568 -0.3937
 9562SOL     OW40144   0.869   1.389   4.489  0.2113  0.4887  0.3996
 9562SOL    HW140145   0.914   1.395   4.405 -1.0112 -2.6709 -0.4921
 9562SOL    HW240146   0.886   1.297   4.508  3.1022  1.2031  1.3205
 9563SOL     OW40147   3.840   3.290  11.893 -0.0522  0.0312 -0.2587
 9563SOL    HW140148   3.892   3.282  11.973  0.4280  0.6876 -0.5065
 9563SOL    HW240149   3.766   3.244  11.933  1.2682 -1.7039  0.2082
 9564SOL     OW40150   4.022   1.156   4.252  0.3061  0.3299 -0.2859
 9564SOL    HW140151   3.932   1.179   4.278  0.1448 -1.5991  0.8276
 9564SOL    HW240152   4.002   1.154   4.159 -1.4026  0.3240  0.0711
 9565SOL     OW40153   4.053   2.766   0.887  0.2636 -0.8943 -0.1323
 9565SOL    HW140154   4.089   2.776   0.975 -1.1727  1.8397  0.1545
 9565SOL    HW240155   4.014   2.680   0.896 -0.2698 -0.9404 -3.0286
   4.72505   4.72505  17.70160
