Membrane in water
40155
    1TCq1    O1    1   3.389   2.657  11.124 -0.2121  0.4055 -0.0248
    1TCq1    C1    2   3.255   2.676  11.134  0.0289  0.0636 -0.2156
    1TCq1    O2    3   3.190   2.768  11.182 -0.2636 -0.1406 -0.2034
    1TCq1    C2    4   3.202   2.591  11.026 -0.4302  0.0873 -0.1649
    1TCq1    C3    5   3.086   2.634  10.968 -0.0204  0.7189 -0.4572
    1TCq1    C4    6   3.032   2.556  10.867  0.7405  0.4542 -0.5441
    1TCq1    C5    7   3.099   2.447  10.822  0.3176 -0.3745 -1.0569
    1TCq1    C6    8   3.226   2.417  10.867 -0.5693  0.9244  0.8674
    1TCq1    C7    9   3.281   2.499  10.966 -0.5919  0.4237 -0.1019
    1TCq1    C8   10   3.246   2.269  10.896 -0.3943 -0.4558  0.0145
    1TCq1    O4   11   3.148   2.205  10.873  0.1972  0.3391  0.3989
    1TCq1    C9   12   2.899   2.576  10.815 -0.0456  0.6142  0.1914
    1TCq1    O5   13   2.844   2.684  10.847 -0.1963 -0.0586 -0.1633
    1TCq1    O6   14   2.854   2.487  10.736  0.1214 -0.1490 -0.1776
    1TCq1    H1   15   3.407   2.575  11.073 -3.0523 -0.0963 -0.2228
    1TCq1    H2   16   3.015   2.697  11.020 -0.7004 -0.8475  0.4665
    1TCq1    H3   17   3.048   2.380  10.754  0.9012 -0.7071 -1.1645
    1TCq1    H4   18   3.367   2.458  11.019 -0.8782  0.2715  0.2395
    2MPD2     C   19   3.449   1.881  11.165 -0.7796 -0.2380  0.8482
    2MPD2    C1   20   3.318   1.927  11.147  0.2976 -0.3837  0.4048
    2MPD2    C2   21   3.299   2.049  11.085 -0.2972  0.0060  0.4206
    2MPD2    C3   22   3.403   2.121  11.022  0.4308 -0.0935 -0.4061
    2MPD2    C4   23   3.530   2.085  11.057 -0.8114 -0.1588  0.2225
    2MPD2    C5   24   3.546   1.968  11.120 -0.2555 -0.2236  0.1453
    2MPD2     H   25   3.198   2.088  11.081 -0.4863 -0.4001  1.2705
    2MPD2    H1   26   3.615   2.140  11.017 -0.5403 -0.2984  0.6058
    2MPD2    H2   27   3.466   1.783  11.207 -1.1204 -0.7866 -0.2993
    2MPD2    H3   28   3.648   1.950  11.150  1.4525 -0.4606 -5.8059
    2MPD2     N   29   3.372   2.236  10.945  0.5781 -0.2554 -0.5510
    2MPD2    H5   30   3.450   2.300  10.932  1.3743 -1.2236 -0.4886
    2MPD2    N1   31   3.202   1.877  11.215 -0.3671 -0.0493  0.7535
    2MPD2    H7   32   3.116   1.927  11.198 -1.0354 -1.4073  0.1325
    3TCq1    O1   33   2.483   3.384  10.253 -0.4313 -0.4262 -0.4365
    3TCq1    C1   34   2.495   3.354  10.390 -0.0576 -0.7094  0.2721
    3TCq1    O2   35   2.497   3.430  10.487 -0.2984  0.5662 -0.0644
    3TCq1    C2   36   2.482   3.207  10.411  0.1080 -0.0987  0.2301
    3TCq1    C3   37   2.541   3.113  10.330  0.0577 -0.0447 -0.4567
    3TCq1    C4   38   2.533   2.979  10.363 -0.7735 -0.0599 -0.0123
    3TCq1    C5   39   2.452   2.947  10.462  0.5690 -0.3965  0.3097
    3TCq1    C6   40   2.408   3.040  10.550  0.3889  0.1370  0.2633
    3TCq1    C7   41   2.424   3.170  10.525 -0.4472  1.0422  0.2366
    3TCq1    C8   42   2.320   2.997  10.665  0.0776  0.1612 -0.0519
    3TCq1    O4   43   2.315   2.877  10.690 -0.5271  0.9008  0.3309
    3TCq1    C9   44   2.623   2.890  10.284 -0.1732  0.4866 -0.0750
    3TCq1    O5   45   2.626   2.769  10.317  0.2656 -0.2557 -0.2491
    3TCq1    O6   46   2.681   2.933  10.181 -0.6540 -0.1293  0.0097
    3TCq1    H1   47   2.451   3.307  10.202  0.5076 -0.3679 -1.1219
    3TCq1    H2   48   2.587   3.149  10.239  1.0432 -0.0559  0.0435
    3TCq1    H3   49   2.424   2.844  10.480  1.4277 -0.1620  2.9640
    3TCq1    H4   50   2.355   3.239  10.573 -0.1014  0.6557  1.2974
    4MPD2     C   51   2.154   3.110  11.129 -0.2502 -0.0494  0.4849
    4MPD2    C1   52   2.210   3.220  11.081 -0.1854  0.2578  0.0036
    4MPD2    C2   53   2.259   3.207  10.954 -1.3407 -0.4478 -0.1975
    4MPD2    C3   54   2.250   3.092  10.878  0.6575 -0.6569  0.5575
    4MPD2    C4   55   2.189   2.979  10.934 -0.5337  0.0196  0.3631
    4MPD2    C5   56   2.138   2.996  11.059 -0.2697  0.0369 -0.3652
    4MPD2     H   57   2.301   3.301  10.921 -0.4403 -0.8073 -0.0794
    4MPD2    H1   58   2.166   2.887  10.882  1.8666 -0.9271  0.9553
    4MPD2    H2   59   2.100   3.110  11.224  0.2869  0.8263  0.7889
    4MPD2    H3   60   2.083   2.913  11.102 -2.1744  0.3566 -2.1905
    4MPD2     N   61   2.309   3.098  10.754  0.0888 -0.5491 -0.7811
    4MPD2    H5   62   2.362   3.183  10.741  0.5818 -0.7299  0.0623
    4MPD2    N1   63   2.220   3.342  11.147 -0.6336 -0.3036  0.8485
    4MPD2    H7   64   2.278   3.410  11.099  0.0665 -1.4522  0.0581
    5TCq1    O1   65   2.187   0.603  10.235 -0.4078 -0.4971 -0.9250
    5TCq1    C1   66   2.223   0.521  10.140 -0.7194  0.3065  0.0614
    5TCq1    O2   67   2.193   0.407  10.143 -0.3487  0.5567 -0.1515
    5TCq1    C2   68   2.361   0.561  10.124 -0.5264 -0.1811 -0.2055
    5TCq1    C3   69   2.391   0.670  10.046  0.2697  0.1715 -0.1071
    5TCq1    C4   70   2.521   0.694  10.020 -0.2910 -0.3584  0.3744
    5TCq1    C5   71   2.623   0.613  10.056  0.0372  0.4375  0.2384
    5TCq1    C6   72   2.584   0.509  10.136 -0.4987 -0.4967 -0.3404
    5TCq1    C7   73   2.453   0.472  10.163  0.0471 -0.5258  0.2744
    5TCq1    C8   74   2.681   0.406  10.171 -0.5839 -0.1774 -0.0767
    5TCq1    O4   75   2.635   0.307  10.228 -0.0849  0.5482 -0.2998
    5TCq1    C9   76   2.557   0.807   9.943  0.1843 -0.7595  0.4236
    5TCq1    O5   77   2.670   0.802   9.892 -0.0152 -0.6765 -0.0824
    5TCq1    O6   78   2.464   0.888   9.914 -0.5757  0.5143 -0.4715
    5TCq1    H1   79   2.241   0.685  10.231 -1.6729  0.5099  2.8991
    5TCq1    H2   80   2.313   0.737  10.010 -2.3424 -1.5452  2.3928
    5TCq1    H3   81   2.724   0.643  10.034  0.5878 -1.1508  0.5834
    5TCq1    H4   82   2.427   0.389  10.228  0.8945 -0.6435  0.4614
    6MPD2     C   83   2.991   0.329   9.988 -0.4884 -0.3490 -0.1714
    6MPD2    C1   84   2.895   0.308  10.083  0.3690  0.2578 -0.6224
    6MPD2    C2   85   2.902   0.197  10.165  0.5425 -1.0153 -0.3531
    6MPD2    C3   86   2.988   0.091  10.133  0.3879 -0.5946 -0.1602
    6MPD2    C4   87   3.072   0.105  10.023  0.2672 -0.9976  0.2712
    6MPD2    C5   88   3.078   0.227   9.958 -0.2187  0.1458 -0.0950
    6MPD2     H   89   2.832   0.179  10.246  2.0616 -2.8290  0.5467
    6MPD2    H1   90   3.148   0.034   9.992 -0.0394 -0.4405 -1.7491
    6MPD2    H2   91   3.003   0.419   9.929 -0.1841  1.3966  2.5763
    6MPD2    H3   92   3.154   0.240   9.882 -1.9883  1.4085 -1.6596
    6MPD2     N   93   2.984   4.698  10.214  0.9037  0.2583 -0.6973
    6MPD2    H5   94   2.935   4.706  10.303 -0.0513  0.4213 -1.2321
    6MPD2    N1   95   2.796   0.410  10.098  0.3872 -0.0525  0.0511
    6MPD2    H7   96   2.791   0.486  10.031  2.0642 -1.2209 -1.3737
    7TCq1    O1   97   0.274   0.254  13.215 -0.5487  0.0374 -0.0706
    7TCq1    C1   98   0.403   0.217  13.219 -0.7568 -0.7278 -0.0609
    7TCq1    O2   99   0.492   0.261  13.296  0.2633 -0.7753 -0.6572
    7TCq1    C2  100   0.402   0.079  13.193  0.1396  0.3253  0.4957
    7TCq1    C3  101   0.324   0.024  13.088  0.1734 -0.1120  0.2370
    7TCq1    C4  102   0.292   4.613  13.093 -0.5984  0.1650  0.1786
    7TCq1    C5  103   0.335   4.532  13.200  0.1337  0.0180 -0.9547
    7TCq1    C6  104   0.418   4.592  13.294  0.0826  0.1545  0.3426
    7TCq1    C7  105   0.462   4.718  13.284 -0.3368  0.1111 -0.4050
    7TCq1    C8  106   0.465   4.503  13.397 -0.2487  0.1742  0.6277
    7TCq1    O4  107   0.396   4.407  13.415  0.2649  0.3275  0.5492
    7TCq1    C9  108   0.205   4.556  12.985 -0.0161 -0.2342 -0.3432
    7TCq1    O5  109   0.150   4.445  13.010 -0.2944  0.5624 -0.3587
    7TCq1    O6  110   0.172   4.643  12.899  0.2748 -0.6410  0.0411
    7TCq1    H1  111   0.215   0.208  13.151  2.8831 -1.4854 -2.1435
    7TCq1    H2  112   0.294   0.087  13.005 -1.4028  0.3724  1.1871
    7TCq1    H3  113   0.299   4.430  13.192  1.8364 -0.6162 -0.5656
    7TCq1    H4  114   0.500   0.043  13.375  3.1828 -1.0042 -1.3160
    8MPD2     C  115   0.809   4.305  13.706 -0.0189  0.4683  0.8227
    8MPD2    C1  116   0.710   4.239  13.637  0.5215  0.2471  0.8884
    8MPD2    C2  117   0.638   4.319  13.546  0.1150 -0.0248 -0.3296
    8MPD2    C3  118   0.667   4.454  13.532  0.0168 -0.2968 -0.2678
    8MPD2    C4  119   0.756   4.514  13.609 -0.1607 -0.7754  0.3007
    8MPD2    C5  120   0.833   4.434  13.694  0.0182 -0.5922 -0.0226
    8MPD2     H  121   0.561   4.275  13.484 -1.5158  0.3515  1.4389
    8MPD2    H1  122   0.779   4.620  13.606  0.1189 -0.9035 -2.3831
    8MPD2    H2  123   0.879   4.257  13.774 -0.1439 -2.3308 -1.0062
    8MPD2    H3  124   0.917   4.469  13.754  0.3072 -0.9209 -0.2316
    8MPD2     N  125   0.591   4.536  13.447 -0.1633 -0.5717  0.0906
    8MPD2    H5  126   0.617   4.632  13.424  3.1771 -1.4968 -0.1178
    8MPD2    N1  127   0.707   4.101  13.657  0.5629 -0.5530 -0.0470
    8MPD2    H7  128   0.779   4.056  13.713  0.1331 -1.3639 -0.1506
    9TCq1    O1  129   3.415   2.408  10.588  0.0925  0.4117  0.0977
    9TCq1    C1  130   3.438   2.532  10.620 -0.2929  0.0775 -0.0407
    9TCq1    O2  131   3.539   2.576  10.674 -0.3610  0.3069 -0.3307
    9TCq1    C2  132   3.313   2.609  10.607 -0.5169 -0.0365  0.0454
    9TCq1    C3  133   3.208   2.563  10.533 -0.8942  0.2944 -0.3252
    9TCq1    C4  134   3.095   2.638  10.530  0.3176 -0.4478  0.3570
    9TCq1    C5  135   3.085   2.755  10.588  0.4811 -0.3426 -0.8128
    9TCq1    C6  136   3.196   2.805  10.656 -0.0582 -0.3054  0.1668
    9TCq1    C7  137   3.312   2.730  10.672  0.4768  0.8636 -0.3792
    9TCq1    C8  138   3.183   2.922  10.746 -0.2249 -0.2726  0.0383
    9TCq1    O4  139   3.285   2.977  10.785 -0.6618  0.4664 -0.5288
    9TCq1    C9  140   2.979   2.586  10.463  0.1580 -0.6532  0.5817
    9TCq1    O5  141   2.981   2.465  10.416 -0.6546 -0.6506  0.9178
    9TCq1    O6  142   2.890   2.670  10.440 -0.0940  0.0237  0.0239
    9TCq1    H1  143   3.324   2.375  10.599 -0.3340  1.2039 -1.0272
    9TCq1    H2  144   3.209   2.470  10.477 -3.7953  1.1398 -1.7690
    9TCq1    H3  145   2.992   2.811  10.594 -0.0200 -1.0873 -1.7626
    9TCq1    H4  146   3.397   2.760  10.731  2.1230 -1.8784 -1.3486
   10MPD2     C  147   3.095   3.141  10.921 -0.3162 -0.2252  0.0606
   10MPD2    C1  148   3.043   3.009  10.926 -0.1748  0.0538  0.0355
   10MPD2    C2  149   2.966   2.974  11.036  0.0971  0.6363  0.0477
   10MPD2    C3  150   2.948   3.061  11.140 -0.6395  0.3668 -0.0966
   10MPD2    C4  151   3.007   3.182  11.134  0.2782 -0.2720  0.1068
   10MPD2    C5  152   3.081   3.218  11.030  0.0575  0.4278 -0.0884
   10MPD2     H  153   2.915   2.879  11.032 -0.5285  1.0544 -1.9939
   10MPD2    H1  154   2.988   3.262  11.204  1.5475  1.2486 -1.3060
   10MPD2    H2  155   3.148   3.171  10.832  1.1446  1.5271  1.5123
   10MPD2    H3  156   3.125   3.316  11.039  0.0867  0.3482  0.6451
   10MPD2     N  157   2.883   3.027  11.260 -0.1157  0.3970 -0.4421
   10MPD2    H5  158   2.883   3.096  11.335  1.9596  0.5406 -0.5858
   10MPD2    N1  159   3.063   2.918  10.820 -0.0339  0.5807  0.2329
   10MPD2    H7  160   3.010   2.831  10.823  1.3331 -0.2410  0.2942
   11TCq1    O1  161   4.347   3.200  13.790  0.0812 -0.0056  0.1155
   11TCq1    C1  162   4.283   3.289  13.862  0.3305 -0.0866 -0.0104
   11TCq1    O2  163   4.189   3.357  13.825 -0.4114 -0.4396 -0.2830
   11TCq1    C2  164   4.305   3.248  14.001  0.2719  0.1121 -0.7497
   11TCq1    C3  165   4.428   3.215  14.046  0.5780  0.1303 -0.5046
   11TCq1    C4  166   4.434   3.138  14.158 -0.2042 -0.0808 -0.2354
   11TCq1    C5  167   4.322   3.102  14.230 -0.3322 -0.4142 -0.1452
   11TCq1    C6  168   4.197   3.144  14.184  0.0335 -0.0780  0.8439
   11TCq1    C7  169   4.190   3.215  14.072  0.2081 -0.8200 -0.2219
   11TCq1    C8  170   4.072   3.096  14.251  0.3112  0.3465  1.0239
   11TCq1    O4  171   4.085   3.063  14.371 -0.1448 -0.8852 -0.1960
   11TCq1    C9  172   4.567   3.085  14.205 -0.6939  1.0400 -0.2761
   11TCq1    O5  173   4.662   3.110  14.132 -0.2852  0.4409  0.2254
   11TCq1    O6  174   4.568   3.013  14.310 -0.2641 -0.6320  0.6191
   11TCq1    H1  175   4.429   3.169  13.834  1.0056  0.7015 -1.1110
   11TCq1    H2  176   4.521   3.239  13.995  0.7959 -0.9074 -0.5913
   11TCq1    H3  177   4.335   3.037  14.316 -2.0802  0.7268  0.9499
   11TCq1    H4  178   4.099   3.252  14.026  1.2247 -0.2272 -1.7805
   12MPD2     C  179   3.794   3.041  14.316 -0.3104  0.0770 -0.1147
   12MPD2    C1  180   3.848   3.022  14.194 -0.5270  0.0766  0.3458
   12MPD2    C2  181   3.780   2.945  14.096 -0.3793  0.0157 -0.3524
   12MPD2    C3  182   3.650   2.896  14.125 -0.0357 -0.5835  0.5958
   12MPD2    C4  183   3.597   2.922  14.252  0.5060 -0.2833  0.3676
   12MPD2    C5  184   3.668   3.000  14.342 -0.0695  0.2607 -0.4286
   12MPD2     H  185   3.829   2.927  14.001 -1.0648 -2.0329 -0.3187
   12MPD2    H1  186   3.495   2.902  14.281  0.3088 -0.1491 -0.2317
   12MPD2    H2  187   3.840   3.084  14.404 -1.9401 -1.1633  1.3240
   12MPD2    H3  188   3.629   3.018  14.441  2.2578  0.2552  0.4918
   12MPD2     N  189   3.576   2.805  14.036  0.1035  0.3738 -0.1360
   12MPD2    H5  190   3.477   2.785  14.040 -0.3373  2.3966 -0.9381
   12MPD2    N1  191   3.976   3.062  14.160  0.1692 -0.7019  0.9420
   12MPD2    H7  192   4.009   3.066  14.064 -0.2593 -1.8337  0.7493
   13TCq1    O1  193   2.201   2.924   9.902  0.0247  0.2750  0.7440
   13TCq1    C1  194   2.246   2.887  10.020 -1.1320 -0.4123 -0.1986
   13TCq1    O2  195   2.351   2.931  10.073 -0.6089 -0.2209  0.1051
   13TCq1    C2  196   2.144   2.814  10.090 -0.1852  0.5492  0.0261
   13TCq1    C3  197   2.034   2.758  10.028 -0.0124  0.3898  0.6392
   13TCq1    C4  198   1.944   2.690  10.102 -0.3591  0.7861 -0.0146
   13TCq1    C5  199   1.976   2.663  10.230  0.7248 -0.6783  1.0205
   13TCq1    C6  200   2.086   2.714  10.294  0.0719 -0.3676  0.1671
   13TCq1    C7  201   2.171   2.799  10.222 -0.5546 -0.2766  0.3007
   13TCq1    C8  202   2.125   2.678  10.429  0.1925 -0.1531 -0.5427
   13TCq1    O4  203   2.250   2.679  10.452 -0.1282 -0.5156  0.3903
   13TCq1    C9  204   1.836   2.625  10.040  0.1855  0.1518  0.1880
   13TCq1    O5  205   1.824   2.637   9.913 -0.0414  0.1750 -0.0701
   13TCq1    O6  206   1.757   2.562  10.112  0.3928  0.5326  0.0023
   13TCq1    H1  207   2.112   2.890   9.877 -0.3136  0.4682  1.6850
   13TCq1    H2  208   2.012   2.773   9.923 -0.3345  0.0220  0.6532
   13TCq1    H3  209   1.923   2.584  10.282  0.9785 -1.8337 -0.4803
   13TCq1    H4  210   2.259   2.833  10.275 -1.2874  1.2874  0.5200
   14MPD2     C  211   1.889   2.623  10.699 -0.0876  1.0071 -0.1433
   14MPD2    C1  212   2.011   2.640  10.641 -1.0043 -0.4407 -0.3182
   14MPD2    C2  213   2.122   2.619  10.722  0.4683 -0.2367 -0.2026
   14MPD2    C3  214   2.118   2.592  10.856 -0.8397 -0.8835  1.1304
   14MPD2    C4  215   1.991   2.580  10.906  0.2217  0.0397  0.3617
   14MPD2    C5  216   1.878   2.596  10.834  0.5979  0.3037  0.5505
   14MPD2     H  217   2.220   2.637  10.679  0.4161  3.5489  1.2726
   14MPD2    H1  218   1.975   2.549  11.009  0.3634 -1.4746 -0.0831
   14MPD2    H2  219   1.801   2.645  10.640  2.0012 -0.2628 -3.7362
   14MPD2    H3  220   1.779   2.582  10.875  0.6708 -0.2568  0.5289
   14MPD2     N  221   2.235   2.575  10.929  0.7694  0.5353  0.4030
   14MPD2    H5  222   2.318   2.620  10.893 -0.3853 -0.5653 -3.6869
   14MPD2    N1  223   2.016   2.664  10.505  0.0791 -0.2161  0.3595
   14MPD2    H7  224   1.928   2.679  10.455  0.4859 -0.3260 -0.3847
   15TCq1    O1  225   3.851   1.983   2.208 -0.3297 -0.3945  0.1924
   15TCq1    C1  226   3.874   2.091   2.136 -0.4995 -0.4139  0.0576
   15TCq1    O2  227   3.798   2.147   2.062  0.6142  0.0831  0.0962
   15TCq1    C2  228   4.013   2.113   2.140 -0.4536 -0.2593  0.4165
   15TCq1    C3  229   4.070   2.145   2.259  0.5966 -0.0980  0.2157
   15TCq1    C4  230   4.208   2.155   2.262  0.3452 -0.4085 -0.0864
   15TCq1    C5  231   4.287   2.140   2.156 -0.3039 -0.1022 -0.1778
   15TCq1    C6  232   4.221   2.111   2.039 -0.2839  0.0163  0.2399
   15TCq1    C7  233   4.085   2.103   2.028  0.1878  0.1939 -0.4175
   15TCq1    C8  234   4.311   2.078   1.929  0.3039  0.1951  0.3450
   15TCq1    O4  235   4.432   2.068   1.954 -0.1077  0.1539  0.1008
   15TCq1    C9  236   4.263   2.192   2.387  0.4673  0.3951  0.5066
   15TCq1    O5  237   4.389   2.187   2.405  0.2163 -0.6569  0.5494
   15TCq1    O6  238   4.184   2.209   2.479  0.3918 -0.6659 -0.3024
   15TCq1    H1  239   3.930   1.955   2.259  0.3174  0.6441 -0.2308
   15TCq1    H2  240   4.013   2.142   2.351  0.6493 -2.4681  0.1837
   15TCq1    H3  241   4.394   2.156   2.160 -0.6090  1.0923  3.0891
   15TCq1    H4  242   4.031   2.097   1.934 -0.0379 -1.8738 -0.1375
   16MPD2     C  243   4.208   2.007   1.585 -0.2228  0.0181  0.0998
   16MPD2    C1  244   4.296   2.018   1.689 -0.6185 -0.1115 -0.4207
   16MPD2    C2  245   4.431   1.999   1.670 -0.0835  0.1511 -0.4291
   16MPD2    C3  246   4.489   1.972   1.550 -0.2664  0.5323  0.2960
   16MPD2    C4  247   4.403   1.967   1.441  0.0448  0.4574 -0.2620
   16MPD2    C5  248   4.265   1.980   1.458 -0.1006  1.0100  0.3733
   16MPD2     H  249   4.503   2.002   1.750 -1.4557  1.0491  0.7660
   16MPD2    H1  250   4.434   1.949   1.339 -2.1299 -1.3427 -0.6004
   16MPD2    H2  251   4.101   2.015   1.598 -0.2578 -1.6711  0.8241
   16MPD2    H3  252   4.204   1.976   1.369 -1.4514  1.4195  1.2793
   16MPD2     N  253   4.628   1.956   1.534  0.0303 -0.0021  0.6114
   16MPD2    H5  254   4.689   1.986   1.610  1.1129 -0.5032 -0.0669
   16MPD2    N1  255   4.245   2.057   1.812  0.0521 -0.1103 -0.1231
   16MPD2    H7  256   4.144   2.067   1.803 -0.1454 -1.4910  0.5059
   17TCq1    O1  257   2.403   1.897  11.308 -0.2256 -0.3999 -0.2456
   17TCq1    C1  258   2.437   1.783  11.246  0.4420  0.7213 -0.0254
   17TCq1    O2  259   2.367   1.681  11.248 -0.3188 -0.5629  0.6540
   17TCq1    C2  260   2.583   1.785  11.211  0.4864 -0.4542 -0.2188
   17TCq1    C3  261   2.642   1.903  11.183 -0.1173 -0.7172  0.1038
   17TCq1    C4  262   2.773   1.905  11.154  0.3493  0.3315  0.5300
   17TCq1    C5  263   2.847   1.790  11.134  1.1637  0.6127 -0.7322
   17TCq1    C6  264   2.778   1.673  11.147 -0.2671 -0.1643  0.4233
   17TCq1    C7  265   2.646   1.667  11.194  0.2408  0.2811 -1.0197
   17TCq1    C8  266   2.828   1.554  11.087 -0.5030 -0.3284  0.7126
   17TCq1    O4  267   2.782   1.445  11.124 -0.3105 -0.4109 -0.4545
   17TCq1    C9  268   2.830   2.028  11.140  0.1571  0.4999 -0.0798
   17TCq1    O5  269   2.956   2.024  11.119 -0.8463  0.1169  0.3961
   17TCq1    O6  270   2.748   2.122  11.123 -0.4914 -0.3501 -0.4146
   17TCq1    H1  271   2.475   1.964  11.306 -1.0061  0.4911  1.3868
   17TCq1    H2  272   2.582   1.993  11.176  0.0026 -0.7071 -0.7302
   17TCq1    H3  273   2.951   1.797  11.107  1.9498 -0.8469  1.8820
   17TCq1    H4  274   2.590   1.581  11.229 -0.6474  0.6950 -1.4190
   18MPD2     C  275   2.999   1.355  10.946 -0.3503  0.4186 -0.6058
   18MPD2    C1  276   3.004   1.487  10.925  0.8819 -0.2667 -0.1345
   18MPD2    C2  277   3.083   1.539  10.818  0.0157  0.0837  1.2085
   18MPD2    C3  278   3.162   1.453  10.739 -0.2369 -0.4849  0.0804
   18MPD2    C4  279   3.154   1.315  10.767 -0.3255 -0.1166 -0.1187
   18MPD2    C5  280   3.078   1.265  10.868 -0.0538  0.3691 -0.7121
   18MPD2     H  281   3.071   1.643  10.791  1.9417 -0.0311 -0.0494
   18MPD2    H1  282   3.201   1.244  10.700  1.4476  0.3989  0.5827
   18MPD2    H2  283   2.939   1.312  11.026 -2.1866 -0.2442 -2.3487
   18MPD2    H3  284   3.081   1.160  10.894 -1.3652  0.6703  0.6483
   18MPD2     N  285   3.244   1.495  10.635 -0.0980  0.7721 -0.0396
   18MPD2    H5  286   3.304   1.423  10.596 -2.4145 -0.8031 -0.6957
   18MPD2    N1  287   2.930   1.575  11.000  0.3112 -0.2829  0.5298
   18MPD2    H7  288   2.951   1.673  10.981  0.8801 -0.9673 -2.3576
   19TMC2    C1  289   0.114   2.308  13.838  0.2254  0.4548  0.1359
   19TMC2    C2  290   0.147   2.233  13.730 -0.0364 -0.0376 -0.4725
   19TMC2    C3  291   0.080   2.107  13.724 -0.0698  0.3046  0.2848
   19TMC2    C4  292   0.025   2.265  13.934 -0.2251 -0.5896 -0.4408
   19TMC2    C5  293   4.683   2.140  13.923  0.0648 -0.3851  0.2866
   19TMC2    C6  294   4.709   2.060  13.818 -0.0594 -0.4978 -0.5361
   19TMC2     C  295   0.209   2.408  13.871 -0.8491 -0.4988 -0.4598
   19TMC2     O  296   0.270   2.453  13.771  0.1530  0.4450 -0.0596
   19TMC2     H  297   0.220   2.264  13.655  0.3300 -0.7594 -0.4096
   19TMC2    H1  298   0.002   2.342  14.007  1.3341 -0.4741 -0.0730
   19TMC2    H2  299   4.644   1.975  13.803  1.3186 -1.5309 -0.6148
   19TMC2    C7  300   4.577   2.096  14.016  0.0122 -0.1344 -0.5455
   19TMC2    C8  301   0.074   2.044  13.602  0.5780 -0.1867 -0.1084
   19TMC2    O1  302   4.558   1.977  14.018  0.0831  0.3209  0.7675
   19TMC2    O2  303   0.034   1.930  13.583 -0.2824  0.2315 -0.0347
   19TMC2    O5  304   0.031   2.135  13.511 -0.3863 -0.1304 -0.0193
   19TMC2    H5  305   0.021   2.223  13.553 -2.1704  0.0035 -0.7716
   20MPD2     C  306   0.417   2.587  14.007  0.3514  0.3316 -0.4774
   20MPD2    C1  307   0.345   2.487  14.069 -0.4837  0.2117 -0.3161
   20MPD2    C2  308   0.357   2.465  14.200  0.0882 -0.2058 -0.1605
   20MPD2    C3  309   0.459   2.534  14.265 -0.2132  0.7365 -0.3179
   20MPD2    C4  310   0.537   2.630  14.205  0.1552 -0.3387 -0.4680
   20MPD2    C5  311   0.516   2.659  14.073  0.7166 -0.3569  0.1803
   20MPD2     H  312   0.298   2.391  14.253  1.2897 -1.6519 -0.8395
   20MPD2    H1  313   0.619   2.678  14.258 -0.5680  0.1469  0.2015
   20MPD2    H2  314   0.398   2.623  13.906  1.8760 -0.5083 -1.0670
   20MPD2    H3  315   0.586   2.726  14.024 -1.5667  1.0163 -1.1840
   20MPD2     N  316   0.475   2.533  14.407  0.9746 -0.0351 -0.4997
   20MPD2    H5  317   0.552   2.592  14.437  0.5546  0.2825 -0.0622
   20MPD2    N1  318   0.246   2.408  14.005  0.3106  0.2689 -0.1701
   20MPD2    H7  319   0.203   2.339  14.065 -0.2563  0.1327 -0.7348
   21MPD2     C  320   2.213   3.268  14.727  0.4543  0.8379  0.2526
   21MPD2    C1  321   2.247   3.150  14.796  0.9456  0.0243  0.0773
   21MPD2    C2  322   2.144   3.086  14.868  0.1019 -0.2974  0.6361
   21MPD2    C3  323   2.015   3.129  14.872  0.2110  0.1324  0.0610
   21MPD2    C4  324   1.985   3.246  14.805 -0.4116  0.3230  0.4143
   21MPD2    C5  325   2.085   3.314  14.744 -0.1199  0.2319 -0.1044
   21MPD2     H  326   2.156   2.999  14.931  0.3259  1.3861  2.9249
   21MPD2    H1  327   1.887   3.292  14.817 -0.4524  0.8478 -2.0653
   21MPD2    H2  328   2.286   3.331  14.676 -0.9841  0.9873 -1.6387
   21MPD2    H3  329   2.061   3.406  14.692  1.6962  0.5635 -0.3532
   21MPD2     N  330   1.901   3.074  14.938 -0.2078 -0.3848 -0.1004
   21MPD2    H5  331   1.811   3.118  14.926  0.8575  2.1691  1.2740
   21MPD2    N1  332   2.385   3.105  14.813 -0.3686 -0.2020  0.4800
   21MPD2    H7  333   2.396   3.020  14.867 -0.4142  1.0129  2.4075
   22TCq2    C1  334   1.918   2.984  15.042 -0.4294  0.2852  0.1489
   22TCq2    O2  335   2.016   2.927  15.083  0.2728 -0.0193 -0.2529
   22TCq2    C2  336   1.794   2.934  15.110 -0.3584 -0.6342  0.0009
   22TCq2    C3  337   1.809   2.924  15.246  0.5409  0.1204  0.0699
   22TCq2    C4  338   1.698   2.903  15.320  0.0819 -0.0639  0.2615
   22TCq2    C5  339   1.578   2.908  15.263  0.7200 -0.2461  0.0274
   22TCq2    C6  340   1.562   2.940  15.133 -0.3894  0.2791  0.1957
   22TCq2    C7  341   1.669   2.943  15.046  0.1939  0.7569  0.8440
   22TCq2    C8  342   1.426   2.930  15.082  0.8489  0.0909  0.4452
   22TCq2    O4  343   1.350   2.872  15.158  0.1233  0.5547 -0.0289
   22TCq2    C9  344   1.705   2.900  15.462  0.1901 -1.0208  0.3962
   22TCq2    O5  345   1.604   2.920  15.536 -0.2598  0.5630  0.0276
   22TCq2    O6  346   1.821   2.894  15.511  0.5873  0.2603  0.4485
   22TCq2    H2  347   1.901   2.926  15.304  0.4876 -0.5200  0.1687
   22TCq2    H3  348   1.496   2.904  15.335 -2.2351 -1.1042 -3.3874
   22TCq2    H4  349   1.657   2.941  14.939  0.3432 -0.3965  0.8529
   23MPD2     C  350   4.239   3.954  14.608  0.3949 -0.2651 -0.2405
   23MPD2    C1  351   4.148   3.985  14.710 -0.5543  0.4083  0.1751
   23MPD2    C2  352   4.026   4.046  14.678  0.3189  0.3296 -0.2129
   23MPD2    C3  353   3.995   4.071  14.551 -0.2541 -0.7399 -0.0895
   23MPD2    C4  354   4.084   4.045  14.455 -0.6149  0.0099 -0.5662
   23MPD2    C5  355   4.211   3.987  14.479  0.5108  0.3342 -0.4197
   23MPD2     H  356   3.950   4.059  14.753 -0.2265 -1.7868 -0.4167
   23MPD2    H1  357   4.068   4.077  14.352  0.8605  1.9912 -0.1821
   23MPD2    H2  358   4.334   3.904  14.625 -0.6497 -2.0203  0.4154
   23MPD2    H3  359   4.288   3.972  14.404 -0.6259  0.3672 -1.5954
   23MPD2     N  360   3.866   4.114  14.514  0.5777 -0.4933  0.1580
   23MPD2    H5  361   3.842   4.120  14.416 -0.7540 -2.2452  0.3910
   23MPD2    N1  362   4.159   3.940  14.845 -0.0130  0.0585 -0.6243
   23MPD2    H7  363   4.082   3.963  14.907  0.1503  0.9633 -0.7615
   24TCq2    C1  364   3.772   4.159  14.599  0.1782  1.3227  0.6828
   24TCq2    O2  365   3.776   4.182  14.723  0.6752  0.1798 -0.6944
   24TCq2    C2  366   3.650   4.206  14.531  0.3982  0.0125 -0.6129
   24TCq2    C3  367   3.573   4.295  14.597  0.0926  0.5146 -0.4594
   24TCq2    C4  368   3.440   4.293  14.559  0.2761 -0.5590  0.3648
   24TCq2    C5  369   3.390   4.228  14.449 -0.1037  0.5519 -0.5121
   24TCq2    C6  370   3.477   4.157  14.373  0.2867  0.1059 -0.2586
   24TCq2    C7  371   3.605   4.142  14.419 -0.7250 -0.3041  0.7016
   24TCq2    C8  372   3.450   4.093  14.242 -0.0035 -0.3767 -0.8422
   24TCq2    O4  373   3.549   4.040  14.185 -0.5558 -0.6207  0.3503
   24TCq2    C9  374   3.350   4.379  14.635 -0.6743  0.2986 -0.2209
   24TCq2    O5  375   3.411   4.459  14.708 -0.2032 -0.0906 -0.3572
   24TCq2    O6  376   3.242   4.421  14.575  0.1683 -0.1281  0.5142
   24TCq2    H2  377   3.609   4.349  14.684  0.0317  0.9293 -0.6893
   24TCq2    H3  378   3.290   4.252  14.416  0.2110  0.9996 -1.1290
   24TCq2    H4  379   3.667   4.064  14.376 -0.4092  0.7630 -0.8139
   25TMC2    C1  380   2.719   1.005  11.180 -0.3516 -0.8979 -0.8407
   25TMC2    C2  381   2.857   0.996  11.188 -0.3789 -0.3484 -1.0562
   25TMC2    C3  382   2.920   1.015  11.307  0.8060 -0.4476  0.1794
   25TMC2    C4  383   2.643   1.074  11.274  0.4770  1.2048 -0.7108
   25TMC2    C5  384   2.714   1.094  11.386 -0.5891  0.5931 -0.6273
   25TMC2    C6  385   2.839   1.050  11.411 -0.2566  0.2226  0.4630
   25TMC2     C  386   2.672   0.987  11.040 -0.2949 -0.4716  0.4540
   25TMC2     O  387   2.745   0.983  10.945 -0.4051  0.1077 -0.1228
   25TMC2     H  388   2.913   0.970  11.098  1.5275 -0.0443  0.0292
   25TMC2    H1  389   2.537   1.092  11.265 -0.0303 -2.8211 -2.7862
   25TMC2    H2  390   2.883   1.055  11.510  1.6142 -1.6110 -0.2685
   25TMC2    C7  391   2.648   1.160  11.497 -0.1474  0.5673  0.3282
   25TMC2    C8  392   3.030   0.931  11.329 -0.4770  0.6632  0.1543
   25TMC2    O1  393   2.668   1.106  11.607 -0.1504  0.0546  0.2236
   25TMC2    O2  394   3.106   0.897  11.241  0.2866 -0.9086 -0.0312
   25TMC2    O5  395   2.971   0.844  11.417  0.0005  0.0629  0.4538
   25TMC2    H5  396   2.901   0.876  11.478  0.8419  0.1544  1.3818
   26MPD2     C  397   2.264   0.820  10.774 -0.0660  0.6624 -0.5600
   26MPD2    C1  398   2.223   0.842  10.901 -0.3323  0.2022  0.6343
   26MPD2    C2  399   2.313   0.909  10.983  0.6997 -0.5981 -0.4591
   26MPD2    C3  400   2.448   0.924  10.954  0.1717 -1.1006 -0.1086
   26MPD2    C4  401   2.485   0.871  10.829  0.0261  0.9187  0.3241
   26MPD2    C5  402   2.398   0.828  10.736 -0.8834 -0.5239  0.0609
   26MPD2     H  403   2.278   0.941  11.080  0.1302 -2.8714  0.0900
   26MPD2    H1  404   2.591   0.863  10.804  0.1893 -0.3995  1.4004
   26MPD2    H2  405   2.200   0.774  10.700 -1.3523  0.3037  0.7564
   26MPD2    H3  406   2.424   0.808  10.633  0.1103  0.3344  0.1517
   26MPD2     N  407   2.539   0.975  11.048 -0.1615  0.3559 -0.2011
   26MPD2    H5  408   2.499   0.995  11.140 -0.6641 -3.9784  0.5422
   26MPD2    N1  409   2.091   0.801  10.930  0.4431 -0.4060 -0.8121
   26MPD2    H7  410   2.040   0.747  10.861 -1.9710  1.0253 -0.1472
   27TMC2    C1  411   1.530   3.207  12.140 -0.8954 -1.0160  0.3363
   27TMC2    C2  412   1.440   3.257  12.048 -0.3812 -0.3316  0.0740
   27TMC2    C3  413   1.478   3.365  11.974  0.3650  0.0005 -0.0431
   27TMC2    C4  414   1.652   3.263  12.162 -0.2935  0.2703  1.1997
   27TMC2    C5  415   1.680   3.371  12.089 -0.3870  0.7339  0.1658
   27TMC2    C6  416   1.600   3.423  11.992 -0.0729 -0.0348  0.6920
   27TMC2     C  417   1.479   3.125  12.252  0.2408  0.3142  0.2654
   27TMC2     O  418   1.559   3.043  12.301 -0.3286 -0.3291 -0.9652
   27TMC2     H  419   1.346   3.204  12.033 -0.3920 -0.6017  1.1241
   27TMC2    H1  420   1.719   3.223  12.238  0.6741 -1.7711 -0.7142
   27TMC2    H2  421   1.629   3.508  11.931 -0.0397 -1.3385 -1.1082
   27TMC2    C7  422   1.787   3.453  12.140  0.1889 -0.3617 -0.2088
   27TMC2    C8  423   1.386   3.430  11.890  0.1334  0.1205  0.1054
   27TMC2    O1  424   1.894   3.409  12.129  0.2685 -0.5548 -0.0929
   27TMC2    O2  425   1.399   3.547  11.854  0.3702 -0.3774  0.4020
   27TMC2    O5  426   1.314   3.339  11.830 -0.0147  0.3719 -0.2645
   27TMC2    H5  427   1.313   3.248  11.867 -1.5242  0.2726 -0.5558
   28MPD2     C  428   1.108   2.960  12.575  0.8609 -0.0482  0.0970
   28MPD2    C1  429   1.072   3.085  12.528  0.2441 -0.0398 -0.0006
   28MPD2    C2  430   1.150   3.147  12.430 -0.1310  0.0080  0.6175
   28MPD2    C3  431   1.269   3.088  12.391 -0.6320 -0.0245  0.4263
   28MPD2    C4  432   1.297   2.960  12.429 -1.1375 -0.6162  0.0128
   28MPD2    C5  433   1.207   2.888  12.516  0.1093  0.7262 -0.1784
   28MPD2     H  434   1.110   3.236  12.383  2.6069  0.5641 -0.6344
   28MPD2    H1  435   1.393   2.914  12.411 -0.1325  0.6543  2.0670
   28MPD2    H2  436   1.049   2.910  12.651 -0.3363  0.5619 -0.4464
   28MPD2    H3  437   1.228   2.786  12.548  1.7938  0.4569 -2.1249
   28MPD2     N  438   1.344   3.149  12.291 -0.2902  0.1952  0.0269
   28MPD2    H5  439   1.302   3.233  12.254 -1.1349  0.4348  1.5587
   28MPD2    N1  440   0.952   3.128  12.571  0.2196  0.1269  0.0315
   28MPD2    H7  441   0.894   3.068  12.629 -0.7681  0.4984 -0.5814
   29MPD2     C  442   0.889   0.860  14.394  0.6802  0.4826  0.2767
   29MPD2    C1  443   0.971   0.821  14.496 -0.0429 -0.0143 -0.2833
   29MPD2    C2  444   1.005   0.909  14.601 -0.2830 -0.2271 -0.1791
   29MPD2    C3  445   0.959   1.039  14.595  0.3797 -0.6749  0.2178
   29MPD2    C4  446   0.878   1.082  14.493  0.5372 -0.2033 -0.1736
   29MPD2    C5  447   0.841   0.992  14.395  0.7100 -0.1473 -0.0944
   29MPD2     H  448   1.063   0.874  14.686  0.3763  1.9853  0.2916
   29MPD2    H1  449   0.847   1.185  14.482 -0.7108 -0.6619 -0.9679
   29MPD2    H2  450   0.856   0.792  14.317 -0.3183 -0.8226  1.8700
   29MPD2    H3  451   0.782   1.031  14.312  1.8814 -0.1045 -0.9021
   29MPD2     N  452   0.991   1.140  14.687 -0.6928  0.3165  0.1597
   29MPD2    H5  453   0.962   1.228  14.646  0.2032  0.4926 -0.0962
   29MPD2    N1  454   1.024   0.693  14.500  0.8167 -0.1258  0.1902
   29MPD2    H7  455   1.094   0.673  14.571  2.0449  0.1944 -0.9292
   30TCq2    C1  456   1.046   1.131  14.806  0.1172 -0.6720  0.7284
   30TCq2    O2  457   1.091   1.033  14.860 -0.0518 -0.1529 -0.6708
   30TCq2    C2  458   1.057   1.260  14.878 -0.6193  1.0032  0.0847
   30TCq2    C3  459   1.112   1.250  15.006 -0.5548  0.4641 -0.8247
   30TCq2    C4  460   1.147   1.370  15.062 -0.6286 -0.1935 -0.6140
   30TCq2    C5  461   1.154   1.486  14.992 -1.3459 -0.4856  0.0153
   30TCq2    C6  462   1.102   1.488  14.867 -1.1675  0.2601  0.7500
   30TCq2    C7  463   1.055   1.374  14.801 -0.2877 -0.2351  0.6129
   30TCq2    C8  464   1.107   1.604  14.777 -0.6513 -0.2899  0.2164
   30TCq2    O4  465   1.038   1.587  14.675 -0.1236  0.2355 -0.2108
   30TCq2    C9  466   1.199   1.370  15.200  0.2442 -0.5041  0.1013
   30TCq2    O5  467   1.158   1.272  15.272 -0.0784 -0.3652  0.2964
   30TCq2    O6  468   1.250   1.474  15.246  0.1349 -0.3400 -0.5022
   30TCq2    H2  469   1.111   1.157  15.062  2.3291  0.7551 -0.2783
   30TCq2    H3  470   1.156   1.575  15.053  1.9143 -0.3854 -0.2625
   30TCq2    H4  471   1.003   1.381  14.706  2.0114 -2.0161 -0.7984
   31MPD2     C  472   3.890   0.153  15.033  0.0886  0.0582 -0.9539
   31MPD2    C1  473   3.754   0.167  15.025 -0.3382  0.2106  0.3866
   31MPD2    C2  474   3.676   0.109  15.121  0.0318 -0.5762 -0.3548
   31MPD2    C3  475   3.729   0.026  15.223 -0.1418  0.7431  0.2077
   31MPD2    C4  476   3.866   0.012  15.227  0.2130 -0.5904 -1.0803
   31MPD2    C5  477   3.946   0.078  15.134  0.7127  0.1711  0.5974
   31MPD2     H  478   3.577   0.149  15.139  0.9931  0.5366  2.5570
   31MPD2    H1  479   3.915   4.682  15.309  1.3425  1.0723 -0.7200
   31MPD2    H2  480   3.955   0.204  14.962  0.9510 -0.6500 -0.6703
   31MPD2    H3  481   4.053   0.066  15.147  0.3580 -2.3405  1.1856
   31MPD2     N  482   3.649   4.674  15.318  0.2345  0.2900  0.5618
   31MPD2    H5  483   3.706   4.618  15.381  0.4972 -0.7293 -0.5951
   31MPD2    N1  484   3.702   0.251  14.923 -0.4600  1.1458  0.4054
   31MPD2    H7  485   3.764   0.305  14.864  1.1587 -0.9800  0.1468
   32TCq2    C1  486   3.513   4.655  15.316 -0.1271  0.3239  0.5290
   32TCq2    O2  487   3.442   4.692  15.225  0.6269 -0.0219 -0.1955
   32TCq2    C2  488   3.453   4.622  15.447  0.3522 -0.2768 -0.3301
   32TCq2    C3  489   3.327   4.654  15.462 -0.7240  0.2956 -0.1737
   32TCq2    C4  490   3.258   4.620  15.577 -1.4443 -0.0532  0.0876
   32TCq2    C5  491   3.323   4.548  15.669  0.1565  0.5862  0.1384
   32TCq2    C6  492   3.449   4.501  15.650  0.1313 -0.1326 -0.6630
   32TCq2    C7  493   3.520   4.539  15.538 -0.4017 -0.9064 -0.3499
   32TCq2    C8  494   3.534   4.459  15.767  0.0555  0.2857 -0.2589
   32TCq2    O4  495   3.657   4.436  15.760 -0.4460 -0.5631  0.0934
   32TCq2    C9  496   3.123   4.663  15.607 -0.4162 -0.4772  0.4877
   32TCq2    O5  497   3.085   4.662  15.726  0.0644  0.3362  0.3612
   32TCq2    O6  498   3.050   4.702  15.511 -0.0404  0.0460 -0.5644
   32TCq2    H2  499   3.271   4.715  15.392 -0.7197  0.2997 -0.1735
   32TCq2    H3  500   3.262   4.519  15.754 -0.9277  0.8325 -0.5549
   32TCq2    H4  501   3.623   4.514  15.515 -0.7130 -2.5556  0.0265
   33MPD2     C  502   3.785   2.080  10.172  0.1710  0.1647  0.4670
   33MPD2    C1  503   3.655   2.078  10.218  0.1452  0.4540  0.6744
   33MPD2    C2  504   3.584   2.200  10.217  0.0594  0.3468  0.5153
   33MPD2    C3  505   3.645   2.316  10.179  0.5545  0.6187  0.2240
   33MPD2    C4  506   3.782   2.320  10.158  0.3802 -0.5043  0.4939
   33MPD2    C5  507   3.850   2.202  10.148 -0.1819 -0.5740 -0.3014
   33MPD2     H  508   3.483   2.207  10.256  0.4812 -0.1351  1.6819
   33MPD2    H1  509   3.827   2.414  10.131  0.8667 -0.9992 -0.4122
   33MPD2    H2  510   3.844   1.989  10.165  2.8442  1.9477 -0.2806
   33MPD2    H3  511   3.951   2.198  10.109 -0.1929 -1.8100 -0.1867
   33MPD2     N  512   3.574   2.442  10.190  0.4966 -0.3373  0.4536
   33MPD2    H5  513   3.623   2.530  10.203  0.3474  0.0833 -1.8774
   33MPD2    N1  514   3.612   1.956  10.263 -0.0735 -0.3073 -0.0071
   33MPD2    H7  515   3.692   1.899  10.290 -0.1982 -0.3766  0.2159
   34TCq2    C1  516   3.441   2.445  10.190  0.2093 -0.0552 -0.0344
   34TCq2    O2  517   3.357   2.359  10.174  0.4616  0.3160 -0.3940
   34TCq2    C2  518   3.392   2.581  10.181  0.9916 -0.7802  0.2938
   34TCq2    C3  519   3.257   2.588  10.162  0.5931 -0.3952 -0.1581
   34TCq2    C4  520   3.195   2.706  10.118  0.0194  0.1247  0.1850
   34TCq2    C5  521   3.277   2.807  10.073  0.1104  0.4101 -0.1669
   34TCq2    C6  522   3.413   2.782  10.081  0.0105  0.2715  0.2006
   34TCq2    C7  523   3.477   2.678  10.136 -0.7759 -0.3889  0.3232
   34TCq2    C8  524   3.506   2.862  10.001 -0.0182  0.4173 -0.6143
   34TCq2    O4  525   3.604   2.910  10.054  0.3451  0.0674  0.1749
   34TCq2    C9  526   3.056   2.706  10.086  0.2102  1.1028 -0.4437
   34TCq2    O5  527   2.975   2.622  10.136 -0.4366  0.1593 -0.6229
   34TCq2    O6  528   3.023   2.786   9.997  0.4240  0.0952  0.0850
   34TCq2    H2  529   3.200   2.498  10.184  1.0579 -0.5946  0.2425
   34TCq2    H3  530   3.245   2.904  10.035 -0.6046 -0.0229 -0.6576
   34TCq2    H4  531   3.582   2.663  10.110 -1.1567  0.2107 -1.5575
   35MPD2     C  532   0.372   3.880  11.766  0.1311  0.1766  0.0255
   35MPD2    C1  533   0.335   3.748  11.771  0.0270  0.0127  0.6540
   35MPD2    C2  534   0.251   3.700  11.673 -0.9375  0.5068  0.9342
   35MPD2    C3  535   0.194   3.783  11.580 -0.2647 -0.1553 -0.3220
   35MPD2    C4  536   0.230   3.918  11.574 -0.4865 -0.1254  0.0554
   35MPD2    C5  537   0.325   3.963  11.663  0.0396 -1.0403 -0.4166
   35MPD2     H  538   0.221   3.596  11.666 -1.0231  0.6259 -0.5190
   35MPD2    H1  539   0.196   3.985  11.496  2.6145  0.8565 -0.4290
   35MPD2    H2  540   0.441   3.935  11.829 -0.1179  0.0459  0.4108
   35MPD2    H3  541   0.357   4.067  11.667 -4.2971  0.2927 -0.6807
   35MPD2     N  542   0.111   3.724  11.474  0.1325 -0.0027 -0.6324
   35MPD2    H5  543   0.106   3.623  11.474 -2.2658  0.0876  1.3543
   35MPD2    N1  544   0.392   3.671  11.877 -0.8547  0.0390 -1.0135
   35MPD2    H7  545   0.447   3.718  11.948 -1.6500 -0.6554  0.0694
   36TCq2    C1  546   0.048   3.797  11.368 -0.6550 -0.1084  0.6026
   36TCq2    O2  547   0.049   3.918  11.337 -0.1923  0.0544  0.3743
   36TCq2    C2  548   4.671   3.719  11.294  0.0759 -0.2484 -0.6739
   36TCq2    C3  549   4.612   3.786  11.196  0.3578  0.1518 -1.1279
   36TCq2    C4  550   4.517   3.716  11.130 -0.1135 -0.1997  0.7656
   36TCq2    C5  551   4.489   3.584  11.160 -0.0089 -0.8084 -0.6000
   36TCq2    C6  552   4.554   3.525  11.261 -0.5589 -0.2002  0.5246
   36TCq2    C7  553   4.646   3.588  11.337  0.5891 -0.3460 -0.7312
   36TCq2    C8  554   4.483   3.408  11.319 -0.1122 -0.0902 -0.0731
   36TCq2    O4  555   4.381   3.384  11.258 -0.6356 -0.4824 -0.5977
   36TCq2    C9  556   4.447   3.786  11.026 -0.1644  0.2078  0.0118
   36TCq2    O5  557   4.509   3.885  10.978  0.2177 -0.4541  0.3682
   36TCq2    O6  558   4.372   3.705  10.961  0.0458  0.3520 -0.5526
   36TCq2    H2  559   4.627   3.891  11.175  1.0213  0.3692  0.4247
   36TCq2    H3  560   4.424   3.525  11.096 -0.1888 -0.3260 -0.8662
   36TCq2    H4  561   4.695   3.552  11.427 -0.1381  2.1820  0.6853
   37TMC2    C1  562   2.563   3.831  11.607 -0.4775  0.3419  0.9673
   37TMC2    C2  563   2.595   3.762  11.492  0.0464  0.2051 -0.0530
   37TMC2    C3  564   2.725   3.762  11.453 -0.3537 -0.3374 -0.7608
   37TMC2    C4  565   2.661   3.873  11.684 -0.2892 -0.6084  0.0909
   37TMC2    C5  566   2.785   3.879  11.635 -0.2197  0.0008  0.0825
   37TMC2    C6  567   2.829   3.817  11.519  0.1567  0.1281  0.4661
   37TMC2     C  568   2.420   3.840  11.640 -0.2045  0.4862 -0.1918
   37TMC2     O  569   2.345   3.823  11.543  1.1318  0.2224  0.1545
   37TMC2     H  570   2.516   3.718  11.433 -2.3685  1.0628  2.5561
   37TMC2    H1  571   2.648   3.916  11.783  0.2025 -0.1261 -0.0610
   37TMC2    H2  572   2.926   3.831  11.474  0.1454  0.7622  0.6305
   37TMC2    C7  573   2.887   3.908  11.733 -0.3328  0.4358  0.8769
   37TMC2    C8  574   2.780   3.670  11.350  0.1683 -0.4999 -0.5357
   37TMC2    O1  575   2.862   3.873  11.851  0.0856 -0.3553  0.4785
   37TMC2    O2  576   2.863   3.695  11.262 -1.1012  0.4858 -0.1850
   37TMC2    O5  577   2.689   3.569  11.343  0.2346  0.3228 -0.2866
   37TMC2    H5  578   2.648   3.545  11.430 -0.7902  0.3015 -0.7760
   38MPD2     C  579   2.024   3.916  11.932 -0.3134 -0.3345  0.0374
   38MPD2    C1  580   2.135   3.897  12.015  0.1303 -0.0456 -0.1653
   38MPD2    C2  581   2.256   3.896  11.951  0.0491  0.1499  0.5224
   38MPD2    C3  582   2.267   3.914  11.817  0.5284 -0.2543  0.1804
   38MPD2    C4  583   2.162   3.929  11.734  0.5029  0.2351 -0.6561
   38MPD2    C5  584   2.038   3.933  11.793 -0.7538  1.0075  0.0564
   38MPD2     H  585   2.344   3.885  12.015  1.1500  0.4765 -0.9480
   38MPD2    H1  586   2.163   3.941  11.626 -3.1948 -1.9415 -0.9317
   38MPD2    H2  587   1.918   3.918  11.957 -0.7455  2.7920 -2.0891
   38MPD2    H3  588   1.950   3.945  11.731 -1.8237 -1.2843  1.1272
   38MPD2     N  589   2.399   3.883  11.769  0.0887  0.5200 -0.1379
   38MPD2    H5  590   2.476   3.867  11.833 -0.5173 -1.2221  0.1394
   38MPD2    N1  591   2.128   3.867  12.149 -0.3934  0.0703 -0.0679
   38MPD2    H7  592   2.217   3.840  12.189  0.9656 -0.0438 -3.1424
   39MPD2     C  593   1.201   1.332   1.689 -0.3679  0.3119  1.2954
   39MPD2    C1  594   1.096   1.289   1.755 -0.2608  0.1112  0.1517
   39MPD2    C2  595   0.972   1.315   1.703 -0.0174  0.6004 -0.0760
   39MPD2    C3  596   0.952   1.388   1.581 -0.4301 -0.0214  0.5334
   39MPD2    C4  597   1.060   1.448   1.520 -0.0508 -0.2553  0.0272
   39MPD2    C5  598   1.187   1.416   1.575  0.1510  0.4127  0.3538
   39MPD2     H  599   0.884   1.265   1.743  1.8334 -0.7805  2.2403
   39MPD2    H1  600   1.055   1.493   1.422 -0.5159  2.3795  1.2655
   39MPD2    H2  601   1.303   1.306   1.713 -0.1251 -0.1915 -0.2851
   39MPD2    H3  602   1.277   1.455   1.528 -2.1615  1.8526 -2.8555
   39MPD2     N  603   0.831   1.407   1.511  0.2681 -0.3202  1.0778
   39MPD2    H5  604   0.842   1.459   1.424  0.7707  1.5385  2.2377
   39MPD2    N1  605   1.127   1.228   1.880 -0.6364 -0.5290 -0.0554
   39MPD2    H7  606   1.225   1.206   1.897 -1.3258 -1.5875  2.5613
   40TCq2    C1  607   1.031   1.200   1.967 -0.0777 -0.2171 -0.0900
   40TCq2    O2  608   0.914   1.241   1.970 -0.5828  0.0566 -0.1993
   40TCq2    C2  609   1.070   1.126   2.086  0.2824  0.5998 -0.7068
   40TCq2    C3  610   0.971   1.090   2.176 -0.7073  0.1740 -0.3861
   40TCq2    C4  611   0.997   1.004   2.278 -0.3918  0.0559 -0.1839
   40TCq2    C5  612   1.120   0.955   2.282  0.6894 -0.5597 -0.4007
   40TCq2    C6  613   1.220   0.994   2.202  0.4231  0.1680  0.2061
   40TCq2    C7  614   1.201   1.082   2.098  0.0608  0.1783  0.8387
   40TCq2    C8  615   1.354   0.945   2.237 -0.4898 -0.4412 -0.2155
   40TCq2    O4  616   1.367   0.837   2.296  0.7406 -0.4111 -0.1464
   40TCq2    C9  617   0.894   0.952   2.371 -0.3667 -0.0087  0.0259
   40TCq2    O5  618   0.781   1.000   2.355  0.0449  0.4421  0.1223
   40TCq2    O6  619   0.923   0.846   2.427 -0.3325 -0.4612  0.1444
   40TCq2    H2  620   0.870   1.128   2.169 -0.8257  0.4029  2.7205
   40TCq2    H3  621   1.146   0.887   2.362  3.0522  0.6876 -0.1086
   40TCq2    H4  622   1.275   1.088   2.020  0.3419  1.2674  1.1853
   41TMC2    C1  623   3.850   3.485  13.610 -0.5575  0.1933 -0.0592
   41TMC2    C2  624   3.934   3.380  13.602 -0.4289 -0.1265  0.6138
   41TMC2    C3  625   3.968   3.335  13.477 -0.3046 -0.1008 -0.4918
   41TMC2    C4  626   3.796   3.541  13.496 -0.5531 -0.1614 -0.1637
   41TMC2    C5  627   3.856   3.511  13.379  0.2828  0.3512 -0.1619
   41TMC2    C6  628   3.943   3.405  13.360 -0.0477 -0.0798 -0.1230
   41TMC2     C  629   3.770   3.489  13.727 -0.2433 -0.7641  0.3416
   41TMC2     O  630   3.652   3.515  13.705 -0.0653 -0.2807 -0.1936
   41TMC2     H  631   3.952   3.310  13.682 -1.3469  1.4166  2.1488
   41TMC2    H1  632   3.708   3.603  13.501 -1.3972 -1.4290  0.6924
   41TMC2    H2  633   3.976   3.378  13.261  2.8752  1.8372  0.3276
   41TMC2    C7  634   3.796   3.571  13.260  0.4236 -0.7364 -0.3804
   41TMC2    C8  635   4.018   3.192  13.477 -0.2241  0.2335  0.9206
   41TMC2    O1  636   3.682   3.613  13.268 -0.1998  0.0359  0.4268
   41TMC2    O2  637   4.026   3.121  13.576  0.0598 -0.2319  0.8337
   41TMC2    O5  638   4.092   3.170  13.369  0.3917  0.0409 -0.4103
   41TMC2    H5  639   4.123   3.252  13.326 -0.2535  0.6372  0.2664
   42MPD2     C  640   3.649   3.392  13.986  0.3766 -0.1506  0.3255
   42MPD2    C1  641   3.786   3.433  13.971  0.2432 -1.1291 -0.2025
   42MPD2    C2  642   3.875   3.434  14.080  0.2965  0.3984 -0.3470
   42MPD2    C3  643   3.836   3.394  14.208 -0.8850 -0.1573  0.6224
   42MPD2    C4  644   3.705   3.356  14.218  0.2561  0.0616 -0.3043
   42MPD2    C5  645   3.615   3.359  14.115  0.5118 -0.5756  1.0006
   42MPD2     H  646   3.977   3.463  14.061  0.4332  0.2025  0.0964
   42MPD2    H1  647   3.673   3.323  14.316 -1.2882  1.5220 -0.3200
   42MPD2    H2  648   3.579   3.385  13.904  1.8973 -0.5307 -0.9524
   42MPD2    H3  649   3.515   3.319  14.130  0.4134 -0.2599  1.1834
   42MPD2     N  650   3.918   3.384  14.322  0.1519  0.1414 -0.5359
   42MPD2    H5  651   3.881   3.330  14.400 -0.7250 -1.3831 -2.0259
   42MPD2    N1  652   3.840   3.462  13.842  0.4675  0.4797 -0.0860
   42MPD2    H7  653   3.941   3.462  13.835  0.3965  2.5087 -1.0760
   43MPD2     C  654   0.792   2.191   0.808  0.0707  0.7340  0.6674
   43MPD2    C1  655   0.864   2.243   0.913  0.3385  0.3126  0.1877
   43MPD2    C2  656   0.798   2.333   0.999 -0.1274  0.3263 -0.7294
   43MPD2    C3  657   0.665   2.367   0.986 -0.7351  0.4900 -0.0949
   43MPD2    C4  658   0.602   2.315   0.882  0.1608 -0.6214  0.3660
   43MPD2    C5  659   0.659   2.238   0.792  0.2963  0.5715 -0.2090
   43MPD2     H  660   0.852   2.371   1.085 -2.0950  0.1180  0.6096
   43MPD2    H1  661   0.499   2.346   0.871  0.5355  0.7502  0.7183
   43MPD2    H2  662   0.830   2.115   0.741 -1.2520  0.6429  0.0102
   43MPD2    H3  663   0.588   2.188   0.726  2.2609 -1.3655 -0.8504
   43MPD2     N  664   0.593   2.444   1.077  0.1692 -0.3550  0.2277
   43MPD2    H5  665   0.493   2.451   1.062  0.0021 -1.7391  0.6859
   43MPD2    N1  666   0.995   2.196   0.951 -0.7437  0.3684 -0.3735
   43MPD2    H7  667   1.037   2.241   1.031  0.5573  0.9322 -1.3818
   44TCq2    C1  668   0.490   2.526   1.651 -0.1909  0.6512  0.4716
   44TCq2    O2  669   0.608   2.495   1.666 -0.3381 -0.2386  0.4859
   44TCq2    C2  670   0.466   2.549   1.510 -0.2955 -0.6928  0.4260
   44TCq2    C3  671   0.335   2.570   1.467 -0.4885 -1.0852 -0.1028
   44TCq2    C4  672   0.316   2.580   1.327 -0.2326  0.2740  0.1434
   44TCq2    C5  673   0.412   2.558   1.237 -0.1758  0.0046  0.1064
   44TCq2    C6  674   0.542   2.543   1.287  0.4351 -0.0891 -0.7843
   44TCq2    C7  675   0.575   2.536   1.421  0.5224  0.1658  0.5369
   44TCq2    C8  676   0.649   2.503   1.192 -0.3546  0.0309  0.6610
   44TCq2    O4  677   0.767   2.517   1.222  0.0299  0.4438  0.4868
   44TCq2    C9  678   0.178   2.583   1.284 -0.7808  0.0067  0.0497
   44TCq2    O5  679   0.100   2.629   1.371  0.1276  0.3653  0.2636
   44TCq2    O6  680   0.152   2.568   1.162  0.0945 -0.2270 -0.7133
   44TCq2    H2  681   0.251   2.584   1.534  0.7404  1.7385  0.8443
   44TCq2    H3  682   0.380   2.548   1.134 -1.6908  1.9152  0.3841
   44TCq2    H4  683   0.679   2.524   1.449  0.9409 -0.8486 -1.4470
   45TMC2    C1  684   1.399   3.833   9.807  0.0421  0.7395 -0.0815
   45TMC2    C2  685   1.493   3.789   9.897 -0.1019 -0.1180 -0.2260
   45TMC2    C3  686   1.581   3.886   9.937 -0.1509  0.1808 -0.4061
   45TMC2    C4  687   1.404   3.962   9.759 -0.1295  1.0078  0.2859
   45TMC2    C5  688   1.507   4.045   9.793  0.4444 -0.5281  0.0814
   45TMC2    C6  689   1.600   4.008   9.883 -0.3378 -1.3965  0.4281
   45TMC2     C  690   1.294   3.733   9.782 -0.0367  0.0701 -0.2733
   45TMC2     O  691   1.322   3.618   9.811  0.0549 -0.3132 -0.1205
   45TMC2     H  692   1.479   3.695   9.949 -1.4646  0.0232 -0.3323
   45TMC2    H1  693   1.337   3.993   9.679 -0.2702  0.0637  0.0278
   45TMC2    H2  694   1.676   4.074   9.925 -0.4645  0.9819 -3.0920
   45TMC2    C7  695   1.525   4.167   9.711  0.5640  0.7429 -0.1817
   45TMC2    C8  696   1.692   3.838  10.011  0.6119 -0.0841  0.4927
   45TMC2    O1  697   1.450   4.197   9.621  0.5028 -0.4655  0.3527
   45TMC2    O2  698   1.800   3.896   9.993  0.2387 -0.1239  0.5483
   45TMC2    O5  699   1.638   3.802  10.133  0.6199 -0.4368  0.0101
   45TMC2    H5  700   1.544   3.781  10.151  0.2359  2.2145  1.1019
   46MPD2     C  701   1.055   3.565   9.717  0.3180 -0.0349 -0.2997
   46MPD2    C1  702   1.066   3.703   9.686  0.2328 -0.5517 -0.3719
   46MPD2    C2  703   0.959   3.758   9.627  0.6126  0.2149  0.3857
   46MPD2    C3  704   0.847   3.686   9.600 -0.5677  1.3434  0.1150
   46MPD2    C4  705   0.834   3.555   9.655  0.4516 -0.4925 -0.5408
   46MPD2    C5  706   0.938   3.495   9.710 -0.0109  0.4074  0.0303
   46MPD2     H  707   0.963   3.862   9.596  1.2382  0.4511  1.2739
   46MPD2    H1  708   0.742   3.499   9.649  0.1874 -0.0585 -0.5551
   46MPD2    H2  709   1.133   3.510   9.769  1.2798  1.6334  0.0419
   46MPD2    H3  710   0.944   3.394   9.747 -1.0346  0.1171 -0.5972
   46MPD2     N  711   0.736   3.748   9.529 -0.8088 -0.4936 -0.1669
   46MPD2    H5  712   0.739   3.849   9.516  0.5873 -0.1250  3.1192
   46MPD2    N1  713   1.181   3.785   9.716  0.0042  0.4217  0.0301
   46MPD2    H7  714   1.159   3.883   9.698 -1.1664  0.3086  0.8439
   47TMC2    C1  715   3.307   4.654   9.214  0.1782 -0.3932  0.0045
   47TMC2    C2  716   3.313   4.519   9.233  0.8078  0.0413 -0.1939
   47TMC2    C3  717   3.191   4.452   9.211  0.1121 -0.5350  0.0363
   47TMC2    C4  718   3.188   0.001   9.199  0.3122  0.2797 -0.7545
   47TMC2    C5  719   3.075   4.651   9.194 -0.0518  0.2299  0.3302
   47TMC2    C6  720   3.068   4.515   9.202  0.3995  0.4531 -0.4319
   47TMC2     C  721   3.421   0.021   9.231  0.3567  0.7285 -0.8273
   47TMC2     O  722   3.402   0.142   9.219 -0.4735  0.0341  0.9938
   47TMC2     H  723   3.409   4.468   9.232 -0.1033 -1.6617 -0.7318
   47TMC2    H1  724   3.181   0.109   9.184 -1.7602  0.3164  0.3497
   47TMC2    H2  725   2.981   4.450   9.198  0.4524  0.5302 -2.5257
   47TMC2    C7  726   2.950   4.719   9.183 -0.2570 -0.2944 -0.6015
   47TMC2    C8  727   3.199   4.310   9.177  0.3358 -0.0644 -0.6159
   47TMC2    O1  728   2.948   0.115   9.231 -0.0724 -0.3338  0.1896
   47TMC2    O2  729   3.276   4.236   9.228 -0.0577 -0.0474  0.1114
   47TMC2    O5  730   3.103   4.281   9.085 -0.3772 -0.1585 -0.6995
   47TMC2    H5  731   3.039   4.350   9.056 -0.5325  0.0240  0.0729
   48MPD2     C  732   3.677   0.162   9.309  0.4643 -0.1496 -0.1067
   48MPD2    C1  733   3.662   0.023   9.302  0.6816  0.5596 -0.1264
   48MPD2    C2  734   3.777   4.661   9.322  0.2246 -0.5703 -0.1912
   48MPD2    C3  735   3.906   0.005   9.335  0.7393 -0.1604  0.6909
   48MPD2    C4  736   3.922   0.144   9.330 -0.5148 -0.4907  0.5284
   48MPD2    C5  737   3.806   0.217   9.322  0.3930 -0.6689 -0.2259
   48MPD2     H  738   3.767   4.553   9.316 -3.8103 -0.1301 -1.3347
   48MPD2    H1  739   4.016   0.198   9.337  0.1378 -1.5257 -0.3261
   48MPD2    H2  740   3.594   0.231   9.303 -1.9734 -2.9399  1.8921
   48MPD2    H3  741   3.828   0.324   9.326 -2.5675 -0.0120 -1.3848
   48MPD2     N  742   4.012   4.638   9.353 -0.1223 -0.3573  0.5521
   48MPD2    H5  743   3.983   4.541   9.352  2.9701 -1.3054  1.0290
   48MPD2    N1  744   3.538   4.681   9.268 -1.0462  0.0824  0.2676
   48MPD2    H7  745   3.533   4.580   9.262 -0.0510  0.3041 -3.9144
   49MPD2     C  746   2.156   2.416   9.743 -0.1234 -0.1543  0.0928
   49MPD2    C1  747   2.060   2.367   9.835 -0.1793  0.4024 -0.2873
   49MPD2    C2  748   2.079   2.382   9.970  0.6669  0.6548  1.3262
   49MPD2    C3  749   2.202   2.419  10.027 -0.2899  0.0108  1.0137
   49MPD2    C4  750   2.294   2.468   9.937 -0.3462 -0.0334 -0.6719
   49MPD2    C5  751   2.274   2.465   9.797  0.6019 -0.1566 -0.7744
   49MPD2     H  752   1.998   2.361  10.040  0.9433 -3.6852  0.2934
   49MPD2    H1  753   2.384   2.514   9.975  0.4453 -2.6127  0.5565
   49MPD2    H2  754   2.146   2.400   9.637 -2.4710 -1.6899  0.5526
   49MPD2    H3  755   2.353   2.494   9.728 -0.2247  0.2837 -1.5343
   49MPD2     N  756   2.235   2.415  10.164  0.2309  0.4722  0.5088
   49MPD2    H5  757   2.316   2.472  10.185 -0.9710  2.5397 -0.5366
   49MPD2    N1  758   1.939   2.301   9.795  0.7437  0.3936 -0.4751
   49MPD2    H7  759   1.876   2.270   9.868 -0.0982  3.2094  0.0229
   50TCq2    C1  760   1.905   2.269   9.667  0.2361  0.1939 -0.1234
   50TCq2    O2  761   1.959   2.289   9.561  0.0559 -0.1530 -0.4680
   50TCq2    C2  762   1.773   2.219   9.659  0.2938  0.2714  0.4318
   50TCq2    C3  763   1.714   2.237   9.537 -0.0814  0.5220  0.6360
   50TCq2    C4  764   1.588   2.189   9.524 -0.3237  1.3434 -0.5021
   50TCq2    C5  765   1.521   2.127   9.627 -0.3329  0.5973  0.0166
   50TCq2    C6  766   1.580   2.125   9.742  0.4796  1.1048  0.3017
   50TCq2    C7  767   1.704   2.175   9.766 -0.0654  0.3966  0.0602
   50TCq2    C8  768   1.511   2.055   9.855 -0.8257  0.1458  0.4474
   50TCq2    O4  769   1.445   1.952   9.835 -0.2470  0.0518 -0.7691
   50TCq2    C9  770   1.520   2.191   9.394  0.1201  0.4997 -0.2537
   50TCq2    O5  771   1.576   2.238   9.296  0.0478  0.4495 -0.0359
   50TCq2    O6  772   1.404   2.146   9.394 -0.3771  0.5439 -0.3622
   50TCq2    H2  773   1.768   2.277   9.452  0.0668  2.1426  1.4880
   50TCq2    H3  774   1.420   2.089   9.615 -0.6143  0.4552  2.6958
   50TCq2    H4  775   1.756   2.145   9.856 -0.6063  1.5006  0.7424
   51MPD2     C  776   2.897   4.521   1.991  0.4302 -0.0696 -0.5396
   51MPD2    C1  777   3.018   4.476   1.947  0.1140  0.1471 -0.4370
   51MPD2    C2  778   3.120   4.564   1.922  0.3381 -0.0902  0.3066
   51MPD2    C3  779   3.088   4.699   1.907 -0.2031 -0.1223  0.4107
   51MPD2    C4  780   2.958   0.021   1.933 -0.4344 -0.6041  0.1453
   51MPD2    C5  781   2.869   4.655   1.988 -0.6210  0.3562 -0.4689
   51MPD2     H  782   3.220   4.526   1.900  0.3018 -0.8737  1.5002
   51MPD2    H1  783   2.928   0.125   1.935 -0.7087 -0.6927  0.5123
   51MPD2    H2  784   2.807   4.462   1.998 -0.2188  0.8204 -1.4732
   51MPD2    H3  785   2.770   4.693   2.010 -0.1277  0.8690  0.8359
   51MPD2     N  786   3.181   0.074   1.862 -0.4817 -0.6469  0.4579
   51MPD2    H5  787   3.145   0.168   1.852 -3.0260 -1.4406  2.2322
   51MPD2    N1  788   3.045   4.338   1.944  0.2726 -0.1567  0.4488
   51MPD2    H7  789   3.140   4.319   1.913 -0.3454  2.6893 -3.1853
   52TCq2    C1  790   3.314   0.058   1.825 -0.8032  0.4096 -0.0870
   52TCq2    O2  791   3.381   4.674   1.833 -0.3643  0.2972  0.2437
   52TCq2    C2  792   3.382   0.184   1.777 -0.2103  0.0353 -0.1469
   52TCq2    C3  793   3.511   0.175   1.734 -0.1940 -0.5124 -0.6991
   52TCq2    C4  794   3.577   0.285   1.696  0.1494  0.0806  0.5594
   52TCq2    C5  795   3.508   0.402   1.680 -0.2273  0.0674 -0.3339
   52TCq2    C6  796   3.375   0.417   1.720  0.4454  0.3365 -0.5112
   52TCq2    C7  797   3.314   0.299   1.768 -0.2541  0.0948  0.3995
   52TCq2    C8  798   3.324   0.548   1.751 -0.0203  0.1220 -0.1747
   52TCq2    O4  799   3.395   0.647   1.745 -0.3475 -0.6511 -0.0097
   52TCq2    C9  800   3.717   0.266   1.661 -0.3917  0.4260 -0.3035
   52TCq2    O5  801   3.772   0.151   1.673 -0.1626  0.2649  0.2293
   52TCq2    O6  802   3.772   0.356   1.592  0.1017 -0.2538 -0.0443
   52TCq2    H2  803   3.562   0.080   1.728 -0.4308 -0.7249  0.7117
   52TCq2    H3  804   3.568   0.488   1.654  1.7058 -1.2305 -0.1768
   52TCq2    H4  805   3.208   0.307   1.789 -0.4721  0.2702 -0.7536
   53TMC2    C1  806   3.423   3.707  12.195 -0.4476  0.1983  1.0490
   53TMC2    C2  807   3.547   3.708  12.252 -0.2256 -1.0191 -0.5119
   53TMC2    C3  808   3.555   3.771  12.377  0.1499  0.7106  0.4161
   53TMC2    C4  809   3.315   3.766  12.257 -0.3578  0.6594 -0.0693
   53TMC2    C5  810   3.325   3.807  12.390 -0.2613  0.3676  0.0597
   53TMC2    C6  811   3.452   3.821  12.448 -0.2395  0.5848  0.2007
   53TMC2     C  812   3.429   3.709  12.044  0.2008 -0.0864  0.0972
   53TMC2     O  813   3.529   3.685  11.982  0.0232  0.4367  0.2576
   53TMC2     H  814   3.634   3.670  12.199 -0.6152 -3.4483  0.6127
   53TMC2    H1  815   3.218   3.758  12.211 -1.5673  0.0045  2.5673
   53TMC2    H2  816   3.479   3.866  12.543 -0.3430  0.4191  0.3093
   53TMC2    C7  817   3.204   3.855  12.452  0.2369  0.3618 -0.2998
   53TMC2    C8  818   3.685   3.777  12.428 -0.6585  0.4950  0.1723
   53TMC2    O1  819   3.109   3.862  12.379 -0.3817 -0.1951 -0.2340
   53TMC2    O2  820   3.716   3.874  12.493  0.0441 -0.2624  0.1566
   53TMC2    O5  821   3.741   3.655  12.435  0.2465 -0.0344 -0.2909
   53TMC2    H5  822   3.703   3.584  12.379 -2.0487  0.8018  0.2195
   54MPD2     C  823   3.387   3.859  11.786 -0.3425  0.4540 -0.2318
   54MPD2    C1  824   3.281   3.808  11.860 -0.1756 -0.0866  0.0465
   54MPD2    C2  825   3.154   3.847  11.821  0.3146 -0.5065  0.0458
   54MPD2    C3  826   3.134   3.924  11.711  0.1017 -0.4478 -0.2203
   54MPD2    C4  827   3.237   3.963  11.633  0.1287  1.2331 -0.0780
   54MPD2    C5  828   3.358   3.930  11.673 -0.1010 -0.6680 -0.4132
   54MPD2     H  829   3.074   3.807  11.882 -0.7278 -0.7741 -1.5095
   54MPD2    H1  830   3.219   4.029  11.549 -1.4853 -1.4910 -1.9019
   54MPD2    H2  831   3.489   3.836  11.813 -0.5674  0.2415  0.4367
   54MPD2    H3  832   3.440   3.964  11.611  0.3276 -0.8801  0.0309
   54MPD2     N  833   3.002   3.944  11.668 -0.1061  0.0389  0.6355
   54MPD2    H5  834   2.983   3.981  11.576  0.1395  1.5629  1.1963
   54MPD2    N1  835   3.305   3.750  11.992  0.0099  0.7132 -0.3440
   54MPD2    H7  836   3.223   3.731  12.049 -0.7119 -0.7077 -1.8200
   55MPD2     C  837   4.024   1.036   0.573 -0.2634  0.5049 -0.0657
   55MPD2    C1  838   3.921   0.979   0.645 -0.7828 -0.7624 -0.2215
   55MPD2    C2  839   3.825   1.064   0.693 -0.7987 -0.7749  0.2877
   55MPD2    C3  840   3.826   1.201   0.666  0.0850  0.3321 -0.4195
   55MPD2    C4  841   3.923   1.251   0.579  0.0532  0.5484  0.2268
   55MPD2    C5  842   4.024   1.170   0.535  0.3949  0.3526 -0.1160
   55MPD2     H  843   3.746   1.033   0.760 -0.9096 -0.6980  0.1914
   55MPD2    H1  844   3.923   1.357   0.556 -0.5940  0.2125 -1.3239
   55MPD2    H2  845   4.110   0.973   0.551  1.0660  2.4169 -0.2964
   55MPD2    H3  846   4.091   1.221   0.467  0.3685 -1.2316 -1.3296
   55MPD2     N  847   3.722   1.276   0.719  0.0439  0.3450  0.2700
   55MPD2    H5  848   3.670   1.244   0.800  1.1988 -1.3179  0.3705
   55MPD2    N1  849   3.928   0.842   0.673  0.6228 -0.9711  0.6672
   55MPD2    H7  850   4.016   0.795   0.651  1.5281  0.5610  1.0240
   56TCq2    C1  851   3.830   0.770   0.735  0.1921 -0.5152  0.0689
   56TCq2    O2  852   3.715   0.802   0.766 -0.6950  0.2017  0.5108
   56TCq2    C2  853   3.876   0.649   0.802 -0.2901 -0.6353  0.0504
   56TCq2    C3  854   4.008   0.621   0.791 -0.4304  0.5418 -0.2340
   56TCq2    C4  855   4.081   0.567   0.892 -0.0376 -0.0271  0.6166
   56TCq2    C5  856   4.027   0.532   1.016  0.1372  0.2758 -0.5808
   56TCq2    C6  857   3.890   0.554   1.023 -0.3537 -0.8244 -0.3079
   56TCq2    C7  858   3.813   0.612   0.919 -0.1819  0.0159 -0.6195
   56TCq2    C8  859   3.818   0.493   1.127  0.0575 -0.7423  0.5006
   56TCq2    O4  860   3.872   0.398   1.186 -0.2818  0.1839 -0.1366
   56TCq2    C9  861   4.217   0.545   0.876 -0.1884  0.4264  0.3579
   56TCq2    O5  862   4.268   0.452   0.948  0.2536  0.0682 -0.0575
   56TCq2    O6  863   4.277   0.618   0.798  0.0924 -0.4931  0.0003
   56TCq2    H2  864   4.063   0.635   0.699 -1.1472  1.0895 -0.5742
   56TCq2    H3  865   4.088   0.499   1.098  0.8349  0.6073 -0.9621
   56TCq2    H4  866   3.706   0.626   0.929 -0.7723 -2.7335 -2.8330
   57TMC2    C1  867   3.099   3.006  13.583  0.3919  0.8251  0.6947
   57TMC2    C2  868   3.222   2.999  13.646 -0.1508  0.0310 -0.2099
   57TMC2    C3  869   3.319   2.919  13.585 -0.0273  0.4418  0.6204
   57TMC2    C4  870   3.072   2.943  13.465  0.3400  0.6557  0.2568
   57TMC2    C5  871   3.166   2.861  13.417  0.0244  0.2828  0.0176
   57TMC2    C6  872   3.294   2.850  13.470 -0.7087  0.0645 -0.1950
   57TMC2     C  873   2.986   3.089  13.636 -0.6166  0.2703  0.3605
   57TMC2     O  874   2.885   3.115  13.568 -0.3139 -0.0776 -0.4158
   57TMC2     H  875   3.263   3.065  13.721  0.9955 -0.7758 -0.1188
   57TMC2    H1  876   2.972   2.951  13.426  1.1154 -0.1972 -1.8995
   57TMC2    H2  877   3.379   2.826  13.407  0.0447  3.7489 -0.5997
   57TMC2    C7  878   3.144   2.785  13.286  0.8029 -0.3407 -0.9624
   57TMC2    C8  879   3.460   2.936  13.626  0.1197 -0.8075  0.9647
   57TMC2    O1  880   3.057   2.836  13.216 -0.4799 -0.0084 -0.0416
   57TMC2    O2  881   3.498   3.028  13.698  0.0506  0.2374  0.0880
   57TMC2    O5  882   3.506   2.808  13.627 -0.2397  0.4158  0.2806
   57TMC2    H5  883   3.468   2.735  13.572  1.1157  0.8137 -1.2017
   58MPD2     C  884   2.751   3.291  14.032 -0.0184  0.0741 -0.3809
   58MPD2    C1  885   2.714   3.292  13.898  0.8471  0.0923 -0.3751
   58MPD2    C2  886   2.803   3.234  13.812  0.0432 -0.0077 -0.7013
   58MPD2    C3  887   2.925   3.188  13.854  0.3969 -0.2681 -0.0925
   58MPD2    C4  888   2.969   3.206  13.977  0.8264 -0.1484 -0.4034
   58MPD2    C5  889   2.884   3.252  14.070 -0.0344 -0.2401 -0.2180
   58MPD2     H  890   2.766   3.222  13.711  1.0604  0.2456 -1.1053
   58MPD2    H1  891   3.068   3.174  14.009  0.4783  0.3020  1.1078
   58MPD2    H2  892   2.684   3.333  14.106  0.4822 -1.4145  0.9285
   58MPD2    H3  893   2.916   3.252  14.174 -0.8337  0.1477  0.0263
   58MPD2     N  894   3.012   3.117  13.773 -0.1277  0.1489 -0.1630
   58MPD2    H5  895   3.100   3.084  13.812 -1.5421 -0.0653  2.8455
   58MPD2    N1  896   2.593   3.335  13.840  0.1874 -0.1855 -0.1708
   58MPD2    H7  897   2.581   3.312  13.742  1.1240 -2.0283  0.1352
   59MPD2     C  898   1.284   2.423  12.911  0.2985  0.6738  0.6706
   59MPD2    C1  899   1.202   2.518  12.965  0.6751 -0.6161  0.7794
   59MPD2    C2  900   1.242   2.577  13.082  0.0591 -0.1257  0.2115
   59MPD2    C3  901   1.366   2.546  13.142 -0.7669  0.3790  0.5271
   59MPD2    C4  902   1.450   2.454  13.080 -0.2975  0.8467 -0.0637
   59MPD2    C5  903   1.404   2.401  12.964 -0.1699 -0.8491 -0.1223
   59MPD2     H  904   1.183   2.655  13.128  1.7444  1.7482 -0.7747
   59MPD2    H1  905   1.550   2.423  13.109 -0.7360  1.0600  1.7353
   59MPD2    H2  906   1.248   2.370  12.823 -0.3011 -0.1539  1.4158
   59MPD2    H3  907   1.458   2.328  12.905 -0.3952 -0.8731 -0.3018
   59MPD2     N  908   1.418   2.620  13.247  0.2487  0.2625  0.3673
   59MPD2    H5  909   1.516   2.601  13.266  0.4019  3.2121  2.4432
   59MPD2    N1  910   1.085   2.566  12.895  0.1079  0.3782  0.4607
   59MPD2    H7  911   1.033   2.635  12.947  0.8326  0.3756  1.1907
   60TCq2    C1  912   1.073   2.547  12.758 -0.1230  0.5196  0.4970
   60TCq2    O2  913   1.151   2.521  12.669 -0.2912 -0.5621 -0.6903
   60TCq2    C2  914   0.933   2.583  12.727  0.3955  0.2337  0.0675
   60TCq2    C3  915   0.836   2.566  12.824  0.0193 -0.0338 -0.8251
   60TCq2    C4  916   0.709   2.592  12.791 -0.8835  0.6199 -0.3527
   60TCq2    C5  917   0.681   2.642  12.660  0.0895 -1.0713  0.2246
   60TCq2    C6  918   0.783   2.652  12.565  0.6895 -0.0163  0.3148
   60TCq2    C7  919   0.916   2.629  12.597 -0.4161 -0.0224 -0.3109
   60TCq2    C8  920   0.763   2.704  12.435 -0.2057 -0.6885 -0.3706
   60TCq2    O4  921   0.855   2.679  12.358  0.0899 -0.3203  0.2631
   60TCq2    C9  922   0.604   2.567  12.890  0.5180 -0.1301  0.0524
   60TCq2    O5  923   0.631   2.494  12.990  0.2638  0.6359 -0.0487
   60TCq2    O6  924   0.489   2.598  12.861 -0.5946  0.3063 -0.6063
   60TCq2    H2  925   0.861   2.529  12.923 -0.5410  1.7075 -0.0252
   60TCq2    H3  926   0.579   2.675  12.644  0.1628 -1.1725 -0.4272
   60TCq2    H4  927   0.993   2.647  12.524  1.0418 -1.1857  0.9389
   61MPD2     C  928   4.700   4.169  15.644  0.8564 -0.2760  0.7795
   61MPD2    C1  929   4.700   4.277  15.559  0.6380 -0.2029  0.1539
   61MPD2    C2  930   0.003   4.261  15.431 -0.1990 -0.2705  0.2328
   61MPD2    C3  931   0.044   4.134  15.386  0.1330 -1.0850  0.2276
   61MPD2    C4  932   0.048   4.026  15.468 -0.5280 -0.0205  0.4202
   61MPD2    C5  933   0.005   4.043  15.594  0.4532  0.7551 -0.4183
   61MPD2     H  934   0.002   4.346  15.364  0.3482 -0.0387  0.5164
   61MPD2    H1  935   0.076   3.927  15.432 -0.6955 -0.1445  0.6321
   61MPD2    H2  936   4.695   4.175  15.752 -2.8139  1.0713  0.5500
   61MPD2    H3  937   0.001   3.959  15.663 -0.6530 -0.7953 -2.3745
   61MPD2     N  938   0.085   4.127  15.253  0.8186  0.5482  0.4870
   61MPD2    H5  939   0.083   4.214  15.201 -2.2749 -2.0039 -3.6647
   61MPD2    N1  940   4.669   4.402  15.609 -0.0621 -0.1940 -0.1503
   61MPD2    H7  941   4.664   4.468  15.531 -1.4285 -0.6567 -0.4592
   62TCq2    C1  942   4.647   4.442  15.741  0.0460  0.5833 -0.1824
   62TCq2    O2  943   4.675   4.386  15.848  0.1442  0.8303  0.0517
   62TCq2    C2  944   4.596   4.582  15.752  0.2735  0.7954  0.3341
   62TCq2    C3  945   4.597   4.649  15.871  0.0352  0.1770  0.1310
   62TCq2    C4  946   4.562   0.061  15.868  0.1461 -0.8447 -0.5634
   62TCq2    C5  947   4.528   0.129  15.752 -0.3976 -0.0429  0.3696
   62TCq2    C6  948   4.523   0.058  15.643  0.4263  0.1040 -0.5331
   62TCq2    C7  949   4.556   4.645  15.632  0.8713 -0.2620  0.3266
   62TCq2    C8  950   4.504   0.138  15.521 -0.4076 -0.0367  0.3386
   62TCq2    O4  951   4.475   0.079  15.416  0.1991  0.5577  0.2920
   62TCq2    C9  952   4.547   0.140  15.992 -0.2398 -0.0385  0.4753
   62TCq2    O5  953   4.477   0.247  15.988 -0.1173  0.5177 -0.3343
   62TCq2    O6  954   4.569   0.084  16.102  0.1827  0.1543  0.6728
   62TCq2    H2  955   4.628   4.597  15.961  1.2651 -0.0826 -0.4422
   62TCq2    H3  956   4.493   0.231  15.760  2.2663  0.7511  2.1581
   62TCq2    H4  957   4.559   4.600  15.533  0.6545  0.8363 -0.1796
   63TMC2    C1  958   3.577   4.573  10.507  0.3372  0.1094 -0.0143
   63TMC2    C2  959   3.462   4.653  10.492 -0.8333 -0.2723 -0.4493
   63TMC2    C3  960   3.477   0.034  10.405  0.8687  0.2189 -1.0271
   63TMC2    C4  961   3.676   4.574  10.413 -0.1132 -0.7986  0.2793
   63TMC2    C5  962   3.674   4.665  10.314  0.1719  0.7095 -0.2424
   63TMC2    C6  963   3.578   0.042  10.313 -0.2104  0.0610 -0.2764
   63TMC2     C  964   3.552   4.455  10.580  0.5754 -0.3854 -0.1815
   63TMC2     O  965   3.441   4.436  10.619 -0.1715 -0.3755  0.1197
   63TMC2     H  966   3.371   4.645  10.551 -1.6517  0.1517 -1.6747
   63TMC2    H1  967   3.754   4.498  10.402  1.4787  0.4331  3.1094
   63TMC2    H2  968   3.577   0.112  10.230 -0.9520  0.0392 -0.2841
   63TMC2    C7  969   3.752   4.639  10.193 -0.1155 -0.0931 -0.0104
   63TMC2    C8  970   3.388   0.147  10.418 -0.5126 -0.4604 -0.4374
   63TMC2    O1  971   3.781   4.518  10.185  0.4108  0.1099  0.6453
   63TMC2    O2  972   3.330   0.154  10.527  0.2418 -0.1883 -0.0778
   63TMC2    O5  973   3.339   0.179  10.296  0.0734  0.2262 -0.3753
   63TMC2    H5  974   3.369   0.120  10.223  0.4891  0.1377 -0.1314
   64MPD2     C  975   3.642   3.975  10.736 -0.5795  0.5294 -0.7815
   64MPD2    C1  976   3.721   4.005  10.621  0.2036  0.2852  0.4765
   64MPD2    C2  977   3.727   4.134  10.577  0.2791 -0.5460  0.2347
   64MPD2    C3  978   3.650   4.233  10.636  0.5089  0.2923  0.4733
   64MPD2    C4  979   3.562   4.201  10.741 -0.6025 -0.4034  0.4563
   64MPD2    C5  980   3.561   4.074  10.791 -0.7852 -0.5323 -0.0604
   64MPD2     H  981   3.779   4.160  10.485 -0.4792  0.8889  0.2059
   64MPD2    H1  982   3.505   4.285  10.779 -0.7694 -1.2432  2.0967
   64MPD2    H2  983   3.629   3.873  10.769  1.1096  0.2283 -1.0940
   64MPD2    H3  984   3.507   4.045  10.881 -2.0182  1.2193 -0.2307
   64MPD2     N  985   3.641   4.352  10.559  0.4978  0.8218  0.2601
   64MPD2    H5  986   3.711   4.363  10.486 -0.8282  0.7642 -1.0154
   64MPD2    N1  987   3.790   3.906  10.554 -0.4729 -0.0992 -0.0847
   64MPD2    H7  988   3.849   3.926  10.474 -0.3155  1.6568  0.4804
   65MPD2     C  989   0.425   4.018  15.342 -0.0562 -0.4529  0.9582
   65MPD2    C1  990   0.522   4.031  15.247 -0.0005 -0.2911  0.0445
   65MPD2    C2  991   0.568   3.912  15.185 -1.1428  0.1167 -0.5451
   65MPD2    C3  992   0.514   3.788  15.222  0.3095  0.1542 -0.0532
   65MPD2    C4  993   0.422   3.778  15.322  0.2012 -0.1942  0.3396
   65MPD2    C5  994   0.374   3.894  15.381  0.0129 -0.5761  0.2774
   65MPD2     H  995   0.639   3.916  15.103  0.4341  0.4936  0.8433
   65MPD2    H1  996   0.376   3.688  15.360 -1.6183  1.2019  1.4001
   65MPD2    H2  997   0.384   4.107  15.389 -2.8520  1.1079 -4.5009
   65MPD2    H3  998   0.294   3.877  15.453 -0.4950 -0.7731 -0.3336
   65MPD2     N  999   0.555   3.669  15.164 -0.2701  0.4480 -0.0827
   65MPD2    H5 1000   0.502   3.585  15.185 -1.0109  1.7489  3.2545
   65MPD2    N1 1001   0.585   4.155  15.217 -0.0718  0.2775 -0.1124
   65MPD2    H7 1002   0.658   4.146  15.147 -0.8259 -0.9672 -0.7256
   66TCq2    C1 1003   0.554   4.281  15.266  0.2351  0.2728  0.2165
   66TCq2    O2 1004   0.467   4.311  15.348 -0.3107  0.2215 -0.3206
   66TCq2    C2 1005   0.641   4.385  15.219  0.9183 -0.0556 -1.0068
   66TCq2    C3 1006   0.740   4.352  15.129  0.0730  0.0232 -0.0723
   66TCq2    C4 1007   0.842   4.441  15.110 -0.0617  0.8141 -0.6099
   66TCq2    C5 1008   0.860   4.547  15.193  0.2947  0.0187 -0.2518
   66TCq2    C6 1009   0.758   4.579  15.281  1.5049 -1.1419  0.1961
   66TCq2    C7 1010   0.651   4.493  15.298  0.6882 -0.5981  0.4941
   66TCq2    C8 1011   0.770   4.716  15.336  0.6778 -0.8321  0.3311
   66TCq2    O4 1012   0.858   0.071  15.299  0.2486  0.0568 -0.3797
   66TCq2    C9 1013   0.954   4.416  15.019  0.6018  0.1278 -0.0562
   66TCq2    O5 1014   0.962   4.301  14.965  0.6462 -0.3510  0.2038
   66TCq2    O6 1015   1.050   4.501  15.016  0.2712  0.3193  0.2967
   66TCq2    H2 1016   0.732   4.277  15.051  0.7853  1.1653 -1.2460
   66TCq2    H3 1017   0.947   4.609  15.178  1.9580 -2.0097  1.0111
   66TCq2    H4 1018   0.576   4.516  15.372 -0.2101 -1.5973 -0.1012
   67MPD2     C 1019   0.590   3.832  13.969  0.2713 -0.1406  0.0003
   67MPD2    C1 1020   0.636   3.712  14.022 -0.3884  0.3200  0.3609
   67MPD2    C2 1021   0.577   3.590  13.975  0.4259  0.0095 -0.4742
   67MPD2    C3 1022   0.487   3.596  13.869 -0.6860 -0.2494 -0.4284
   67MPD2    C4 1023   0.435   3.711  13.827 -0.6839  0.4721  1.1001
   67MPD2    C5 1024   0.491   3.833  13.873  0.1648  0.4475  0.5972
   67MPD2     H 1025   0.627   3.501  14.013 -1.9659 -1.4007 -0.5864
   67MPD2    H1 1026   0.349   3.726  13.762 -2.5197  0.1625  3.4671
   67MPD2    H2 1027   0.624   3.933  13.990 -0.2548  0.0836 -0.2181
   67MPD2    H3 1028   0.449   3.929  13.847 -0.1812  0.5264  1.4587
   67MPD2     N 1029   0.450   3.476  13.802 -0.2912 -0.4758  0.3052
   67MPD2    H5 1030   0.373   3.484  13.735  1.8195 -0.8343 -2.1705
   67MPD2    N1 1031   0.726   3.721  14.123 -0.0632  0.2964  0.5978
   67MPD2    H7 1032   0.722   3.642  14.187  0.4281 -0.1981  0.0211
   68TCq2    C1 1033   0.797   3.830  14.165 -0.1749  0.3723  0.5320
   68TCq2    O2 1034   0.821   3.935  14.111  0.1644  0.3404 -0.4949
   68TCq2    C2 1035   0.820   3.823  14.311 -0.3920  0.4493  0.8167
   68TCq2    C3 1036   0.822   3.946  14.370 -0.1366  0.0304 -0.1201
   68TCq2    C4 1037   0.827   3.950  14.507  0.6310  0.2697 -0.6762
   68TCq2    C5 1038   0.840   3.830  14.574  0.0510  0.0857 -0.2148
   68TCq2    C6 1039   0.837   3.707  14.508 -0.2219 -0.3844  0.8115
   68TCq2    C7 1040   0.824   3.704  14.374  0.8442 -0.5938 -0.1218
   68TCq2    C8 1041   0.895   3.585  14.567  0.2710 -0.2875 -0.1265
   68TCq2    O4 1042   0.883   3.480  14.515 -0.0530 -0.1297  0.5313
   68TCq2    C9 1043   0.827   4.071  14.578  0.1346 -0.8662  0.2970
   68TCq2    O5 1044   0.877   4.060  14.695  0.5631 -0.0744 -0.0994
   68TCq2    O6 1045   0.774   4.172  14.519  0.1820 -0.6970  0.0488
   68TCq2    H2 1046   0.810   4.037  14.312 -0.3292 -1.0607 -1.7906
   68TCq2    H3 1047   0.849   3.838  14.682 -0.2766 -0.5899 -0.1400
   68TCq2    H4 1048   0.821   3.611  14.319  0.3345  0.6409 -2.1611
   69TMC2    C1 1049   2.053   4.587  11.846  0.6800 -0.4197 -0.1792
   69TMC2    C2 1050   1.925   4.593  11.800  0.6822  0.2139 -0.2552
   69TMC2    C3 1051   1.908   4.605  11.663 -0.4016  0.5612  0.0522
   69TMC2    C4 1052   2.160   4.608  11.765 -0.2371 -0.5551 -0.1029
   69TMC2    C5 1053   2.145   4.637  11.635 -0.7932 -0.3812 -0.7987
   69TMC2    C6 1054   2.017   4.631  11.579  0.2546  0.0632 -0.6005
   69TMC2     C 1055   2.076   4.568  11.983 -0.8624  0.4380 -0.0410
   69TMC2     O 1056   1.981   4.599  12.052  0.0461 -0.5106 -0.2536
   69TMC2     H 1057   1.843   4.576  11.868 -0.0525  0.8468 -0.9908
   69TMC2    H1 1058   2.259   4.617  11.808 -0.9007  0.9947  1.0978
   69TMC2    H2 1059   2.003   4.663  11.476 -0.7581  0.7855 -0.2374
   69TMC2    C7 1060   2.261   4.619  11.549  0.5637  1.0317 -0.2937
   69TMC2    C8 1061   1.775   4.628  11.602 -0.1216  0.4417 -0.0763
   69TMC2    O1 1062   2.359   4.659  11.608  0.9205 -0.2733  0.0686
   69TMC2    O2 1063   1.670   4.680  11.640 -0.2195  0.2817  0.4164
   69TMC2    O5 1064   1.784   4.561  11.484 -0.1069 -0.1053 -0.4235
   69TMC2    H5 1065   1.873   4.527  11.459 -1.6452 -3.6448 -1.1097
   70MPD2     C 1066   2.387   4.463  12.157 -0.2757  0.0407  0.2672
   70MPD2    C1 1067   2.256   4.503  12.147 -0.1628 -0.4328 -0.0627
   70MPD2    C2 1068   2.188   4.539  12.257 -0.2358  0.1125 -0.5229
   70MPD2    C3 1069   2.250   4.529  12.375  0.6868  0.5286 -0.4543
   70MPD2    C4 1070   2.378   4.480  12.388 -0.4111  0.5670  1.0017
   70MPD2    C5 1071   2.444   4.454  12.276 -0.0902  0.1451  0.4506
   70MPD2     H 1072   2.088   4.579  12.243 -0.8928 -1.8250 -1.3874
   70MPD2    H1 1073   2.429   4.473  12.483 -0.1929  1.0278  0.9180
   70MPD2    H2 1074   2.440   4.426  12.070 -1.5864 -2.9695  0.7613
   70MPD2    H3 1075   2.546   4.418  12.282 -0.7379 -1.3471  2.5647
   70MPD2     N 1076   2.189   4.558  12.495  0.0666 -0.3421  0.1914
   70MPD2    H5 1077   2.247   4.551  12.578  0.7291  1.6122 -0.1057
   70MPD2    N1 1078   2.194   4.515  12.016 -0.6830  0.8042  0.6089
   70MPD2    H7 1079   2.253   4.486  11.939 -0.4615 -0.2509  1.1778
   71TMC2    C1 1080   0.857   0.946   1.695 -0.2371 -0.9996 -0.4232
   71TMC2    C2 1081   0.726   0.962   1.749 -0.1733 -0.5351  0.2510
   71TMC2    C3 1082   0.704   0.902   1.872 -0.6263 -0.1032 -0.4538
   71TMC2    C4 1083   0.960   0.893   1.768 -0.5299 -0.0853  0.5244
   71TMC2    C5 1084   0.939   0.852   1.895  0.4191 -0.0915  0.1631
   71TMC2    C6 1085   0.813   0.864   1.946  0.0966 -0.0152  0.6732
   71TMC2     C 1086   0.867   0.969   1.548  0.6840 -0.2950 -0.0183
   71TMC2     O 1087   0.782   1.026   1.481  0.4668 -0.0396  0.2109
   71TMC2     H 1088   0.645   0.989   1.682  0.1364  1.3648  0.6361
   71TMC2    H1 1089   1.061   0.893   1.727  0.5279 -2.6233  3.1153
   71TMC2    H2 1090   0.785   0.820   2.040 -1.0221 -0.4501  0.1364
   71TMC2    C7 1091   1.033   0.774   1.970 -0.3075 -0.2466  0.6878
   71TMC2    C8 1092   0.576   0.908   1.935 -0.7465 -0.7635  0.2590
   71TMC2    O1 1093   0.991   0.723   2.075 -0.4988 -0.8834 -0.6990
   71TMC2    O2 1094   0.575   0.893   2.055  0.0321 -0.2817  0.0839
   71TMC2    O5 1095   0.505   0.820   1.858  0.0350 -0.4723  0.1383
   71TMC2    H5 1096   0.552   0.829   1.772 -2.9042  0.4998 -1.3794
   72MPD2     C 1097   1.178   0.981   1.146  0.3129 -0.0076  0.4831
   72MPD2    C1 1098   1.051   1.029   1.160 -0.0528  0.3051 -0.0836
   72MPD2    C2 1099   0.994   1.025   1.283  0.3556 -1.1984  0.3744
   72MPD2    C3 1100   1.051   0.946   1.378  0.8403 -0.3514 -0.9618
   72MPD2    C4 1101   1.159   0.867   1.350  0.7872  0.1166 -0.3544
   72MPD2    C5 1102   1.220   0.877   1.230 -0.3068 -0.4936  0.0851
   72MPD2     H 1103   0.901   1.078   1.297  2.0403  2.1884 -1.3645
   72MPD2    H1 1104   1.218   0.822   1.430  1.1148 -3.2998 -2.5425
   72MPD2    H2 1105   1.243   1.001   1.062 -0.1067  0.7859  0.3565
   72MPD2    H3 1106   1.321   0.837   1.223  0.6721  2.0397 -0.5454
   72MPD2     N 1107   0.991   0.915   1.504  0.2145  0.0886 -0.3885
   72MPD2    H5 1108   1.045   0.852   1.563 -0.2224  0.7893  0.7697
   72MPD2    N1 1109   0.990   1.099   1.058 -0.3827  0.8346  0.1288
   72MPD2    H7 1110   0.903   1.145   1.082 -0.7751 -1.1111  2.3603
   73TMC2    C1 1111   0.465   1.745  14.545  0.0415 -0.1008 -0.5926
   73TMC2    C2 1112   0.525   1.623  14.546  0.1734 -0.4195 -0.3097
   73TMC2    C3 1113   0.630   1.602  14.629  0.1705 -0.3912 -0.4911
   73TMC2    C4 1114   0.500   1.838  14.631  0.2979  0.2564 -0.0403
   73TMC2    C5 1115   0.604   1.823  14.716 -0.4268  0.2737 -0.0676
   73TMC2    C6 1116   0.672   1.704  14.721  0.1257 -0.6796  0.0525
   73TMC2     C 1117   0.441   1.806  14.413  0.3547 -0.4340  0.5789
   73TMC2     O 1118   0.471   1.923  14.400  0.2312  0.5129 -0.4221
   73TMC2     H 1119   0.488   1.544  14.482  1.5805 -0.1326 -1.4704
   73TMC2    H1 1120   0.441   1.929  14.637  1.0093  0.6960  0.2522
   73TMC2    H2 1121   0.760   1.691  14.782 -0.2455 -0.9436  0.5278
   73TMC2    C7 1122   0.690   1.939  14.701  0.2543 -0.0228 -0.3597
   73TMC2    C8 1123   0.669   1.468  14.672  1.1173 -0.4535  0.1377
   73TMC2    O1 1124   0.782   1.961  14.779  0.1703 -0.1218 -0.0591
   73TMC2    O2 1125   0.725   1.445  14.778 -0.1276  0.7720  0.7583
   73TMC2    O5 1126   0.676   1.398  14.564  0.2915  0.3866  0.3285
   73TMC2    H5 1127   0.648   1.440  14.479 -0.5211  0.5251  0.6734
   74MPD2     C 1128   0.355   1.806  13.908 -0.6996  0.0808  0.5150
   74MPD2    C1 1129   0.420   1.892  13.990  0.3094  0.0682  0.0355
   74MPD2    C2 1130   0.427   1.865  14.126  0.9037 -0.9113 -0.2075
   74MPD2    C3 1131   0.365   1.753  14.183 -0.5257 -0.1639 -0.5121
   74MPD2    C4 1132   0.299   1.663  14.102 -0.2814 -0.1515  0.4215
   74MPD2    C5 1133   0.297   1.694  13.964 -0.1846 -0.1853 -0.4507
   74MPD2     H 1134   0.494   1.931  14.180 -0.4738  0.2334  0.1061
   74MPD2    H1 1135   0.253   1.578  14.149 -0.5187 -0.5570 -0.5547
   74MPD2    H2 1136   0.341   1.828  13.803 -1.5166  0.1692  0.6383
   74MPD2    H3 1137   0.243   1.622  13.904 -0.1158 -0.2376 -0.4491
   74MPD2     N 1138   0.371   1.726  14.325 -1.1123  0.4729  0.0201
   74MPD2    H5 1139   0.329   1.637  14.354  1.6311 -0.9956 -0.5239
   74MPD2    N1 1140   0.478   2.007  13.929 -0.8216  0.5277  0.5434
   74MPD2    H7 1141   0.491   1.999  13.829  0.1053 -0.3495  0.7400
   75TCq2    C1 1142   0.530   3.365  13.797  0.2577  0.1961  0.2682
   75TCq2    O2 1143   0.635   3.341  13.850 -0.2703 -0.0723 -0.4954
   75TCq2    C2 1144   0.477   3.270  13.705  0.0347 -0.0089  0.0083
   75TCq2    C3 1145   0.564   3.183  13.646 -0.2133 -0.3796  0.5116
   75TCq2    C4 1146   0.525   3.110  13.543  0.2489  0.2612  0.9907
   75TCq2    C5 1147   0.388   3.115  13.504  0.1051  0.8605 -0.5394
   75TCq2    C6 1148   0.302   3.194  13.569  0.1639  0.4583  0.6689
   75TCq2    C7 1149   0.342   3.270  13.672 -0.1094  0.4078  0.4923
   75TCq2    C8 1150   0.163   3.178  13.524  0.2337  0.3977 -0.7054
   75TCq2    O4 1151   0.132   3.070  13.473 -0.3170  0.5173  0.2016
   75TCq2    C9 1152   0.606   3.011  13.475  0.4302  0.3375  0.0951
   75TCq2    O5 1153   0.722   2.997  13.522  0.0746  0.0646 -0.8080
   75TCq2    O6 1154   0.551   2.921  13.407  0.0207 -0.9454 -0.1610
   75TCq2    H2 1155   0.663   3.162  13.683  0.4633 -1.1573 -1.7571
   75TCq2    H3 1156   0.357   3.059  13.417 -2.0140  0.5874  0.3920
   75TCq2    H4 1157   0.274   3.328  13.734 -1.0234 -0.5090  0.3512
   76MPD2     C 1158   3.396   4.337  11.789  0.2620  0.2749 -0.1032
   76MPD2    C1 1159   3.398   4.301  11.656 -1.1386  0.1174  0.2981
   76MPD2    C2 1160   3.504   4.224  11.601  0.1388 -0.4898  0.0536
   76MPD2    C3 1161   3.592   4.157  11.693 -0.6906 -0.3389  1.1910
   76MPD2    C4 1162   3.582   4.187  11.829  0.2826  0.2657  0.5616
   76MPD2    C5 1163   3.495   4.282  11.876 -0.4107 -0.7141 -0.3324
   76MPD2     H 1164   3.507   4.210  11.494  1.3242 -0.1975  0.0501
   76MPD2    H1 1165   3.641   4.139  11.906 -1.8877 -1.9550  0.8601
   76MPD2    H2 1166   3.328   4.413  11.827  0.0003  0.5966 -1.2118
   76MPD2    H3 1167   3.493   4.312  11.980  1.5391  0.4069 -0.6180
   76MPD2     N 1168   3.679   4.057  11.660 -0.0996  0.1374 -0.8762
   76MPD2    H5 1169   3.739   4.022  11.734 -1.6485  0.1810  0.3999
   76MPD2    N1 1170   3.300   4.353  11.566  0.1177 -0.1834  0.0757
   76MPD2    H7 1171   3.307   4.346  11.465  0.3515  2.9961 -0.1521
   77TCq2    C1 1172   3.691   3.999  11.539  0.1896  0.5703 -0.2651
   77TCq2    O2 1173   3.639   4.026  11.431  0.4936 -0.0605  0.6804
   77TCq2    C2 1174   3.759   3.873  11.546 -0.9478 -0.5077  0.3536
   77TCq2    C3 1175   3.740   3.793  11.437 -0.6520 -0.0403 -0.8015
   77TCq2    C4 1176   3.809   3.668  11.442 -0.1332  0.1215 -0.2686
   77TCq2    C5 1177   3.893   3.634  11.547  0.3424  0.2815  0.2181
   77TCq2    C6 1178   3.902   3.716  11.657  0.2981  0.1572  0.1296
   77TCq2    C7 1179   3.825   3.835  11.656 -0.2803  0.0364  0.0579
   77TCq2    C8 1180   3.975   3.671  11.777 -0.2184 -0.1552  0.3784
   77TCq2    O4 1181   4.010   3.769  11.854 -0.0669  0.0996 -0.5697
   77TCq2    C9 1182   3.786   3.564  11.348  0.6735  0.1595 -0.1031
   77TCq2    O5 1183   3.717   3.587  11.249 -0.2170 -0.0348 -0.0435
   77TCq2    O6 1184   3.824   3.448  11.377 -0.1613  0.8325 -0.4339
   77TCq2    H2 1185   3.669   3.809  11.358  0.0070  0.5179 -1.2822
   77TCq2    H3 1186   3.948   3.540  11.553 -0.7197 -0.4388 -1.4410
   77TCq2    H4 1187   3.826   3.895  11.746  3.5866  2.5463 -1.6967
   78MPD1     C 1188   0.422   3.414   1.756 -0.4422 -0.2586 -1.1254
   78MPD1    C1 1189   0.510   3.504   1.800 -0.1127 -0.7488  0.3874
   78MPD1    C2 1190   0.641   3.507   1.759 -0.0390 -0.8765 -0.3612
   78MPD1    C3 1191   0.682   3.415   1.665 -0.6435  0.2061 -0.2897
   78MPD1    C4 1192   0.598   3.313   1.629  0.3997 -0.0567 -0.3145
   78MPD1    C5 1193   0.468   3.320   1.666  0.2506 -0.1365  0.3855
   78MPD1     H 1194   0.701   3.593   1.784 -1.5327  0.7616 -2.3556
   78MPD1    H1 1195   0.630   3.244   1.552 -1.1604  0.5738 -1.5423
   78MPD1    H2 1196   0.315   3.416   1.773 -0.1323 -2.2132  1.0274
   78MPD1    H3 1197   0.404   3.238   1.633  0.4102 -0.0171 -0.2096
   78MPD1     N 1198   0.808   3.410   1.608 -0.5488 -0.1735  0.5470
   78MPD1    H5 1199   0.836   3.334   1.548 -0.4015 -1.1753  1.8914
   78MPD1    N1 1200   0.454   3.605   1.880  0.4994  0.7045 -0.2763
   78MPD1    H6 1201   0.372   3.569   1.928 -0.7910  0.1054 -2.8712
   78MPD1    H7 1202   0.520   3.645   1.946 -0.3641  0.3485  0.7944
   79TCq2    C1 1203   0.908   3.501   1.640  0.7940  0.9950 -0.3364
   79TCq2    O2 1204   0.910   3.587   1.726  0.6623 -0.1159  0.5360
   79TCq2    C2 1205   1.031   3.466   1.561 -0.4560 -0.4921  0.5701
   79TCq2    C3 1206   1.020   3.473   1.425 -0.1684 -0.4530 -0.1689
   79TCq2    C4 1207   1.139   3.472   1.356 -0.3004  0.0447  0.5898
   79TCq2    C5 1208   1.256   3.481   1.419  0.4188 -0.4051 -0.2062
   79TCq2    C6 1209   1.271   3.489   1.556  0.2796  0.6817 -0.4153
   79TCq2    C7 1210   1.152   3.480   1.628 -0.7065 -0.3874 -0.2548
   79TCq2    C8 1211   1.382   3.561   1.628  0.1584 -0.1036  0.0852
   79TCq2    O4 1212   1.375   3.583   1.750  0.2176  0.0779 -0.1541
   79TCq2    C9 1213   1.138   3.482   1.215  0.3019 -0.0833  0.1155
   79TCq2    O5 1214   1.028   3.461   1.159 -0.6566 -0.0684 -0.2768
   79TCq2    O6 1215   1.243   3.504   1.151  0.0820 -0.0891  0.4350
   79TCq2    H2 1216   0.922   3.456   1.380  0.2652 -1.8492 -0.5915
   79TCq2    H3 1217   1.343   3.493   1.355  0.4187 -0.3958 -0.2046
   79TCq2    H4 1218   1.149   3.480   1.736 -0.7074 -3.8921 -0.2544
   80MPD2     C 1219   2.870   3.666  12.367 -1.1534  0.3004  0.3666
   80MPD2    C1 1220   2.776   3.649  12.266  0.3863  0.1323 -0.0896
   80MPD2    C2 1221   2.644   3.670  12.304  0.5744  0.8281  0.2082
   80MPD2    C3 1222   2.606   3.688  12.440  0.3336 -0.2849 -0.1110
   80MPD2    C4 1223   2.702   3.683  12.535 -0.1317 -0.2156 -0.7092
   80MPD2    C5 1224   2.833   3.669  12.498  0.0180 -0.1148 -0.6986
   80MPD2     H 1225   2.565   3.669  12.230  0.9201 -0.0461 -0.1384
   80MPD2    H1 1226   2.680   3.676  12.641  1.1604  1.1877 -0.3410
   80MPD2    H2 1227   2.976   3.654  12.344 -0.4214 -0.1947  4.0244
   80MPD2    H3 1228   2.910   3.648  12.571  0.6061 -0.5986 -1.4494
   80MPD2     N 1229   2.473   3.705  12.487  0.1786  0.0641  0.3548
   80MPD2    H5 1230   2.447   3.692  12.584 -1.3673 -0.4302 -0.1332
   80MPD2    N1 1231   2.807   3.634  12.128 -0.0740  0.3492  0.4457
   80MPD2    H7 1232   2.722   3.616  12.076 -0.1348  0.8917  0.3534
   81TCq2    C1 1233   2.927   3.606  12.079 -0.4844 -0.4549  0.1036
   81TCq2    O2 1234   3.040   3.614  12.126  0.6505 -0.4651 -0.5689
   81TCq2    C2 1235   2.914   3.558  11.943  0.2082 -0.0289  0.2361
   81TCq2    C3 1236   3.034   3.526  11.875 -0.3063  0.1218  0.7782
   81TCq2    C4 1237   3.025   3.478  11.745 -0.0506  0.6097 -0.0506
   81TCq2    C5 1238   2.910   3.488  11.680 -0.0890 -0.5618  0.1715
   81TCq2    C6 1239   2.798   3.522  11.746  0.0439  0.2002  0.2791
   81TCq2    C7 1240   2.795   3.554  11.880  0.1459  0.1438 -0.1577
   81TCq2    C8 1241   2.669   3.479  11.695 -0.6300  0.4413 -0.7267
   81TCq2    O4 1242   2.638   3.486  11.578  0.0379  0.4330 -0.4319
   81TCq2    C9 1243   3.147   3.423  11.680  0.4662  0.2721 -0.1092
   81TCq2    O5 1244   3.237   3.379  11.758  0.3684  0.4583  0.2454
   81TCq2    O6 1245   3.154   3.407  11.557 -0.6459  0.1462 -0.1461
   81TCq2    H2 1246   3.130   3.532  11.925  0.5917 -1.8716 -0.7442
   81TCq2    H3 1247   2.895   3.451  11.579  1.7447  0.8063 -0.6094
   81TCq2    H4 1248   2.701   3.562  11.933  0.6058 -1.5777  0.9066
   82MPD2     C 1249   0.367   3.653  10.637  0.3849  0.2940  0.6909
   82MPD2    C1 1250   0.315   3.526  10.622 -0.0872 -0.3109 -0.3782
   82MPD2    C2 1251   0.341   3.425  10.716  0.6808  0.0185  0.4761
   82MPD2    C3 1252   0.416   3.463  10.828  0.4048  0.9090 -0.3240
   82MPD2    C4 1253   0.466   3.587  10.841  0.7702 -0.2325 -0.5620
   82MPD2    C5 1254   0.448   3.684  10.742 -0.1112 -0.3031 -0.2944
   82MPD2     H 1255   0.302   3.326  10.697  0.2773  0.2433  0.1433
   82MPD2    H1 1256   0.532   3.611  10.923  0.0295  0.6484 -0.2084
   82MPD2    H2 1257   0.342   3.731  10.566  0.4622 -2.6222 -2.5289
   82MPD2    H3 1258   0.483   3.786  10.747 -1.5107  0.0111  2.8355
   82MPD2     N 1259   0.455   3.369  10.928 -0.6836 -0.4697  0.4345
   82MPD2    H5 1260   0.515   3.410  10.999  0.0630 -0.7733 -0.0198
   82MPD2    N1 1261   0.252   3.508  10.502 -0.0021  0.2581 -0.1270
   82MPD2    H7 1262   0.271   3.575  10.428 -0.2644  1.9036  1.2835
   83TCq2    C1 1263   0.419   3.241  10.948  0.0240  0.0725 -0.3730
   83TCq2    O2 1264   0.335   3.172  10.888 -0.1755 -0.2302 -0.2684
   83TCq2    C2 1265   0.439   3.205  11.088 -0.3829  0.3419  0.3868
   83TCq2    C3 1266   0.386   3.288  11.182 -0.2040 -1.0120  0.6038
   83TCq2    C4 1267   0.343   3.248  11.303 -0.1855 -0.4123 -0.1245
   83TCq2    C5 1268   0.340   3.116  11.335 -0.5619  0.5638  0.1465
   83TCq2    C6 1269   0.373   3.030  11.241  0.2381  0.2135 -0.0854
   83TCq2    C7 1270   0.425   3.073  11.115 -0.9571 -0.0440 -0.5676
   83TCq2    C8 1271   0.354   2.888  11.254 -0.4313  0.3214 -0.2715
   83TCq2    O4 1272   0.347   2.848  11.370 -0.3490 -0.1477  0.0241
   83TCq2    C9 1273   0.263   3.328  11.390  0.1039  0.3694 -0.0428
   83TCq2    O5 1274   0.240   3.293  11.510  0.7078  0.3549 -0.0815
   83TCq2    O6 1275   0.206   3.429  11.335 -0.0274 -0.3250 -0.0227
   83TCq2    H2 1276   0.378   3.395  11.162  3.3387 -0.6907  1.0075
   83TCq2    H3 1277   0.305   3.087  11.433 -2.1316  2.1781  0.0540
   83TCq2    H4 1278   0.468   3.006  11.041 -1.2517 -0.7717 -0.0724
   84TCq2    C1 1279   2.177   2.337  10.261 -0.5609 -0.0604  1.1368
   84TCq2    O2 1280   2.071   2.272  10.258  0.2400  0.2732  0.4689
   84TCq2    C2 1281   2.244   2.353  10.392  0.5484  0.5174 -0.3284
   84TCq2    C3 1282   2.381   2.350  10.398  0.4777 -0.3217  0.0724
   84TCq2    C4 1283   2.443   2.321  10.516  0.4690  0.3114  0.4383
   84TCq2    C5 1284   2.370   2.287  10.624  0.2599 -0.3136  0.6418
   84TCq2    C6 1285   2.239   2.262  10.608 -0.2837  0.4065 -0.0058
   84TCq2    C7 1286   2.172   2.307  10.497 -0.4534  0.3790 -0.3091
   84TCq2    C8 1287   2.162   2.228  10.724 -0.5796  0.1947  0.1487
   84TCq2    O4 1288   2.214   2.240  10.834 -0.9879  0.0033  0.3610
   84TCq2    C9 1289   2.587   2.330  10.528 -0.0558  0.1040  0.5942
   84TCq2    O5 1290   2.649   2.399  10.443 -0.1469  0.0907  0.1862
   84TCq2    O6 1291   2.647   2.284  10.627 -0.4561 -0.5335 -0.0098
   84TCq2    H2 1292   2.442   2.385  10.316 -1.0685 -0.4346 -1.1110
   84TCq2    H3 1293   2.419   2.248  10.712  1.5721  1.9743  0.9080
   84TCq2    H4 1294   2.064   2.319  10.490 -0.5541  0.1353  0.7017
   85MPD2     C 1295   2.977   0.047  16.575  0.1881  0.6681  0.7733
   85MPD2    C1 1296   2.992   0.004  16.445 -0.2048  0.0072  0.3427
   85MPD2    C2 1297   3.049   0.086  16.347  0.2226 -0.1907 -0.0381
   85MPD2    C3 1298   3.076   0.223  16.382 -0.0414  0.3543 -0.6397
   85MPD2    C4 1299   3.049   0.267  16.508 -0.7255  0.5310 -0.1153
   85MPD2    C5 1300   2.998   0.177  16.601 -0.1540 -0.2029 -0.3037
   85MPD2     H 1301   3.067   0.056  16.244 -3.1944 -0.1888 -0.6547
   85MPD2    H1 1302   3.043   0.370  16.541  0.2959  0.9622 -1.3095
   85MPD2    H2 1303   2.930   4.700  16.646 -1.2097 -1.2754 -1.9907
   85MPD2    H3 1304   2.957   0.214  16.695 -2.3442  1.7341 -2.0048
   85MPD2     N 1305   3.146   0.306  16.285  0.4818  0.5999 -0.5005
   85MPD2    H5 1306   3.158   0.267  16.192 -0.5448  0.3647 -0.5326
   85MPD2    N1 1307   2.947   4.592  16.397  0.0280 -0.4425  0.0706
   85MPD2    H7 1308   2.952   4.587  16.296  2.8089 -1.0835  0.2246
   86TCq2    C1 1309   3.148   0.443  16.300 -0.1236  0.0055 -0.7087
   86TCq2    O2 1310   3.112   0.516  16.392 -0.0755  0.5680  0.4055
   86TCq2    C2 1311   3.183   0.522  16.183 -0.5469  0.1220 -0.3350
   86TCq2    C3 1312   3.126   0.639  16.147  0.2553  0.4339 -0.5375
   86TCq2    C4 1313   3.163   0.703  16.034  0.2279 -0.4191 -0.1882
   86TCq2    C5 1314   3.253   0.657  15.951 -0.4946 -0.4992  0.1188
   86TCq2    C6 1315   3.318   0.546  15.994  0.2439 -0.1590 -0.0590
   86TCq2    C7 1316   3.278   0.470  16.102 -0.3246  0.0905  0.7730
   86TCq2    C8 1317   3.422   0.493  15.915  0.3286 -0.0485  0.3400
   86TCq2    O4 1318   3.482   0.401  15.976  0.3451  0.8501 -0.4224
   86TCq2    C9 1319   3.097   0.833  16.003  0.2874  0.3030 -0.1823
   86TCq2    O5 1320   3.112   0.885  15.893  0.6340 -0.6124 -0.2825
   86TCq2    O6 1321   3.032   0.886  16.093  0.3308  0.4483 -0.1196
   86TCq2    H2 1322   3.038   0.679  16.195 -0.0416 -0.3791 -0.4098
   86TCq2    H3 1323   3.280   0.716  15.864 -0.8306 -0.4401  0.0532
   86TCq2    H4 1324   3.336   0.395  16.153  0.5261 -1.2493 -2.1358
   87MPD2     C 1325   4.571   3.076   0.505 -1.3650  0.0096 -0.8382
   87MPD2    C1 1326   4.650   3.190   0.490 -0.3059 -0.4275 -0.2372
   87MPD2    C2 1327   4.603   3.295   0.410 -0.4007 -0.2287  0.3083
   87MPD2    C3 1328   4.474   3.287   0.354 -0.2049 -0.0549 -0.6546
   87MPD2    C4 1329   4.396   3.174   0.378  0.9488  1.1125 -0.7279
   87MPD2    C5 1330   4.446   3.067   0.451  0.5683  0.2875 -0.1553
   87MPD2     H 1331   4.659   3.388   0.411 -0.8693  0.0377  1.0516
   87MPD2    H1 1332   4.290   3.171   0.353  1.3261  0.1557 -2.1887
   87MPD2    H2 1333   4.609   2.982   0.545 -0.0798  1.4071  1.2122
   87MPD2    H3 1334   4.388   2.976   0.464 -0.1735  0.7650 -0.0650
   87MPD2     N 1335   4.416   3.390   0.283 -0.0508 -0.1836  0.3885
   87MPD2    H5 1336   4.323   3.367   0.251  0.9033  0.2301 -2.6774
   87MPD2    N1 1337   0.046   3.208   0.568 -0.1869  0.3756 -0.2613
   87MPD2    H7 1338   0.093   3.296   0.550  0.0165  0.1436 -0.8743
   88TCq2    C1 1339   0.107   3.114   0.649  0.1567 -0.0089 -0.0325
   88TCq2    O2 1340   0.085   2.993   0.678 -0.3492  0.0988 -0.4339
   88TCq2    C2 1341   0.228   3.175   0.692 -0.4470 -0.1183 -0.3903
   88TCq2    C3 1342   0.230   3.307   0.702  0.4737  0.3586 -1.2025
   88TCq2    C4 1343   0.350   3.373   0.700 -0.2708 -0.0360  0.0971
   88TCq2    C5 1344   0.470   3.301   0.694 -0.4400 -0.4954 -0.4215
   88TCq2    C6 1345   0.462   3.163   0.692 -0.1129 -0.0850  0.2865
   88TCq2    C7 1346   0.341   3.100   0.690  0.2335 -0.2334 -0.0426
   88TCq2    C8 1347   0.576   3.087   0.640 -0.5688 -0.9442 -0.2656
   88TCq2    O4 1348   0.648   3.145   0.564  0.1534 -0.6981 -0.1438
   88TCq2    C9 1349   0.359   3.520   0.712  0.9658 -1.4409  0.0045
   88TCq2    O5 1350   0.473   3.575   0.711  0.8579  0.3057  0.2803
   88TCq2    O6 1351   0.246   3.580   0.731  0.8003  1.0202  0.1023
   88TCq2    H2 1352   0.139   3.364   0.713 -0.3661 -1.0685 -0.7442
   88TCq2    H3 1353   0.566   3.348   0.676 -1.2088  0.6850 -1.4615
   88TCq2    H4 1354   0.342   2.991   0.690  0.4775 -0.2328 -1.3455
   89MPD2     C 1355   1.646   0.936   2.315 -0.0294  0.0139  0.2431
   89MPD2    C1 1356   1.582   1.053   2.275  0.0695  0.7472 -0.2699
   89MPD2    C2 1357   1.648   1.173   2.254  0.0238 -0.4634  0.0396
   89MPD2    C3 1358   1.784   1.180   2.258 -0.1174  0.6587 -0.2338
   89MPD2    C4 1359   1.854   1.062   2.272  0.0549 -1.1756 -0.9753
   89MPD2    C5 1360   1.788   0.944   2.321 -0.0926  0.3724  0.1785
   89MPD2     H 1361   1.577   1.250   2.227  2.0975  0.3538 -3.0800
   89MPD2    H1 1362   1.962   1.071   2.266 -0.0597  0.7015 -0.0731
   89MPD2    H2 1363   1.591   0.849   2.348  0.0497 -1.0100 -2.3299
   89MPD2    H3 1364   1.850   0.860   2.351  0.2292  1.0237  1.3403
   89MPD2     N 1365   1.856   1.303   2.221  0.1690 -0.2050  0.0673
   89MPD2    H5 1366   1.799   1.386   2.205  1.0850  0.3142 -0.4976
   89MPD2    N1 1367   1.445   1.047   2.228 -0.7141 -0.3464 -0.7041
   89MPD2    H7 1368   1.411   1.139   2.199 -0.4904 -0.5622 -1.6373
   90TCq2    C1 1369   1.991   1.324   2.211 -0.1576 -0.7204  0.1529
   90TCq2    O2 1370   2.084   1.243   2.223  0.7870 -0.0215  0.4640
   90TCq2    C2 1371   2.034   1.461   2.176  0.3797 -0.0467 -0.7655
   90TCq2    C3 1372   1.960   1.559   2.119 -0.6086 -0.7084  0.1050
   90TCq2    C4 1373   2.018   1.678   2.090  0.2936 -0.3156 -0.2690
   90TCq2    C5 1374   2.147   1.692   2.081 -0.0722 -0.4711 -0.5993
   90TCq2    C6 1375   2.223   1.597   2.141 -0.8838 -0.6318  0.3844
   90TCq2    C7 1376   2.171   1.480   2.195  0.2727  0.2899  0.4662
   90TCq2    C8 1377   2.365   1.617   2.157 -0.1820  0.6367  0.0378
   90TCq2    O4 1378   2.429   1.570   2.248  0.5524  0.2247  0.0015
   90TCq2    C9 1379   1.933   1.788   2.064  0.0687 -0.0051 -0.7350
   90TCq2    O5 1380   1.983   1.888   2.002  0.1769 -0.1622  0.8123
   90TCq2    O6 1381   1.810   1.768   2.076  0.4741  0.2405  0.4749
   90TCq2    H2 1382   1.852   1.556   2.119 -0.6769  1.5441 -1.2620
   90TCq2    H3 1383   2.179   1.794   2.064  1.0347 -0.5467  1.0679
   90TCq2    H4 1384   2.225   1.421   2.268  1.7857 -1.1765 -1.8159
   91TMC2    C1 1385   3.479   1.381  16.827  0.2170  0.0298  0.3971
   91TMC2    C2 1386   3.453   1.485  16.741  0.4021 -0.0221 -0.1044
   91TMC2    C3 1387   3.320   1.502  16.697  0.0550 -0.0654 -0.4457
   91TMC2    C4 1388   3.382   1.290  16.861  0.5581 -0.3864  0.4121
   91TMC2    C5 1389   3.258   1.301  16.801  0.3809 -0.0188 -0.0607
   91TMC2    C6 1390   3.220   1.409  16.726 -0.1874 -0.6083  0.0323
   91TMC2     C 1391   3.622   1.347  16.850 -0.4010 -0.1165 -0.0159
   91TMC2     O 1392   3.654   1.284  16.955 -0.2640 -0.1120  0.7387
   91TMC2     H 1393   3.532   1.554  16.712 -0.3030  1.1618  0.7894
   91TMC2    H1 1394   3.400   1.209  16.931  0.6306 -1.7629 -1.2005
   91TMC2    H2 1395   3.119   1.415  16.687  0.6971  0.6157 -2.0623
   91TMC2    C7 1396   3.154   1.212  16.851 -0.5238  0.2427  0.1006
   91TMC2    C8 1397   3.300   1.626  16.621 -0.1394 -0.9542  0.2805
   91TMC2    O1 1398   3.161   1.187  16.969 -0.4832 -0.0086  0.0757
   91TMC2    O2 1399   3.389   1.703  16.592 -0.4282  0.2352 -0.1174
   91TMC2    O5 1400   3.177   1.672  16.663  0.3381  0.3386  0.3589
   91TMC2    H5 1401   3.114   1.598  16.677 -0.1534  0.7952  0.5803
   92MPD2     C 1402   3.915   1.310  16.843  0.0978 -0.2951  0.1426
   92MPD2    C1 1403   3.845   1.356  16.736 -0.3464  0.9878 -0.1938
   92MPD2    C2 1404   3.907   1.409  16.623 -0.0326  0.4056  0.0664
   92MPD2    C3 1405   4.048   1.408  16.616 -0.4337  0.1660 -1.1527
   92MPD2    C4 1406   4.118   1.331  16.719  0.1628  0.2895 -0.0580
   92MPD2    C5 1407   4.051   1.287  16.835 -0.5710 -0.3939  0.2024
   92MPD2     H 1408   3.852   1.467  16.550 -0.2509  0.5456  0.3412
   92MPD2    H1 1409   4.226   1.318  16.718  0.2658  1.1642 -0.2061
   92MPD2    H2 1410   3.870   1.291  16.940  0.1125 -0.1099  0.1852
   92MPD2    H3 1411   4.098   1.236  16.918 -0.8461  0.9017  1.1483
   92MPD2     N 1412   4.117   1.474  16.512 -0.9628 -0.6917  0.5276
   92MPD2    H5 1413   4.060   1.535  16.454 -1.0456  0.2728  1.6122
   92MPD2    N1 1414   3.706   1.373  16.744  0.3374  0.3763  0.1097
   92MPD2    H7 1415   3.657   1.410  16.663  0.3692  0.6628  0.2204
   93MPD2     C 1416   0.147   0.835  13.656  0.2370  0.2945  0.5043
   93MPD2    C1 1417   0.116   0.906  13.764  0.9854  0.1849 -0.3514
   93MPD2    C2 1418   4.702   0.923  13.786 -0.2384 -0.2893 -0.0601
   93MPD2    C3 1419   4.602   0.860  13.713 -0.2374  0.3882 -0.4090
   93MPD2    C4 1420   4.642   0.780  13.607  0.2163 -0.4240  0.7373
   93MPD2    C5 1421   0.051   0.771  13.578 -0.9365 -0.4327  0.1910
   93MPD2     H 1422   4.667   0.996  13.858 -0.2949 -0.0643 -0.3149
   93MPD2    H1 1423   4.579   0.731  13.534 -1.6015  1.1782  1.2467
   93MPD2    H2 1424   0.246   0.830  13.612 -0.1178  2.0470 -0.5233
   93MPD2    H3 1425   0.080   0.694  13.508 -1.2533  0.4738 -0.9330
   93MPD2     N 1426   4.470   0.906  13.726  0.0029 -0.2724  0.9003
   93MPD2    H5 1427   4.459   0.975  13.800 -2.5257 -0.1830  0.4343
   93MPD2    N1 1428   0.210   0.984  13.834 -0.5571 -0.6659  0.3154
   93MPD2    H7 1429   0.168   1.048  13.901 -1.7137 -2.1295  0.9577
   94TCq2    C1 1430   0.347   0.970  13.826 -0.2466 -0.1315 -0.4124
   94TCq2    O2 1431   0.408   0.878  13.773 -0.3930 -0.1925 -0.0698
   94TCq2    C2 1432   0.415   1.064  13.918  0.1263  0.0276 -0.3187
   94TCq2    C3 1433   0.339   1.149  14.002  0.5017  0.3801  0.7716
   94TCq2    C4 1434   0.400   1.220  14.096  0.2654 -0.0914  0.7865
   94TCq2    C5 1435   0.538   1.210  14.113 -0.0658 -0.2438 -0.1461
   94TCq2    C6 1436   0.610   1.141  14.017  0.4158 -0.7039  0.1107
   94TCq2    C7 1437   0.552   1.058  13.918  0.6793 -0.0828  0.4559
   94TCq2    C8 1438   0.753   1.147  14.017 -0.2427  0.0998  1.0439
   94TCq2    O4 1439   0.807   1.073  13.936  0.3009  0.5247  0.5772
   94TCq2    C9 1440   0.328   1.299  14.188 -0.8015  0.2448  0.2862
   94TCq2    O5 1441   0.207   1.316  14.158 -0.1974 -0.9642 -0.1393
   94TCq2    O6 1442   0.392   1.353  14.280 -0.1249  0.4424  0.1839
   94TCq2    H2 1443   0.234   1.175  14.001 -0.0396 -1.9346 -2.9670
   94TCq2    H3 1444   0.591   1.265  14.190  2.5888 -0.8604 -1.5422
   94TCq2    H4 1445   0.604   0.994  13.849 -0.9458  0.2585 -1.1049
   95TMC2    C1 1446   0.562   2.859  15.697 -0.1216 -0.0821  0.2664
   95TMC2    C2 1447   0.665   2.897  15.775  0.4788  0.3499 -0.1846
   95TMC2    C3 1448   0.659   2.885  15.914  0.4984 -0.2300 -0.1696
   95TMC2    C4 1449   0.440   2.830  15.753  0.5956  0.2222 -0.0173
   95TMC2    C5 1450   0.433   2.817  15.891  0.4345  0.4845 -0.4669
   95TMC2    C6 1451   0.539   2.852  15.972  0.4339 -0.1183 -0.1958
   95TMC2     C 1452   0.581   2.873  15.549  0.0707 -0.2824  0.6311
   95TMC2     O 1453   0.688   2.923  15.514  0.2963  0.1546  0.1332
   95TMC2     H 1454   0.748   2.950  15.728  0.9719 -0.2348  0.0220
   95TMC2    H1 1455   0.360   2.802  15.685  1.4591  0.5689 -1.1756
   95TMC2    H2 1456   0.517   2.855  16.078  1.3222  0.9275 -0.0530
   95TMC2    C7 1457   0.298   2.784  15.950  0.2964 -0.4477 -0.2746
   95TMC2    C8 1458   0.755   2.946  15.998 -0.5189 -0.5170 -0.5099
   95TMC2    O1 1459   0.293   2.762  16.069 -0.6384  0.5887 -0.7767
   95TMC2    O2 1460   0.765   2.916  16.113  0.5135  0.4424 -0.0016
   95TMC2    O5 1461   0.844   3.034  15.939  0.2444 -0.3020  0.4867
   95TMC2    H5 1462   0.811   3.086  15.862 -1.4249 -0.1951  1.2851
   96MPD2     C 1463   0.385   2.850  15.081  0.4332 -0.6690 -0.4969
   96MPD2    C1 1464   0.462   2.946  15.143  0.5460  0.4822 -1.0741
   96MPD2    C2 1465   0.501   2.929  15.280  0.2091 -0.5239 -0.3203
   96MPD2    C3 1466   0.472   2.809  15.341 -0.6469  0.3753  0.1430
   96MPD2    C4 1467   0.414   2.712  15.268 -0.1231  0.3994 -1.4352
   96MPD2    C5 1468   0.375   2.735  15.138  0.4174  0.0919  0.6207
   96MPD2     H 1469   0.549   3.006  15.338  0.8603 -0.9852 -0.2431
   96MPD2    H1 1470   0.401   2.611  15.305 -0.7848  2.0866  3.0133
   96MPD2    H2 1471   0.334   2.880  14.990  0.3545  0.8718  0.0578
   96MPD2    H3 1472   0.320   2.659  15.082  1.9071 -0.2655 -0.3582
   96MPD2     N 1473   0.499   2.795  15.478 -0.2938  0.4233  0.5222
   96MPD2    H5 1474   0.479   2.706  15.523 -0.2117 -0.8840 -2.0246
   96MPD2    N1 1475   0.486   3.070  15.077 -0.0036  0.2859  0.2228
   96MPD2    H7 1476   0.442   3.077  14.986  0.4176 -1.2346 -0.0972
   97MPD2     C 1477   2.024   0.186   1.865  0.4597  0.2054 -0.7078
   97MPD2    C1 1478   1.957   0.275   1.793 -0.7936  0.4409 -0.4949
   97MPD2    C2 1479   1.960   0.262   1.655 -1.2480  0.5445  0.9067
   97MPD2    C3 1480   2.023   0.158   1.597  0.2757 -0.9859  0.1480
   97MPD2    C4 1481   2.079   0.062   1.676  0.2422 -0.1666 -0.4936
   97MPD2    C5 1482   2.087   0.079   1.810 -0.3808  0.3632  0.0006
   97MPD2     H 1483   1.922   0.338   1.589 -0.5464 -0.8229 -1.0959
   97MPD2    H1 1484   2.130   4.695   1.639  1.7303  1.0083 -1.2021
   97MPD2    H2 1485   2.031   0.202   1.973  0.1913  0.4376 -0.7252
   97MPD2    H3 1486   2.138   0.012   1.879 -1.7255 -1.0682 -0.3835
   97MPD2     N 1487   2.014   0.135   1.458 -0.1180 -0.4814  0.1744
   97MPD2    H5 1488   2.042   0.042   1.429 -0.1935 -0.2642 -0.6045
   97MPD2    N1 1489   1.888   0.382   1.861  0.2240  0.0894 -0.2093
   97MPD2    H7 1490   1.890   0.375   1.963  1.9791  0.1431 -0.2321
   98TCq2    C1 1491   1.964   0.224   1.363 -0.4414  0.0961  0.0357
   98TCq2    O2 1492   1.918   0.337   1.378 -0.3662 -0.2646  0.4555
   98TCq2    C2 1493   1.957   0.169   1.223 -0.4864  0.3531  0.5049
   98TCq2    C3 1494   1.991   0.042   1.195  1.0987  0.0349  0.2015
   98TCq2    C4 1495   1.995   0.008   1.065 -0.4327 -0.2901 -0.1166
   98TCq2    C5 1496   1.986   0.095   0.959 -0.4360  0.6469  0.4292
   98TCq2    C6 1497   1.959   0.225   0.991 -0.0400  0.2010  0.3471
   98TCq2    C7 1498   1.940   0.264   1.124  0.1702  0.1160 -0.0590
   98TCq2    C8 1499   2.019   0.320   0.907  0.1844 -0.5723 -0.0918
   98TCq2    O4 1500   2.103   0.284   0.827 -0.0351 -0.2788  0.1014
   98TCq2    C9 1501   2.016   4.590   1.032 -1.3599  0.1392  0.7703
   98TCq2    O5 1502   2.087   4.518   1.109  0.2893 -0.7880  0.5089
   98TCq2    O6 1503   1.953   4.539   0.933 -0.1794  0.4489  0.1243
   98TCq2    H2 1504   1.984   4.685   1.271  2.2301 -1.5198 -1.2922
   98TCq2    H3 1505   2.005   0.067   0.856 -0.5124 -0.0543  0.6083
   98TCq2    H4 1506   1.932   0.370   1.144  1.4246 -0.2723  2.4848
   99MPD2     C 1507   0.436   2.674   2.131 -0.0472  0.2451 -0.6462
   99MPD2    C1 1508   0.311   2.630   2.088  0.1113  0.2389 -0.5329
   99MPD2    C2 1509   0.290   2.594   1.956 -0.0983  0.4653  0.9493
   99MPD2    C3 1510   0.407   2.590   1.875 -0.7018  0.5322  0.0531
   99MPD2    C4 1511   0.531   2.632   1.920 -0.3814  0.0115 -0.1380
   99MPD2    C5 1512   0.545   2.674   2.049 -0.1252  0.1534  0.4182
   99MPD2     H 1513   0.200   2.540   1.928  0.2548  0.8349 -0.8824
   99MPD2    H1 1514   0.608   2.646   1.846 -0.2568 -1.1052 -0.2163
   99MPD2    H2 1515   0.453   2.705   2.234 -1.2999 -1.1293 -0.0179
   99MPD2    H3 1516   0.645   2.704   2.078  0.9259  1.7049 -4.7366
   99MPD2     N 1517   0.382   2.552   1.739  0.3362  0.8237 -0.0355
   99MPD2    H5 1518   0.286   2.551   1.707  0.6078  1.9009 -0.8765
   99MPD2    N1 1519   0.204   2.599   2.178  0.4553  0.3320 -1.1594
   99MPD2    H7 1520   0.116   2.570   2.138  0.3035  0.4244 -0.8910
  100TCq2    C1 1521   0.199   2.621   2.315 -0.0918  0.1915 -0.6595
  100TCq2    O2 1522   0.286   2.675   2.383  0.9548  0.2206  0.4178
  100TCq2    C2 1523   0.070   2.592   2.371  0.6935 -0.0808  0.2269
  100TCq2    C3 1524   0.073   2.591   2.508  0.2853  0.1464 -0.0734
  100TCq2    C4 1525   4.672   2.625   2.574  0.9196 -0.6303 -0.0739
  100TCq2    C5 1526   4.562   2.648   2.498 -0.1807  0.0127 -0.0180
  100TCq2    C6 1527   4.562   2.651   2.362  0.4319 -0.5167 -0.8088
  100TCq2    C7 1528   4.679   2.629   2.300 -0.2055  0.1581 -0.0988
  100TCq2    C8 1529   4.435   2.622   2.301 -0.2490 -0.2692 -0.6787
  100TCq2    O4 1530   4.335   2.641   2.376 -0.3486 -0.6524 -0.2877
  100TCq2    C9 1531   4.664   2.610   2.716 -0.2320 -0.1805  0.8025
  100TCq2    O5 1532   0.041   2.555   2.767 -0.7878  0.3315 -0.7164
  100TCq2    O6 1533   4.556   2.637   2.774  0.1188  0.2664  0.1607
  100TCq2    H2 1534   0.165   2.565   2.559  0.3291  0.7251  0.1416
  100TCq2    H3 1535   4.470   2.673   2.551 -0.0761  1.0995 -0.3422
  100TCq2    H4 1536   4.697   2.644   2.194  0.3575  0.3418  0.0256
  101MPD2     C 1537   1.918   3.331  12.877 -0.7033 -0.3786  0.2063
  101MPD2    C1 1538   1.792   3.367  12.913 -0.1438  0.2231 -0.0864
  101MPD2    C2 1539   1.721   3.284  13.008 -0.2999  0.3285  0.4683
  101MPD2    C3 1540   1.779   3.171  13.058 -0.0468 -0.6522 -0.1588
  101MPD2    C4 1541   1.911   3.152  13.035  0.2951 -0.3176  0.2703
  101MPD2    C5 1542   1.976   3.232  12.947 -0.3108  0.0983 -0.0223
  101MPD2     H 1543   1.621   3.301  13.044 -1.3516 -3.3442 -0.7380
  101MPD2    H1 1544   1.967   3.074  13.085 -0.1806 -0.9414 -0.1729
  101MPD2    H2 1545   1.973   3.385  12.801 -0.6055 -1.1707 -0.2878
  101MPD2    H3 1546   2.077   3.205  12.919 -0.2873  1.3404 -1.1380
  101MPD2     N 1547   1.699   3.101  13.143 -0.1765 -0.5474 -0.5947
  101MPD2    H5 1548   1.620   3.143  13.191 -1.1524 -1.6081 -1.2707
  101MPD2    N1 1549   1.742   3.483  12.849  0.4074  0.1883  0.8617
  101MPD2    H7 1550   1.804   3.519  12.777  2.3815  0.1849  2.5504
  102TCq2    C1 1551   1.747   3.903  12.596  0.2520  0.2488 -0.7613
  102TCq2    O2 1552   1.856   3.878  12.644  0.2689  0.5090 -0.2191
  102TCq2    C2 1553   1.641   3.817  12.641  0.6087 -0.3028 -0.3395
  102TCq2    C3 1554   1.510   3.864  12.649 -0.0046  0.0771 -0.2240
  102TCq2    C4 1555   1.409   3.794  12.710 -0.1071 -0.9364 -0.0895
  102TCq2    C5 1556   1.445   3.678  12.779 -0.2223  0.2627  0.0595
  102TCq2    C6 1557   1.578   3.642  12.774  0.1957 -0.5409  0.2831
  102TCq2    C7 1558   1.674   3.705  12.706  0.1622  0.0795  0.1383
  102TCq2    C8 1559   1.612   3.524  12.852 -0.1106 -0.1117 -0.2637
  102TCq2    O4 1560   1.525   3.469  12.912  0.2931 -0.1362 -0.0180
  102TCq2    C9 1561   1.274   3.837  12.712 -0.4465  0.5395 -0.0534
  102TCq2    O5 1562   1.197   3.783  12.794  0.3092  0.0974  0.1073
  102TCq2    O6 1563   1.244   3.942  12.647 -0.1372 -0.0898  0.1228
  102TCq2    H2 1564   1.491   3.963  12.611  1.1552 -0.0509 -1.1513
  102TCq2    H3 1565   1.366   3.626  12.831 -0.0605 -1.6917 -1.6559
  102TCq2    H4 1566   1.773   3.664  12.687 -0.0330  0.1114 -0.9790
  103TMC2    C1 1567   4.288   3.659  12.383 -0.3427 -0.1992  0.8057
  103TMC2    C2 1568   4.414   3.608  12.392 -0.2392  0.1262  0.2980
  103TMC2    C3 1569   4.465   3.614  12.518 -0.4222 -0.4367  0.5871
  103TMC2    C4 1570   4.208   3.697  12.488 -0.1087  0.0685  0.3150
  103TMC2    C5 1571   4.260   3.688  12.613  0.5953 -0.1818  0.0699
  103TMC2    C6 1572   4.391   3.639  12.628 -0.6877 -0.0082  0.6440
  103TMC2     C 1573   4.214   3.627  12.257  0.1928  0.3140 -0.7295
  103TMC2     O 1574   4.121   3.698  12.222 -0.3719  0.1210 -0.2544
  103TMC2     H 1575   4.470   3.572  12.307 -1.6097 -1.6164  0.1208
  103TMC2    H1 1576   4.101   3.710  12.476  0.2071  1.8445 -0.4241
  103TMC2    H2 1577   4.440   3.645  12.724  2.8673  0.0622 -1.1449
  103TMC2    C7 1578   4.184   3.678  12.739  0.3251  0.2312 -0.4526
  103TMC2    C8 1579   4.591   3.551  12.546  0.2340  0.2827 -0.1773
  103TMC2    O1 1580   4.243   3.625  12.829 -0.3696  0.0239 -0.8598
  103TMC2    O2 1581   4.609   3.458  12.616  0.0705 -0.0555  0.3418
  103TMC2    O5 1582   4.672   3.660  12.543  0.2475 -0.1357 -0.1131
  103TMC2    H5 1583   4.641   3.734  12.487 -1.3491 -0.1980  0.7024
  104MPD2     C 1584   4.215   3.326  12.065  0.0755  0.2310  0.5338
  104MPD2    C1 1585   4.200   3.459  12.083  0.2342  0.2338  0.8402
  104MPD2    C2 1586   4.125   3.534  11.993 -0.5613 -0.6440  0.5910
  104MPD2    C3 1587   4.077   3.470  11.883 -0.0173  0.8368 -0.1215
  104MPD2    C4 1588   4.095   3.335  11.864 -0.4399  0.6562 -0.2137
  104MPD2    C5 1589   4.169   3.263  11.951 -0.4038  0.8268  0.1796
  104MPD2     H 1590   4.111   3.641  12.002  0.2258 -0.4192 -0.8615
  104MPD2    H1 1591   4.046   3.275  11.789 -1.2995  1.0356  0.0496
  104MPD2    H2 1592   4.274   3.270  12.135 -2.0565 -0.9849  1.3573
  104MPD2    H3 1593   4.179   3.155  11.944 -1.2430  0.8038 -0.6300
  104MPD2     N 1594   4.010   3.537  11.779 -0.2923  0.0327 -0.0137
  104MPD2    H5 1595   3.968   3.477  11.709  0.8396  0.6245 -1.1704
  104MPD2    N1 1596   4.255   3.508  12.203 -0.7857 -0.1184  0.0515
  104MPD2    H7 1597   4.315   3.451  12.262  1.9546  0.5490 -2.0713
  105MPD2     C 1598   1.954   2.561  17.647 -0.2734  0.0351  0.0269
  105MPD2    C1 1599   1.894   2.673  17.599 -0.0741 -0.1694  0.3731
  105MPD2    C2 1600   1.775   2.719  17.655  0.2530  0.1007 -0.3868
  105MPD2    C3 1601   1.725   2.661   0.080  0.1253 -0.0855  1.3009
  105MPD2    C4 1602   1.791   2.557   0.144 -0.1491  0.2038  0.0606
  105MPD2    C5 1603   1.912   2.512   0.088 -0.9547 -0.9008 -0.0817
  105MPD2     H 1604   1.717   2.797  17.608  0.3075 -0.7704 -1.8818
  105MPD2    H1 1605   1.758   2.524   0.242  1.5015 -1.9353 -0.1196
  105MPD2    H2 1606   2.039   2.523  17.590 -1.0504 -0.0574 -1.0572
  105MPD2    H3 1607   1.955   2.422   0.132  0.7171 -0.2604 -0.3895
  105MPD2     N 1608   1.594   2.715   0.115  0.6711 -1.1763  0.1725
  105MPD2    H5 1609   1.558   2.791   0.058  0.7404 -1.6007 -0.4301
  105MPD2    N1 1610   1.950   2.724  17.481 -0.5301 -0.1531  0.2499
  105MPD2    H7 1611   2.029   2.679  17.436 -0.4688 -0.3089  0.5159
  106TCq2    C1 1612   1.510   2.670   0.216  0.4417 -0.6738 -0.2477
  106TCq2    O2 1613   1.530   2.570   0.280 -0.1175 -0.2293  0.5467
  106TCq2    C2 1614   1.394   2.755   0.243  0.3867  0.3168 -0.0368
  106TCq2    C3 1615   1.384   2.888   0.199 -0.2244 -0.0769 -0.2406
  106TCq2    C4 1616   1.273   2.964   0.221 -0.2641 -0.0044  0.3098
  106TCq2    C5 1617   1.151   2.899   0.265 -0.6866 -0.5839 -0.1057
  106TCq2    C6 1618   1.170   2.766   0.309 -0.4145 -1.1968  0.2070
  106TCq2    C7 1619   1.284   2.694   0.293  0.4101 -1.0534 -0.4307
  106TCq2    C8 1620   1.065   2.701   0.395 -0.6689  0.1946 -0.3865
  106TCq2    O4 1621   1.085   2.588   0.425  0.1652  0.0139  0.3300
  106TCq2    C9 1622   1.285   3.104   0.213 -0.0815  0.1019 -0.1754
  106TCq2    O5 1623   1.173   3.160   0.209 -0.7543 -0.2351  0.2379
  106TCq2    O6 1624   1.392   3.162   0.193 -0.0662  0.8336  0.1995
  106TCq2    H2 1625   1.475   2.932   0.159 -0.2712 -0.0333 -0.2994
  106TCq2    H3 1626   1.059   2.956   0.266 -0.5253 -0.3488  1.2613
  106TCq2    H4 1627   1.291   2.590   0.325  3.1542 -0.8192 -0.2462
  107TMC2    C1 1628   1.809   2.423  11.575  0.2692 -0.1570 -0.2390
  107TMC2    C2 1629   1.903   2.517  11.561 -0.2308  0.0837 -0.2663
  107TMC2    C3 1630   1.945   2.537  11.431  0.2846 -0.4308  0.0127
  107TMC2    C4 1631   1.795   2.317  11.484 -0.3956  0.2191  0.1411
  107TMC2    C5 1632   1.843   2.340  11.356 -0.4072 -0.3607 -0.2694
  107TMC2    C6 1633   1.918   2.448  11.327 -0.5814  0.6619  0.4588
  107TMC2     C 1634   1.738   2.417  11.705 -0.7682 -0.2328  0.3513
  107TMC2     O 1635   1.723   2.313  11.764  0.4269  0.7297 -0.0314
  107TMC2     H 1636   1.915   2.594  11.637 -1.1670 -1.6406  1.6179
  107TMC2    H1 1637   1.735   2.229  11.502  2.1190 -1.5139 -0.0105
  107TMC2    H2 1638   1.962   2.469  11.231 -2.4738  0.2079 -0.5114
  107TMC2    C7 1639   1.792   2.258  11.247  0.2385  0.2155  0.5104
  107TMC2    C8 1640   2.053   2.641  11.415  0.1891  0.2518 -0.6363
  107TMC2    O1 1641   1.688   2.197  11.261 -0.3567 -0.3399  0.3083
  107TMC2    O2 1642   2.135   2.675  11.499 -0.0804  0.4861  0.0854
  107TMC2    O5 1643   2.044   2.697  11.297  0.3007  0.2220 -0.0696
  107TMC2    H5 1644   1.967   2.660  11.250  2.0994 -0.0453 -2.7791
  108MPD2     C 1645   1.566   2.702  11.852  0.7319  0.0788 -0.4125
  108MPD2    C1 1646   1.602   2.569  11.852  0.5835  0.4952 -1.1535
  108MPD2    C2 1647   1.557   2.477  11.954 -0.8988 -0.0412  0.1388
  108MPD2    C3 1648   1.463   2.527  12.041  0.0990 -1.1353 -0.0262
  108MPD2    C4 1649   1.427   2.657  12.043  0.4970  0.4746 -0.2289
  108MPD2    C5 1650   1.483   2.742  11.950  0.1464  0.4952 -0.0683
  108MPD2     H 1651   1.588   2.373  11.955  1.0465  0.5273 -0.2784
  108MPD2    H1 1652   1.366   2.701  12.121 -0.0307 -0.5606 -0.0674
  108MPD2    H2 1653   1.593   2.776  11.778  1.1608  1.0791  0.7510
  108MPD2    H3 1654   1.459   2.848  11.962  1.1254  0.7955 -0.7976
  108MPD2     N 1655   1.415   2.452  12.147 -0.0415 -0.2293 -0.0358
  108MPD2    H5 1656   1.343   2.501  12.199 -0.2289 -2.9009  2.2499
  108MPD2    N1 1657   1.687   2.538  11.745  1.0027 -0.0169  0.1209
  108MPD2    H7 1658   1.709   2.619  11.688 -1.5388  0.7639  0.2626
  109MPD2     C 1659   1.475   3.870   2.512 -0.2573  0.1124  0.1894
  109MPD2    C1 1660   1.588   3.945   2.487 -0.3885 -0.5014  0.0047
  109MPD2    C2 1661   1.605   4.076   2.548  0.7415  0.2221  0.2228
  109MPD2    C3 1662   1.501   4.128   2.618 -0.3143  0.0539 -0.5154
  109MPD2    C4 1663   1.385   4.054   2.629 -0.7937  0.6893 -0.2086
  109MPD2    C5 1664   1.381   3.933   2.572  0.1245 -0.0199  0.3888
  109MPD2     H 1665   1.696   4.134   2.536  1.2062 -0.9978 -2.1100
  109MPD2    H1 1666   1.290   4.089   2.667 -1.6159  1.2162 -2.7567
  109MPD2    H2 1667   1.469   3.767   2.480  1.5142  0.4525 -1.2530
  109MPD2    H3 1668   1.285   3.885   2.591 -0.1226  1.3081  2.4762
  109MPD2     N 1669   1.502   4.264   2.668  0.4410  0.3751  0.0654
  109MPD2    H5 1670   1.418   4.285   2.721  0.9144  0.9919  0.5589
  109MPD2    N1 1671   1.693   3.881   2.408  0.1361  0.0920 -0.0445
  109MPD2    H7 1672   1.667   3.791   2.369  1.3335 -1.1332  1.9930
  110TCq2    C1 1673   1.595   4.366   2.638  0.4992 -0.5257 -0.0901
  110TCq2    O2 1674   1.677   4.371   2.545 -0.0504  0.1289  0.1457
  110TCq2    C2 1675   1.551   4.485   2.694  0.7517 -0.1326  0.4152
  110TCq2    C3 1676   1.493   4.491   2.818  0.5382  0.2606 -0.3195
  110TCq2    C4 1677   1.451   4.608   2.869  0.0992 -0.1748 -0.0344
  110TCq2    C5 1678   1.461   4.720   2.794 -0.0922  0.4195  0.5019
  110TCq2    C6 1679   1.525   0.000   2.671 -0.2776  0.3774  0.7951
  110TCq2    C7 1680   1.570   4.601   2.616 -0.3058 -0.0056  0.5183
  110TCq2    C8 1681   1.509   0.113   2.578 -0.3127 -0.4860  0.2249
  110TCq2    O4 1682   1.584   0.124   2.480 -0.5248 -0.3399 -0.7218
  110TCq2    C9 1683   1.396   4.628   3.000  0.4096 -0.7364 -0.2369
  110TCq2    O5 1684   1.313   4.719   3.010 -0.2092  0.3912 -0.5562
  110TCq2    O6 1685   1.418   4.535   3.081 -0.0804  0.3803 -0.4924
  110TCq2    H2 1686   1.509   4.407   2.884 -0.1884  1.0103  0.8108
  110TCq2    H3 1687   1.448   0.098   2.835  1.6428  1.2396 -0.9208
  110TCq2    H4 1688   1.597   4.593   2.511  0.2823 -0.9532  0.7408
  111TMC2    C1 1689   2.287   4.148  11.411 -0.1174 -0.6933 -0.5054
  111TMC2    C2 1690   2.373   4.156  11.305  0.4719  0.5369 -1.5190
  111TMC2    C3 1691   2.503   4.182  11.334 -0.1670 -0.6269  0.5873
  111TMC2    C4 1692   2.329   4.176  11.539 -0.1191  0.1629 -0.1731
  111TMC2    C5 1693   2.460   4.200  11.562 -0.1803 -0.0796  0.1013
  111TMC2    C6 1694   2.555   4.193  11.463 -0.2148 -0.7194  0.8470
  111TMC2     C 1695   2.151   4.150  11.377  0.1064  0.4935 -0.8344
  111TMC2     O 1696   2.129   4.155  11.259 -0.4991 -0.0295 -0.5396
  111TMC2     H 1697   2.348   4.157  11.199  1.7366 -0.5038 -1.8176
  111TMC2    H1 1698   2.263   4.164  11.624 -0.4989 -0.6288 -0.5826
  111TMC2    H2 1699   2.661   4.189  11.485  0.3257 -0.1455 -1.6966
  111TMC2    C7 1700   2.486   4.250  11.691  0.3710  0.2301 -0.4035
  111TMC2    C8 1701   2.603   4.131  11.240 -1.1185 -0.0119  0.5701
  111TMC2    O1 1702   2.394   4.262  11.769 -0.1529 -0.2821  0.0551
  111TMC2    O2 1703   2.725   4.152  11.255  0.4750  0.3838 -0.1556
  111TMC2    O5 1704   2.556   4.012  11.202 -0.3161 -0.3444  0.3860
  111TMC2    H5 1705   2.458   4.003  11.196 -0.2641 -0.0156 -1.1379
  112MPD2     C 1706   1.645   4.154  11.465 -0.3099 -0.8216  0.3816
  112MPD2    C1 1707   1.725   4.133  11.354 -0.1610 -0.1141  0.6489
  112MPD2    C2 1708   1.862   4.124  11.361  0.1072  0.0279 -0.5414
  112MPD2    C3 1709   1.924   4.158  11.482  0.4577  0.4529 -0.5351
  112MPD2    C4 1710   1.844   4.192  11.590 -0.1113  0.5872 -0.2784
  112MPD2    C5 1711   1.712   4.176  11.581 -0.2046 -0.2968  0.3216
  112MPD2     H 1712   1.910   4.090  11.270  0.2501 -0.4904 -0.2717
  112MPD2    H1 1713   1.893   4.196  11.687 -1.3488 -0.8104  0.4039
  112MPD2    H2 1714   1.538   4.171  11.458  0.0801  1.1914 -0.4429
  112MPD2    H3 1715   1.640   4.200  11.658 -1.6923  0.4554 -1.3018
  112MPD2     N 1716   2.068   4.166  11.486 -0.2161  0.4429  0.0004
  112MPD2    H5 1717   2.103   4.188  11.579 -1.2759 -0.2378  0.5657
  112MPD2    N1 1718   1.674   4.126  11.218 -0.0057 -0.0012  0.4327
  112MPD2    H7 1719   1.745   4.113  11.146 -0.5729  1.4523 -0.3829
  113MPD2     C 1720   4.400   2.843   0.941  0.2364  0.2251 -0.3811
  113MPD2    C1 1721   4.367   2.711   0.973  0.2040 -0.0077  0.1986
  113MPD2    C2 1722   4.388   2.615   0.884  1.1251  1.1337 -0.1148
  113MPD2    C3 1723   4.443   2.642   0.764  1.1838  0.3365  0.2388
  113MPD2    C4 1724   4.486   2.766   0.734  0.2535 -0.2559  0.2656
  113MPD2    C5 1725   4.458   2.874   0.819 -0.0317  0.7410 -0.0289
  113MPD2     H 1726   4.351   2.517   0.911 -0.1470  1.8176  0.6339
  113MPD2    H1 1727   4.520   2.795   0.636  0.5594 -2.1822 -0.2099
  113MPD2    H2 1728   4.377   2.928   1.004  1.3863 -0.9842  1.6585
  113MPD2    H3 1729   4.481   2.976   0.788  1.2963  0.2843 -0.5327
  113MPD2     N 1730   4.487   2.547   0.668  0.3872 -0.0265 -0.0673
  113MPD2    H5 1731   4.547   2.583   0.595  0.6409  0.1485  0.2300
  113MPD2    N1 1732   4.323   2.682   1.104 -0.2676  0.1626 -0.3027
  113MPD2    H7 1733   4.299   2.587   1.129 -0.7730 -0.1601 -2.0353
  114TCq2    C1 1734   4.440   2.419   0.656  0.9406  0.1229 -0.3190
  114TCq2    O2 1735   4.357   2.361   0.724  0.3745  0.3741 -0.3725
  114TCq2    C2 1736   4.505   2.343   0.554  0.5248 -0.4915 -0.7911
  114TCq2    C3 1737   4.532   2.400   0.435  0.2077 -0.4890 -0.4216
  114TCq2    C4 1738   4.564   2.309   0.330 -0.2527  0.5717  1.0588
  114TCq2    C5 1739   4.569   2.174   0.359  0.6184  0.3668  0.4945
  114TCq2    C6 1740   4.532   2.124   0.480 -0.3182  0.0715  0.3670
  114TCq2    C7 1741   4.497   2.209   0.582  0.4344 -0.1855  0.3808
  114TCq2    C8 1742   4.558   1.987   0.501  0.2130  0.0849 -0.5217
  114TCq2    O4 1743   4.638   1.931   0.426 -0.5314 -0.1538  0.4182
  114TCq2    C9 1744   4.605   2.356   0.196  0.0175  0.5275 -0.3497
  114TCq2    O5 1745   4.619   2.270   0.106 -0.2689  0.5913  0.2512
  114TCq2    O6 1746   4.630   2.475   0.185  1.0405 -0.0973  0.3802
  114TCq2    H2 1747   4.529   2.508   0.429  2.1564 -0.4062 -0.0656
  114TCq2    H3 1748   4.589   2.106   0.277  1.5973  1.9838 -0.5919
  114TCq2    H4 1749   4.469   2.169   0.679  1.1802 -0.2668  0.5684
  115TMC2    C1 1750   1.453   0.092   0.313 -0.0681  0.1710  0.2355
  115TMC2    C2 1751   1.430   0.060   0.443 -0.4256 -0.6692  0.3266
  115TMC2    C3 1752   1.451   0.159   0.536  0.1288  0.3753 -0.2752
  115TMC2    C4 1753   1.496   0.212   0.272 -0.9545  0.4389  0.0803
  115TMC2    C5 1754   1.523   0.304   0.366  0.3524 -0.1626 -0.4833
  115TMC2    C6 1755   1.498   0.283   0.496 -0.4859  0.7827  0.6050
  115TMC2     C 1756   1.418   4.718   0.215  0.3399  0.8426 -0.6934
  115TMC2     O 1757   1.390   4.606   0.255  0.0891  0.4041 -0.1569
  115TMC2     H 1758   1.413   4.678   0.472  1.2165 -1.5825 -1.9529
  115TMC2    H1 1759   1.532   0.241   0.174  0.4728 -0.0698  0.4451
  115TMC2    H2 1760   1.519   0.357   0.572 -1.1268  0.8719  0.6956
  115TMC2    C7 1761   1.574   0.432   0.325  0.3980  0.5942 -0.6825
  115TMC2    C8 1762   1.406   0.141   0.672 -0.0444  0.0707 -0.0270
  115TMC2    O1 1763   1.615   0.442   0.210  0.1972  0.9588 -0.2032
  115TMC2    O2 1764   1.393   0.243   0.741 -0.3460 -0.1501  0.6538
  115TMC2    O5 1765   1.430   0.016   0.721 -0.2490  0.4099  0.7907
  115TMC2    H5 1766   1.465   4.665   0.663 -1.6472  2.1404 -2.1847
  116MPD2     C 1767   1.220   4.621  17.423 -0.0430 -0.5809  0.5367
  116MPD2    C1 1768   1.216   4.544  17.534  0.3031  0.1220  0.0486
  116MPD2    C2 1769   1.269   4.591  17.654  0.1595  0.3638 -0.4536
  116MPD2    C3 1770   1.329   4.717  17.667  0.5047 -0.1174 -0.0043
  116MPD2    C4 1771   1.329   0.079  17.554 -0.0003 -0.3120 -0.2712
  116MPD2    C5 1772   1.274   0.027  17.437 -0.1124  0.2730  0.6662
  116MPD2     H 1773   1.261   4.534   0.061  0.1844  2.3080  0.7684
  116MPD2    H1 1774   1.366   0.181  17.557 -1.7943  0.3120  0.6204
  116MPD2    H2 1775   1.191   4.589  17.324 -1.1185 -4.1098  1.9796
  116MPD2    H3 1776   1.280   0.093  17.352  0.9595 -1.5709 -0.6918
  116MPD2     N 1777   1.397   0.050   0.090 -0.1224 -0.1630 -0.0488
  116MPD2    H5 1778   1.438   0.140   0.065  0.5165 -0.0996  1.2690
  116MPD2    N1 1779   1.148   4.422  17.524 -0.2889  0.0166  0.4885
  116MPD2    H7 1780   1.109   4.398  17.433  2.4003 -0.6041 -0.5009
  117TMC2    C1 1781   3.905   1.666  14.268 -1.0975 -0.8799  0.1073
  117TMC2    C2 1782   3.940   1.540  14.223  0.0333 -0.6640  0.5898
  117TMC2    C3 1783   4.069   1.497  14.238  0.2722  0.0937 -0.2896
  117TMC2    C4 1784   4.005   1.756  14.303  0.4859 -0.4985  0.1856
  117TMC2    C5 1785   4.138   1.713  14.318 -0.5927  0.2870 -0.3192
  117TMC2    C6 1786   4.170   1.580  14.284  0.6612 -0.1222 -0.1452
  117TMC2     C 1787   3.761   1.702  14.242  0.0086  0.0937  0.8386
  117TMC2     O 1788   3.677   1.609  14.259 -0.7441  0.1659  0.1757
  117TMC2     H 1789   3.859   1.483  14.179 -0.8909  2.1524 -1.4127
  117TMC2    H1 1790   3.975   1.860  14.316 -0.7404 -0.6486 -1.3066
  117TMC2    H2 1791   4.267   1.533  14.289  0.9835  1.0017  3.9619
  117TMC2    C7 1792   4.240   1.813  14.304 -0.4517  0.3124  0.0732
  117TMC2    C8 1793   4.103   1.361  14.206 -0.0260  0.0235  0.0221
  117TMC2    O1 1794   4.345   1.778  14.253 -0.2666  0.3618 -0.5952
  117TMC2    O2 1795   4.217   1.322  14.182 -0.2483 -0.2273  0.0690
  117TMC2    O5 1796   3.996   1.278  14.205 -0.1189 -0.3765  0.1698
  117TMC2    H5 1797   3.916   1.322  14.240 -1.1489 -1.7255 -0.5099
  118MPD2     C 1798   4.212   2.176  14.372 -0.6839  0.3436  0.0190
  118MPD2    C1 1799   4.248   2.061  14.309  0.4320 -0.1209 -0.2526
  118MPD2    C2 1800   4.352   2.072  14.210  1.2420 -0.9595 -0.3475
  118MPD2    C3 1801   4.420   2.188  14.187  0.0539  0.1761  0.3937
  118MPD2    C4 1802   4.386   2.303  14.260 -0.5896  0.4547 -0.5957
  118MPD2    C5 1803   4.281   2.296  14.350  0.1933  0.6716 -0.6702
  118MPD2     H 1804   4.373   1.982  14.153 -0.6601 -1.7933  0.2693
  118MPD2    H1 1805   4.444   2.393  14.249  1.5667 -0.4817  3.1155
  118MPD2    H2 1806   4.135   2.166  14.448  0.5750 -1.6438  1.0195
  118MPD2    H3 1807   4.254   2.379  14.415  1.8535 -1.2674  2.5226
  118MPD2     N 1808   4.525   2.202  14.092  0.0351  0.3175  0.6544
  118MPD2    H5 1809   4.571   2.290  14.070  2.1614 -0.7428  0.7652
  118MPD2    N1 1810   4.191   1.938  14.345  0.2986 -0.2426 -0.1252
  118MPD2    H7 1811   4.120   1.939  14.417  0.5021 -0.7527  0.0774
  119MPD2     C 1812   2.375   3.301  13.197 -0.2029  0.1205  0.3613
  119MPD2    C1 1813   2.322   3.225  13.293  0.0500  0.7461 -0.1362
  119MPD2    C2 1814   2.289   3.090  13.270 -0.2426 -0.7518 -0.0015
  119MPD2    C3 1815   2.284   3.028  13.139  0.5462 -0.2390  0.0179
  119MPD2    C4 1816   2.338   3.109  13.043 -0.0155  0.0468  0.6576
  119MPD2    C5 1817   2.376   3.240  13.075 -0.2705 -0.4843 -0.2955
  119MPD2     H 1818   2.252   3.042  13.360 -1.0260 -2.1529 -1.0506
  119MPD2    H1 1819   2.339   3.076  12.940 -1.5570 -2.4561  1.4325
  119MPD2    H2 1820   2.410   3.403  13.201 -2.0008  0.8187 -1.3679
  119MPD2    H3 1821   2.409   3.310  13.000 -0.4888  0.6536  0.6722
  119MPD2     N 1822   2.236   2.897  13.116  0.9291 -1.1111  0.4458
  119MPD2    H5 1823   2.217   2.876  13.018  1.9044  1.5405 -0.3208
  119MPD2    N1 1824   2.304   3.275  13.424 -0.2912  0.1153  0.2757
  119MPD2    H7 1825   2.255   3.218  13.492  0.3310 -0.0972  0.5407
  120TCq2    C1 1826   2.198   2.811  13.218  0.2214 -0.2063  0.9370
  120TCq2    O2 1827   2.215   2.826  13.336 -0.2890 -0.0809  0.2444
  120TCq2    C2 1828   2.117   2.706  13.175 -0.5510  0.3894 -0.0559
  120TCq2    C3 1829   2.112   2.664  13.045  0.2323  0.1489 -0.1577
  120TCq2    C4 1830   2.035   2.559  13.012 -0.3328  1.5035 -0.5990
  120TCq2    C5 1831   1.953   2.499  13.109  0.0394  0.3405  0.3399
  120TCq2    C6 1832   1.948   2.551  13.235 -0.1438 -0.5442 -0.0019
  120TCq2    C7 1833   2.029   2.651  13.263 -0.1610 -0.3785 -0.1209
  120TCq2    C8 1834   1.827   2.516  13.311  0.1616 -0.4787  0.1686
  120TCq2    O4 1835   1.728   2.503  13.246  0.2835  0.2318  0.0264
  120TCq2    C9 1836   2.039   2.509  12.874  0.9871 -0.1021  0.4789
  120TCq2    O5 1837   2.015   2.384  12.861 -0.2687 -0.0586  0.1171
  120TCq2    O6 1838   2.088   2.581  12.781 -0.7486  0.2127  0.2687
  120TCq2    H2 1839   2.183   2.698  12.971 -1.0030  1.0498 -0.9482
  120TCq2    H3 1840   1.891   2.415  13.078  0.5153  0.3582 -0.6704
  120TCq2    H4 1841   2.007   2.717  13.347  0.0296 -0.2947 -0.1369
  121TMC2    C1 1842   4.102   4.335  13.952 -0.4564 -0.1451 -0.3783
  121TMC2    C2 1843   4.170   4.216  13.963 -0.4006 -0.0126  0.9309
  121TMC2    C3 1844   4.102   4.105  13.997  0.1412  0.0910 -0.0103
  121TMC2    C4 1845   3.968   4.342  13.979 -0.2723  0.1979 -0.3673
  121TMC2    C5 1846   3.903   4.232  14.011  0.1175 -0.2909 -0.6345
  121TMC2    C6 1847   3.967   4.108  14.025  0.2838  0.4376  0.3786
  121TMC2     C 1848   4.175   4.462  13.925 -0.0005 -0.1296  0.3619
  121TMC2     O 1849   4.296   4.464  13.945  0.2227  0.1876  0.0200
  121TMC2     H 1850   4.278   4.211  13.953 -0.5076 -2.5403  1.1815
  121TMC2    H1 1851   3.909   4.433  13.975 -0.5982 -0.0679 -1.6614
  121TMC2    H2 1852   3.908   4.023  14.057 -0.3927  0.1261 -1.6924
  121TMC2    C7 1853   3.814   4.264  14.123 -0.0952  0.2321 -1.0361
  121TMC2    C8 1854   4.178   3.988  14.040  0.2297 -0.7702 -0.2437
  121TMC2    O1 1855   3.855   4.269  14.240  0.0913  0.1922 -0.0189
  121TMC2    O2 1856   4.144   3.920  14.134  0.0516  0.4498 -0.3597
  121TMC2    O5 1857   4.236   3.949  13.927  0.2734 -0.5194 -0.7254
  121TMC2    H5 1858   4.219   4.015  13.857  1.7546 -0.3748 -0.9370
  122MPD2     C 1859   4.263   0.011  13.885 -0.0996 -0.1950 -0.1906
  122MPD2    C1 1860   4.149   4.684  13.832 -1.3374 -1.0758 -0.4079
  122MPD2    C2 1861   4.074   0.043  13.742  0.2786 -0.0566  0.0838
  122MPD2    C3 1862   4.126   0.167  13.710 -1.0611 -0.0497 -0.2506
  122MPD2    C4 1863   4.242   0.209  13.777  0.1183  0.2197 -0.5793
  122MPD2    C5 1864   4.307   0.133  13.866 -0.0695  0.1186  0.2666
  122MPD2     H 1865   3.993   4.717  13.688  0.4424 -0.3417  0.0809
  122MPD2    H1 1866   4.282   0.309  13.774  0.8710 -0.0491  0.2493
  122MPD2    H2 1867   4.334   4.679  13.948  2.5677  0.7946 -2.3349
  122MPD2    H3 1868   4.397   0.169  13.914 -0.9546  1.3996  0.9663
  122MPD2     N 1869   4.085   0.254  13.605 -0.6519 -0.6217 -0.4617
  122MPD2    H5 1870   4.128   0.344  13.592 -0.3279 -1.0096 -2.1360
  122MPD2    N1 1871   4.098   4.557  13.861 -0.3339  0.5947 -0.4291
  122MPD2    H7 1872   4.011   4.519  13.826  0.7815  0.5816 -3.1305
  123MPD2     C 1873   1.337   2.706  10.894 -0.2781 -0.0572  0.3419
  123MPD2    C1 1874   1.377   2.746  10.772  0.2432  0.6084  0.1472
  123MPD2    C2 1875   1.500   2.807  10.760  0.0978 -0.6447  0.4359
  123MPD2    C3 1876   1.579   2.825  10.874 -1.0124 -0.6933  0.6215
  123MPD2    C4 1877   1.540   2.773  10.996 -0.6034 -0.4037 -0.2658
  123MPD2    C5 1878   1.418   2.716  11.008 -0.6204  0.8788  0.0863
  123MPD2     H 1879   1.520   2.853  10.663 -3.0819 -0.0735  0.0318
  123MPD2    H1 1880   1.600   2.793  11.084  0.7255 -0.5739 -1.1296
  123MPD2    H2 1881   1.238   2.663  10.904  0.2032 -1.1709  0.3183
  123MPD2    H3 1882   1.389   2.683  11.107 -1.3002 -0.1911 -0.4750
  123MPD2     N 1883   1.702   2.898  10.851 -0.2223 -0.1357 -0.2039
  123MPD2    H5 1884   1.716   2.928  10.755 -2.4206  1.8194  0.0896
  123MPD2    N1 1885   1.287   2.739  10.664 -0.1723  0.1308  0.1601
  123MPD2    H7 1886   1.195   2.700  10.681  0.6535 -1.2480  1.4844
  124TCq2    C1 1887   1.789   2.936  10.941  0.0392  0.3049 -0.1519
  124TCq2    O2 1888   1.777   2.925  11.062  0.1206  0.5893  1.0390
  124TCq2    C2 1889   1.884   3.023  10.879  0.0918 -0.4067 -0.0432
  124TCq2    C3 1890   1.875   3.157  10.913  0.4819 -0.3286 -0.4043
  124TCq2    C4 1891   1.901   3.245  10.818  0.0685  0.1998  0.0939
  124TCq2    C5 1892   1.935   3.212  10.692  0.0173 -1.0143 -0.7906
  124TCq2    C6 1893   1.952   3.083  10.665  0.0768  0.7260 -0.4869
  124TCq2    C7 1894   1.923   2.984  10.758 -0.4119  0.0838 -0.2945
  124TCq2    C8 1895   1.952   3.046  10.529  0.2145  0.5173 -0.8562
  124TCq2    O4 1896   1.878   2.949  10.500 -0.0973  0.1363 -0.3479
  124TCq2    C9 1897   1.873   3.389  10.843  0.5661 -0.4796  0.1540
  124TCq2    O5 1898   1.812   3.406  10.957 -0.1840 -0.5364  0.3938
  124TCq2    O6 1899   1.946   3.469  10.779 -0.1219  0.5702  0.0851
  124TCq2    H2 1900   1.850   3.185  11.015  1.8755 -0.0443 -0.1320
  124TCq2    H3 1901   1.939   3.299  10.628  1.2310 -1.5539 -1.4522
  124TCq2    H4 1902   1.936   2.880  10.729 -1.3862 -0.0589 -0.2354
  125TMC2    C1 1903   2.289   0.469   9.658  0.4811 -0.5130  0.8404
  125TMC2    C2 1904   2.386   0.569   9.639 -0.4033  0.6247 -0.2939
  125TMC2    C3 1905   2.473   0.561   9.534  0.0305 -0.7575 -0.0186
  125TMC2    C4 1906   2.284   0.362   9.573 -0.5883 -0.4020 -0.1138
  125TMC2    C5 1907   2.368   0.362   9.459 -0.2962  0.0858 -0.0191
  125TMC2    C6 1908   2.467   0.456   9.438 -0.1270 -0.0723 -0.4079
  125TMC2     C 1909   2.159   0.490   9.727 -0.1886 -0.4937 -0.9255
  125TMC2     O 1910   2.073   0.401   9.717 -0.3272 -0.2423 -0.0344
  125TMC2     H 1911   2.394   0.656   9.703 -3.0864 -0.3600  1.3570
  125TMC2    H1 1912   2.222   0.277   9.598 -1.2236  0.6655  1.9638
  125TMC2    H2 1913   2.527   0.452   9.348  0.6666 -2.3022  0.2112
  125TMC2    C7 1914   2.372   0.238   9.383 -0.7730 -0.4984 -0.2024
  125TMC2    C8 1915   2.577   0.664   9.523  0.2392 -1.1235 -0.1779
  125TMC2    O1 1916   2.275   0.167   9.393  0.2380  0.3684  0.0292
  125TMC2    O2 1917   2.549   0.782   9.541  0.0140 -0.0180  0.2968
  125TMC2    O5 1918   2.680   0.625   9.444 -0.3932  0.1404 -0.7052
  125TMC2    H5 1919   2.697   0.528   9.452 -1.4187 -0.0340 -0.5606
  126MPD1     C 1920   1.883   0.784  10.042  0.5510  0.4540 -0.2481
  126MPD1    C1 1921   1.990   0.855   9.998  0.8298 -0.0519 -0.3694
  126MPD1    C2 1922   2.071   0.792   9.903  0.2094 -0.3806 -0.0872
  126MPD1    C3 1923   2.053   0.664   9.872 -0.3899  0.0821 -0.4886
  126MPD1    C4 1924   1.944   0.594   9.922 -0.0472  0.4556 -0.0307
  126MPD1    C5 1925   1.850   0.654   9.998 -0.2890 -0.2887  0.3660
  126MPD1     H 1926   2.156   0.850   9.870  0.7924 -0.2817  1.5997
  126MPD1    H1 1927   1.926   0.490   9.896 -1.5905  0.9993 -1.1409
  126MPD1    H2 1928   1.805   0.825  10.105 -0.0657  0.4149 -0.9835
  126MPD1    H3 1929   1.766   0.600  10.039 -0.5392 -1.0311 -1.1280
  126MPD1     N 1930   2.154   0.616   9.784 -0.1670  0.2015  0.3349
  126MPD1    H5 1931   2.235   0.676   9.770 -0.9929  1.5664  1.4427
  126MPD1    N1 1932   2.004   0.989  10.032  0.3110 -0.1187  0.3486
  126MPD1    H6 1933   1.964   1.028  10.116  2.7585  1.3956  0.7963
  126MPD1    H7 1934   2.098   1.025  10.016  0.5762 -0.9228  0.0581
  127MPD2     C 1935   4.013   3.743   9.141 -0.0465 -0.8109  0.9288
  127MPD2    C1 1936   4.081   3.742   9.261 -0.0199  0.4308 -0.5873
  127MPD2    C2 1937   4.155   3.857   9.297  0.0239 -0.7171  0.3889
  127MPD2    C3 1938   4.157   3.975   9.222 -0.1640 -0.0248 -0.1481
  127MPD2    C4 1939   4.088   3.967   9.102 -1.2396  0.1714 -0.2815
  127MPD2    C5 1940   4.029   3.850   9.060  0.1056  1.1151  0.6797
  127MPD2     H 1941   4.204   3.859   9.394  1.8603  1.7296 -0.5866
  127MPD2    H1 1942   4.082   4.056   9.040 -0.0259  0.9410  0.7187
  127MPD2    H2 1943   3.951   3.660   9.112 -0.9450  0.0075  0.5187
  127MPD2    H3 1944   3.981   3.855   8.963 -1.9037 -2.3763  1.5018
  127MPD2     N 1945   4.217   4.087   9.277  0.1868  0.7900 -0.4093
  127MPD2    H5 1946   4.265   4.082   9.366  0.3024 -1.8321 -0.6186
  127MPD2    N1 1947   4.066   3.620   9.343 -0.1496  0.2222  0.2724
  127MPD2    H7 1948   4.011   3.540   9.314  2.3652 -1.7129  0.7990
  128TCq2    C1 1949   4.136   3.598   9.456 -0.5914  0.0266  0.5566
  128TCq2    O2 1950   4.220   3.668   9.514 -0.0118  0.0790 -0.0046
  128TCq2    C2 1951   4.102   3.477   9.522  0.6247  0.2573 -0.4011
  128TCq2    C3 1952   4.197   3.411   9.595  0.8330 -0.3823  0.5045
  128TCq2    C4 1953   4.174   3.282   9.636 -0.2391 -0.3203  0.1840
  128TCq2    C5 1954   4.047   3.236   9.628 -0.0504 -0.0525  0.1365
  128TCq2    C6 1955   3.950   3.308   9.571  0.1954 -0.0461  0.0511
  128TCq2    C7 1956   3.977   3.428   9.505 -0.2116 -0.2951  0.4444
  128TCq2    C8 1957   3.812   3.275   9.589 -0.1194  0.2328 -0.0245
  128TCq2    O4 1958   3.735   3.354   9.533 -0.5822 -0.6443 -0.1782
  128TCq2    C9 1959   4.283   3.188   9.670 -0.2495  0.0262  0.4484
  128TCq2    O5 1960   4.398   3.238   9.653 -0.1511  0.1524 -0.1012
  128TCq2    O6 1961   4.245   3.079   9.724  0.4670  0.1377 -0.2608
  128TCq2    H2 1962   4.300   3.444   9.606 -0.4013  3.1231  1.6051
  128TCq2    H3 1963   4.036   3.134   9.664 -0.1817 -0.2370 -0.4416
  128TCq2    H4 1964   3.900   3.494   9.466  1.5969  1.5421 -0.0001
  129MPD2     C 1965   2.439   3.569   2.085 -0.4237  0.7558  0.2857
  129MPD2    C1 1966   2.480   3.670   2.168  0.2309  0.4468 -0.0988
  129MPD2    C2 1967   2.594   3.743   2.143 -0.1224 -0.6336 -0.5934
  129MPD2    C3 1968   2.676   3.699   2.040  0.2488  0.6036 -0.4439
  129MPD2    C4 1969   2.637   3.596   1.960 -0.1969 -0.4309  0.5996
  129MPD2    C5 1970   2.510   3.533   1.971 -0.0061  0.0651 -0.3258
  129MPD2     H 1971   2.628   3.816   2.217 -0.8062  0.6416 -1.5433
  129MPD2    H1 1972   2.697   3.566   1.875 -0.5944 -0.6848  0.4101
  129MPD2    H2 1973   2.345   3.521   2.112  0.1897  0.1263  1.3093
  129MPD2    H3 1974   2.479   3.452   1.905 -1.5417  0.2667  0.1429
  129MPD2     N 1975   2.786   3.783   2.021  1.2570 -0.3197 -0.3974
  129MPD2    H5 1976   2.785   3.869   2.075 -0.1902  0.2127 -1.2642
  129MPD2    N1 1977   2.402   3.708   2.279 -0.7280 -0.0485  0.1493
  129MPD2    H7 1978   2.444   3.772   2.347 -2.4463  1.4456 -0.1981
  130TCq2    C1 1979   2.287   3.649   2.331 -0.0683  0.4509 -0.3064
  130TCq2    O2 1980   2.208   3.581   2.273  0.5021 -0.2738 -0.5432
  130TCq2    C2 1981   2.227   3.715   2.442 -0.0300  0.3375  0.0539
  130TCq2    C3 1982   2.271   3.843   2.477 -0.7260 -0.9717 -0.3073
  130TCq2    C4 1983   2.209   3.901   2.575  0.2090 -0.4197 -0.1399
  130TCq2    C5 1984   2.104   3.845   2.646  0.1373 -0.2529 -0.8800
  130TCq2    C6 1985   2.073   3.714   2.609 -0.3564  0.5834 -0.2939
  130TCq2    C7 1986   2.143   3.641   2.516 -0.7752 -0.1092 -0.0417
  130TCq2    C8 1987   1.947   3.647   2.646  0.4414 -0.3820  0.1470
  130TCq2    O4 1988   1.932   3.537   2.587  0.0743 -0.1979 -0.3328
  130TCq2    C9 1989   2.241   4.043   2.596  0.5081  0.2661 -0.0361
  130TCq2    O5 1990   2.164   4.105   2.673  0.3482 -0.7152 -0.3459
  130TCq2    O6 1991   2.341   4.084   2.533 -0.3147  0.4091 -0.7704
  130TCq2    H2 1992   2.348   3.894   2.420 -0.6265 -0.6656  0.0993
  130TCq2    H3 1993   2.045   3.910   2.710  0.8859 -0.9012  0.4730
  130TCq2    H4 1994   2.121   3.538   2.490 -1.4617  0.0624 -0.1204
  131MPD2     C 1995   1.166   3.217   9.786  0.5099 -0.0154 -0.5411
  131MPD2    C1 1996   1.274   3.201   9.864  0.1225  0.2209  0.1655
  131MPD2    C2 1997   1.269   3.120   9.975 -0.6045 -0.2402 -0.0199
  131MPD2    C3 1998   1.162   3.043   9.996  0.3482  0.6864 -0.2981
  131MPD2    C4 1999   1.048   3.064   9.920  0.4825 -0.0168  0.7808
  131MPD2    C5 2000   1.052   3.150   9.819 -0.0219  0.4496 -0.0168
  131MPD2     H 2001   1.351   3.112  10.045 -0.6722  4.1792  0.5741
  131MPD2    H1 2002   0.953   3.020   9.948 -0.0662 -0.6086 -2.0350
  131MPD2    H2 2003   1.172   3.270   9.692  2.7037  0.9836  0.1721
  131MPD2    H3 2004   0.962   3.169   9.761  2.1873  4.2969 -2.1319
  131MPD2     N 2005   1.163   2.959  10.114  0.2109  0.0911 -0.3470
  131MPD2    H5 2006   1.247   2.945  10.169  1.6447  1.3309 -2.2353
  131MPD2    N1 2007   1.394   3.274   9.829 -0.1904  0.2852 -0.2997
  131MPD2    H7 2008   1.390   3.329   9.744  1.5631 -2.1727 -1.9838
  132TCq2    C1 2009   1.658   3.619   9.588  0.0389 -0.5700 -0.3512
  132TCq2    O2 2010   1.558   3.599   9.523 -0.6246  0.0384  0.1623
  132TCq2    C2 2011   1.689   3.534   9.701 -0.7485 -0.7268  0.1868
  132TCq2    C3 2012   1.800   3.553   9.775  0.0845  0.2807 -0.5040
  132TCq2    C4 2013   1.811   3.499   9.900 -0.2147 -0.0551  0.5096
  132TCq2    C5 2014   1.705   3.415   9.942  0.4784 -0.2849 -0.6442
  132TCq2    C6 2015   1.594   3.390   9.864  0.0500 -0.1568  0.3162
  132TCq2    C7 2016   1.584   3.450   9.737  0.4375  0.8551 -0.1966
  132TCq2    C8 2017   1.500   3.294   9.920  0.1117  0.3064 -0.3813
  132TCq2    O4 2018   1.529   3.244  10.028  0.7455 -0.0541 -0.6347
  132TCq2    C9 2019   1.924   3.529   9.987  0.4070 -0.6707 -0.0556
  132TCq2    O5 2020   1.904   3.506  10.110  0.0589  0.3274  0.5119
  132TCq2    O6 2021   2.023   3.591   9.933  0.3284 -0.3920  0.0723
  132TCq2    H2 2022   1.888   3.609   9.744  0.2469 -0.9015 -2.1871
  132TCq2    H3 2023   1.708   3.373  10.042  0.0500  0.0569 -0.4857
  132TCq2    H4 2024   1.496   3.450   9.673  1.3023 -1.6167 -1.4034
  133MPD2     C 2025   0.018   3.248   9.026 -0.1368  0.0563  0.2748
  133MPD2    C1 2026   4.671   3.332   9.108 -0.2498 -0.0122 -0.4601
  133MPD2    C2 2027   0.014   3.430   9.182 -0.0087  0.2170 -0.3761
  133MPD2    C3 2028   0.150   3.449   9.163  0.4167 -0.0255  0.6017
  133MPD2    C4 2029   0.211   3.377   9.062  0.0381  0.0567  0.3194
  133MPD2    C5 2030   0.147   3.271   9.006 -0.2852 -0.8801  0.2255
  133MPD2     H 2031   4.683   3.480   9.264  0.0268 -2.8120  1.4858
  133MPD2    H1 2032   0.318   3.392   9.053  0.1608 -1.7637 -1.2794
  133MPD2    H2 2033   4.682   3.168   8.979 -1.2036  1.7757 -1.3720
  133MPD2    H3 2034   0.199   3.204   8.938 -3.3738 -1.4292 -1.6074
  133MPD2     N 2035   0.225   3.549   9.234  0.3619 -0.1610  0.2632
  133MPD2    H5 2036   0.321   3.562   9.204  0.8187 -2.3093  0.8082
  133MPD2    N1 2037   4.534   3.303   9.121  0.0193  0.9124  0.4675
  133MPD2    H7 2038   4.498   3.220   9.074 -0.7993  1.2634  0.4795
  134TCq2    C1 2039   4.437   3.376   9.184 -0.6523 -0.2235  0.3907
  134TCq2    O2 2040   4.437   3.494   9.219  0.7385 -0.1293 -0.2307
  134TCq2    C2 2041   4.328   3.297   9.230 -0.1628 -0.4640 -0.3632
  134TCq2    C3 2042   4.360   3.172   9.293 -0.0870  0.1169 -0.3652
  134TCq2    C4 2043   4.259   3.090   9.323  0.0212  0.1588  0.1706
  134TCq2    C5 2044   4.135   3.110   9.278  0.9978 -0.3342 -0.0043
  134TCq2    C6 2045   4.108   3.222   9.204  0.3170  0.5429  0.0589
  134TCq2    C7 2046   4.201   3.320   9.181  0.3997 -0.1756  0.5911
  134TCq2    C8 2047   3.976   3.262   9.184  0.2342  0.0632  0.1854
  134TCq2    O4 2048   3.950   3.384   9.182 -0.9200 -0.0097  0.1603
  134TCq2    C9 2049   4.291   2.973   9.403  0.7438  0.2102  0.9530
  134TCq2    O5 2050   4.197   2.902   9.451 -0.3258  0.0153  0.2367
  134TCq2    O6 2051   4.409   2.964   9.433 -0.4969 -0.2558  0.5322
  134TCq2    H2 2052   4.458   3.167   9.338  0.8940 -1.2601 -2.6685
  134TCq2    H3 2053   4.060   3.055   9.333 -0.2061  1.5004  0.1960
  134TCq2    H4 2054   4.181   3.409   9.123 -0.4127  0.5051  1.9350
  135MPD2     C 2055   3.447   0.642   9.225 -0.1560 -0.0491 -0.3618
  135MPD2    C1 2056   3.460   0.504   9.217  1.1443  0.1254 -0.8225
  135MPD2    C2 2057   3.562   0.449   9.143  0.6921  0.3190 -0.6367
  135MPD2    C3 2058   3.653   0.526   9.065 -0.0192 -0.4881  0.2182
  135MPD2    C4 2059   3.641   0.665   9.080 -0.2622  0.1509 -0.0352
  135MPD2    C5 2060   3.540   0.715   9.159  0.4233  0.7261  0.0428
  135MPD2     H 2061   3.577   0.342   9.133 -0.0482  0.0044  1.6906
  135MPD2    H1 2062   3.709   0.735   9.032 -1.2763  1.3357  0.2372
  135MPD2    H2 2063   3.377   0.687   9.295  2.6386 -0.2670  2.5785
  135MPD2    H3 2064   3.524   0.822   9.156 -0.4811  0.6867  3.2685
  135MPD2     N 2065   3.772   0.480   9.000  0.8000  0.0433 -0.6680
  135MPD2    H5 2066   3.844   0.547   8.972  0.0673 -0.0216 -2.7172
  135MPD2    N1 2067   3.367   0.422   9.292 -0.3392 -0.3157  0.7318
  135MPD2    H7 2068   3.378   0.321   9.296  2.7476  0.0450  1.3628
  136TCq2    C1 2069   3.247   0.465   9.341  0.3274 -0.1444 -0.3171
  136TCq2    O2 2070   3.178   0.560   9.319 -0.0352 -0.2751  0.2518
  136TCq2    C2 2071   3.171   0.368   9.421 -0.6684  0.2495  0.4588
  136TCq2    C3 2072   3.034   0.376   9.431  0.3644  0.3195  0.5958
  136TCq2    C4 2073   2.967   0.285   9.510 -0.9733 -0.1966 -0.1835
  136TCq2    C5 2074   3.035   0.193   9.586 -0.1667 -0.4420 -0.4188
  136TCq2    C6 2075   3.165   0.176   9.556 -0.1977 -0.0537  0.1322
  136TCq2    C7 2076   3.237   0.253   9.466  0.3875  0.7698 -0.2394
  136TCq2    C8 2077   3.233   0.049   9.571  0.0640 -0.2490  1.0989
  136TCq2    O4 2078   3.354   0.053   9.558 -0.1908 -0.2345  0.4075
  136TCq2    C9 2079   2.830   0.297   9.527 -0.1369 -1.0541 -0.8792
  136TCq2    O5 2080   2.794   0.258   9.640 -0.4569 -0.2018 -1.1921
  136TCq2    O6 2081   2.765   0.368   9.445  0.0794 -0.4729  0.0897
  136TCq2    H2 2082   2.976   0.455   9.384  0.8758  0.6371  0.5076
  136TCq2    H3 2083   2.988   0.116   9.646  0.8498 -0.1890  0.7083
  136TCq2    H4 2084   3.344   0.254   9.450  0.2151  1.2822 -1.3779
  137MPD2     C 2085   3.198   3.503   9.276 -0.0496  0.1153 -0.3121
  137MPD2    C1 2086   3.209   3.607   9.359  0.3435 -0.7600  0.7178
  137MPD2    C2 2087   3.242   3.592   9.497  0.4755  0.2671 -0.7016
  137MPD2    C3 2088   3.287   3.471   9.548 -0.2770  0.1603 -0.2597
  137MPD2    C4 2089   3.277   3.362   9.463  0.1329 -0.1977 -0.4291
  137MPD2    C5 2090   3.235   3.381   9.334  0.1792 -0.5769 -0.0567
  137MPD2     H 2091   3.223   3.675   9.564 -2.9744  0.3802 -1.7888
  137MPD2    H1 2092   3.300   3.258   9.483 -0.2943 -0.4812 -1.4272
  137MPD2    H2 2093   3.164   3.500   9.173  0.0985  0.3421 -0.3650
  137MPD2    H3 2094   3.235   3.294   9.269  0.1775 -0.4732 -0.1950
  137MPD2     N 2095   3.320   3.459   9.682  0.2000 -0.8417 -0.7581
  137MPD2    H5 2096   3.333   3.543   9.739  1.6843 -0.2321 -1.9882
  137MPD2    N1 2097   3.162   3.726   9.303 -0.1847  0.3548 -0.3431
  137MPD2    H7 2098   3.115   3.717   9.213  1.4437 -2.6846 -0.9031
  138TCq2    C1 2099   3.138   3.844   9.369  0.0378  0.4212 -0.5157
  138TCq2    O2 2100   3.183   3.879   9.475 -0.2057  0.7188  0.1273
  138TCq2    C2 2101   3.058   3.936   9.296 -0.6129  0.0708 -0.1441
  138TCq2    C3 2102   3.012   3.912   9.173  0.5838 -0.3513 -0.2567
  138TCq2    C4 2103   2.916   3.990   9.134 -0.8073  0.2426 -0.2478
  138TCq2    C5 2104   2.871   4.103   9.194 -0.0418  0.1615  0.1181
  138TCq2    C6 2105   2.920   4.124   9.323 -0.4048 -0.2656  0.2416
  138TCq2    C7 2106   3.014   4.047   9.371 -0.3169 -0.4651 -0.3303
  138TCq2    C8 2107   2.906   4.261   9.366 -0.6439  0.1899  0.1468
  138TCq2    O4 2108   2.995   4.317   9.436 -0.1326 -0.0527  0.2382
  138TCq2    C9 2109   2.870   3.978   8.999  0.0506 -0.2599 -1.1627
  138TCq2    O5 2110   2.910   3.884   8.931  0.1680 -0.2370  0.3783
  138TCq2    O6 2111   2.783   4.057   8.953 -0.1919  0.4476 -0.6030
  138TCq2    H2 2112   3.057   3.841   9.105  1.7836 -0.8524  1.0466
  138TCq2    H3 2113   2.813   4.179   9.142  0.1387 -1.2835 -2.1944
  138TCq2    H4 2114   3.055   4.081   9.466 -1.1908  1.4181 -0.6165
  139TMC2    C1 2115   3.751   2.496  13.150 -0.2108  0.4206  0.2015
  139TMC2    C2 2116   3.714   2.444  13.029  0.0936 -0.7124  0.7276
  139TMC2    C3 2117   3.623   2.500  12.951  0.1758  0.5510 -0.2257
  139TMC2    C4 2118   3.698   2.613  13.193  0.0253  0.6871  0.0056
  139TMC2    C5 2119   3.593   2.662  13.114 -0.5807  0.4104  0.2178
  139TMC2    C6 2120   3.566   2.619  12.988 -0.1213 -0.1497 -0.2959
  139TMC2     C 2121   3.882   2.458  13.194  0.2725  0.2207  0.0042
  139TMC2     O 2122   3.912   2.340  13.183 -0.5091 -0.2460 -0.2597
  139TMC2     H 2123   3.774   2.369  12.979 -0.4713 -0.8571  0.2712
  139TMC2    H1 2124   3.717   2.645  13.295  0.1775 -0.5802  0.3787
  139TMC2    H2 2125   3.485   2.661  12.929  0.3088 -2.0314 -2.2287
  139TMC2    C7 2126   3.540   2.790  13.155  0.6980  0.1153 -0.0992
  139TMC2    C8 2127   3.600   2.442  12.821 -0.1315 -0.3094  0.0692
  139TMC2    O1 2128   3.438   2.828  13.101  0.2742 -0.9415  0.4860
  139TMC2    O2 2129   3.638   2.330  12.797 -0.0704  0.3475 -0.2704
  139TMC2    O5 2130   3.637   2.547  12.736  0.2654  0.2155 -0.3069
  139TMC2    H5 2131   3.634   2.639  12.768  0.1021 -0.5486  1.8808
  140MPD2     C 2132   4.087   2.665  13.425  0.7466 -0.1959 -0.2004
  140MPD2    C1 2133   4.055   2.548  13.362 -0.1284  0.3408  0.0448
  140MPD2    C2 2134   4.125   2.434  13.390  0.0545 -0.0621  0.1772
  140MPD2    C3 2135   4.222   2.429  13.491 -0.0198 -0.7800 -0.4501
  140MPD2    C4 2136   4.249   2.541  13.557  0.6926  0.4884 -0.4387
  140MPD2    C5 2137   4.192   2.662  13.521  0.0581 -0.1875  0.4149
  140MPD2     H 2138   4.096   2.342  13.341 -3.6127  0.9348  0.5412
  140MPD2    H1 2139   4.335   2.546  13.623  0.2215  0.2103  0.1945
  140MPD2    H2 2140   4.030   2.757  13.431 -0.3922 -0.9167 -0.0622
  140MPD2    H3 2141   4.218   2.754  13.571  0.4219 -0.8750  1.4761
  140MPD2     N 2142   4.283   2.306  13.535  0.2180 -0.2561 -0.0217
  140MPD2    H5 2143   4.281   2.221  13.479 -0.8763 -0.4578  0.3279
  140MPD2    N1 2144   3.943   2.555  13.276  0.1314 -0.2430 -0.1673
  140MPD2    H7 2145   3.907   2.648  13.260 -0.1762 -0.1737  0.9418
  141TCq2    C1 2146   4.046   3.425  14.331  0.0262 -0.3199 -0.1954
  141TCq2    O2 2147   4.104   3.503  14.263 -0.6115  0.7569 -0.3738
  141TCq2    C2 2148   4.113   3.375  14.453  0.5184  0.6873  0.2429
  141TCq2    C3 2149   4.028   3.329  14.553 -0.2763  0.0233 -0.3411
  141TCq2    C4 2150   4.073   3.347  14.681 -0.5256  0.5878  0.4484
  141TCq2    C5 2151   4.188   3.422  14.713 -1.2886 -0.5960 -0.4961
  141TCq2    C6 2152   4.260   3.477  14.610  0.2344  0.2604 -0.0063
  141TCq2    C7 2153   4.230   3.444  14.475 -0.5997 -0.3781 -0.3541
  141TCq2    C8 2154   4.376   3.564  14.640 -0.1522  0.5808 -1.0975
  141TCq2    O4 2155   4.435   3.543  14.746  0.0148  0.1081  0.0124
  141TCq2    C9 2156   4.004   3.289  14.795 -0.4118  0.1108 -1.4186
  141TCq2    O5 2157   3.921   3.199  14.772 -0.4170 -0.5403 -0.2023
  141TCq2    O6 2158   4.033   3.330  14.908 -0.5850 -0.0164  0.0034
  141TCq2    H2 2159   3.940   3.265  14.544 -0.1257 -0.2845  0.3682
  141TCq2    H3 2160   4.218   3.439  14.816 -2.4750  2.1937 -0.6207
  141TCq2    H4 2161   4.283   3.469  14.384  0.8383  0.4062  0.7086
  142MPD2     C 2162   1.185   2.174   9.878 -0.3753  0.0323 -0.1191
  142MPD2    C1 2163   1.210   2.233  10.000 -0.6228  0.1705  0.3690
  142MPD2    C2 2164   1.257   2.364  10.004  0.5059  0.4848 -0.7584
  142MPD2    C3 2165   1.302   2.422   9.887  0.0759  0.0754  0.0487
  142MPD2    C4 2166   1.291   2.356   9.767 -0.3633 -0.4132 -0.2426
  142MPD2    C5 2167   1.230   2.238   9.764 -0.8469 -0.0609 -0.3691
  142MPD2     H 2168   1.256   2.424  10.094  1.0468  0.6863 -0.8863
  142MPD2    H1 2169   1.323   2.407   9.677  0.5197 -1.7170 -0.6649
  142MPD2    H2 2170   1.159   2.069   9.873  2.1752 -0.5833 -0.6408
  142MPD2    H3 2171   1.235   2.188   9.668 -0.2770 -3.8026  1.6057
  142MPD2     N 2172   1.341   2.561   9.871  0.2682 -0.0440  0.0987
  142MPD2    H5 2173   1.383   2.593   9.784 -1.8133 -1.3024 -1.3660
  142MPD2    N1 2174   1.179   2.159  10.118  0.6316  0.2557  0.1074
  142MPD2    H7 2175   1.163   2.060  10.108 -2.4032  0.8166 -0.4250
  143TCq2    C1 2176   1.338   2.652   9.969  0.7606  0.3196 -0.4534
  143TCq2    O2 2177   1.297   2.633  10.077  0.4161 -0.2372 -0.1870
  143TCq2    C2 2178   1.402   2.776   9.935  0.5756  0.0970  0.5742
  143TCq2    C3 2179   1.394   2.822   9.807 -0.0041  0.8147 -0.4338
  143TCq2    C4 2180   1.469   2.928   9.771  0.2808  0.1135 -0.0254
  143TCq2    C5 2181   1.577   2.963   9.848 -0.6822 -0.0346 -0.1574
  143TCq2    C6 2182   1.575   2.929   9.982  0.3171  1.0375  0.1426
  143TCq2    C7 2183   1.489   2.833  10.024  0.3427 -0.1563 -0.4383
  143TCq2    C8 2184   1.684   2.957  10.078  0.3874 -0.9848 -0.7515
  143TCq2    O4 2185   1.660   2.927  10.194 -1.2463  0.0978  0.4348
  143TCq2    C9 2186   1.459   2.982   9.640 -0.2916 -0.4744  0.8955
  143TCq2    O5 2187   1.385   2.919   9.563  0.1553  0.1137  0.4366
  143TCq2    O6 2188   1.555   3.048   9.595 -0.2090  0.2899  0.1586
  143TCq2    H2 2189   1.326   2.779   9.735  1.7768 -1.2247 -0.9019
  143TCq2    H3 2190   1.631   3.050   9.812  3.1657 -2.5564 -0.4301
  143TCq2    H4 2191   1.510   2.786  10.120  0.4612 -0.7797 -0.7684
  144MPD2     C 2192   0.573   1.707   0.261 -0.4602 -0.3080 -0.0052
  144MPD2    C1 2193   0.477   1.731   0.357 -0.1558 -0.0404 -0.0690
  144MPD2    C2 2194   0.514   1.780   0.484 -0.5897 -0.4887 -0.1303
  144MPD2    C3 2195   0.646   1.807   0.519 -0.4571 -0.3101 -0.0718
  144MPD2    C4 2196   0.746   1.776   0.423 -1.0418  0.3897  0.0004
  144MPD2    C5 2197   0.707   1.739   0.299 -0.4875  0.0302  0.3627
  144MPD2     H 2198   0.439   1.810   0.556 -0.6900  0.0271 -0.4471
  144MPD2    H1 2199   0.853   1.791   0.435 -1.3497  0.8948  2.1574
  144MPD2    H2 2200   0.557   1.673   0.159 -0.4406 -1.9903  0.5531
  144MPD2    H3 2201   0.786   1.727   0.226 -0.4032 -0.7717  0.5906
  144MPD2     N 2202   0.687   1.843   0.649  0.0394  0.1113  0.2491
  144MPD2    H5 2203   0.787   1.834   0.664  0.0984  0.5422  0.1003
  144MPD2    N1 2204   0.342   1.693   0.333 -0.5630  0.0644  0.2171
  144MPD2    H7 2205   0.277   1.705   0.410 -3.1224  1.6313 -2.2210
  145TCq2    C1 2206   0.603   1.886   0.750  0.0367 -0.8609 -0.5249
  145TCq2    O2 2207   0.493   1.936   0.735 -0.0409  0.9900  0.5505
  145TCq2    C2 2208   0.672   1.882   0.877  0.0390 -0.3483  0.1730
  145TCq2    C3 2209   0.786   1.810   0.880  0.2617 -0.2415 -0.2902
  145TCq2    C4 2210   0.860   1.811   0.994  0.4170 -0.2604  0.8549
  145TCq2    C5 2211   0.825   1.893   1.099  0.2518 -0.0668  0.2288
  145TCq2    C6 2212   0.711   1.975   1.083  0.3080 -0.0821  0.1850
  145TCq2    C7 2213   0.636   1.972   0.969  0.6961  0.3802 -0.2953
  145TCq2    C8 2214   0.663   2.055   1.195  0.5392 -0.1378  0.8789
  145TCq2    O4 2215   0.748   2.055   1.287 -0.1322 -0.3213  0.0988
  145TCq2    C9 2216   0.978   1.729   1.011 -0.1480  0.4735 -0.4874
  145TCq2    O5 2217   1.017   1.717   1.129 -0.1808  0.0827  0.4671
  145TCq2    O6 2218   1.003   1.655   0.913  0.3289 -0.6443  0.6138
  145TCq2    H2 2219   0.810   1.728   0.813 -0.6031 -0.0506 -0.8496
  145TCq2    H3 2220   0.881   1.889   1.193  1.1349  2.9124 -0.1680
  145TCq2    H4 2221   0.555   2.041   0.948  1.9844  1.4673 -1.6631
  146TMC2    C1 2222   0.986   0.128  12.852 -0.3722 -0.0613  0.6514
  146TMC2    C2 2223   0.958   0.169  12.727 -0.7921  0.1594 -0.1402
  146TMC2    C3 2224   0.927   0.063  12.640 -0.4426  0.0117 -0.5281
  146TMC2    C4 2225   1.006   4.715  12.893  0.2952  0.3138  0.3879
  146TMC2    C5 2226   0.972   4.621  12.803  0.0186 -0.3380  0.5420
  146TMC2    C6 2227   0.926   4.649  12.678  0.0272 -0.4434 -0.6506
  146TMC2     C 2228   1.061   0.228  12.937  0.0793  0.7692  0.3953
  146TMC2     O 2229   1.020   0.345  12.933  0.2490 -0.0958  0.3014
  146TMC2     H 2230   0.933   0.272  12.702 -1.9615  0.5220  2.4394
  146TMC2    H1 2231   1.019   4.691  12.998  0.0764  0.5572  0.4684
  146TMC2    H2 2232   0.912   4.566  12.609 -0.8846 -0.6716 -0.1815
  146TMC2    C7 2233   1.001   4.473  12.832  0.3844 -0.4720 -0.1636
  146TMC2    C8 2234   0.855   0.098  12.522 -0.5840 -0.0276 -0.3130
  146TMC2    O1 2235   0.976   4.396  12.742 -0.1771  0.1747 -0.4459
  146TMC2    O2 2236   0.806   0.209  12.491 -0.4891 -0.2121  0.0329
  146TMC2    O5 2237   0.884   0.002  12.430  0.1217  0.4252 -0.4414
  146TMC2    H5 2238   0.954   4.659  12.456  0.8330  1.0818 -0.7492
  147MPD2     C 2239   1.197   4.065  13.071 -1.2478  0.0592 -0.2696
  147MPD2    C1 2240   1.284   4.173  13.099  0.8475 -0.8325  0.4086
  147MPD2    C2 2241   1.231   4.305  13.068  0.2744  0.0226  0.2046
  147MPD2    C3 2242   1.113   4.318  12.997 -0.9607  0.2376 -0.3492
  147MPD2    C4 2243   1.040   4.204  12.962  0.4422  0.1798 -0.1234
  147MPD2    C5 2244   1.076   4.081  13.007 -0.3466 -0.2506  0.3882
  147MPD2     H 2245   1.287   4.393  13.099  0.4151  0.2358 -0.6572
  147MPD2    H1 2246   0.951   4.220  12.902  0.1312 -2.5102 -0.4069
  147MPD2    H2 2247   1.228   3.961  13.076 -1.6377  0.1330  3.2638
  147MPD2    H3 2248   1.011   3.995  12.994 -0.4778 -0.1706  0.5191
  147MPD2     N 2249   1.067   4.446  12.950 -0.0123  0.2139  0.9121
  147MPD2    H5 2250   1.099   4.530  12.998  2.8689 -0.9567  1.0650
  147MPD2    N1 2251   1.407   4.148  13.160  0.0859 -0.1782 -0.2510
  147MPD2    H7 2252   1.426   4.052  13.185 -3.4198 -1.2358 -1.6501
  148MPD2     C 2253   0.829   2.785  11.087 -0.4895  0.2859 -0.2373
  148MPD2    C1 2254   0.882   2.911  11.072  0.3383  1.4994 -0.1520
  148MPD2    C2 2255   0.828   3.005  10.983  0.1561 -0.6362 -0.1123
  148MPD2    C3 2256   0.712   2.977  10.916  0.0871  0.0462  0.7870
  148MPD2    C4 2257   0.654   2.849  10.933  0.3285 -0.1151  0.0845
  148MPD2    C5 2258   0.707   2.765  11.022 -0.2238  0.5241 -0.2953
  148MPD2     H 2259   0.872   3.103  10.968 -0.5560 -0.1825  0.7755
  148MPD2    H1 2260   0.562   2.815  10.887  0.3488  0.3686 -0.3126
  148MPD2    H2 2261   0.873   2.721  11.162 -1.2500 -2.4914 -2.1502
  148MPD2    H3 2262   0.658   2.670  11.039  1.5691 -0.1754  0.9841
  148MPD2     N 2263   0.660   3.067  10.827 -0.1576 -0.0794 -0.1112
  148MPD2    H5 2264   0.699   3.161  10.825  0.2241 -0.2989 -2.1094
  148MPD2    N1 2265   1.005   2.954  11.130  1.0366 -0.8795  0.1983
  148MPD2    H7 2266   1.036   3.046  11.098  1.0504 -0.7886  0.4689
  149TCq2    C1 2267   1.090   2.884  11.211 -0.0345  0.4241 -0.1110
  149TCq2    O2 2268   1.062   2.775  11.260  0.6646  0.4284 -0.9978
  149TCq2    C2 2269   1.224   2.941  11.240 -0.4095 -0.4244  0.2570
  149TCq2    C3 2270   1.298   2.866  11.328  0.0069 -0.0993  0.3714
  149TCq2    C4 2271   1.434   2.898  11.345 -0.0169  0.5766 -0.0182
  149TCq2    C5 2272   1.499   2.976  11.245  0.3680  0.7790  0.3140
  149TCq2    C6 2273   1.414   3.034  11.154 -0.4055 -0.8673 -0.8259
  149TCq2    C7 2274   1.277   3.031  11.160 -0.1195  0.1471 -0.7229
  149TCq2    C8 2275   1.468   3.113  11.049  0.0325  0.3741 -0.1120
  149TCq2    O4 2276   1.570   3.174  11.064 -0.5448  0.6908  0.1415
  149TCq2    C9 2277   1.520   2.809  11.420 -0.2936 -0.4116  0.1018
  149TCq2    O5 2278   1.461   2.724  11.483 -0.3098  0.5203  0.4340
  149TCq2    O6 2279   1.645   2.820  11.406 -0.2264 -0.2883 -0.0113
  149TCq2    H2 2280   1.258   2.787  11.390  1.4803  0.3354  1.8776
  149TCq2    H3 2281   1.606   2.974  11.227  0.0630 -0.3284 -1.4227
  149TCq2    H4 2282   1.213   3.090  11.095 -0.3184 -0.1339 -0.7862
  150MPD2     C 2283   2.861   3.082  12.101 -0.2166  0.3756  0.0278
  150MPD2    C1 2284   2.885   3.123  11.970  0.7291  1.0591 -0.0530
  150MPD2    C2 2285   3.009   3.184  11.951  0.0367  0.6685  0.7361
  150MPD2    C3 2286   3.100   3.205  12.049 -0.4056 -0.0302 -0.8748
  150MPD2    C4 2287   3.076   3.160  12.179  0.3196 -0.2070 -0.4746
  150MPD2    C5 2288   2.953   3.099  12.203  0.3356 -0.2579  0.2150
  150MPD2     H 2289   3.032   3.223  11.853 -2.5858  2.8787  0.9967
  150MPD2    H1 2290   3.153   3.159  12.256 -0.2386 -1.8662  0.0723
  150MPD2    H2 2291   2.770   3.027  12.116 -0.1215  0.2905  0.2838
  150MPD2    H3 2292   2.932   3.058  12.301  2.7002  0.6385  1.1042
  150MPD2     N 2293   3.226   3.268  12.019 -0.6781  1.2095 -0.4647
  150MPD2    H5 2294   3.236   3.283  11.920 -2.7873  0.1051 -0.8594
  150MPD2    N1 2295   2.795   3.076  11.863 -0.0922  0.4189 -0.1440
  150MPD2    H7 2296   2.708   3.030  11.886 -0.3950  0.6554 -0.8142
  151TCq2    C1 2297   3.329   3.299  12.105  0.0523  0.1166 -0.0805
  151TCq2    O2 2298   3.330   3.328  12.224  0.3808  0.1945 -0.5239
  151TCq2    C2 2299   3.458   3.314  12.036  0.5015 -0.0705 -0.6261
  151TCq2    C3 2300   3.479   3.241  11.925 -0.2921  0.0446  0.0606
  151TCq2    C4 2301   3.608   3.238  11.875 -0.4687 -0.0108  0.0945
  151TCq2    C5 2302   3.713   3.292  11.939  0.7977 -0.2653 -0.0654
  151TCq2    C6 2303   3.689   3.350  12.064 -0.0414 -0.4118 -0.2665
  151TCq2    C7 2304   3.558   3.365  12.110 -0.2517 -0.2707  0.0917
  151TCq2    C8 2305   3.803   3.370  12.162 -0.2055 -0.3128  0.2125
  151TCq2    O4 2306   3.793   3.461  12.243  0.5287  0.7875 -0.1455
  151TCq2    C9 2307   3.633   3.178  11.748  0.8725 -0.5645  0.5063
  151TCq2    O5 2308   3.748   3.137  11.727  0.4369  0.3662 -0.2165
  151TCq2    O6 2309   3.532   3.149  11.678  0.0472 -0.1528 -0.2547
  151TCq2    H2 2310   3.406   3.183  11.869 -0.7452  1.3818 -0.7195
  151TCq2    H3 2311   3.811   3.291  11.891  1.1422  0.0864  0.6337
  151TCq2    H4 2312   3.540   3.401  12.211 -3.8837 -0.1367 -0.5988
  152MPD2     C 2313   3.111   2.718  12.491  0.1333  0.3674  0.8392
  152MPD2    C1 2314   3.100   2.773  12.369 -0.0096  0.0525  0.3974
  152MPD2    C2 2315   2.985   2.760  12.295 -0.0045 -0.0536 -0.4384
  152MPD2    C3 2316   2.872   2.693  12.350  0.0555  0.4220  0.3794
  152MPD2    C4 2317   2.888   2.635  12.477 -0.8059 -0.1326 -0.4776
  152MPD2    C5 2318   3.007   2.651  12.547  0.3318 -0.5567  0.1873
  152MPD2     H 2319   2.984   2.802  12.196 -1.0293  1.3898  0.1835
  152MPD2    H1 2320   2.804   2.585  12.524 -1.3941  1.2060 -0.0807
  152MPD2    H2 2321   3.195   2.744  12.555  1.4893 -1.7823 -0.0752
  152MPD2    H3 2322   3.003   2.612  12.648 -2.2252  0.7239  0.5736
  152MPD2     N 2323   2.747   2.688  12.282  0.1016  0.5587 -0.1319
  152MPD2    H5 2324   2.748   2.745  12.198  0.3109  1.2275  0.3230
  152MPD2    N1 2325   3.217   2.842  12.329 -0.2324 -0.3303 -0.1317
  152MPD2    H7 2326   3.292   2.859  12.396 -1.1578  0.2041  0.7724
  153TCq2    C1 2327   3.248   2.869  12.200  0.1351 -0.3335 -0.0383
  153TCq2    O2 2328   3.201   2.823  12.098  0.3188 -0.3133  0.0937
  153TCq2    C2 2329   3.369   2.942  12.185 -0.7882  0.3134  0.4144
  153TCq2    C3 2330   3.459   2.905  12.090 -0.1806  0.1496  0.0332
  153TCq2    C4 2331   3.587   2.955  12.095 -0.5091 -0.1097 -0.0695
  153TCq2    C5 2332   3.629   3.030  12.204 -0.0032  0.3050 -0.6415
  153TCq2    C6 2333   3.533   3.054  12.307  0.2319  0.5714 -0.0437
  153TCq2    C7 2334   3.405   3.017  12.291  0.8795 -1.0399  0.5141
  153TCq2    C8 2335   3.557   3.138  12.413  0.4554  0.0263 -0.9250
  153TCq2    O4 2336   3.465   3.208  12.459  0.2803 -0.2968 -0.0480
  153TCq2    C9 2337   3.686   2.919  11.999 -0.0581 -0.2967  0.4263
  153TCq2    O5 2338   3.787   2.995  11.994 -0.4896 -0.2623  0.1690
  153TCq2    O6 2339   3.650   2.850  11.899 -0.2857 -0.1157 -0.2610
  153TCq2    H2 2340   3.430   2.840  12.008  1.0507 -0.3676  0.0013
  153TCq2    H3 2341   3.733   3.059  12.211 -0.1962  0.5378  1.1599
  153TCq2    H4 2342   3.337   3.054  12.367 -0.4288 -1.2380 -0.5642
  154MPD2     C 2343   4.283   2.654   0.340 -0.0737 -0.1183  0.4742
  154MPD2    C1 2344   4.237   2.768   0.285 -0.9008 -0.5680  0.5772
  154MPD2    C2 2345   4.116   2.818   0.326 -0.5638  0.8904 -0.5940
  154MPD2    C3 2346   4.047   2.746   0.419  0.3419  0.3426 -0.5254
  154MPD2    C4 2347   4.096   2.628   0.468 -0.4378  0.4287 -0.2935
  154MPD2    C5 2348   4.217   2.578   0.425 -0.1223  0.0021  0.5398
  154MPD2     H 2349   4.062   2.902   0.284 -3.0536 -0.9337 -1.0642
  154MPD2    H1 2350   4.042   2.565   0.538  0.2730 -0.6719 -0.7358
  154MPD2    H2 2351   4.376   2.615   0.298 -0.3503  0.7247 -0.9368
  154MPD2    H3 2352   4.254   2.483   0.462  0.7312  0.5740  1.1468
  154MPD2     N 2353   3.920   2.802   0.457  0.8031  0.0892  0.1373
  154MPD2    H5 2354   3.891   2.881   0.400 -0.7054 -0.2100  0.5061
  154MPD2    N1 2355   4.324   2.849   0.211 -0.0991 -0.1804 -0.2496
  154MPD2    H7 2356   4.420   2.818   0.202  0.4626  0.9645  1.9478
  155TCq2    C1 2357   4.287   2.948   0.123  0.2531  0.4035  0.0668
  155TCq2    O2 2358   4.175   2.972   0.083  0.3016 -0.9076  0.1878
  155TCq2    C2 2359   4.398   3.005   0.053  0.6590  0.4344  0.4020
  155TCq2    C3 2360   4.367   3.047  17.607  0.4280 -0.0303  0.0826
  155TCq2    C4 2361   4.473   3.099  17.532 -0.2667 -0.3182  0.2845
  155TCq2    C5 2362   4.595   3.102  17.590  0.0660 -0.6200  0.4757
  155TCq2    C6 2363   4.618   3.063   0.036 -0.5334 -0.5893 -0.1137
  155TCq2    C7 2364   4.522   3.007   0.110  0.5751  1.2627  0.6820
  155TCq2    C8 2365   0.034   3.086   0.091  0.2017  0.8767 -0.3540
  155TCq2    O4 2366   0.088   3.189   0.046 -0.3879 -0.1472  0.0949
  155TCq2    C9 2367   4.459   3.124  17.390  0.1871 -0.3574  0.5807
  155TCq2    O5 2368   4.567   3.146  17.330 -0.0661 -0.4871 -0.2066
  155TCq2    O6 2369   4.343   3.121  17.337  0.4191 -0.3087  0.6038
  155TCq2    H2 2370   4.270   3.037  17.559  0.9475 -0.7390 -0.8299
  155TCq2    H3 2371   4.674   3.146  17.530 -0.5110 -0.0289  0.1518
  155TCq2    H4 2372   4.543   2.974   0.211 -0.4405 -2.1284 -0.1910
  156MPD2     C 2373   4.129   0.296  12.298  0.4755  0.8040 -0.0596
  156MPD2    C1 2374   4.049   0.289  12.182  0.1272  0.0099  0.1744
  156MPD2    C2 2375   3.938   0.367  12.181 -0.2824  0.1161  0.3221
  156MPD2    C3 2376   3.913   0.460  12.286 -0.2593 -0.0857 -0.1868
  156MPD2    C4 2377   3.994   0.469  12.395  0.5708 -0.0581  0.4219
  156MPD2    C5 2378   4.110   0.391  12.402  0.9460  0.1049  0.1280
  156MPD2     H 2379   3.865   0.346  12.103  0.1356  0.8538 -0.2663
  156MPD2    H1 2380   3.978   0.545  12.471  1.3016 -1.7726  2.3068
  156MPD2    H2 2381   4.220   0.238  12.311 -1.7454 -2.3742  1.2971
  156MPD2    H3 2382   4.172   0.392  12.491 -0.5295 -1.1344  1.1850
  156MPD2     N 2383   3.792   0.532  12.280  0.3153  0.4994  0.3261
  156MPD2    H5 2384   3.733   0.505  12.201 -2.2920  2.0158  1.7533
  156MPD2    N1 2385   4.074   0.202  12.075  0.0780 -0.6212 -0.0371
  156MPD2    H7 2386   4.016   0.221  11.995 -0.6891  0.3334  0.7528
  157TCq2    C1 2387   4.169   0.100  12.070 -0.7354  0.7595 -0.3153
  157TCq2    O2 2388   4.250   0.055  12.150  0.3149 -0.1491 -0.5195
  157TCq2    C2 2389   4.162   0.027  11.948 -0.1402 -0.3525  0.7663
  157TCq2    C3 2390   4.168   4.612  11.954  0.0181  0.0844 -0.4168
  157TCq2    C4 2391   4.104   4.535  11.860  0.1078  0.0960 -0.4654
  157TCq2    C5 2392   4.046   4.593  11.759  0.3412  0.4668 -0.2578
  157TCq2    C6 2393   4.052   0.008  11.738 -0.4643 -0.8107  0.2942
  157TCq2    C7 2394   4.108   0.086  11.839  0.2247 -0.0914  0.0344
  157TCq2    C8 2395   3.948   0.064  11.658  0.2002  0.0234  0.3641
  157TCq2    O4 2396   3.957   0.184  11.642  0.5273 -0.8757 -0.4390
  157TCq2    C9 2397   4.093   4.387  11.893  0.4745  0.6897 -0.4018
  157TCq2    O5 2398   4.015   4.324  11.821 -0.2654  0.1580  0.0545
  157TCq2    O6 2399   4.170   4.343  11.987  0.0822  0.2044  0.6086
  157TCq2    H2 2400   4.205   4.569  12.047  0.0202  0.7139 -0.1255
  157TCq2    H3 2401   3.990   4.529  11.691  0.7979 -0.7045  0.4628
  157TCq2    H4 2402   4.106   0.194  11.829 -1.9621 -0.2145 -0.8937
  158TMC2    C1 2403   4.052   3.956  13.223  0.0734 -0.7018 -0.6782
  158TMC2    C2 2404   4.148   3.989  13.127  0.1948  0.5259 -0.0666
  158TMC2    C3 2405   4.102   4.001  12.998 -0.5677 -0.3042 -0.3389
  158TMC2    C4 2406   3.920   3.938  13.189 -0.1071 -0.0782  0.2707
  158TMC2    C5 2407   3.874   3.974  13.065  0.0019  0.3933 -0.6523
  158TMC2    C6 2408   3.965   4.012  12.970 -0.1014 -0.8431 -1.0298
  158TMC2     C 2409   4.106   3.906  13.342 -0.3227 -0.3750 -0.6232
  158TMC2     O 2410   4.222   3.869  13.334  0.2385 -0.4083  0.1634
  158TMC2     H 2411   4.252   4.009  13.149  0.8613  0.1929 -2.8464
  158TMC2    H1 2412   3.847   3.908  13.264 -0.7743 -2.0549 -1.1661
  158TMC2    H2 2413   3.938   4.047  12.871  2.0584 -2.3227 -2.1237
  158TMC2    C7 2414   3.739   4.026  13.063  0.0769  0.2062  0.6674
  158TMC2    C8 2415   4.195   4.056  12.892 -0.0107  0.0396 -0.1214
  158TMC2    O1 2416   3.729   4.142  13.036 -0.1127 -0.0711  0.5153
  158TMC2    O2 2417   4.147   4.125  12.803  0.1998 -0.9760  0.2011
  158TMC2    O5 2418   4.290   3.966  12.877  0.4511  0.4616  0.6102
  158TMC2    H5 2419   4.302   3.914  12.960 -1.5480 -0.5253  0.2978
  159MPD2     C 2420   4.057   3.697  13.804  0.0052 -0.0164 -0.1010
  159MPD2    C1 2421   3.954   3.788  13.781 -0.0653 -0.5570 -0.0979
  159MPD2    C2 2422   3.939   3.861  13.663  0.0027  0.4515 -0.7470
  159MPD2    C3 2423   4.041   3.836  13.568 -0.5550  0.4684 -0.2153
  159MPD2    C4 2424   4.150   3.753  13.597 -0.6907 -0.4016 -0.3011
  159MPD2    C5 2425   4.154   3.682  13.716  0.6055  0.5352 -0.7802
  159MPD2     H 2426   3.848   3.905  13.624  0.3962  2.6455  0.8296
  159MPD2    H1 2427   4.229   3.738  13.525 -0.9755  0.7881 -0.8592
  159MPD2    H2 2428   4.067   3.640  13.896  1.3919 -0.0886 -0.2996
  159MPD2    H3 2429   4.238   3.616  13.738 -0.8112 -1.4413 -1.3628
  159MPD2     N 2430   4.016   3.898  13.441  0.1370 -0.1601 -0.2399
  159MPD2    H5 2431   3.933   3.955  13.441  0.4439  0.2968 -1.3595
  159MPD2    N1 2432   3.850   3.783  13.879 -0.2407 -0.7098  0.0283
  159MPD2    H7 2433   3.871   3.725  13.959  0.7079 -0.7868 -0.2759
  160TMC2    C1 2434   4.177   1.415   0.732 -0.5000  0.1126 -0.5155
  160TMC2    C2 2435   4.268   1.309   0.707  0.3353  0.2425  0.9900
  160TMC2    C3 2436   4.330   1.296   0.585  0.2554 -0.5091 -0.8240
  160TMC2    C4 2437   4.170   1.518   0.642  0.5578  0.3098  0.3387
  160TMC2    C5 2438   4.252   1.510   0.530 -0.7147 -0.2981 -0.5728
  160TMC2    C6 2439   4.323   1.399   0.492  0.1343  0.1596  0.2185
  160TMC2     C 2440   4.085   1.405   0.845  0.6248 -0.1883  0.9754
  160TMC2     O 2441   4.107   1.317   0.927  0.3034 -0.0840  0.7833
  160TMC2     H 2442   4.266   1.233   0.785 -3.1818 -0.0855  0.5619
  160TMC2    H1 2443   4.113   1.609   0.660 -0.9984 -0.0742 -2.5993
  160TMC2    H2 2444   4.373   1.387   0.396 -1.5226 -0.3443 -0.5934
  160TMC2    C7 2445   4.257   1.628   0.441 -0.3824 -0.0150  0.4614
  160TMC2    C8 2446   4.366   1.162   0.551 -0.3765 -1.0414 -0.2585
  160TMC2    O1 2447   4.344   1.627   0.352  0.4545 -0.2259 -1.1736
  160TMC2    O2 2448   4.363   1.140   0.430  0.0571 -0.0902 -0.3063
  160TMC2    O5 2449   4.474   1.131   0.636  0.0945  0.3712 -0.0562
  160TMC2    H5 2450   4.464   1.177   0.723 -2.2380 -1.6090  0.7478
  161MPD2     C 2451   3.876   1.460   1.054 -0.3715 -0.6340 -0.3572
  161MPD2    C1 2452   3.881   1.524   0.934  0.3451  0.1135 -0.0593
  161MPD2    C2 2453   3.793   1.627   0.908 -0.1294 -0.3365 -0.4520
  161MPD2    C3 2454   3.694   1.664   0.991 -0.4685 -0.1108 -0.0868
  161MPD2    C4 2455   3.686   1.596   1.115 -0.7082 -0.3781 -0.0365
  161MPD2    C5 2456   3.778   1.494   1.140 -0.2196  0.3590 -0.3104
  161MPD2     H 2457   3.811   1.677   0.814  1.9004  1.6741  1.0095
  161MPD2    H1 2458   3.607   1.619   1.185  0.8977  0.6741  1.4226
  161MPD2    H2 2459   3.946   1.383   1.083 -0.5963 -0.7384 -0.0992
  161MPD2    H3 2460   3.778   1.443   1.236  0.3941 -2.0675 -1.5936
  161MPD2     N 2461   3.601   1.759   0.952  0.1053  0.2849 -0.9239
  161MPD2    H5 2462   3.541   1.790   1.029  2.0184 -2.7024  1.7542
  161MPD2    N1 2463   3.983   1.509   0.841  0.2580  0.2859  0.2578
  161MPD2    H7 2464   3.976   1.573   0.762 -1.6225 -0.4062 -0.1516
  162TMC2    C1 2465   2.047   3.496   1.448 -0.6360 -0.2052  0.4622
  162TMC2    C2 2466   2.127   3.537   1.552 -1.0999  0.6556  0.6424
  162TMC2    C3 2467   2.091   3.505   1.682  0.2315 -0.2711  0.0229
  162TMC2    C4 2468   1.941   3.426   1.478 -0.2826  0.1440 -0.0564
  162TMC2    C5 2469   1.888   3.407   1.603  0.1433  0.9788 -0.5128
  162TMC2    C6 2470   1.971   3.443   1.711  0.4794 -0.1448  0.5448
  162TMC2     C 2471   2.065   3.542   1.312  0.1204 -0.7410 -0.1413
  162TMC2     O 2472   2.034   3.467   1.221  0.1174 -0.0628 -0.3863
  162TMC2     H 2473   2.219   3.591   1.532 -0.7294 -0.2322 -0.0048
  162TMC2    H1 2474   1.878   3.401   1.393  0.4664  4.6112 -1.9146
  162TMC2    H2 2475   1.933   3.420   1.810  0.5951 -0.9803  0.3994
  162TMC2    C7 2476   1.748   3.364   1.612 -0.2627 -0.0244  0.3954
  162TMC2    C8 2477   2.153   3.600   1.774  0.4663  0.7923  0.0853
  162TMC2    O1 2478   1.689   3.339   1.509 -0.1961  0.1190  0.8700
  162TMC2    O2 2479   2.153   3.723   1.747 -0.0383 -0.7346  0.1396
  162TMC2    O5 2480   2.125   3.549   1.896  0.3448  0.0705  0.3172
  162TMC2    H5 2481   2.142   3.453   1.889 -1.5546  0.0146 -3.5062
  163MPD2     C 2482   2.134   3.910   0.962  0.0896 -0.2753  0.2647
  163MPD2    C1 2483   2.131   3.771   0.950 -0.0512 -0.4313  0.3919
  163MPD2    C2 2484   2.113   3.693   1.063 -0.4306 -0.5267 -0.1547
  163MPD2    C3 2485   2.104   3.750   1.189  0.4710  0.8390 -0.1031
  163MPD2    C4 2486   2.114   3.885   1.202 -0.0783  0.3857 -0.2971
  163MPD2    C5 2487   2.117   3.961   1.087  0.1807 -0.1483 -0.9531
  163MPD2     H 2488   2.085   3.589   1.051 -0.8941 -0.6494  2.0641
  163MPD2    H1 2489   2.119   3.930   1.300  0.8359  2.1526 -1.1386
  163MPD2    H2 2490   2.170   3.979   0.886  0.8768 -1.5911 -0.5498
  163MPD2    H3 2491   2.127   4.067   1.106  0.7026  0.0200 -2.1299
  163MPD2     N 2492   2.093   3.672   1.311 -0.2272 -0.5228 -0.7256
  163MPD2    H5 2493   2.113   3.730   1.393 -3.1224  0.0534 -0.4181
  163MPD2    N1 2494   2.137   3.727   0.814 -0.1567  0.0545 -0.4347
  163MPD2    H7 2495   2.152   3.797   0.742  0.0228  1.3573  0.8921
  164TCq2    C1 2496   2.160   3.368  11.266  0.7381  0.5696 -0.1281
  164TCq2    O2 2497   2.078   3.304  11.328  0.0398 -0.1811  0.3351
  164TCq2    C2 2498   2.181   3.509  11.308 -0.4023 -0.1338  0.2481
  164TCq2    C3 2499   2.278   3.580  11.236  0.4282  0.0104 -0.1154
  164TCq2    C4 2500   2.258   3.714  11.224  0.7137 -0.5729 -0.3257
  164TCq2    C5 2501   2.160   3.785  11.284 -0.1889 -0.0476  0.5680
  164TCq2    C6 2502   2.081   3.715  11.371  0.0417 -0.4586  0.4082
  164TCq2    C7 2503   2.085   3.579  11.382  0.4173  0.0322 -0.9167
  164TCq2    C8 2504   1.951   3.770  11.395 -0.7668 -0.0251 -0.0627
  164TCq2    O4 2505   1.904   3.840  11.306  0.4148  0.0799  0.0621
  164TCq2    C9 2506   2.339   3.785  11.127 -0.1925 -0.1152 -0.1000
  164TCq2    O5 2507   2.396   3.710  11.045  0.4396 -0.3252  0.3096
  164TCq2    O6 2508   2.335   3.911  11.117 -0.1202 -0.1797 -0.2500
  164TCq2    H2 2509   2.353   3.526  11.179  0.0499 -2.5655  1.8220
  164TCq2    H3 2510   2.145   3.887  11.251 -1.0541 -0.1659  0.6032
  164TCq2    H4 2511   2.002   3.531  11.433  0.7384 -0.0683 -0.4917
  165MPD2     C 2512   2.968   0.608   1.829 -0.2798  0.5111 -0.1153
  165MPD2    C1 2513   3.095   0.642   1.791  0.8897  0.2445  0.0888
  165MPD2    C2 2514   3.133   0.773   1.787  0.5392  0.1747  0.3525
  165MPD2    C3 2515   3.043   0.871   1.832  0.6927  0.5203 -0.8852
  165MPD2    C4 2516   2.915   0.835   1.869  0.0465  0.4458 -0.1061
  165MPD2    C5 2517   2.876   0.702   1.865  0.0029 -0.7205  0.1032
  165MPD2     H 2518   3.234   0.806   1.767  0.2583  1.2160  0.5982
  165MPD2    H1 2519   2.838   0.912   1.878 -0.0894  0.5179 -1.9672
  165MPD2    H2 2520   2.952   0.501   1.839  0.9808  0.3122 -0.2728
  165MPD2    H3 2521   2.774   0.672   1.886 -0.5118 -0.8492 -2.5755
  165MPD2     N 2522   3.081   1.008   1.825 -0.3858  0.2043  0.2639
  165MPD2    H5 2523   3.009   1.073   1.857  0.7238  1.0948  0.9820
  165MPD2    N1 2524   3.191   0.539   1.777 -0.7158 -0.2782 -0.3790
  165MPD2    H7 2525   3.149   0.446   1.778  1.9241 -1.4472  1.5421
  166TCq2    C1 2526   3.199   1.070   1.777  0.4700 -0.3860 -0.2233
  166TCq2    O2 2527   3.292   1.013   1.721  0.3955 -0.1532  0.2385
  166TCq2    C2 2528   3.205   1.215   1.805  0.8800 -0.1923 -0.1776
  166TCq2    C3 2529   3.144   1.266   1.918  0.5256  0.7617 -0.0997
  166TCq2    C4 2530   3.190   1.383   1.978 -0.5363  0.2174 -0.3877
  166TCq2    C5 2531   3.307   1.447   1.932 -0.2894  0.5331  0.4379
  166TCq2    C6 2532   3.370   1.382   1.824  0.1847  0.1068  0.5534
  166TCq2    C7 2533   3.326   1.270   1.762  0.0115 -0.1415  0.7367
  166TCq2    C8 2534   3.486   1.442   1.750  0.3479 -0.5601  0.7952
  166TCq2    O4 2535   3.550   1.367   1.677  0.0842  0.1309  0.0277
  166TCq2    C9 2536   3.128   1.443   2.100 -0.1875  0.7263  0.5611
  166TCq2    O5 2537   3.025   1.385   2.149 -0.2763  0.2163 -0.8241
  166TCq2    O6 2538   3.200   1.527   2.163  0.1631 -0.4891 -0.1220
  166TCq2    H2 2539   3.057   1.222   1.966 -0.1635  1.4002 -0.7607
  166TCq2    H3 2540   3.347   1.534   1.984  1.2856 -0.6125  1.1550
  166TCq2    H4 2541   3.359   1.235   1.665  0.5752 -0.1841  0.9452
  167TMC2    C1 2542   1.224   3.453  12.648 -1.0320  0.0837  0.3845
  167TMC2    C2 2543   1.136   3.502  12.733 -0.1264  0.2599  0.5891
  167TMC2    C3 2544   1.119   3.441  12.849 -0.3930 -0.5055  0.3806
  167TMC2    C4 2545   1.308   3.349  12.685 -0.2560  0.0414  0.4886
  167TMC2    C5 2546   1.293   3.288  12.810 -0.3165 -0.1847  0.5826
  167TMC2    C6 2547   1.193   3.330  12.892 -0.1839  0.7784  0.4990
  167TMC2     C 2548   1.255   3.540  12.529 -0.3369  0.1192  1.1881
  167TMC2     O 2549   1.181   3.640  12.511 -0.2348 -0.1972  0.2235
  167TMC2     H 2550   1.077   3.592  12.718 -2.5524 -1.6956 -1.5278
  167TMC2    H1 2551   1.399   3.329  12.630 -1.5340  0.0784 -1.6301
  167TMC2    H2 2552   1.190   3.295  12.995  2.6484 -0.8053  0.0637
  167TMC2    C7 2553   1.358   3.158  12.847  0.0525 -0.6006 -0.0555
  167TMC2    C8 2554   1.051   3.510  12.962  0.2362  0.1308 -0.6105
  167TMC2    O1 2555   1.338   3.108  12.954 -0.1898  0.8742 -0.3102
  167TMC2    O2 2556   1.003   3.444  13.053 -0.2027  0.2389  0.3086
  167TMC2    O5 2557   1.053   3.643  12.951 -0.0189 -0.7236 -0.6532
  167TMC2    H5 2558   1.112   3.690  12.889 -0.7913  1.7709  0.4929
  168MPD2     C 2559   1.395   3.711  12.329  0.0162 -0.7532 -0.0621
  168MPD2    C1 2560   1.426   3.583  12.357 -0.0955  0.3561 -0.1852
  168MPD2    C2 2561   1.544   3.542  12.294  0.2916  0.4917 -0.7726
  168MPD2    C3 2562   1.622   3.622  12.208  0.1124  0.0033 -0.2942
  168MPD2    C4 2563   1.589   3.756  12.193 -0.2647  0.4308 -0.7067
  168MPD2    C5 2564   1.476   3.798  12.257  0.1193  0.6228 -0.4463
  168MPD2     H 2565   1.574   3.440  12.317 -0.3301  0.6491  0.7403
  168MPD2    H1 2566   1.660   3.828  12.155 -0.9703  1.3688 -0.2604
  168MPD2    H2 2567   1.305   3.752  12.373  0.2206  0.4762 -0.7608
  168MPD2    H3 2568   1.447   3.901  12.240 -0.9635  0.6555  1.6399
  168MPD2     N 2569   1.741   3.583  12.150 -0.0134 -0.1405 -0.1107
  168MPD2    H5 2570   1.802   3.660  12.126  1.2264 -0.1931  2.8959
  168MPD2    N1 2571   1.367   3.501  12.459  0.4383 -0.9868  0.1399
  168MPD2    H7 2572   1.416   3.414  12.481  0.8371 -0.4527  1.3453
  169MPD1     C 2573   4.235   1.607   9.516  0.8746  0.2509  1.3790
  169MPD1    C1 2574   4.112   1.541   9.513  0.7455 -0.3269  0.9338
  169MPD1    C2 2575   4.000   1.619   9.519  0.0603 -0.1617 -0.7522
  169MPD1    C3 2576   4.000   1.757   9.521 -0.9823  0.1800  0.3485
  169MPD1    C4 2577   4.124   1.820   9.501 -0.1104  0.2911  0.6245
  169MPD1    C5 2578   4.237   1.743   9.511  0.0800  0.2334 -0.3462
  169MPD1     H 2579   3.913   1.556   9.512 -1.9294  2.4304  0.8996
  169MPD1    H1 2580   4.128   1.927   9.486  2.2069  0.3458  1.5518
  169MPD1    H2 2581   4.327   1.551   9.532  1.7533  1.3208  0.1009
  169MPD1    H3 2582   4.332   1.797   9.514  0.2223  0.0014 -0.7161
  169MPD1     N 2583   3.871   1.824   9.526 -0.2463 -0.2721 -0.4185
  169MPD1    H5 2584   3.787   1.768   9.538 -1.3916  1.6083  0.3016
  169MPD1    N1 2585   4.108   1.401   9.531 -0.2399  0.4935 -0.1785
  169MPD1    H6 2586   4.196   1.364   9.495  0.8752  3.3758 -0.4231
  169MPD1    H7 2587   4.044   1.352   9.470 -2.1292  1.1832  1.2460
  170MPD1     C 2588   2.971   0.598  13.097  0.3422  0.5062  0.0084
  170MPD1    C1 2589   2.886   0.569  13.206  0.9996  0.3368 -0.1530
  170MPD1    C2 2590   2.829   0.672  13.284  0.1451  0.0960 -0.2053
  170MPD1    C3 2591   2.851   0.806  13.245 -0.7005  0.5249  0.0634
  170MPD1    C4 2592   2.949   0.832  13.142  0.5185  0.1982 -0.0568
  170MPD1    C5 2593   2.998   0.723  13.073 -0.2020 -0.5115  0.0594
  170MPD1     H 2594   2.778   0.644  13.375 -1.4110  0.7406 -0.8847
  170MPD1    H1 2595   2.991   0.929  13.119 -0.3120  0.1519 -1.7698
  170MPD1    H2 2596   3.004   0.529  13.020 -0.0210 -1.0511  1.2541
  170MPD1    H3 2597   3.062   0.750  12.989 -1.9283  0.3857 -0.9602
  170MPD1     N 2598   2.782   0.910  13.319  0.2937 -0.1555 -0.4232
  170MPD1    H5 2599   2.713   0.886  13.389  1.8456  0.4016  1.2711
  170MPD1    N1 2600   2.855   0.433  13.227 -0.6547  0.0927 -0.3753
  170MPD1    H6 2601   2.818   0.408  13.318 -0.0321 -3.2288 -1.0509
  170MPD1    H7 2602   2.921   0.365  13.190 -0.6333  0.1967 -0.5336
  171MPD1     C 2603   1.662   2.295  15.742  0.4000  0.1895  0.4549
  171MPD1    C1 2604   1.681   2.233  15.864 -0.4844  0.6285 -0.6175
  171MPD1    C2 2605   1.676   2.091  15.869 -1.0317  0.1342 -0.3784
  171MPD1    C3 2606   1.666   2.019  15.753 -0.2644 -0.8697 -0.6459
  171MPD1    C4 2607   1.659   2.084  15.633  0.3896  0.5877  0.0700
  171MPD1    C5 2608   1.657   2.223  15.626  0.1058  0.1109  0.0415
  171MPD1     H 2609   1.680   2.050  15.970 -1.1898 -0.0641 -0.4536
  171MPD1    H1 2610   1.650   2.021  15.545  0.3109  2.6279 -1.3722
  171MPD1    H2 2611   1.667   2.403  15.736  1.1962  0.0051 -2.1537
  171MPD1    H3 2612   1.654   2.275  15.531  2.9904 -0.5500 -0.4159
  171MPD1     N 2613   1.666   1.877  15.753  0.2084  0.3697  1.0388
  171MPD1    H5 2614   1.667   1.835  15.661 -1.6113 -1.4243  1.8505
  171MPD1    N1 2615   1.665   2.308  15.978 -0.3679  0.0733 -0.0814
  171MPD1    H6 2616   1.699   2.404  15.978 -0.4679  0.1094 -0.4023
  171MPD1    H7 2617   1.701   2.259  16.060 -1.4999  0.9675  0.9513
  172MPD1     C 2618   0.149   2.254   0.724 -0.4748  0.0788 -0.3870
  172MPD1    C1 2619   0.261   2.184   0.675 -0.1631  0.0962 -0.0884
  172MPD1    C2 2620   0.357   2.251   0.599 -0.4923 -0.0903 -0.6781
  172MPD1    C3 2621   0.341   2.390   0.570  0.5360 -0.3991 -1.0823
  172MPD1    C4 2622   0.227   2.452   0.618  1.0925  0.0268 -0.7336
  172MPD1    C5 2623   0.136   2.388   0.694 -0.1142 -0.2659  0.1271
  172MPD1     H 2624   0.440   2.200   0.551  1.2421  2.0791  0.0013
  172MPD1    H1 2625   0.222   2.558   0.597 -1.2244 -0.2643 -1.6372
  172MPD1    H2 2626   0.067   2.198   0.767  0.0990 -0.9851 -0.6661
  172MPD1    H3 2627   0.047   2.435   0.733  0.4334  1.0856 -0.2621
  172MPD1     N 2628   0.424   2.467   0.488  0.0289 -0.4021 -0.1283
  172MPD1    H5 2629   0.399   2.564   0.471 -1.4135 -0.5084  1.3736
  172MPD1    N1 2630   0.257   2.043   0.668  0.1731 -0.3723 -0.0275
  172MPD1    H6 2631   0.201   2.009   0.745 -0.8013 -0.4896 -0.7808
  172MPD1    H7 2632   0.347   1.997   0.677  1.0557  1.4404  0.2219
  173MPD1     C 2633   1.804   1.835  14.649  0.0665 -0.2091 -0.1039
  173MPD1    C1 2634   1.757   1.752  14.544  0.8836 -0.0480 -0.3280
  173MPD1    C2 2635   1.661   1.651  14.571  0.2575  0.2558  0.4494
  173MPD1    C3 2636   1.609   1.641  14.695 -0.4174  0.1505 -0.0653
  173MPD1    C4 2637   1.647   1.731  14.793  0.0331  0.3296 -0.5967
  173MPD1    C5 2638   1.746   1.821  14.771 -0.3753 -0.6629  0.7102
  173MPD1     H 2639   1.636   1.576  14.497 -0.8599 -0.5479  1.6643
  173MPD1    H1 2640   1.605   1.718  14.892 -0.3300 -3.0850 -1.2104
  173MPD1    H2 2641   1.890   1.898  14.633 -1.7550  2.0102 -1.2618
  173MPD1    H3 2642   1.793   1.883  14.847  0.4121 -0.7528  0.3004
  173MPD1     N 2643   1.514   1.541  14.712  0.0405  0.4621  0.3864
  173MPD1    H5 2644   1.477   1.499  14.627  1.8634  2.6241 -1.4533
  173MPD1    N1 2645   1.824   1.749  14.415  0.5111  0.2048 -0.3998
  173MPD1    H6 2646   1.865   1.839  14.390  1.7097 -0.6682 -1.5481
  173MPD1    H7 2647   1.759   1.719  14.343 -1.0064  1.2751  0.5054
  174MPD1     C 2648   1.262   0.732  14.192  0.0280  0.5577  0.2536
  174MPD1    C1 2649   1.195   0.855  14.217  1.2413  0.0299 -0.4047
  174MPD1    C2 2650   1.239   0.941  14.314  0.6358  0.9381  0.1035
  174MPD1    C3 2651   1.319   0.893  14.415  0.4812 -0.0422  0.2788
  174MPD1    C4 2652   1.374   0.772  14.393 -0.1836 -0.8919  0.7143
  174MPD1    C5 2653   1.354   0.697  14.281  1.5513 -0.3959  0.1168
  174MPD1     H 2654   1.179   1.031  14.322  2.6900  2.3381  0.0132
  174MPD1    H1 2655   1.441   0.745  14.474  0.2269  1.3316  1.1133
  174MPD1    H2 2656   1.247   0.672  14.103  1.7581 -0.7478  0.8421
  174MPD1    H3 2657   1.404   0.603  14.260  2.1973  0.4786 -2.2129
  174MPD1     N 2658   1.351   0.965  14.535 -0.1040  0.0302  0.3799
  174MPD1    H5 2659   1.394   0.911  14.609 -1.3879 -1.0658  0.3141
  174MPD1    N1 2660   1.110   0.907  14.115  0.3153  0.1622  0.2547
  174MPD1    H6 2661   1.034   0.962  14.154  1.1155  0.6899  1.0947
  174MPD1    H7 2662   1.072   0.839  14.050  1.8681 -0.0327 -0.4528
  175MPD1     C 2663   0.109   2.435  15.492  0.1912  0.4229 -0.2267
  175MPD1    C1 2664   0.222   2.463  15.566  0.4857  0.3733  0.1464
  175MPD1    C2 2665   0.210   2.476  15.704  0.4302  0.6641  0.8501
  175MPD1    C3 2666   0.092   2.434  15.766  0.8366 -0.8242 -0.2306
  175MPD1    C4 2667   4.703   2.410  15.688 -0.5037 -0.1086 -0.4752
  175MPD1    C5 2668   4.710   2.409  15.549  0.4715  0.0622  0.2748
  175MPD1     H 2669   0.293   2.513  15.763 -0.9793  3.6067  0.9935
  175MPD1    H1 2670   4.611   2.388  15.741 -1.5888  2.7776 -1.1668
  175MPD1    H2 2671   0.103   2.424  15.385 -0.7637 -0.4783 -0.0813
  175MPD1    H3 2672   4.628   2.377  15.485  0.6682 -0.8774  0.4862
  175MPD1     N 2673   0.073   2.441  15.906 -0.2049 -0.0265  0.1959
  175MPD1    H5 2674   4.702   2.431  15.949  0.2276 -1.6226  0.7603
  175MPD1    N1 2675   0.331   2.507  15.495 -0.4346  0.5047  0.0353
  175MPD1    H6 2676   0.414   2.500  15.553 -0.9558 -3.5723  0.2876
  175MPD1    H7 2677   0.351   2.471  15.402  0.4604  2.9867 -0.7456
  176MPD1     C 2678   1.913   3.202   0.491  0.3058 -0.7917  0.0039
  176MPD1    C1 2679   1.869   3.297   0.583  0.3216  0.3652  0.0818
  176MPD1    C2 2680   1.836   3.420   0.535 -0.9978  0.1824  0.4640
  176MPD1    C3 2681   1.813   3.448   0.400 -0.0319 -0.1090 -0.7298
  176MPD1    C4 2682   1.842   3.346   0.313  0.3222  0.1702  0.2000
  176MPD1    C5 2683   1.892   3.224   0.356 -0.6552 -0.2853  0.0646
  176MPD1     H 2684   1.819   3.499   0.608 -1.4912  1.1699 -0.7135
  176MPD1    H1 2685   1.843   3.361   0.205 -1.3898  2.3607  0.5004
  176MPD1    H2 2686   1.955   3.108   0.526  0.6557 -1.1961 -1.5309
  176MPD1    H3 2687   1.914   3.150   0.281  0.7053  0.0185  0.1666
  176MPD1     N 2688   1.756   3.574   0.354 -0.1727  0.4890 -0.8698
  176MPD1    H5 2689   1.722   3.638   0.425 -0.5799 -0.8869  0.1874
  176MPD1    N1 2690   1.900   3.282   0.718  0.7599 -0.6248  0.0667
  176MPD1    H6 2691   1.843   3.341   0.778  0.8233  0.8454 -1.3233
  176MPD1    H7 2692   1.881   3.186   0.746 -0.2374 -0.1167  1.1215
  177MPD1     C 2693   4.627   4.150  10.011  0.7212 -0.2624 -0.0325
  177MPD1    C1 2694   4.572   4.055   9.926 -0.4691  0.0426  0.6024
  177MPD1    C2 2695   4.527   4.093   9.801  0.0976  0.5100 -0.2523
  177MPD1    C3 2696   4.536   4.228   9.763  0.0159  0.2522 -0.3542
  177MPD1    C4 2697   4.611   4.316   9.843  0.2302 -0.1344  0.7293
  177MPD1    C5 2698   4.653   4.269   9.963  0.6191 -0.2884  0.3798
  177MPD1     H 2699   4.472   4.030   9.732 -2.3747  0.3304  1.9080
  177MPD1    H1 2700   4.632   4.419   9.815 -0.0604 -0.1016  0.6260
  177MPD1    H2 2701   4.642   4.144  10.118  1.2282  0.8422 -0.0381
  177MPD1    H3 2702   4.691   4.346  10.029  0.3318  0.0526  0.1483
  177MPD1     N 2703   4.468   4.264   9.641 -0.6769  0.3209  0.1938
  177MPD1    H5 2704   4.411   4.189   9.603  0.1965 -1.7062  2.9142
  177MPD1    N1 2705   4.536   3.930   9.965  0.3825 -0.2654  0.2956
  177MPD1    H6 2706   4.590   3.893  10.043  1.2141  0.1165 -0.0930
  177MPD1    H7 2707   4.531   3.859   9.891 -0.4482 -2.0415  2.0571
  178MPD1     C 2708   2.636   0.118   0.445  0.2420  0.4803 -0.1084
  178MPD1    C1 2709   2.521   0.092   0.374 -0.2344  0.5025  0.1427
  178MPD1    C2 2710   2.537   0.069   0.238  0.1415  0.1837 -0.1540
  178MPD1    C3 2711   2.659   0.085   0.179 -0.2099 -0.4446 -0.9228
  178MPD1    C4 2712   2.773   0.107   0.248 -0.0104  0.8833 -0.5883
  178MPD1    C5 2713   2.760   0.131   0.383 -0.3762  0.1175 -0.4874
  178MPD1     H 2714   2.445   0.050   0.183  0.0497  0.2905 -0.0378
  178MPD1    H1 2715   2.867   0.118   0.195  0.2027  0.7559 -0.2365
  178MPD1    H2 2716   2.642   0.140   0.551  2.8526 -1.0431  0.0627
  178MPD1    H3 2717   2.844   0.165   0.443  0.4085 -0.2226 -1.3988
  178MPD1     N 2718   2.676   0.080   0.042 -0.1062  0.5041 -0.6558
  178MPD1    H5 2719   2.766   0.113   0.010 -0.2670  2.0274  0.4654
  178MPD1    N1 2720   2.398   0.074   0.441 -0.0845 -0.5998 -0.3614
  178MPD1    H6 2721   2.315   0.068   0.383 -0.2381 -2.3488  0.0551
  178MPD1    H7 2722   2.376   0.153   0.502 -1.6403 -0.3501 -1.2381
  179MPD1     C 2723   2.267   3.636  16.119  0.3070 -0.1321 -0.4820
  179MPD1    C1 2724   2.200   3.556  16.028 -0.2511 -0.5393  0.3599
  179MPD1    C2 2725   2.195   3.420  16.041 -0.0663  0.7284  0.3587
  179MPD1    C3 2726   2.247   3.359  16.154  0.9267 -0.2051 -0.7747
  179MPD1    C4 2727   2.307   3.442  16.248 -0.0730  0.5371  0.6767
  179MPD1    C5 2728   2.310   3.575  16.234  0.0029 -0.9999  0.2386
  179MPD1     H 2729   2.152   3.359  15.962  0.6231  2.0430 -1.0075
  179MPD1    H1 2730   2.339   3.400  16.343  0.9767 -1.1231 -0.4113
  179MPD1    H2 2731   2.278   3.744  16.108  2.9080 -0.7114 -3.6620
  179MPD1    H3 2732   2.353   3.646  16.303  0.6251 -1.7494  0.6216
  179MPD1     N 2733   2.270   3.217  16.170  0.2973  0.5622 -0.3560
  179MPD1    H5 2734   2.320   3.180  16.250  1.7464  0.5392 -1.2757
  179MPD1    N1 2735   2.148   3.620  15.915  0.0052  0.8868 -0.0522
  179MPD1    H6 2736   2.082   3.557  15.871  0.9286 -0.6376  0.7611
  179MPD1    H7 2737   2.103   3.709  15.937 -0.8212  0.8213 -1.5334
  180MPD1     C 2738   2.835   0.820  14.781 -0.0738 -0.7123 -0.0303
  180MPD1    C1 2739   2.821   0.742  14.890 -0.9228  0.0970 -0.1395
  180MPD1    C2 2740   2.760   0.616  14.875  0.1800 -0.3158  0.6606
  180MPD1    C3 2741   2.708   0.578  14.752 -0.5336  0.6575 -0.9491
  180MPD1    C4 2742   2.728   0.658  14.641 -0.5885  0.2686 -0.6924
  180MPD1    C5 2743   2.792   0.777  14.657 -0.4083 -0.7055 -0.1637
  180MPD1     H 2744   2.748   0.545  14.956 -1.2136  0.2546  0.9474
  180MPD1    H1 2745   2.694   0.641  14.540  0.1540  0.2400 -0.9351
  180MPD1    H2 2746   2.885   0.916  14.782 -1.5545  0.0607 -0.6659
  180MPD1    H3 2747   2.812   0.834  14.567  1.0424 -0.7143  0.1670
  180MPD1     N 2748   2.648   0.446  14.739  0.6192  0.5055  0.3194
  180MPD1    H5 2749   2.676   0.379  14.809  0.9791 -1.1658 -1.4087
  180MPD1    N1 2750   2.832   0.799  15.023  0.2701 -0.2525 -0.4741
  180MPD1    H6 2751   2.822   0.736  15.102  1.7843 -2.4212 -2.0165
  180MPD1    H7 2752   2.896   0.878  15.030  1.0615 -0.9184 -0.1374
  181MPD1     C 2753   2.970   0.809  10.724  0.1061  0.0509 -0.5394
  181MPD1    C1 2754   2.937   0.921  10.649 -0.7332  0.0956  0.2520
  181MPD1    C2 2755   3.026   0.957  10.548  0.1830  0.0022 -0.3220
  181MPD1    C3 2756   3.146   0.888  10.519 -0.0032 -0.2745 -0.5880
  181MPD1    C4 2757   3.172   0.775  10.598 -1.0353  0.0362  0.6050
  181MPD1    C5 2758   3.088   0.741  10.706  0.1754  0.7673 -0.0757
  181MPD1     H 2759   2.993   1.044  10.491  1.6362  1.0376  0.4323
  181MPD1    H1 2760   3.268   0.727  10.582 -0.6662  1.3580 -1.1300
  181MPD1    H2 2761   2.916   0.784  10.814 -0.3934  4.1466  0.2989
  181MPD1    H3 2762   3.127   0.662  10.769 -0.3056  1.6423  1.3283
  181MPD1     N 2763   3.244   0.932  10.431  0.6117  0.1853 -0.1307
  181MPD1    H5 2764   3.336   0.889  10.438  0.4276 -0.3646 -1.0200
  181MPD1    N1 2765   2.814   0.977  10.662  0.4497 -0.6777  0.4926
  181MPD1    H6 2766   2.814   1.077  10.645  1.1661 -1.2837 -3.1416
  181MPD1    H7 2767   2.792   0.976  10.761 -0.1394  0.2555  0.3696
  182MPD1     C 2768   0.119   1.200   0.987 -0.3657  0.3338  0.0538
  182MPD1    C1 2769   0.099   1.207   0.850  0.4812 -0.2556 -0.9220
  182MPD1    C2 2770   0.102   1.090   0.778 -0.2937  0.2560  0.2789
  182MPD1    C3 2771   0.100   0.972   0.844 -0.4642  0.2307  0.3262
  182MPD1    C4 2772   0.117   0.969   0.983 -1.1027  0.1463 -0.6300
  182MPD1    C5 2773   0.121   1.083   1.052 -0.1880  0.0757  0.4818
  182MPD1     H 2774   0.101   1.102   0.670 -1.8770 -0.4761  0.2139
  182MPD1    H1 2775   0.108   0.874   1.033  1.9626 -0.1860 -0.7574
  182MPD1    H2 2776   0.141   1.290   1.044 -0.3796 -0.2087  0.9159
  182MPD1    H3 2777   0.103   1.078   1.159 -0.6883 -0.4451  0.3720
  182MPD1     N 2778   0.100   0.847   0.779  0.2515  0.1358 -0.4708
  182MPD1    H5 2779   0.099   0.764   0.836 -0.3868  0.5921  0.1813
  182MPD1    N1 2780   0.107   1.332   0.788 -0.1382 -0.0868 -0.0758
  182MPD1    H6 2781   0.084   1.406   0.854  0.4481  0.4324 -0.4622
  182MPD1    H7 2782   0.074   1.340   0.692  0.9255 -1.2362 -0.5343
  183MPD1     C 2783   0.014   0.778   8.873  0.4289  0.0199 -0.0557
  183MPD1    C1 2784   4.708   0.672   8.951 -0.3730  0.4452 -0.5680
  183MPD1    C2 2785   4.622   0.702   9.058 -0.5262  0.3161 -0.1053
  183MPD1    C3 2786   4.555   0.819   9.079 -0.5942  0.2772  0.2934
  183MPD1    C4 2787   4.572   0.922   8.985  0.6328  0.1781  0.0670
  183MPD1    C5 2788   4.663   0.894   8.885 -0.1606  0.1622  0.4649
  183MPD1     H 2789   4.615   0.628   9.137 -2.4332  0.7387  0.1360
  183MPD1    H1 2790   4.521   1.018   8.994 -0.5494 -0.2482 -2.1243
  183MPD1    H2 2791   0.091   0.776   8.797  1.3852 -1.8814  0.9527
  183MPD1    H3 2792   4.706   0.971   8.821 -0.6783  2.0006  2.2995
  183MPD1     N 2793   4.460   0.821   9.182  0.5238 -0.0730 -0.1138
  183MPD1    H5 2794   4.467   0.742   9.245  0.2433 -0.4275 -0.5310
  183MPD1    N1 2795   0.062   0.552   8.956 -0.5274  0.3316  0.1201
  183MPD1    H6 2796   0.003   0.478   8.993  0.9446 -0.8372  0.1470
  183MPD1    H7 2797   0.093   0.524   8.863  0.9012  0.4143  0.5771
  184MPD1     C 2798   3.798   3.539  10.004  0.8462  0.1128  0.1257
  184MPD1    C1 2799   3.743   3.502   9.880 -0.0571 -0.4666 -0.8662
  184MPD1    C2 2800   3.738   3.600   9.783 -0.1785 -0.1717 -0.1399
  184MPD1    C3 2801   3.816   3.715   9.803 -0.5022 -0.0354 -0.7291
  184MPD1    C4 2802   3.879   3.744   9.926 -0.1386  0.9504  0.3376
  184MPD1    C5 2803   3.871   3.653  10.025 -0.3531 -0.0272 -1.5230
  184MPD1     H 2804   3.684   3.587   9.690  0.0756 -1.0498 -0.1636
  184MPD1    H1 2805   3.936   3.834   9.945  2.4169 -0.3210 -1.2970
  184MPD1    H2 2806   3.804   3.476  10.092  1.2667  0.0734  0.0671
  184MPD1    H3 2807   3.910   3.674  10.124  0.1820  0.0144 -1.7406
  184MPD1     N 2808   3.841   3.812   9.705 -0.7518  0.0502 -0.2940
  184MPD1    H5 2809   3.885   3.899   9.733 -0.0709 -0.6623  0.8808
  184MPD1    N1 2810   3.674   3.378   9.866 -0.4616  0.3297  0.1880
  184MPD1    H6 2811   3.659   3.341   9.772  0.7345  2.8557 -0.9748
  184MPD1    H7 2812   3.697   3.304   9.933  3.1041 -0.5042 -1.9848
  185MPD1     C 2813   3.677   3.767   8.720 -0.2327  0.0100 -0.3491
  185MPD1    C1 2814   3.695   3.904   8.734  0.3993 -0.7815  1.1428
  185MPD1    C2 2815   3.715   3.950   8.862 -0.4447 -0.0248 -0.1137
  185MPD1    C3 2816   3.683   3.867   8.974  0.0534 -0.3221  0.0445
  185MPD1    C4 2817   3.638   3.738   8.956 -0.1425 -0.0029  0.3591
  185MPD1    C5 2818   3.643   3.688   8.831  0.0070 -0.5791  0.1416
  185MPD1     H 2819   3.763   4.046   8.871  0.0935 -0.2169 -0.9368
  185MPD1    H1 2820   3.614   3.668   9.035 -0.5484 -1.0664 -0.7111
  185MPD1    H2 2821   3.684   3.721   8.622 -2.2252  0.9267 -0.9207
  185MPD1    H3 2822   3.627   3.581   8.830  1.2395 -0.7699  0.6851
  185MPD1     N 2823   3.711   3.915   9.109 -0.0742  0.2617 -0.6156
  185MPD1    H5 2824   3.697   3.848   9.184  1.6821 -0.0004 -0.5414
  185MPD1    N1 2825   3.744   3.983   8.629 -0.1812  0.2227  0.3038
  185MPD1    H6 2826   3.720   3.943   8.538 -1.8999 -3.0174  2.2169
  185MPD1    H7 2827   3.710   4.079   8.638 -1.3193 -0.4703  3.4465
  186MPD1     C 2828   2.474   4.360  16.274 -0.2120  0.5428 -0.7502
  186MPD1    C1 2829   2.479   4.286  16.157 -0.1819 -0.2528  0.2556
  186MPD1    C2 2830   2.508   4.148  16.169 -0.8363 -0.6523 -0.0818
  186MPD1    C3 2831   2.531   4.096  16.294  0.0564  0.4824 -0.0437
  186MPD1    C4 2832   2.527   4.170  16.406 -0.1627 -0.6751 -0.3010
  186MPD1    C5 2833   2.492   4.298  16.399 -0.1725  0.8256 -0.0303
  186MPD1     H 2834   2.502   4.088  16.079  1.1598  0.0609 -0.6860
  186MPD1    H1 2835   2.522   4.115  16.499 -0.2119 -0.4861 -0.1919
  186MPD1    H2 2836   2.450   4.466  16.269 -2.2616  0.2025  1.4833
  186MPD1    H3 2837   2.490   4.360  16.488 -0.4710  1.3895 -0.4327
  186MPD1     N 2838   2.558   3.962  16.324  0.0453 -0.4189 -0.1334
  186MPD1    H5 2839   2.554   3.924  16.418  1.1635 -2.0046 -0.7358
  186MPD1    N1 2840   2.435   4.344  16.037  0.5504  0.4385 -0.1592
  186MPD1    H6 2841   2.471   4.310  15.948 -0.3241 -0.9486  0.0105
  186MPD1    H7 2842   2.445   4.445  16.045 -0.5938  0.5263  0.2035
  187MPD1     C 2843   2.288   4.253   0.082  0.1128  0.8740 -0.5462
  187MPD1    C1 2844   2.337   4.362   0.159 -0.1677 -0.1854  0.3160
  187MPD1    C2 2845   2.267   4.477   0.155  0.5271 -0.9546  0.0845
  187MPD1    C3 2846   2.152   4.500   0.084  0.4773 -0.3673 -0.6691
  187MPD1    C4 2847   2.099   4.395   0.008  0.2385  0.0791 -0.3580
  187MPD1    C5 2848   2.170   4.274   0.018  0.1750 -0.0201 -1.0409
  187MPD1     H 2849   2.319   4.558   0.206  0.4949 -1.4736  0.9419
  187MPD1    H1 2850   2.004   4.404  17.642 -0.2942  1.1367  0.8304
  187MPD1    H2 2851   2.341   4.160   0.063 -1.1485  0.5327 -2.3042
  187MPD1    H3 2852   2.148   4.196  17.630 -1.6851 -0.7875  0.3405
  187MPD1     N 2853   2.087   4.627   0.071  0.7659 -0.4450 -0.2803
  187MPD1    H5 2854   2.008   4.628   0.007  1.0281  3.2055 -0.5404
  187MPD1    N1 2855   2.464   4.356   0.216 -0.0657 -0.0343 -0.2052
  187MPD1    H6 2856   2.480   4.428   0.286  0.3850  0.2673 -0.6179
  187MPD1    H7 2857   2.467   4.267   0.266  0.1721 -1.7042 -3.1961
  188MPD1     C 2858   1.587   0.275  10.901  0.1440 -0.7568 -0.1137
  188MPD1    C1 2859   1.476   0.319  10.833  0.5143 -0.2397  0.4387
  188MPD1    C2 2860   1.464   0.296  10.698  0.6083 -0.1897  0.5888
  188MPD1    C3 2861   1.574   0.252  10.628  0.4462 -0.9905  0.4711
  188MPD1    C4 2862   1.690   0.219  10.699  0.9260  0.6450  0.8563
  188MPD1    C5 2863   1.696   0.229  10.833  0.5129 -0.4124 -0.3724
  188MPD1     H 2864   1.368   0.304  10.648  1.0045 -0.1480 -0.1583
  188MPD1    H1 2865   1.772   0.185  10.637 -0.2335 -3.3622  1.5384
  188MPD1    H2 2866   1.598   0.305  11.005 -3.0241 -1.2485  0.3776
  188MPD1    H3 2867   1.792   0.207  10.877 -0.8686  0.4840  3.0512
  188MPD1     N 2868   1.580   0.216  10.491 -0.3769 -0.0332 -0.5000
  188MPD1    H5 2869   1.667   0.178  10.456  1.1794  0.7560  2.4804
  188MPD1    N1 2870   1.358   0.339  10.910  0.1292 -0.1463  0.0993
  188MPD1    H6 2871   1.293   0.399  10.858  0.9596  0.9499  0.3210
  188MPD1    H7 2872   1.374   0.373  11.004  2.9652  0.2164 -0.5215
  189MPD1     C 2873   3.148   0.198   1.091 -0.5749 -0.3016  0.1177
  189MPD1    C1 2874   3.053   0.141   1.006 -0.5956  0.0935  0.0080
  189MPD1    C2 2875   2.954   0.222   0.943 -0.1850 -0.6514  0.1990
  189MPD1    C3 2876   2.955   0.360   0.979  0.1140  0.1991  0.3022
  189MPD1    C4 2877   3.046   0.403   1.066  0.0151 -0.1396  0.4952
  189MPD1    C5 2878   3.148   0.328   1.118 -0.0642 -0.6177 -0.2947
  189MPD1     H 2879   2.883   0.185   0.870  0.5329  0.0918 -0.8875
  189MPD1    H1 2880   3.033   0.507   1.097  0.1002  0.1951 -0.6054
  189MPD1    H2 2881   3.228   0.139   1.135  0.7549  0.2440 -1.5268
  189MPD1    H3 2882   3.216   0.377   1.187  0.1672 -1.4237  0.0560
  189MPD1     N 2883   2.869   0.448   0.907  0.4031  0.4750  0.2648
  189MPD1    H5 2884   2.822   0.397   0.834 -0.1027 -0.6050  1.3393
  189MPD1    N1 2885   3.042   4.718   1.003  0.1586 -0.3739 -0.4292
  189MPD1    H6 2886   3.129   4.665   0.996  0.1331 -0.6561  1.3498
  189MPD1    H7 2887   2.992   4.693   0.918 -1.1355 -2.7607  1.0425
  190MPD1     C 2888   2.133   4.482  15.246  0.4241  0.0188  0.4416
  190MPD1    C1 2889   2.200   4.365  15.273 -0.0074 -0.0658 -0.9078
  190MPD1    C2 2890   2.298   4.364  15.375  0.3260 -0.2273  0.2500
  190MPD1    C3 2891   2.334   4.478  15.440  0.5293 -0.4045 -0.6847
  190MPD1    C4 2892   2.264   4.594  15.402  0.5611 -0.6630 -0.7782
  190MPD1    C5 2893   2.166   4.600  15.305 -0.9565  0.2559  0.0190
  190MPD1     H 2894   2.344   4.276  15.418 -0.1514 -0.9496 -0.7281
  190MPD1    H1 2895   2.277   4.686  15.458 -0.6114 -0.0138 -1.5486
  190MPD1    H2 2896   2.052   4.486  15.174 -0.5139 -1.9578  1.3976
  190MPD1    H3 2897   2.115   4.693  15.286  0.9097  0.9445 -1.6823
  190MPD1     N 2898   2.431   4.472  15.540  0.1642 -0.2293  0.0289
  190MPD1    H5 2899   2.469   4.381  15.564 -1.5395 -0.8705  0.2824
  190MPD1    N1 2900   2.156   4.247  15.210 -0.8040 -0.4284  0.0562
  190MPD1    H6 2901   2.118   4.264  15.117  1.0786 -0.3710 -0.7026
  190MPD1    H7 2902   2.230   4.179  15.199 -0.0278  0.4375 -0.1012
  191MPD1     C 2903   1.594   0.997  13.293  0.0272  0.0911 -0.8611
  191MPD1    C1 2904   1.478   0.968  13.226  0.0811  0.8028 -0.2152
  191MPD1    C2 2905   1.425   1.058  13.132 -0.0919  0.0104 -0.9308
  191MPD1    C3 2906   1.483   1.185  13.112 -0.4077 -0.1426 -0.3065
  191MPD1    C4 2907   1.602   1.208  13.172  0.1451 -0.2929 -0.8820
  191MPD1    C5 2908   1.654   1.116  13.263  0.1958  0.0924  0.5370
  191MPD1     H 2909   1.333   1.036  13.080 -0.2249 -0.3706 -0.5212
  191MPD1    H1 2910   1.656   1.300  13.154 -0.5686 -0.3411 -3.2969
  191MPD1    H2 2911   1.644   0.920  13.351 -0.6511  1.3535  1.3770
  191MPD1    H3 2912   1.739   1.147  13.323  0.5009  0.4440 -0.0778
  191MPD1     N 2913   1.412   1.277  13.028  0.1971  0.1046  0.7207
  191MPD1    H5 2914   1.318   1.255  12.998  0.2610 -0.1633  0.7194
  191MPD1    N1 2915   1.434   0.837  13.239  0.0058 -0.0956  0.1867
  191MPD1    H6 2916   1.452   0.801  13.332  4.5417  1.3573 -0.1102
  191MPD1    H7 2917   1.333   0.842  13.231 -0.1055 -2.6395  0.0781
  192MPD1     C 2918   0.581   1.394  13.204  0.0759 -0.2881  0.5035
  192MPD1    C1 2919   0.599   1.496  13.111 -0.2458 -0.4125  0.5118
  192MPD1    C2 2920   0.720   1.509  13.044  0.2958  0.1166  0.4572
  192MPD1    C3 2921   0.835   1.422  13.071 -0.2210 -0.2639  0.7591
  192MPD1    C4 2922   0.816   1.328  13.171 -0.3226  0.2777  0.6687
  192MPD1    C5 2923   0.692   1.311  13.230 -0.2721 -0.8551 -0.5358
  192MPD1     H 2924   0.730   1.598  12.984 -1.4118 -1.8195 -2.6997
  192MPD1    H1 2925   0.900   1.265  13.198  2.2982  2.7672 -1.6308
  192MPD1    H2 2926   0.485   1.387  13.254  0.0058  0.4579  0.4655
  192MPD1    H3 2927   0.682   1.256  13.323 -0.4206 -0.3901 -0.2799
  192MPD1     N 2928   0.959   1.437  13.017 -0.2697 -0.5793 -0.2186
  192MPD1    H5 2929   1.023   1.363  13.045  0.4187 -0.5514 -1.7238
  192MPD1    N1 2930   0.506   1.603  13.101  0.1041 -0.4834  0.6198
  192MPD1    H6 2931   0.412   1.567  13.119 -0.9771  2.2288  0.2911
  192MPD1    H7 2932   0.505   1.646  13.009 -5.4155  0.6046  1.2188
  193MPD1     C 2933   1.392   1.199  16.549 -0.2697  0.0592  0.1828
  193MPD1    C1 2934   1.394   1.336  16.525  0.3598  0.2913 -0.7767
  193MPD1    C2 2935   1.452   1.411  16.627  0.7072  0.0178  0.7461
  193MPD1    C3 2936   1.510   1.357  16.740  0.5342 -0.4990  0.9083
  193MPD1    C4 2937   1.522   1.218  16.754  0.6168  0.8197  0.0924
  193MPD1    C5 2938   1.464   1.141  16.654 -0.2491  0.4036 -0.2820
  193MPD1     H 2939   1.445   1.519  16.622  1.1345  0.0214  0.2369
  193MPD1    H1 2940   1.549   1.181  16.852  0.2230  1.5341  0.4734
  193MPD1    H2 2941   1.350   1.134  16.473  3.2035  0.3836 -1.9928
  193MPD1    H3 2942   1.472   1.033  16.660  1.3352  0.5509  0.3711
  193MPD1     N 2943   1.566   1.443  16.844  0.8123  0.6331  0.2257
  193MPD1    H5 2944   1.633   1.400  16.907  1.6602  1.2893 -0.2339
  193MPD1    N1 2945   1.324   1.387  16.415  0.1390 -0.3084  0.3030
  193MPD1    H6 2946   1.348   1.486  16.411 -2.5034  0.2911 -0.7544
  193MPD1    H7 2947   1.312   1.339  16.326  0.5297  0.2645 -0.0574
  194MPD1     C 2948   0.287   4.288  16.802 -0.1741  0.8925  0.3700
  194MPD1    C1 2949   0.151   4.314  16.766  0.0775 -0.0063  0.0663
  194MPD1    C2 2950   0.056   4.219  16.804  0.2073 -0.6214  0.2155
  194MPD1    C3 2951   0.095   4.101  16.866  0.2927  0.0782  0.5744
  194MPD1    C4 2952   0.228   4.071  16.880 -0.5353  0.1344  0.1386
  194MPD1    C5 2953   0.324   4.168  16.850 -0.5770 -0.2623 -0.0698
  194MPD1     H 2954   4.671   4.236  16.787  0.6491  0.5606 -1.3047
  194MPD1    H1 2955   0.270   3.981  16.923  1.9521  1.6223  0.7810
  194MPD1    H2 2956   0.362   4.361  16.772 -0.0591  0.4618 -0.3863
  194MPD1    H3 2957   0.429   4.155  16.875 -0.7805 -0.5279  0.6612
  194MPD1     N 2958   4.711   4.011  16.908 -0.1170  0.3208  0.5559
  194MPD1    H5 2959   0.024   3.928  16.956 -0.2024  1.7963  3.1834
  194MPD1    N1 2960   0.104   4.446  16.738 -0.4333  0.4847  0.4266
  194MPD1    H6 2961   0.012   4.449  16.695  0.2455 -2.6041 -1.2723
  194MPD1    H7 2962   0.172   4.503  16.688  0.8312 -1.0446  0.3940
  195MPD1     C 2963   1.251   0.705   0.314  0.6155  0.2119 -0.0734
  195MPD1    C1 2964   1.251   0.665   0.184 -0.1541 -0.2034  0.2170
  195MPD1    C2 2965   1.201   0.544   0.159  0.6165  0.3826 -0.0761
  195MPD1    C3 2966   1.187   0.447   0.260 -0.1050 -0.0235 -0.4447
  195MPD1    C4 2967   1.196   0.486   0.388 -0.6740  0.5475 -0.4411
  195MPD1    C5 2968   1.226   0.616   0.417  0.1220  0.1288  1.0370
  195MPD1     H 2969   1.210   0.512   0.056  0.7929 -2.3115  0.7910
  195MPD1    H1 2970   1.192   0.409   0.464  0.0240  1.4519  0.5221
  195MPD1    H2 2971   1.290   0.799   0.353 -0.3044  0.7461 -0.4231
  195MPD1    H3 2972   1.217   0.653   0.518 -1.8040  0.9303  0.5715
  195MPD1     N 2973   1.152   0.310   0.234  0.3015  0.0066 -0.8719
  195MPD1    H5 2974   1.125   0.250   0.312 -0.2198 -1.5403 -2.2642
  195MPD1    N1 2975   1.274   0.757   0.085 -0.3436  0.4023 -0.3924
  195MPD1    H6 2976   1.325   0.838   0.120 -2.7467  0.8225  2.1811
  195MPD1    H7 2977   1.321   0.715   0.005 -0.3042  2.7315 -1.6180
  196MPD1     C 2978   1.090   1.582   0.122 -0.0743  0.1858  0.5936
  196MPD1    C1 2979   1.031   1.456   0.121 -0.0512  0.4931 -0.4191
  196MPD1    C2 2980   0.997   1.412   0.248 -0.5276  0.0971  0.1027
  196MPD1    C3 2981   1.026   1.489   0.363 -0.2979 -0.0600 -0.4236
  196MPD1    C4 2982   1.089   1.612   0.355 -0.0110 -0.2032  0.2090
  196MPD1    C5 2983   1.121   1.657   0.231  0.0335 -0.1056 -0.1146
  196MPD1     H 2984   0.945   1.316   0.252 -0.8690  0.2455 -0.8414
  196MPD1    H1 2985   1.125   1.661   0.445  1.9302 -2.6811  0.8201
  196MPD1    H2 2986   1.110   1.636   0.030  0.7764 -1.8126 -0.3876
  196MPD1    H3 2987   1.160   1.757   0.213 -1.1930  0.3847  0.0012
  196MPD1     N 2988   0.991   1.440   0.486 -0.3856  0.8779  0.3827
  196MPD1    H5 2989   1.008   1.502   0.565 -1.1943  1.9324 -0.2729
  196MPD1    N1 2990   0.960   1.401   0.006  0.5670  0.2253  0.5780
  196MPD1    H6 2991   0.944   1.301   0.013  0.3567  0.1527 -0.9722
  196MPD1    H7 2992   1.011   1.437  17.610  1.0455 -1.3678  0.1692
  197MPD1     C 2993   0.694   2.182  17.654 -0.4726  0.0058 -0.3559
  197MPD1    C1 2994   0.777   2.277  17.598  0.5705  0.0412 -1.0746
  197MPD1    C2 2995   0.713   2.380  17.529 -0.1140  0.1028  0.3885
  197MPD1    C3 2996   0.577   2.399  17.532  0.0775  0.2351  0.3018
  197MPD1    C4 2997   0.498   2.303  17.594 -0.1109  0.7039 -0.0150
  197MPD1    C5 2998   0.559   2.199  17.661 -0.5462 -0.0911  0.4543
  197MPD1     H 2999   0.772   2.438  17.459 -0.7682 -1.0645 -1.1252
  197MPD1    H1 3000   0.391   2.315  17.599 -0.3103 -0.6164 -1.4055
  197MPD1    H2 3001   0.738   2.101   0.028 -0.5443  1.2892  1.4700
  197MPD1    H3 3002   0.503   2.138   0.047 -2.6264  1.8876  0.4921
  197MPD1     N 3003   0.519   2.508  17.465 -0.7243 -0.0386  1.0327
  197MPD1    H5 3004   0.420   2.496  17.447  0.4370 -1.4519 -4.5583
  197MPD1    N1 3005   0.913   2.251  17.581  0.2195 -0.3874  0.5506
  197MPD1    H6 3006   0.962   2.340  17.575  0.8163 -0.8686 -1.6806
  197MPD1    H7 3007   0.951   2.215  17.668  1.2169 -0.1838  0.2020
  198MPD1     C 3008   1.701   0.796  16.113 -0.1110 -0.2403  0.9889
  198MPD1    C1 3009   1.794   0.743  16.028  0.7135 -0.6620  0.7602
  198MPD1    C2 3010   1.927   0.751  16.067 -0.0358  0.1616  0.6199
  198MPD1    C3 3011   1.955   0.820  16.179 -0.1847 -0.4783  1.0587
  198MPD1    C4 3012   1.866   0.895  16.255  0.0610  0.5108 -0.6853
  198MPD1    C5 3013   1.735   0.876  16.216 -0.5349  0.2030  0.0483
  198MPD1     H 3014   2.006   0.698  16.015 -0.7606 -0.0914 -0.2349
  198MPD1    H1 3015   1.887   0.945  16.349  1.5502 -2.0050  0.3114
  198MPD1    H2 3016   1.596   0.777  16.097 -0.2403  0.0732  1.4756
  198MPD1    H3 3017   1.656   0.921  16.274 -0.6318 -1.0887  0.9073
  198MPD1     N 3018   2.094   0.837  16.208  0.0262  1.1040  0.4938
  198MPD1    H5 3019   2.165   0.800  16.145 -0.8690 -1.3225  0.8848
  198MPD1    N1 3020   1.746   0.652  15.933  0.0333 -0.3472  0.9832
  198MPD1    H6 3021   1.655   0.665  15.888 -0.3946  2.3422  2.6684
  198MPD1    H7 3022   1.807   0.648  15.851 -0.4771  0.0594  0.5829
  199MPD1     C 3023   4.339   1.062   9.906 -0.6995  0.6117 -0.1985
  199MPD1    C1 3024   4.289   1.098   9.781  0.3516 -0.0505  0.3692
  199MPD1    C2 3025   4.151   1.100   9.764 -0.4079 -0.0771 -0.1884
  199MPD1    C3 3026   4.071   1.039   9.857  0.4253 -0.0345  0.0332
  199MPD1    C4 3027   4.127   0.991   9.976  0.0030  0.0584 -0.6895
  199MPD1    C5 3028   4.261   0.994   9.994  0.1029 -0.3906 -0.0653
  199MPD1     H 3029   4.109   1.145   9.675  1.4264  1.0933 -0.4507
  199MPD1    H1 3030   4.071   0.943  10.055  0.4849  2.7350  1.2751
  199MPD1    H2 3031   4.442   1.075   9.940 -0.4425 -0.8133 -0.4078
  199MPD1    H3 3032   4.296   0.949  10.086  1.5293  0.3813 -0.2313
  199MPD1     N 3033   3.929   1.009   9.833 -0.5080  0.1053 -0.0381
  199MPD1    H5 3034   3.876   0.961   9.905  0.8379 -1.2361  0.0531
  199MPD1    N1 3035   4.375   1.181   9.703  0.0709  0.3118  0.3428
  199MPD1    H6 3036   4.472   1.150   9.707  0.0521  0.0036 -1.7071
  199MPD1    H7 3037   4.340   1.182   9.608 -2.1628  2.7993  1.1769
  200MPD1     C 3038   3.421   2.339  15.644  0.5442 -0.1350 -0.1713
  200MPD1    C1 3039   3.299   2.311  15.589 -0.5869  0.2258 -0.1611
  200MPD1    C2 3040   3.280   2.315  15.448  0.1295 -0.0951  0.3493
  200MPD1    C3 3041   3.379   2.358  15.358  0.6951 -0.8547 -0.5052
  200MPD1    C4 3042   3.495   2.401  15.416  0.3361 -0.7540 -0.1508
  200MPD1    C5 3043   3.513   2.392  15.553  0.1559  0.2680  0.0811
  200MPD1     H 3044   3.180   2.292  15.413 -0.5151  2.0902  0.7505
  200MPD1    H1 3045   3.578   2.429  15.351  1.0073 -1.5552  0.3630
  200MPD1    H2 3046   3.440   2.338  15.750 -0.8512  1.7191  0.0931
  200MPD1    H3 3047   3.607   2.422  15.598  3.1639 -5.2936 -2.4924
  200MPD1     N 3048   3.355   2.347  15.217  0.2437  0.5739  0.1358
  200MPD1    H5 3049   3.272   2.302  15.179 -0.3660  2.8406 -1.2091
  200MPD1    N1 3050   3.200   2.264  15.674  0.1658  0.2750 -0.6488
  200MPD1    H6 3051   3.107   2.277  15.636 -0.4566  0.7629  1.0473
  200MPD1    H7 3052   3.216   2.297  15.769 -0.2329 -0.2338 -0.4074
  201MPD1     C 3053   0.199   1.070  13.316 -0.1055  0.0601 -0.0709
  201MPD1    C1 3054   0.164   0.942  13.278 -0.4966  0.4759  0.1851
  201MPD1    C2 3055   0.264   0.849  13.260  1.0872 -0.1509 -0.0433
  201MPD1    C3 3056   0.399   0.878  13.291 -0.4723  0.4396 -1.1393
  201MPD1    C4 3057   0.427   1.004  13.321 -0.3754  0.3799 -0.6257
  201MPD1    C5 3058   0.327   1.102  13.331 -0.1656  0.0197 -0.7365
  201MPD1     H 3059   0.237   0.748  13.230 -0.9486  0.3042  0.2013
  201MPD1    H1 3060   0.528   1.032  13.346 -1.3202  2.6046  0.6804
  201MPD1    H2 3061   0.129   1.150  13.337  1.4941  0.6518  3.0221
  201MPD1    H3 3062   0.354   1.200  13.369 -0.5841 -0.3213  0.4272
  201MPD1     N 3063   0.495   0.770  13.290 -0.3271  0.4868  0.2561
  201MPD1    H5 3064   0.458   0.676  13.283  1.5242 -0.3629  1.6310
  201MPD1    N1 3065   0.037   0.904  13.238  0.0028 -0.2615 -0.3478
  201MPD1    H6 3066   0.012   0.805  13.232 -0.7800 -0.1242  0.7926
  201MPD1    H7 3067   4.679   0.943  13.289 -0.7359  0.2032 -1.8474
  202MPD1     C 3068   0.935   0.759   9.396 -0.1370 -0.2193 -0.2977
  202MPD1    C1 3069   0.799   0.783   9.379 -0.5777  0.6329  0.4217
  202MPD1    C2 3070   0.712   0.734   9.477  0.1846  0.6411 -0.0292
  202MPD1    C3 3071   0.760   0.656   9.581 -0.3380 -0.1107 -0.1249
  202MPD1    C4 3072   0.893   0.636   9.599 -0.6157  0.3187 -0.0654
  202MPD1    C5 3073   0.974   0.688   9.507  0.4812  0.2512 -0.0575
  202MPD1     H 3074   0.609   0.764   9.464  0.5673  2.0092  0.1214
  202MPD1    H1 3075   0.932   0.571   9.676  2.0452 -1.2820 -2.7907
  202MPD1    H2 3076   1.010   0.807   9.335  1.1978 -0.0537  1.4479
  202MPD1    H3 3077   1.080   0.672   9.526 -0.0155 -0.9969  1.6995
  202MPD1     N 3078   0.678   0.588   9.679  0.7277  0.0311  0.6300
  202MPD1    H5 3079   0.722   0.540   9.757 -0.5803 -1.2997  0.5545
  202MPD1    N1 3080   0.754   0.891   9.307  0.1881  0.3593 -0.8978
  202MPD1    H6 3081   0.810   0.907   9.224  1.1161 -2.3786 -0.7665
  202MPD1    H7 3082   0.654   0.881   9.288 -0.3448  1.4479  1.2105
  203MPD1     C 3083   3.612   1.347  12.161 -0.0691  0.1190 -0.2620
  203MPD1    C1 3084   3.741   1.320  12.112 -0.5839 -0.5170  0.1535
  203MPD1    C2 3085   3.847   1.295  12.200 -0.2489 -0.2660  0.6333
  203MPD1    C3 3086   3.814   1.261  12.329 -0.3027 -0.3908 -0.3455
  203MPD1    C4 3087   3.692   1.294  12.380  0.0385  0.7316  0.2247
  203MPD1    C5 3088   3.596   1.330  12.300  0.0050 -0.1455  0.3337
  203MPD1     H 3089   3.943   1.271  12.156 -0.5359  0.5974 -0.4708
  203MPD1    H1 3090   3.667   1.271  12.483  0.4097 -0.4127  0.0638
  203MPD1    H2 3091   3.529   1.383  12.103  0.7950 -1.3708 -2.4280
  203MPD1    H3 3092   3.498   1.335  12.345  1.2413 -3.0503  3.3492
  203MPD1     N 3093   3.931   1.219  12.403  0.7805 -0.1576 -0.6907
  203MPD1    H5 3094   4.015   1.202  12.349  0.1118  0.3055 -1.8752
  203MPD1    N1 3095   3.769   1.359  11.977 -0.1371  0.4486  0.3928
  203MPD1    H6 3096   3.829   1.294  11.925  0.9699  0.3650  1.7904
  203MPD1    H7 3097   3.687   1.371  11.917  0.4567 -1.6712 -0.8533
  204MPD1     C 3098   2.552   1.898   0.058 -0.1783  0.0253  0.0540
  204MPD1    C1 3099   2.607   1.772   0.076  0.3760 -0.6858 -0.1470
  204MPD1    C2 3100   2.721   1.738   0.004 -0.0308  0.1608 -0.0741
  204MPD1    C3 3101   2.784   1.838  17.609  0.0084 -0.3626  0.2773
  204MPD1    C4 3102   2.735   1.960  17.598  0.0430 -0.1282 -0.0497
  204MPD1    C5 3103   2.620   1.996  17.667  0.5351  0.3796  0.4111
  204MPD1     H 3104   2.768   1.647   0.039 -0.5514  0.1246  0.5320
  204MPD1    H1 3105   2.786   2.024  17.526 -0.3595 -0.0075 -0.2294
  204MPD1    H2 3106   2.467   1.934   0.114 -0.5906  1.2403 -1.3475
  204MPD1    H3 3107   2.586   2.098  17.655  2.1719  0.8780  0.1270
  204MPD1     N 3108   2.905   1.798  17.558 -0.0293 -0.6607  0.1445
  204MPD1    H5 3109   2.933   1.700  17.561  1.4392 -0.2878 -1.3679
  204MPD1    N1 3110   2.535   1.672   0.141 -0.4365 -0.0181 -0.3705
  204MPD1    H6 3111   2.600   1.599   0.169  0.7559  0.1199 -2.8029
  204MPD1    H7 3112   2.493   1.710   0.225 -1.2808 -0.8673 -0.4164
  205MPD1     C 3113   2.449   0.794  17.181  1.0828 -0.6034 -0.8349
  205MPD1    C1 3114   2.440   0.730  17.298 -0.0840 -0.6290 -0.1683
  205MPD1    C2 3115   2.555   0.729  17.381 -1.0931 -0.2001 -0.4399
  205MPD1    C3 3116   2.672   0.785  17.345  0.4319 -0.3803  0.0004
  205MPD1    C4 3117   2.676   0.849  17.223 -0.4372 -0.3054 -0.2470
  205MPD1    C5 3118   2.569   0.857  17.141 -0.3144  0.7875  0.6916
  205MPD1     H 3119   2.545   0.679  17.476 -0.4768  0.7452  0.1201
  205MPD1    H1 3120   2.756   0.909  17.181 -0.0514  0.1798  1.1810
  205MPD1    H2 3121   2.366   0.807  17.113  0.2536  0.8764  0.4857
  205MPD1    H3 3122   2.567   0.914  17.049 -1.0610  1.1100  0.9017
  205MPD1     N 3123   2.785   0.778  17.429 -0.1458  0.0281  0.6244
  205MPD1    H5 3124   2.866   0.820  17.385  0.8119 -2.5145 -0.0692
  205MPD1    N1 3125   2.315   0.690  17.351  0.0640  0.0041 -0.2436
  205MPD1    H6 3126   2.255   0.663  17.273  1.0203  1.0077 -1.3170
  205MPD1    H7 3127   2.312   0.614  17.418 -0.7468 -0.1293 -0.4329
  206MPD1     C 3128   3.953   4.182  17.109  0.0722 -0.2429  0.2891
  206MPD1    C1 3129   3.961   4.060  17.043 -0.6314  0.4059  0.1767
  206MPD1    C2 3130   4.013   4.070  16.912 -0.2501  0.4193 -1.1496
  206MPD1    C3 3131   4.030   4.192  16.846  0.3767 -0.0595 -0.3301
  206MPD1    C4 3132   4.010   4.306  16.913  0.2862  0.2410 -0.6649
  206MPD1    C5 3133   3.979   4.304  17.045 -0.0380 -0.6383 -0.7053
  206MPD1     H 3134   4.036   3.977  16.861  1.4296  0.2168 -0.0081
  206MPD1    H1 3135   4.009   4.403  16.864  0.7011  0.2116 -0.7366
  206MPD1    H2 3136   3.938   4.195  17.216 -1.0684 -3.2675  0.5151
  206MPD1    H3 3137   3.963   4.390  17.109 -0.3630 -0.2320 -1.3362
  206MPD1     N 3138   4.061   4.210  16.710  1.0600 -1.3098  0.0013
  206MPD1    H5 3139   4.081   4.302  16.672 -0.5790 -0.6860  0.6293
  206MPD1    N1 3140   3.944   3.945  17.115  0.3566  0.2686  0.0296
  206MPD1    H6 3141   3.870   3.976  17.178 -0.4351  1.7218 -1.6120
  206MPD1    H7 3142   3.916   3.876  17.046  1.3939 -1.1966  1.0754
  207MPD1     C 3143   0.826   1.463  10.016 -0.3400 -0.3002  0.2768
  207MPD1    C1 3144   0.814   1.449  10.149 -0.2392  0.2417 -0.2609
  207MPD1    C2 3145   0.848   1.562  10.222  0.4983  0.8181 -0.7363
  207MPD1    C3 3146   0.865   1.691  10.163  0.9887  0.2808  0.2983
  207MPD1    C4 3147   0.873   1.700  10.023 -0.4784 -0.1565  0.3795
  207MPD1    C5 3148   0.845   1.582   9.955 -0.3534  0.2065 -0.7389
  207MPD1     H 3149   0.847   1.554  10.330 -1.3654  4.3092 -0.5002
  207MPD1    H1 3150   0.900   1.794   9.976 -0.3635 -0.3261  0.1136
  207MPD1    H2 3151   0.825   1.373   9.956 -0.1179  0.6830 -1.2274
  207MPD1    H3 3152   0.856   1.580   9.847 -0.1709 -1.0702 -0.6951
  207MPD1     N 3153   0.894   1.805  10.233  0.0090 -0.2022  0.4933
  207MPD1    H5 3154   0.888   1.894  10.185 -0.8715  0.1308  1.2278
  207MPD1    N1 3155   0.822   1.323  10.204  0.0372  0.2881  0.2528
  207MPD1    H6 3156   0.765   1.254  10.156  1.9036 -1.6779  0.9045
  207MPD1    H7 3157   0.791   1.314  10.301 -0.0412  0.5583  0.2529
  208MPD1     C 3158   3.716   0.492  17.063  0.4478  0.6498 -0.3185
  208MPD1    C1 3159   3.621   0.481  17.161 -1.2859 -0.0596  0.6911
  208MPD1    C2 3160   3.656   0.402  17.270  0.3352  0.2591  0.3285
  208MPD1    C3 3161   3.785   0.368  17.291  0.0395 -0.4395  0.2192
  208MPD1    C4 3162   3.876   0.384  17.189 -0.7378  0.2864  0.4254
  208MPD1    C5 3163   3.840   0.449  17.075  0.6165 -0.3579 -0.4089
  208MPD1     H 3164   3.591   0.386  17.355  0.1158  0.0118  0.1162
  208MPD1    H1 3165   3.982   0.367  17.203 -0.5110  0.6618 -0.7988
  208MPD1    H2 3166   3.698   0.553  16.975 -4.0950  0.2286  0.3087
  208MPD1    H3 3167   3.919   0.464  17.002  1.8088 -0.9570  0.7631
  208MPD1     N 3168   3.825   0.331  17.424 -0.1313 -0.0487 -0.3291
  208MPD1    H5 3169   3.755   0.332  17.498  1.1525 -0.3181  0.8689
  208MPD1    N1 3170   3.484   0.501  17.134  0.1008  0.3910 -0.2021
  208MPD1    H6 3171   3.478   0.576  17.066 -0.2858  0.9566  0.4557
  208MPD1    H7 3172   3.423   0.520  17.214  2.1142  0.6113  1.2878
  209MPD1     C 3173   2.555   1.511  10.840  0.0125 -0.6710 -0.0354
  209MPD1    C1 3174   2.453   1.425  10.873  0.0260 -0.1354 -0.6516
  209MPD1    C2 3175   2.329   1.489  10.903  0.2965  0.2945  0.5679
  209MPD1    C3 3176   2.307   1.621  10.887  0.1941  0.4617 -0.4340
  209MPD1    C4 3177   2.414   1.707  10.853  0.1424 -0.1226  0.2184
  209MPD1    C5 3178   2.528   1.644  10.821  0.4222 -0.5566  0.1523
  209MPD1     H 3179   2.249   1.421  10.931  1.4182 -0.2719  2.3161
  209MPD1    H1 3180   2.402   1.814  10.846 -1.0437 -0.1873  1.3827
  209MPD1    H2 3181   2.660   1.489  10.824  0.0253 -0.2659 -0.5279
  209MPD1    H3 3182   2.611   1.712  10.804  0.3158  0.4709  3.6646
  209MPD1     N 3183   2.177   1.667  10.909 -0.2217 -0.2090  0.0609
  209MPD1    H5 3184   2.108   1.599  10.938 -2.4144  1.9969  0.0197
  209MPD1    N1 3185   2.481   1.285  10.895 -0.1559  0.2258 -0.5778
  209MPD1    H6 3186   2.393   1.233  10.893 -0.9209  1.5256 -0.9466
  209MPD1    H7 3187   2.559   1.252  10.839 -1.0248  0.0105 -1.6644
  210MPD1     C 3188   2.127   1.828  11.793  0.2807  0.3377  1.0599
  210MPD1    C1 3189   2.000   1.784  11.755  0.5388 -0.5937 -0.2378
  210MPD1    C2 3190   1.951   1.815  11.630  0.4897  0.7797 -0.1064
  210MPD1    C3 3191   2.029   1.875  11.536 -0.1088 -0.1145 -0.1949
  210MPD1    C4 3192   2.161   1.913  11.571  0.1260  0.4399 -0.5001
  210MPD1    C5 3193   2.205   1.892  11.700 -0.2864 -0.3931 -0.6203
  210MPD1     H 3194   1.849   1.783  11.608 -0.4327  2.0601  2.3280
  210MPD1    H1 3195   2.214   1.975  11.500  1.6432  0.3881  0.5980
  210MPD1    H2 3196   2.172   1.805  11.889  1.1710  1.0201  0.8061
  210MPD1    H3 3197   2.305   1.924  11.727 -0.9914 -0.4336  2.0011
  210MPD1     N 3198   1.995   1.890  11.400  0.7241 -0.1071  0.2300
  210MPD1    H5 3199   2.070   1.921  11.339  1.8609 -0.4191  1.4650
  210MPD1    N1 3200   1.905   1.747  11.854  0.4986  0.1995  0.8245
  210MPD1    H6 3201   1.949   1.694  11.928 -0.0882 -2.9134 -1.0618
  210MPD1    H7 3202   1.826   1.701  11.810  1.7919  0.3675 -1.6766
  211MPD1     C 3203   4.626   1.618  15.596 -0.1054 -0.1874  0.0722
  211MPD1    C1 3204   4.663   1.731  15.667  0.1536  0.4394 -0.0126
  211MPD1    C2 3205   4.636   1.733  15.802  0.4326  0.2912 -0.6022
  211MPD1    C3 3206   4.565   1.635  15.868 -0.5216 -0.2352  0.5535
  211MPD1    C4 3207   4.522   1.526  15.798  0.2986 -0.8873  0.0826
  211MPD1    C5 3208   4.558   1.516  15.665 -0.1232  0.2942  0.0433
  211MPD1     H 3209   4.660   1.818  15.865  1.0225 -0.8216  0.6926
  211MPD1    H1 3210   4.477   1.438  15.842 -2.9234  1.5442  1.6100
  211MPD1    H2 3211   4.641   1.609  15.489 -0.4509 -1.2090  0.1114
  211MPD1    H3 3212   4.528   1.428  15.609  0.3489 -1.7583  2.9832
  211MPD1     N 3213   4.537   1.654  16.002  0.0221 -0.0483 -0.5790
  211MPD1    H5 3214   4.581   1.737  16.042  1.2677 -1.6037  1.2930
  211MPD1    N1 3215   0.008   1.834  15.610  0.2060  0.9630 -0.2317
  211MPD1    H6 3216   4.695   1.926  15.638 -0.7354  0.8131 -0.8659
  211MPD1    H7 3217   0.001   1.832  15.508 -3.1081 -1.2473  0.0247
  212MPD1     C 3218   3.674   3.867  16.537  1.2673 -0.1852  0.4965
  212MPD1    C1 3219   3.631   3.932  16.648 -0.7994  0.9435  0.3834
  212MPD1    C2 3220   3.531   3.871  16.726  0.6340  0.7444 -0.2319
  212MPD1    C3 3221   3.480   3.745  16.693  0.6112 -0.1265 -0.4200
  212MPD1    C4 3222   3.523   3.687  16.573  0.2382 -0.1942  0.0486
  212MPD1    C5 3223   3.615   3.749  16.499 -0.0425 -0.9733  0.0061
  212MPD1     H 3224   3.497   3.918  16.818  1.2435  0.7684 -0.0174
  212MPD1    H1 3225   3.476   3.599  16.532 -0.5829  0.7830 -1.1008
  212MPD1    H2 3226   3.749   3.909  16.471  0.5304  0.8580  0.3364
  212MPD1    H3 3227   3.648   3.710  16.403  0.1542  0.4803 -0.5110
  212MPD1     N 3228   3.384   3.672  16.777  0.3044  0.4846  0.5117
  212MPD1    H5 3229   3.356   3.582  16.740 -0.6799  1.0597 -0.1414
  212MPD1    N1 3230   3.679   4.062  16.665  0.2840 -0.5216 -0.0930
  212MPD1    H6 3231   3.631   4.126  16.729  1.4921  0.6644 -0.3846
  212MPD1    H7 3232   3.743   4.102  16.597  1.9708 -1.3956  0.9800
  213MPD1     C 3233   2.340   0.378  15.517  0.5322  0.0471  0.4266
  213MPD1    C1 3234   2.247   0.272  15.529 -0.7601 -0.4893 -0.1869
  213MPD1    C2 3235   2.117   0.308  15.481 -0.1030  0.5330 -0.3910
  213MPD1    C3 3236   2.095   0.423  15.403 -0.1245 -0.1451 -0.0057
  213MPD1    C4 3237   2.197   0.516  15.386  0.3315 -0.4558  0.3435
  213MPD1    C5 3238   2.316   0.486  15.445  0.6372 -0.0548  0.3110
  213MPD1     H 3239   2.036   0.238  15.494  0.2501  0.0986 -0.5305
  213MPD1    H1 3240   2.202   0.595  15.312 -0.8341  0.0382  0.8004
  213MPD1    H2 3241   2.439   0.379  15.561  1.5506 -0.0100 -1.8720
  213MPD1    H3 3242   2.401   0.551  15.430 -0.0772  0.4981 -1.3373
  213MPD1     N 3243   1.964   0.452  15.361  0.2025  0.2469 -0.3248
  213MPD1    H5 3244   1.902   0.372  15.372  1.5256 -0.5387  1.4665
  213MPD1    N1 3245   2.253   0.185  15.641 -0.2812 -0.2831 -0.4719
  213MPD1    H6 3246   2.349   0.157  15.659 -0.3758  0.7327  1.6418
  213MPD1    H7 3247   2.189   0.108  15.620  0.3034 -1.1439  0.8697
  214MPD1     C 3248   1.386   4.632  15.529  0.3485  0.0297 -0.1541
  214MPD1    C1 3249   1.305   0.016  15.493 -0.5620  0.1851  0.1542
  214MPD1    C2 3250   1.363   0.132  15.449  0.0137 -0.1050  0.0689
  214MPD1    C3 3251   1.503   0.141  15.431  0.6819  0.1819 -0.3708
  214MPD1    C4 3252   1.580   0.033  15.482  0.7145  0.1582  0.9340
  214MPD1    C5 3253   1.517   4.638  15.516 -0.0773 -0.3111  0.1604
  214MPD1     H 3254   1.299   0.212  15.412  1.0771  1.6789  2.1121
  214MPD1    H1 3255   1.687   0.034  15.467  0.8822 -0.7800  2.0037
  214MPD1    H2 3256   1.341   4.551  15.585  0.9892  0.4606  0.9762
  214MPD1    H3 3257   1.577   4.561  15.563 -0.9512 -0.1510  1.5489
  214MPD1     N 3258   1.566   0.254  15.372 -0.3665  0.6986 -0.1407
  214MPD1    H5 3259   1.666   0.246  15.387 -0.3554 -0.4664 -0.8060
  214MPD1    N1 3260   1.171   0.006  15.530 -0.0686 -0.3568 -0.5322
  214MPD1    H6 3261   1.148   4.633  15.496 -0.7934 -0.4249  0.1610
  214MPD1    H7 3262   1.109   0.074  15.486 -0.2164  0.5943  1.1440
  215MPD1     C 3263   1.522   1.005  10.489  0.0314  0.4064 -0.9492
  215MPD1    C1 3264   1.416   1.093  10.491  0.0808  0.8797 -0.1497
  215MPD1    C2 3265   1.405   1.181  10.596 -0.0546 -0.2625 -0.8552
  215MPD1    C3 3266   1.483   1.175  10.711  0.4645  0.2490 -0.1434
  215MPD1    C4 3267   1.577   1.070  10.712  0.1265 -0.1434  0.3884
  215MPD1    C5 3268   1.591   0.985  10.601  0.1379  0.3634 -0.0128
  215MPD1     H 3269   1.336   1.264  10.589  0.2855  0.0716 -0.2459
  215MPD1    H1 3270   1.649   1.064  10.792  1.0902  0.1793 -0.4618
  215MPD1    H2 3271   1.534   0.940  10.403 -0.4369 -0.6501 -0.2214
  215MPD1    H3 3272   1.664   0.904  10.599 -0.9552 -0.5648 -2.8794
  215MPD1     N 3273   1.455   1.267  10.817  0.1790 -0.1579  0.4644
  215MPD1    H5 3274   1.378   1.331  10.795  0.3523  0.1195  0.6652
  215MPD1    N1 3275   1.314   1.091  10.392 -0.1290  0.0592 -0.7448
  215MPD1    H6 3276   1.224   1.133  10.413  0.3740  0.3141  0.9586
  215MPD1    H7 3277   1.314   1.011  10.329 -0.4112  0.0468 -0.7289
  216MPD1     C 3278   3.547   2.932  15.993 -0.7743  0.2667  0.0207
  216MPD1    C1 3279   3.442   2.857  16.035 -0.1474 -0.1043  0.3333
  216MPD1    C2 3280   3.412   2.862  16.172  0.2409  0.3802  0.6760
  216MPD1    C3 3281   3.476   2.953  16.257  0.6219 -0.8639  0.4505
  216MPD1    C4 3282   3.575   3.033  16.211  0.0967  0.0767  0.4636
  216MPD1    C5 3283   3.610   3.020  16.078  0.3160 -0.3369  0.0933
  216MPD1     H 3284   3.337   2.796  16.213 -1.6935 -0.4255 -4.0887
  216MPD1    H1 3285   3.623   3.103  16.278  2.5268  0.0597 -1.2356
  216MPD1    H2 3286   3.591   2.912  15.896 -0.3973 -1.6457  0.5876
  216MPD1    H3 3287   3.690   3.082  16.039 -0.0561  1.4418  2.2214
  216MPD1     N 3288   3.430   2.951  16.393  0.4846 -0.3874 -0.4403
  216MPD1    H5 3289   3.335   2.918  16.408  1.3021 -1.8187  1.5671
  216MPD1    N1 3290   3.403   2.750  15.952  0.2059  0.0739 -0.0039
  216MPD1    H6 3291   3.414   2.776  15.855 -0.4673 -1.8355 -0.5862
  216MPD1    H7 3292   3.306   2.724  15.967  0.5650  0.2265  2.6710
  217MPD1     C 3293   4.369   0.574   8.203  0.3412 -0.3878  0.2329
  217MPD1    C1 3294   4.246   0.615   8.246 -0.3037  0.2208 -0.2784
  217MPD1    C2 3295   4.210   0.591   8.373  0.1299 -0.6100 -0.0702
  217MPD1    C3 3296   4.280   0.516   8.457 -0.4065  0.1282  0.3333
  217MPD1    C4 3297   4.391   0.461   8.411  0.0866  0.6888  0.4171
  217MPD1    C5 3298   4.440   0.491   8.285  0.4869  0.0170  0.3093
  217MPD1     H 3299   4.112   0.624   8.407  1.2158  3.6143 -0.9426
  217MPD1    H1 3300   4.452   0.397   8.475 -0.2224 -1.2631 -1.2610
  217MPD1    H2 3301   4.404   0.604   8.104  1.4958  0.3041  0.8552
  217MPD1    H3 3302   4.537   0.452   8.255  0.6644 -1.0912  2.2954
  217MPD1     N 3303   4.239   0.483   8.591 -0.3045 -0.1008 -0.1142
  217MPD1    H5 3304   4.308   0.438   8.650  1.8702  0.2737 -2.3920
  217MPD1    N1 3305   4.170   0.709   8.172  0.2861 -0.3276 -0.5527
  217MPD1    H6 3306   4.189   0.689   8.074  1.7831  0.9231 -0.5058
  217MPD1    H7 3307   4.072   0.703   8.200 -0.4946  0.3239 -3.0680
  218MPD1     C 3308   0.390   1.486  12.740 -0.2694 -0.9627 -0.9984
  218MPD1    C1 3309   0.467   1.595  12.757 -0.0229 -0.3715  0.2118
  218MPD1    C2 3310   0.595   1.590  12.724  0.2107  0.2664 -0.0791
  218MPD1    C3 3311   0.648   1.483  12.655 -0.6449 -0.6746 -0.6812
  218MPD1    C4 3312   0.573   1.374  12.633 -0.5535  0.3980  0.6538
  218MPD1    C5 3313   0.440   1.380  12.672  0.3545 -0.6873 -0.3382
  218MPD1     H 3314   0.664   1.673  12.735  0.5635 -0.1160  0.5605
  218MPD1    H1 3315   0.603   1.291  12.570 -0.1956  0.1116  1.1955
  218MPD1    H2 3316   0.283   1.493  12.756 -0.0084  0.1504  0.3063
  218MPD1    H3 3317   0.363   1.317  12.629 -1.5157 -0.2627  2.3558
  218MPD1     N 3318   0.784   1.487  12.610  0.3458  0.0606  0.5302
  218MPD1    H5 3319   0.836   1.574  12.620  0.6252 -0.1318  0.7592
  218MPD1    N1 3320   0.411   1.702  12.834 -0.3021  0.3441 -0.0227
  218MPD1    H6 3321   0.461   1.783  12.798  1.2512 -2.0003 -3.1411
  218MPD1    H7 3322   0.312   1.719  12.821 -0.6956 -2.3574 -0.5403
  219MPD1     C 3323   1.390   1.920  11.982  0.1197 -0.9854 -0.2420
  219MPD1    C1 3324   1.261   1.866  11.975 -0.3437 -0.0292  0.1652
  219MPD1    C2 3325   1.224   1.782  12.080  0.8220  0.1316 -0.3716
  219MPD1    C3 3326   1.318   1.725  12.166 -0.3014  0.4871  0.0807
  219MPD1    C4 3327   1.449   1.757  12.146  0.3139 -0.0859  0.3961
  219MPD1    C5 3328   1.484   1.860  12.062  0.2356  0.2575 -0.2726
  219MPD1     H 3329   1.119   1.755  12.093  1.3565 -1.9753 -0.4510
  219MPD1    H1 3330   1.529   1.719  12.209  1.1841 -1.5964 -1.6166
  219MPD1    H2 3331   1.424   2.000  11.917  1.7982 -0.9810  0.6504
  219MPD1    H3 3332   1.587   1.892  12.048 -0.7052  2.4552 -2.0421
  219MPD1     N 3333   1.276   1.625  12.265 -0.5150  0.7033  0.1461
  219MPD1    H5 3334   1.353   1.577  12.311  0.2909  0.1670 -1.7355
  219MPD1    N1 3335   1.162   1.920  11.886 -0.0604  0.5085  0.2894
  219MPD1    H6 3336   1.194   1.957  11.796  1.2455 -0.8226  0.2067
  219MPD1    H7 3337   1.087   1.857  11.862 -0.6228  1.3561 -0.1856
  220MPD1     C 3338   0.469   1.986   9.810  0.5518 -0.1517 -0.4132
  220MPD1    C1 3339   0.421   2.035   9.932  0.2102 -0.5426 -0.0376
  220MPD1    C2 3340   0.410   1.953  10.044 -0.0144  0.8932 -0.2828
  220MPD1    C3 3341   0.462   1.825  10.035 -0.5315 -0.2600  0.0394
  220MPD1    C4 3342   0.527   1.784   9.918  0.1044  0.6327  0.0253
  220MPD1    C5 3343   0.516   1.859   9.803  0.6136  0.3943  0.5705
  220MPD1     H 3344   0.363   1.987  10.135  0.2193  1.1850 -0.2695
  220MPD1    H1 3345   0.575   1.687   9.916 -0.1387  0.5625 -2.7596
  220MPD1    H2 3346   0.481   2.055   9.728  2.3136 -0.2828 -0.2580
  220MPD1    H3 3347   0.556   1.820   9.710 -1.5804  1.2901 -0.7468
  220MPD1     N 3348   0.462   1.750  10.145  1.1172  0.3353  0.3037
  220MPD1    H5 3349   0.431   1.798  10.229  1.8445 -1.1670  1.4200
  220MPD1    N1 3350   0.381   2.171   9.926 -0.1692 -0.3598 -0.3928
  220MPD1    H6 3351   0.448   2.228   9.876  1.7703 -0.8765  1.6176
  220MPD1    H7 3352   0.380   2.206  10.022  0.3903  0.2458 -0.6091
  221MPD1     C 3353   3.288   0.827  16.395 -0.0032  0.8630 -0.2386
  221MPD1    C1 3354   3.297   0.832  16.532 -1.0357  0.1429 -0.2141
  221MPD1    C2 3355   3.410   0.804  16.590 -0.1287  1.0131  0.8590
  221MPD1    C3 3356   3.516   0.752  16.518  0.2606  0.0385 -0.2801
  221MPD1    C4 3357   3.504   0.728  16.381 -0.2134  0.4674 -0.1297
  221MPD1    C5 3358   3.395   0.781  16.320 -0.0635  0.6638 -0.3244
  221MPD1     H 3359   3.413   0.805  16.698  1.3481 -0.5216  0.8234
  221MPD1    H1 3360   3.583   0.683  16.323  1.2439  0.5871  1.7500
  221MPD1    H2 3361   3.198   0.855  16.342 -0.9765 -1.5134  0.2024
  221MPD1    H3 3362   3.392   0.774  16.212 -1.4126  0.1069 -0.2547
  221MPD1     N 3363   3.634   0.712  16.579  0.2971 -0.1547 -0.6035
  221MPD1    H5 3364   3.700   0.666  16.517 -2.3685 -4.7775 -0.0084
  221MPD1    N1 3365   3.188   0.898  16.601  0.2366  0.1212  0.4778
  221MPD1    H6 3366   3.102   0.896  16.546 -0.2341 -0.7557  1.2431
  221MPD1    H7 3367   3.195   0.891  16.702  0.6648 -1.0717  0.3730
  222MPD1     C 3368   3.788   3.601  16.994 -0.4944 -0.0274  0.0210
  222MPD1    C1 3369   3.777   3.532  17.116  0.7251 -0.6529 -0.3074
  222MPD1    C2 3370   3.686   3.592  17.205 -0.1483  0.4188 -0.7280
  222MPD1    C3 3371   3.612   3.704  17.177  0.4890  0.3015  0.6103
  222MPD1    C4 3372   3.627   3.765  17.061  0.2432  0.1233  0.2485
  222MPD1    C5 3373   3.717   3.721  16.966  0.1110  0.2994  0.0032
  222MPD1     H 3374   3.676   3.544  17.301  2.7625  0.1937 -0.5422
  222MPD1    H1 3375   3.579   3.857  17.029 -2.7140 -1.7791 -0.7781
  222MPD1    H2 3376   3.859   3.576  16.917  0.4185 -0.6561  1.0646
  222MPD1    H3 3377   3.731   3.777  16.874  2.4328 -0.5866 -0.2079
  222MPD1     N 3378   3.528   3.766  17.263  0.7504  0.8417  0.1597
  222MPD1    H5 3379   3.488   3.850  17.222  0.4657  0.3624 -0.5324
  222MPD1    N1 3380   3.849   3.419  17.152 -0.0654 -0.0175  0.2419
  222MPD1    H6 3381   3.804   3.370  17.230  0.4287 -1.3087 -0.2831
  222MPD1    H7 3382   3.895   3.373  17.074 -1.0446 -0.3129 -0.1489
  223MPD1     C 3383   2.769   4.398  17.239 -0.1278 -0.4840  0.2292
  223MPD1    C1 3384   2.773   4.367  17.378 -0.0580  0.6597  0.5961
  223MPD1    C2 3385   2.887   4.301  17.429 -0.5604 -0.1880  0.0748
  223MPD1    C3 3386   2.977   4.247  17.338 -1.4163 -0.3379 -0.6212
  223MPD1    C4 3387   2.969   4.284  17.202 -1.0498 -0.0220  0.6816
  223MPD1    C5 3388   2.867   4.363  17.152 -0.3653  0.0531  0.6476
  223MPD1     H 3389   2.902   4.293  17.536 -0.8121 -2.6493 -0.0738
  223MPD1    H1 3390   3.040   4.248  17.129 -0.1209  1.0134  1.0883
  223MPD1    H2 3391   2.684   4.442  17.190  0.9504  2.9274  1.4125
  223MPD1    H3 3392   2.846   4.390  17.049 -0.6131  0.5082  0.8175
  223MPD1     N 3393   3.063   4.152  17.391 -0.2311 -0.2281 -0.2388
  223MPD1    H5 3394   3.073   4.148  17.492 -0.4552  0.1419 -0.2015
  223MPD1    N1 3395   2.670   4.414  17.459 -0.3692 -0.0056 -0.4405
  223MPD1    H6 3396   2.586   4.432  17.404 -0.8276  1.1475  0.6328
  223MPD1    H7 3397   2.653   4.349  17.535 -2.8242  0.6632 -0.4268
  224MPD1     C 3398   4.204   0.591   9.072  0.1739 -0.1505 -0.1390
  224MPD1    C1 3399   4.081   0.627   9.119  0.2409  0.2735  0.5005
  224MPD1    C2 3400   4.036   0.566   9.237 -0.7215 -0.4915 -0.6531
  224MPD1    C3 3401   4.127   0.484   9.307  0.1044  0.2303 -0.9071
  224MPD1    C4 3402   4.255   0.459   9.255  0.2203  0.2096 -0.3326
  224MPD1    C5 3403   4.293   0.516   9.138 -0.3214 -0.0086  0.8060
  224MPD1     H 3404   3.931   0.569   9.263 -0.1412 -0.8513  1.7147
  224MPD1    H1 3405   4.332   0.407   9.310 -0.5851  1.1745  1.7036
  224MPD1    H2 3406   4.237   0.630   8.977 -1.0662  1.6612  0.1714
  224MPD1    H3 3407   4.397   0.506   9.108 -1.0754  1.7952 -2.3783
  224MPD1     N 3408   4.106   0.439   9.445  0.6458  0.2631  0.1659
  224MPD1    H5 3409   4.186   0.394   9.486  0.2004  1.1392  2.0057
  224MPD1    N1 3410   3.998   0.696   9.027  0.7590  0.2171  0.1970
  224MPD1    H6 3411   3.924   0.744   9.077 -2.2306 -2.4523 -1.6095
  224MPD1    H7 3412   4.052   0.759   8.969  0.7383  1.1048  1.1417
  225MPD1     C 3413   0.547   1.973  13.020 -0.5380 -0.5911 -0.7564
  225MPD1    C1 3414   0.638   1.923  12.930  0.2738  0.7992 -0.0375
  225MPD1    C2 3415   0.611   1.953  12.800  0.0653  0.5541 -0.3532
  225MPD1    C3 3416   0.500   2.029  12.759  0.2249 -0.7670  0.8823
  225MPD1    C4 3417   0.408   2.068  12.859  0.5680  0.4109 -0.2660
  225MPD1    C5 3418   0.434   2.040  12.992 -0.1279  0.2878  0.2724
  225MPD1     H 3419   0.684   1.921  12.727  1.1318  1.9043  0.1421
  225MPD1    H1 3420   0.314   2.112  12.827 -1.3505 -1.0130  3.4167
  225MPD1    H2 3421   0.563   1.953  13.125 -0.3231 -2.6758 -1.1961
  225MPD1    H3 3422   0.376   2.088  13.070  4.1132  1.3099  2.7565
  225MPD1     N 3423   0.459   2.042  12.627 -0.0834 -0.2294  0.6684
  225MPD1    H5 3424   0.375   2.095  12.611 -0.7965 -0.6654  2.9893
  225MPD1    N1 3425   0.764   1.878  12.969  0.0413 -0.2834  0.3913
  225MPD1    H6 3426   0.816   1.814  12.910  1.6596  1.1088  0.3021
  225MPD1    H7 3427   0.756   1.844  13.065 -0.0145 -2.9800 -0.5624
  226MPD1     C 3428   2.485   1.452   9.253  0.4388  0.5408  0.6304
  226MPD1    C1 3429   2.518   1.324   9.284  0.1779  0.0303 -0.7307
  226MPD1    C2 3430   2.649   1.300   9.328  0.0992  0.2915  0.1271
  226MPD1    C3 3431   2.743   1.401   9.342  0.3123  0.2846  0.8653
  226MPD1    C4 3432   2.698   1.533   9.323 -0.0865 -0.0028  0.2473
  226MPD1    C5 3433   2.573   1.553   9.271  0.0967 -0.3051 -0.2351
  226MPD1     H 3434   2.692   1.201   9.336 -1.8257 -0.3989  1.8205
  226MPD1    H1 3435   2.764   1.619   9.329  0.0143 -0.0117 -0.8178
  226MPD1    H2 3436   2.392   1.485   9.209 -0.0537  1.2519  2.1903
  226MPD1    H3 3437   2.535   1.654   9.263 -1.5870 -0.9995 -0.9179
  226MPD1     N 3438   2.884   1.371   9.369 -0.6057  0.1730  0.8192
  226MPD1    H5 3439   2.906   1.272   9.370  2.0435  0.7431 -3.1360
  226MPD1    N1 3440   2.441   1.220   9.245 -0.8889  1.0605  0.1074
  226MPD1    H6 3441   2.455   1.129   9.290  1.7112  0.7701 -1.2902
  226MPD1    H7 3442   2.344   1.242   9.224 -0.1430  2.6867 -1.5689
  227MPD1     C 3443   3.559   2.049   9.186 -0.5795 -0.7876 -1.4256
  227MPD1    C1 3444   3.425   2.048   9.215 -0.2573  0.6378  0.2610
  227MPD1    C2 3445   3.368   1.928   9.259 -0.4322 -0.5970 -0.2365
  227MPD1    C3 3446   3.444   1.821   9.282 -0.1322 -0.3197  0.3290
  227MPD1    C4 3447   3.582   1.826   9.270 -0.3796  0.1201  0.2901
  227MPD1    C5 3448   3.636   1.940   9.210  0.1781  0.4921 -0.3234
  227MPD1     H 3449   3.261   1.921   9.274 -0.6420  1.2727 -0.8788
  227MPD1    H1 3450   3.643   1.739   9.292 -1.0860 -0.5174 -0.2785
  227MPD1    H2 3451   3.606   2.142   9.155  0.2337 -2.0827 -4.1029
  227MPD1    H3 3452   3.743   1.949   9.196  0.6633 -1.2811  2.1403
  227MPD1     N 3453   3.389   1.697   9.318 -0.0202  0.3380  0.3664
  227MPD1    H5 3454   3.289   1.690   9.298 -0.4036  2.3077  1.5414
  227MPD1    N1 3455   3.336   2.150   9.176 -0.2432  0.2996 -0.1410
  227MPD1    H6 3456   3.258   2.151   9.242 -1.3313 -1.0246 -1.4314
  227MPD1    H7 3457   3.383   2.241   9.175 -1.6484  1.0192 -0.3652
  228MPD1     C 3458   2.229   0.068  13.118 -0.1303 -0.2793 -0.1667
  228MPD1    C1 3459   2.099   0.076  13.075 -0.4302 -0.0212  0.4829
  228MPD1    C2 3460   2.014   4.688  13.101  0.2390 -0.5770  0.2424
  228MPD1    C3 3461   2.050   4.577  13.180  0.0146  0.0181  0.1732
  228MPD1    C4 3462   2.181   4.582  13.229  0.1516  0.1231  0.4061
  228MPD1    C5 3463   2.272   4.682  13.196 -0.5537  0.4467  0.6677
  228MPD1     H 3464   1.912   4.699  13.065  0.7080  1.0018 -0.6223
  228MPD1    H1 3465   2.217   4.491  13.277  0.0955  0.5950  1.3229
  228MPD1    H2 3466   2.311   0.136  13.096  0.7332 -0.9490  0.9835
  228MPD1    H3 3467   2.369   4.678  13.243 -0.5190  2.1805  0.7355
  228MPD1     N 3468   1.950   4.471  13.210  0.6053 -0.5662 -0.2010
  228MPD1    H5 3469   1.860   4.481  13.164 -0.9275  0.7217  3.0522
  228MPD1    N1 3470   2.053   0.199  13.020 -0.2615 -0.8055  0.0954
  228MPD1    H6 3471   1.990   0.194  12.940 -1.3059  2.3684  0.6994
  228MPD1    H7 3472   2.123   0.270  12.999 -1.8462  0.5061 -0.7514
  229MPD1     C 3473   1.536   3.318  15.210 -0.1211 -0.8312  0.6352
  229MPD1    C1 3474   1.620   3.372  15.108  0.4997  0.2819 -0.0811
  229MPD1    C2 3475   1.757   3.348  15.114  0.1105 -1.1071 -0.1105
  229MPD1    C3 3476   1.808   3.291  15.229  0.1035  0.4782 -0.3289
  229MPD1    C4 3477   1.722   3.262  15.335  0.5349 -0.2223 -0.0861
  229MPD1    C5 3478   1.589   3.274  15.325 -1.2530  0.0976  0.0484
  229MPD1     H 3479   1.820   3.374  15.030  0.4753 -1.9802 -0.1126
  229MPD1    H1 3480   1.763   3.223  15.428 -2.3339 -1.6766  0.5905
  229MPD1    H2 3481   1.430   3.333  15.195  0.3204  0.3293 -1.4570
  229MPD1    H3 3482   1.524   3.245  15.406 -2.8226 -0.7348 -1.5093
  229MPD1     N 3483   1.940   3.264  15.255 -0.0872  0.6811 -0.3009
  229MPD1    H5 3484   1.970   3.222  15.343  0.7688 -0.2070 -1.0261
  229MPD1    N1 3485   1.559   3.439  15.001  0.8777  0.2570 -0.1450
  229MPD1    H6 3486   1.617   3.512  14.961 -1.1024  0.3943 -2.8049
  229MPD1    H7 3487   1.477   3.496  15.023  0.4247  0.2395 -1.7900
  230MPD1     C 3488   2.122   2.448  15.415  0.2487 -0.3610 -0.0124
  230MPD1    C1 3489   2.033   2.514  15.329 -0.1524 -0.1744  0.4419
  230MPD1    C2 3490   2.068   2.645  15.298  0.0526 -0.5716  0.2304
  230MPD1    C3 3491   2.175   2.717  15.351  0.3268 -0.5183 -0.0201
  230MPD1    C4 3492   2.245   2.651  15.454 -0.0507  0.4441 -0.0160
  230MPD1    C5 3493   2.218   2.519  15.478 -0.3149  0.1880  0.8005
  230MPD1     H 3494   2.012   2.694  15.219  0.0671 -2.4378 -0.9629
  230MPD1    H1 3495   2.328   2.698  15.504 -0.4127 -0.1373  1.1238
  230MPD1    H2 3496   2.104   2.343  15.438 -0.3250  0.9200  5.2083
  230MPD1    H3 3497   2.288   2.477  15.550  1.1863  1.7564  0.2688
  230MPD1     N 3498   2.194   2.845  15.307 -0.0423  0.0924  0.4052
  230MPD1    H5 3499   2.131   2.877  15.235 -1.3144 -1.4537  0.8360
  230MPD1    N1 3500   1.923   2.447  15.274  0.2868  0.1642  0.4326
  230MPD1    H6 3501   1.904   2.352  15.303 -0.7206 -0.2063 -1.3891
  230MPD1    H7 3502   1.840   2.507  15.273 -0.6858 -1.1966 -1.2107
  231MPD1     C 3503   0.179   0.686  14.702 -0.3263 -0.4942  0.7595
  231MPD1    C1 3504   0.245   0.588  14.636 -0.1422 -0.9132  0.2092
  231MPD1    C2 3505   0.325   0.506  14.714 -0.0500 -0.4209 -0.3781
  231MPD1    C3 3506   0.381   0.556  14.837 -0.3695 -0.7379  0.4382
  231MPD1    C4 3507   0.323   0.667  14.891 -0.5750  0.6474  0.5232
  231MPD1    C5 3508   0.227   0.729  14.821  0.0427  0.6123  0.9483
  231MPD1     H 3509   0.360   0.416  14.665  0.8183 -0.7998  0.9292
  231MPD1    H1 3510   0.356   0.724  14.977 -2.1441  0.2596  1.4040
  231MPD1    H2 3511   0.113   0.750  14.645  0.7839  0.0055  0.0424
  231MPD1    H3 3512   0.191   0.827  14.852 -0.7466  0.8511 -0.6991
  231MPD1     N 3513   0.493   0.498  14.889  0.8388 -0.1905 -0.4892
  231MPD1    H5 3514   0.518   0.408  14.850  1.3619  0.4463 -1.6112
  231MPD1    N1 3515   0.196   0.546  14.511  0.1181  0.0378  0.3164
  231MPD1    H6 3516   0.266   0.491  14.461  1.4681  0.6255  1.5761
  231MPD1    H7 3517   0.169   0.631  14.462 -0.4164 -0.5226 -0.3736
  232MPD1     C 3518   2.364   2.208   0.212 -0.4181 -0.1706  0.3020
  232MPD1    C1 3519   2.334   2.345   0.202  0.3206 -0.1998 -0.3576
  232MPD1    C2 3520   2.277   2.404   0.310 -0.2987  0.1957  0.0213
  232MPD1    C3 3521   2.267   2.334   0.431  0.3037 -0.1455 -0.3589
  232MPD1    C4 3522   2.317   2.211   0.447 -0.2955 -0.0544  0.6721
  232MPD1    C5 3523   2.362   2.145   0.335 -0.1599  0.6853  0.2762
  232MPD1     H 3524   2.242   2.506   0.305  0.6561  0.5487  0.5330
  232MPD1    H1 3525   2.309   2.157   0.540  0.3467  1.6306  1.6929
  232MPD1    H2 3526   2.400   2.152   0.126  1.4416  1.2779  0.1245
  232MPD1    H3 3527   2.404   2.045   0.333  0.8701  1.1079  0.6794
  232MPD1     N 3528   2.214   2.407   0.537 -0.0678 -0.0942  0.1464
  232MPD1    H5 3529   2.188   2.503   0.514  3.4203  0.8065  0.0420
  232MPD1    N1 3530   2.337   2.404   0.073  0.1223 -0.0528  0.2911
  232MPD1    H6 3531   2.405   2.372   0.005  0.5616 -1.2784  1.2999
  232MPD1    H7 3532   2.330   2.505   0.075 -2.0871 -0.1291 -3.4589
  233MPD1     C 3533   0.880   3.862   0.304 -0.3994  0.4963 -0.2943
  233MPD1    C1 3534   0.867   3.987   0.241  0.0713 -0.7368 -0.1052
  233MPD1    C2 3535   0.869   4.096   0.331  0.2916  0.3966 -0.5202
  233MPD1    C3 3536   0.892   4.088   0.465 -0.3614  0.6565  0.4136
  233MPD1    C4 3537   0.920   3.967   0.518 -0.5751  0.2773  0.6844
  233MPD1    C5 3538   0.910   3.853   0.442  0.1833  0.3002 -0.0989
  233MPD1     H 3539   0.868   4.190   0.278 -1.0015  0.5517 -0.2134
  233MPD1    H1 3540   0.948   3.956   0.623 -0.4071 -0.8124  0.5259
  233MPD1    H2 3541   0.895   3.768   0.252 -3.5329  0.1244 -0.5057
  233MPD1    H3 3542   0.939   3.754   0.474 -0.1425 -0.1721 -1.2473
  233MPD1     N 3543   0.896   4.193   0.558  0.2579 -0.2682 -0.1621
  233MPD1    H5 3544   0.917   4.168   0.654 -1.1297  2.3368  0.8234
  233MPD1    N1 3545   0.873   4.002   0.100 -0.3092 -0.6007 -0.0256
  233MPD1    H6 3546   0.829   3.927   0.048  0.2045 -0.1695 -1.0780
  233MPD1    H7 3547   0.839   4.088   0.059 -1.6019 -0.0892  2.1199
  234MPD1     C 3548   0.490   3.963   9.171 -0.5945 -0.3198 -0.2217
  234MPD1    C1 3549   0.360   3.967   9.156 -0.6083 -0.7225 -0.1324
  234MPD1    C2 3550   0.286   4.070   9.205  0.5279 -0.0718 -0.5422
  234MPD1    C3 3551   0.346   4.175   9.279  0.7080  0.6976  0.3192
  234MPD1    C4 3552   0.480   4.160   9.304 -0.2099  0.1380  0.5128
  234MPD1    C5 3553   0.549   4.056   9.241 -0.2633  0.0729  0.0707
  234MPD1     H 3554   0.178   4.071   9.194  0.3277  3.0453  1.6949
  234MPD1    H1 3555   0.536   4.227   9.369  0.6657 -0.6927  0.6212
  234MPD1    H2 3556   0.545   3.882   9.127 -0.6425 -1.2213  1.3935
  234MPD1    H3 3557   0.655   4.048   9.262  0.1026 -0.2905 -1.9250
  234MPD1     N 3558   0.263   4.292   9.315  0.2368 -0.4079  0.6284
  234MPD1    H5 3559   0.164   4.282   9.298  0.3479 -2.7553  1.3452
  234MPD1    N1 3560   0.297   3.875   9.065  0.3408  0.1679 -0.9851
  234MPD1    H6 3561   0.349   3.796   9.027 -0.5273 -0.5917 -0.5814
  234MPD1    H7 3562   0.197   3.859   9.075  0.8695 -1.1453  2.1326
  235MPD1     C 3563   0.693   2.061  10.239 -0.3165  0.5078  0.6277
  235MPD1    C1 3564   0.743   2.122  10.129 -0.1159  0.0654 -0.1015
  235MPD1    C2 3565   0.813   2.241  10.145 -0.1028 -0.6507  0.6186
  235MPD1    C3 3566   0.831   2.296  10.270  0.4709 -0.2447 -0.5580
  235MPD1    C4 3567   0.784   2.233  10.377  0.6624  0.3714 -0.2477
  235MPD1    C5 3568   0.713   2.118  10.358  0.6960 -0.2623  0.0952
  235MPD1     H 3569   0.868   2.288  10.065 -1.9706 -2.1066 -1.5397
  235MPD1    H1 3570   0.786   2.272  10.479  0.7723 -1.7669  0.5742
  235MPD1    H2 3571   0.643   1.965  10.239 -0.5797  0.6377 -2.1700
  235MPD1    H3 3572   0.660   2.078  10.444 -1.9316 -0.0577 -1.4283
  235MPD1     N 3573   0.913   2.411  10.279 -0.3716  0.2479 -0.6121
  235MPD1    H5 3574   0.948   2.458  10.196  1.2899 -1.4151 -0.8581
  235MPD1    N1 3575   0.750   2.051  10.017  0.2998  0.1402  0.0903
  235MPD1    H6 3576   0.774   2.113   9.940 -0.2812  1.1348  0.7123
  235MPD1    H7 3577   0.661   2.002  10.005  1.6748 -2.2063 -0.3644
  236MPD1     C 3578   0.944   3.859  10.318  0.3966 -0.7852  0.0479
  236MPD1    C1 3579   1.002   3.756  10.383 -0.5738 -0.0595  0.9151
  236MPD1    C2 3580   0.920   3.649  10.416 -0.8824 -1.0178 -0.3282
  236MPD1    C3 3581   0.791   3.641  10.363 -0.6418  0.3586  0.3561
  236MPD1    C4 3582   0.736   3.731  10.279 -0.0691 -0.7866  0.3460
  236MPD1    C5 3583   0.813   3.844  10.267  0.2569  0.5055  0.3509
  236MPD1     H 3584   0.957   3.573  10.483 -2.9774 -0.9085  0.9452
  236MPD1    H1 3585   0.648   3.716  10.218 -1.5069  2.6595  1.6154
  236MPD1    H2 3586   1.005   3.941  10.282 -0.0853  0.4792  2.1326
  236MPD1    H3 3587   0.775   3.924  10.206  0.5622  0.5531  0.2263
  236MPD1     N 3588   0.715   3.527  10.401 -0.1934 -0.7378 -0.1081
  236MPD1    H5 3589   0.630   3.522  10.347 -1.4533  0.9949  1.7580
  236MPD1    N1 3590   1.124   3.770  10.442  0.6608 -0.1559 -0.1881
  236MPD1    H6 3591   1.177   3.826  10.376  1.3350 -2.2194 -1.3772
  236MPD1    H7 3592   1.160   3.675  10.448  1.8264  0.3904  1.5249
  237MPD1     C 3593   1.331   1.591  15.697 -0.1251 -0.1838  0.2526
  237MPD1    C1 3594   1.251   1.543  15.594  0.3504 -0.0704 -0.0938
  237MPD1    C2 3595   1.123   1.600  15.578  0.0133 -0.0998 -0.1385
  237MPD1    C3 3596   1.084   1.712  15.644  0.3543  0.0738 -0.0709
  237MPD1    C4 3597   1.169   1.763  15.738  0.3171  0.3933 -0.0814
  237MPD1    C5 3598   1.285   1.698  15.769  0.3089  0.4051 -0.2810
  237MPD1     H 3599   1.063   1.558  15.498  2.0219 -0.1014 -1.6522
  237MPD1    H1 3600   1.146   1.850  15.798  1.3758 -1.0483  2.4192
  237MPD1    H2 3601   1.421   1.537  15.724 -0.4029 -1.2982 -1.0272
  237MPD1    H3 3602   1.336   1.735  15.858 -0.4587  0.9422 -0.0619
  237MPD1     N 3603   0.952   1.766  15.634  0.2639  0.1114 -0.1960
  237MPD1    H5 3604   0.924   1.834  15.704  1.3334  0.2197  0.1236
  237MPD1    N1 3605   1.289   1.435  15.515  0.0670 -0.1064 -0.9231
  237MPD1    H6 3606   1.385   1.402  15.526  0.0817  0.3339  0.2820
  237MPD1    H7 3607   1.265   1.448  15.417  1.6475 -0.4187 -1.3610
  238MPD1     C 3608   2.731   0.041  15.414  0.5156  0.4707 -0.5513
  238MPD1    C1 3609   2.725   0.176  15.431 -0.5179 -0.6582  0.9202
  238MPD1    C2 3610   2.649   0.252  15.346  0.1192 -0.1153  0.0703
  238MPD1    C3 3611   2.548   0.188  15.274 -0.6246  0.0768 -0.0352
  238MPD1    C4 3612   2.552   0.048  15.260  0.6708  0.1255  0.2570
  238MPD1    C5 3613   2.640   4.696  15.337 -0.2916 -0.0784  0.7460
  238MPD1     H 3614   2.657   0.360  15.348  0.6673 -0.1558 -0.0405
  238MPD1    H1 3615   2.484   0.002  15.189 -0.6439  0.9609  0.9778
  238MPD1    H2 3616   2.795   4.695  15.470 -0.5409  0.2863  0.4407
  238MPD1    H3 3617   2.649   4.589  15.323 -0.7333  0.0864 -0.7748
  238MPD1     N 3618   2.452   0.256  15.193 -0.0267 -0.2328 -0.4656
  238MPD1    H5 3619   2.386   0.200  15.140  1.3608 -0.6035 -1.7857
  238MPD1    N1 3620   2.828   0.229  15.506  0.0824  0.3372 -0.4687
  238MPD1    H6 3621   2.856   0.175  15.587  0.2334  0.6612 -0.3063
  238MPD1    H7 3622   2.797   0.316  15.548  0.2475 -0.1949  0.7594
  239MPD1     C 3623   3.355   1.225  14.620 -0.0487 -0.1957  0.3789
  239MPD1    C1 3624   3.228   1.247  14.654 -0.2220  0.9677 -0.2417
  239MPD1    C2 3625   3.142   1.280  14.555  0.0195 -1.4534  0.0518
  239MPD1    C3 3626   3.176   1.265  14.419  0.5136  0.1334  0.5137
  239MPD1    C4 3627   3.302   1.225  14.391 -0.4064  0.9374  0.1912
  239MPD1    C5 3628   3.391   1.221  14.491  0.2810  1.0777 -0.6445
  239MPD1     H 3629   3.051   1.332  14.581  0.0479 -0.7445 -1.2569
  239MPD1    H1 3630   3.346   1.211  14.293  0.8631 -0.1024  0.9069
  239MPD1    H2 3631   3.430   1.203  14.695 -0.3323 -0.5286  0.5631
  239MPD1    H3 3632   3.496   1.206  14.470 -0.0938 -0.2390 -1.6048
  239MPD1     N 3633   3.088   1.302  14.310 -0.1409 -0.2567 -0.3244
  239MPD1    H5 3634   3.134   1.299  14.219 -1.4252 -0.0739 -0.9735
  239MPD1    N1 3635   3.198   1.269  14.793 -0.1468 -0.2562  0.7008
  239MPD1    H6 3636   3.260   1.207  14.844  1.0903  0.2171 -0.2319
  239MPD1    H7 3637   3.103   1.235  14.803 -0.0936 -1.0400 -1.3534
  240MPD1     C 3638   2.265   1.260  14.037  0.3844  0.2482 -0.3141
  240MPD1    C1 3639   2.156   1.184  14.000 -0.1461 -0.6665  0.6032
  240MPD1    C2 3640   2.077   1.135  14.103 -0.0089 -0.3272 -0.4446
  240MPD1    C3 3641   2.121   1.151  14.237 -0.6120 -0.8351 -0.2471
  240MPD1    C4 3642   2.230   1.230  14.269 -0.3534 -0.3420 -0.2216
  240MPD1    C5 3643   2.289   1.291  14.169 -0.5926  0.1433  0.0811
  240MPD1     H 3644   1.986   1.079  14.081 -0.8911  1.1970 -0.7171
  240MPD1    H1 3645   2.276   1.250  14.365  1.0468  0.2963 -1.0372
  240MPD1    H2 3646   2.340   1.286  13.963 -1.6038  1.5774 -1.8533
  240MPD1    H3 3647   2.386   1.336  14.186 -0.7539  0.3284  0.5057
  240MPD1     N 3648   2.061   1.077  14.342  0.8188 -0.2025 -0.3167
  240MPD1    H5 3649   1.969   1.038  14.323  2.5296 -3.6560 -1.5111
  240MPD1    N1 3650   2.155   1.116  13.871 -0.0426 -0.0162 -0.0811
  240MPD1    H6 3651   2.197   1.180  13.803 -1.3970  1.0827  0.1236
  240MPD1    H7 3652   2.062   1.087  13.842  0.9127 -1.2652 -1.9383
  241MPD1     C 3653   2.283   1.068  15.311 -0.0763  0.5075 -0.2738
  241MPD1    C1 3654   2.206   0.952  15.291 -1.1570  0.0629 -0.3730
  241MPD1    C2 3655   2.155   0.919  15.174  0.1315 -0.6030  0.0449
  241MPD1    C3 3656   2.170   1.005  15.066  0.7891 -0.1849  0.4573
  241MPD1    C4 3657   2.234   1.126  15.083  0.0376  1.0447 -0.2384
  241MPD1    C5 3658   2.286   1.161  15.209  0.4100  0.1730  0.2343
  241MPD1     H 3659   2.092   0.832  15.164  0.7155 -1.0416  0.1996
  241MPD1    H1 3660   2.251   1.194  15.001 -1.8881  0.1666 -1.3631
  241MPD1    H2 3661   2.336   1.097  15.401  1.2548  0.1512 -0.9358
  241MPD1    H3 3662   2.347   1.249  15.225  2.9705 -1.2474 -1.6186
  241MPD1     N 3663   2.127   0.972  14.936 -0.3332  0.0401  0.6848
  241MPD1    H5 3664   2.141   1.043  14.864  3.1926 -2.0511 -0.7033
  241MPD1    N1 3665   2.201   0.850  15.392  0.4263  0.5220 -0.3647
  241MPD1    H6 3666   2.116   0.794  15.396  0.0258  1.1507  0.0083
  241MPD1    H7 3667   2.214   0.895  15.482  1.9695  1.5063 -1.0706
  242MPD1     C 3668   1.395   4.327  15.751  0.1128  0.0159 -0.1926
  242MPD1    C1 3669   1.300   4.270  15.670  0.2311  0.5092  0.6925
  242MPD1    C2 3670   1.345   4.169  15.587 -0.5307  0.1852  0.4332
  242MPD1    C3 3671   1.480   4.133  15.581  0.7930 -0.1100  0.5074
  242MPD1    C4 3672   1.568   4.197  15.659 -0.6483  0.5025 -0.1087
  242MPD1    C5 3673   1.527   4.293  15.751  0.3314 -0.4790  0.0186
  242MPD1     H 3674   1.276   4.112  15.527  0.8599 -0.5563 -0.4760
  242MPD1    H1 3675   1.673   4.173  15.675 -0.7536 -0.4618 -0.9204
  242MPD1    H2 3676   1.367   4.392  15.834  0.4443  0.0119 -0.0771
  242MPD1    H3 3677   1.596   4.329  15.826  1.9427 -0.9712 -1.2359
  242MPD1     N 3678   1.536   4.030  15.499  0.0031  0.5645  0.3781
  242MPD1    H5 3679   1.635   4.011  15.511 -0.0259  0.4639  0.4545
  242MPD1    N1 3680   1.166   4.290  15.699 -0.1617  0.3715 -0.2324
  242MPD1    H6 3681   1.106   4.267  15.620 -1.0773 -1.6507  1.0563
  242MPD1    H7 3682   1.143   4.383  15.732 -2.0838 -0.6061  1.1870
  243MPD1     C 3683   4.469   2.464  17.214  0.2652  0.0439 -0.1055
  243MPD1    C1 3684   4.428   2.528  17.101 -0.2919 -1.3920 -0.1954
  243MPD1    C2 3685   4.295   2.553  17.095 -0.1201 -0.0597 -0.0044
  243MPD1    C3 3686   4.197   2.504  17.181  0.4856 -0.1206 -0.3759
  243MPD1    C4 3687   4.236   2.415  17.279 -0.2900  0.6140  1.1414
  243MPD1    C5 3688   4.368   2.408  17.299 -0.4663 -0.1582  0.3789
  243MPD1     H 3689   4.256   2.614  17.014 -1.3669 -0.6627  0.1440
  243MPD1    H1 3690   4.168   2.359  17.343  0.5032 -1.4343  0.2063
  243MPD1    H2 3691   4.574   2.455  17.241  0.2629 -0.2951 -0.2116
  243MPD1    H3 3692   4.409   2.360  17.388 -1.6437  1.3282  1.7167
  243MPD1     N 3693   4.066   2.531  17.148  0.6221  0.1510 -0.0387
  243MPD1    H5 3694   4.055   2.592  17.067  1.0043 -1.6130 -1.4143
  243MPD1    N1 3695   4.516   2.594  17.011 -0.3006 -0.7451 -0.9587
  243MPD1    H6 3696   4.602   2.539  17.007 -0.3266 -0.7916 -0.8794
  243MPD1    H7 3697   4.466   2.607  16.924 -0.8433 -0.1367 -0.5587
  244MPD1     C 3698   3.320   2.860  17.630  0.4995 -0.3946 -0.0242
  244MPD1    C1 3699   3.366   2.734  17.654 -0.2881 -0.1892  0.0974
  244MPD1    C2 3700   3.411   2.659  17.549 -0.1110  0.5157 -0.6793
  244MPD1    C3 3701   3.426   2.709  17.418  0.3819 -0.5080 -0.2572
  244MPD1    C4 3702   3.378   2.837  17.397  0.0963 -0.0566 -0.0414
  244MPD1    C5 3703   3.323   2.907  17.498  0.0871 -1.0004 -0.1069
  244MPD1     H 3704   3.448   2.558  17.567 -0.1859  0.5565 -0.2846
  244MPD1    H1 3705   3.391   2.881  17.299 -0.5713 -1.1721 -0.6314
  244MPD1    H2 3706   3.282   2.925   0.022 -2.3159 -0.9284 -0.9532
  244MPD1    H3 3707   3.288   3.007  17.473  1.4115 -0.5344 -0.1082
  244MPD1     N 3708   3.492   2.630  17.323 -0.2151  0.4886 -0.0099
  244MPD1    H5 3709   3.529   2.543  17.362 -0.4345  1.6101  2.6545
  244MPD1    N1 3710   3.351   2.686   0.097 -0.8274  0.1486  0.3016
  244MPD1    H6 3711   3.411   2.606   0.115 -2.7467 -1.7274 -1.6401
  244MPD1    H7 3712   3.361   2.751   0.175  0.7339  0.0891  0.1471
  245MPD1     C 3713   0.371   3.176  13.160  0.2029 -0.0033  0.3968
  245MPD1    C1 3714   0.506   3.178  13.153 -0.6660  0.1292 -0.4636
  245MPD1    C2 3715   0.572   3.271  13.232  0.2131 -0.4438  0.3692
  245MPD1    C3 3716   0.491   3.371  13.299  0.4214  0.7107 -0.3113
  245MPD1    C4 3717   0.354   3.365  13.295  0.2614 -0.1776 -0.3778
  245MPD1    C5 3718   0.291   3.270  13.212  0.9148 -0.6564  0.1139
  245MPD1     H 3719   0.680   3.269  13.242  0.3810 -0.6092 -1.4685
  245MPD1    H1 3720   0.296   3.439  13.349 -0.8682 -2.7964  2.0238
  245MPD1    H2 3721   0.318   3.094  13.113 -0.4012  0.5762  0.0745
  245MPD1    H3 3722   0.183   3.263  13.212  1.0099 -2.1921 -0.2847
  245MPD1     N 3723   0.565   3.480  13.361 -0.0937 -0.3122 -0.2000
  245MPD1    H5 3724   0.666   3.488  13.349 -0.0012 -1.3340 -0.0645
  245MPD1    N1 3725   0.574   3.070  13.096  0.3469  0.2608  0.3321
  245MPD1    H6 3726   0.669   3.086  13.062  0.6804 -2.3297  0.0400
  245MPD1    H7 3727   0.520   3.027  13.021  0.5395 -1.5149  1.1993
  246MPD1     C 3728   3.485   3.125   9.162 -0.1414 -0.2327  0.6688
  246MPD1    C1 3729   3.563   3.009   9.152 -0.2116 -0.3346 -0.8899
  246MPD1    C2 3730   3.698   3.027   9.146 -0.0150  0.2620  0.5469
  246MPD1    C3 3731   3.760   3.155   9.161  0.1375  0.1468  0.7307
  246MPD1    C4 3732   3.684   3.269   9.175 -0.3886  0.1484  0.4834
  246MPD1    C5 3733   3.550   3.248   9.181 -1.0123 -0.5800  0.5718
  246MPD1     H 3734   3.758   2.939   9.127 -0.6653  0.7870 -3.9878
  246MPD1    H1 3735   3.733   3.354   9.220  0.6837 -1.2790  2.0178
  246MPD1    H2 3736   3.376   3.127   9.166 -0.2082 -0.7430 -0.9321
  246MPD1    H3 3737   3.495   3.336   9.210 -0.9832 -0.3092 -0.1984
  246MPD1     N 3738   3.899   3.151   9.169  0.0421 -0.3998 -0.2899
  246MPD1    H5 3739   3.946   3.061   9.173 -0.0306 -0.3890  0.8874
  246MPD1    N1 3740   3.504   2.882   9.142 -0.0678  0.3091  0.4541
  246MPD1    H6 3741   3.576   2.810   9.150 -1.8385 -1.4589  0.5929
  246MPD1    H7 3742   3.424   2.870   9.204  0.0882 -0.3047  0.5316
  247MPD1     C 3743   4.506   2.758  15.925  0.5139 -0.0278 -0.0590
  247MPD1    C1 3744   4.584   2.773  16.030  0.5198  0.1630  0.8354
  247MPD1    C2 3745   4.718   2.787  16.013  0.2955  0.0702 -0.1350
  247MPD1    C3 3746   0.059   2.789  15.887  0.1623  0.3181 -0.5256
  247MPD1    C4 3747   4.696   2.798  15.781  0.0551 -0.7875  0.0440
  247MPD1    C5 3748   4.560   2.778  15.798  0.0503 -0.0614  0.5272
  247MPD1     H 3749   0.060   2.793  16.101 -2.1133  2.0506  1.4408
  247MPD1    H1 3750   0.003   2.822  15.679 -0.9070 -0.7200 -0.1924
  247MPD1    H2 3751   4.398   2.743  15.931  0.6123 -1.0888 -1.0196
  247MPD1    H3 3752   4.485   2.791  15.721  0.7301  0.6859  0.0017
  247MPD1     N 3753   0.195   2.795  15.862 -1.1977 -0.1000  0.2125
  247MPD1    H5 3754   0.219   2.801  15.763 -1.5644 -0.3482  0.1062
  247MPD1    N1 3755   4.518   2.794  16.153 -0.2637 -0.1163  0.1114
  247MPD1    H6 3756   4.436   2.734  16.161  0.4654 -1.3053 -1.2998
  247MPD1    H7 3757   4.569   2.788  16.241  0.8934  0.0422 -0.5532
  248MPD1     C 3758   0.421   2.942   0.378  0.4760 -0.4027  0.3201
  248MPD1    C1 3759   0.317   2.871   0.423  1.1126  0.4398 -0.0396
  248MPD1    C2 3760   0.199   2.885   0.352  0.2272 -0.3354  0.2949
  248MPD1    C3 3761   0.192   2.972   0.249 -0.0962 -0.5885  0.4038
  248MPD1    C4 3762   0.301   3.053   0.212  0.5837 -0.8162  0.5934
  248MPD1    C5 3763   0.412   3.035   0.280  0.5730 -0.0717  0.4644
  248MPD1     H 3764   0.107   2.833   0.377  0.4255 -1.8093 -2.0028
  248MPD1    H1 3765   0.310   3.121   0.128 -2.1072  0.0615  1.0217
  248MPD1    H2 3766   0.517   2.934   0.428  0.8389  0.7273 -0.2055
  248MPD1    H3 3767   0.494   3.102   0.257 -0.8475  0.6322 -2.6309
  248MPD1     N 3768   0.071   2.985   0.178 -0.3321  0.2214 -0.3254
  248MPD1    H5 3769   0.003   2.910   0.192  0.9894 -1.0337 -0.6500
  248MPD1    N1 3770   0.329   2.765   0.517  0.3097 -0.3772 -0.1020
  248MPD1    H6 3771   0.261   2.769   0.592  1.1231 -1.9096  0.7187
  248MPD1    H7 3772   0.424   2.755   0.553  0.3278 -0.4376 -0.1667
  249MPD1     C 3773   1.466   1.965  10.357  0.5793 -0.0193  0.3225
  249MPD1    C1 3774   1.503   2.097  10.340 -0.3232 -0.4104  0.4776
  249MPD1    C2 3775   1.540   2.145  10.213 -0.7434  0.3329  0.0047
  249MPD1    C3 3776   1.506   2.065  10.103  0.4839  0.4257  0.2435
  249MPD1    C4 3777   1.464   1.933  10.125 -0.2999  0.1189  0.1262
  249MPD1    C5 3778   1.445   1.885  10.249 -0.1593  0.3035  0.2099
  249MPD1     H 3779   1.585   2.242  10.195  1.7136 -0.7583  0.3098
  249MPD1    H1 3780   1.455   1.866  10.040  2.4031 -0.3183  0.1679
  249MPD1    H2 3781   1.435   1.935  10.457  0.3004  3.4605  1.3059
  249MPD1    H3 3782   1.409   1.783  10.257 -0.7060  0.3937 -1.1396
  249MPD1     N 3783   1.537   2.112   9.975  0.6811 -0.3907 -0.2792
  249MPD1    H5 3784   1.584   2.201   9.986 -0.5504  0.4999 -2.2461
  249MPD1    N1 3785   1.553   2.171  10.456  0.7981  0.1296 -0.1909
  249MPD1    H6 3786   1.513   2.144  10.546  3.1992 -1.4703  0.3885
  249MPD1    H7 3787   1.559   2.272  10.447  0.5334  0.1180 -0.5244
  250MPD2     C 3788   3.518   1.447  12.815 -0.2801 -0.1891  0.0227
  250MPD2    C1 3789   3.432   1.553  12.838 -0.5318 -0.5964  0.2205
  250MPD2    C2 3790   3.299   1.536  12.796 -0.4350 -0.5587 -0.0730
  250MPD2    C3 3791   3.252   1.426  12.726 -0.1454  0.8750 -0.3862
  250MPD2    C4 3792   3.344   1.326  12.702 -0.6270  0.7938  0.1406
  250MPD2    C5 3793   3.469   1.328  12.760  0.4306 -0.0692 -0.2635
  250MPD2     H 3794   3.228   1.616  12.815 -1.8571 -2.2015  1.5767
  250MPD2    H1 3795   3.316   1.235  12.650 -0.9031  1.9290 -1.7115
  250MPD2    H2 3796   3.621   1.461  12.843 -0.3266  0.3559 -0.0670
  250MPD2    H3 3797   3.531   1.240  12.756 -0.2975 -0.5687 -0.5723
  250MPD2     N 3798   3.129   1.414  12.657  0.2998 -0.2115  0.7035
  250MPD2    H5 3799   3.120   1.326  12.608 -0.2098 -1.1068  2.3974
  250MPD2    N1 3800   3.471   1.668  12.914 -0.5896 -0.1105  0.4120
  250MPD2    H7 3801   3.569   1.667  12.937 -0.5301 -1.4099  0.1255
  251TMC3    C1 3802   3.483   1.877  13.018 -0.7813  0.1050  0.0657
  251TMC3    C2 3803   3.438   2.007  13.021  0.3734  0.2071 -0.6671
  251TMC3    C3 3804   3.528   2.107  13.072  0.2475  0.4003 -0.0433
  251TMC3    C4 3805   3.605   1.851  13.065  0.2564 -0.4968 -0.7342
  251TMC3    C5 3806   3.683   1.948  13.128  0.2206 -0.1146 -0.0044
  251TMC3    C6 3807   3.635   2.072  13.148 -0.1167  0.3756  0.1253
  251TMC3     C 3808   3.407   1.786  12.935  0.2835 -0.1216  0.3890
  251TMC3     O 3809   3.290   1.810  12.918 -0.2901 -0.0674  0.3229
  251TMC3     H 3810   3.343   2.041  12.981 -0.4218 -0.1498  0.8995
  251TMC3    H1 3811   3.641   1.750  13.054  0.0308 -0.6052 -0.4619
  251TMC3    H2 3812   3.703   2.148  13.183 -1.3453  2.5198 -2.1401
  251TMC3    C7 3813   3.812   1.916  13.190  0.0821  0.8616  0.5426
  251TMC3    C8 3814   3.460   2.229  13.119 -0.4084 -0.4095 -0.5905
  251TMC3    O1 3815   3.855   1.981  13.286 -0.0946  0.1205  0.0697
  251TMC3    O2 3816   3.493   2.267  13.230 -0.3378 -0.3098 -0.1465
  252TMC3    C1 3817   3.710   2.008   9.526  0.7267  0.6667 -0.0306
  252TMC3    C2 3818   3.690   2.130   9.476  0.4101  0.3391  1.0041
  252TMC3    C3 3819   3.574   2.185   9.518 -0.3712 -0.9755  0.2954
  252TMC3    C4 3820   3.610   1.936   9.582  0.1038 -0.4135 -0.2967
  252TMC3    C5 3821   3.488   1.999   9.607 -0.3973 -0.9904  0.2978
  252TMC3    C6 3822   3.468   2.127   9.579 -0.2045 -0.2198  0.1913
  252TMC3     C 3823   3.851   1.959   9.501  0.1174 -0.4994 -0.1897
  252TMC3     O 3824   3.935   2.038   9.460 -0.0460  0.5569 -0.0272
  252TMC3     H 3825   3.762   2.200   9.434 -1.6498  1.5176 -0.5774
  252TMC3    H1 3826   3.627   1.844   9.637  1.3102  0.2641  0.4693
  252TMC3    H2 3827   3.380   2.185   9.604  1.9506  1.2773  4.2215
  252TMC3    C7 3828   3.370   1.924   9.654  0.1733 -0.3271 -0.3585
  252TMC3    C8 3829   3.558   2.329   9.506  0.3130  0.0632 -0.1143
  252TMC3    O1 3830   3.270   1.988   9.686 -0.1507 -0.2479 -0.1215
  252TMC3    O2 3831   3.458   2.373   9.448  0.0360 -0.0155  0.1875
  253MPD2     C 3832   0.554   2.175  15.559 -0.2234  0.2507 -0.7263
  253MPD2    C1 3833   0.423   2.137  15.569 -0.3601 -0.1746  0.3846
  253MPD2    C2 3834   0.364   2.106  15.694 -0.5959 -1.0642  0.3799
  253MPD2    C3 3835   0.436   2.123  15.812 -0.2966 -0.5810  0.4413
  253MPD2    C4 3836   0.572   2.167  15.793 -0.0879  0.6858 -0.0984
  253MPD2    C5 3837   0.632   2.186  15.669 -0.5494 -0.1858  0.4080
  253MPD2     H 3838   0.263   2.069  15.705 -1.4785  0.7679 -1.4512
  253MPD2    H1 3839   0.634   2.176  15.882 -1.4253  1.6309  0.7304
  253MPD2    H2 3840   0.599   2.196  15.462  1.4953 -2.3378 -0.4733
  253MPD2    H3 3841   0.734   2.222  15.665 -0.5170 -0.5575 -2.0165
  253MPD2     N 3842   0.388   2.102  15.941  0.5338 -0.6408  0.5670
  253MPD2    H5 3843   0.455   2.106  16.018  1.2438 -0.2549 -0.0739
  253MPD2    N1 3844   0.336   2.134  15.456 -0.0068 -0.1110  0.0799
  253MPD2    H7 3845   0.260   2.068  15.469 -0.0285  0.0303  0.6729
  254TMC3    C1 3846   0.231   2.061  16.113 -0.2587 -0.5307 -0.3512
  254TMC3    C2 3847   0.100   2.076  16.141 -0.3903  0.2821  0.0584
  254TMC3    C3 3848   0.051   2.020  16.256  0.6200  0.9560  0.2166
  254TMC3    C4 3849   0.312   1.992  16.196 -0.8559  0.1060 -0.0626
  254TMC3    C5 3850   0.255   1.941  16.318 -0.2479  1.1928  0.1018
  254TMC3    C6 3851   0.122   1.948  16.352  0.3315  0.4420  0.3473
  254TMC3     C 3852   0.257   2.057  15.967 -0.0205  0.5537  0.4256
  254TMC3     O 3853   0.163   2.049  15.891  0.0010 -0.0048  0.1299
  254TMC3     H 3854   0.033   2.130  16.074 -0.0485  0.8364  0.1570
  254TMC3    H1 3855   0.412   1.971  16.162  0.0168  3.7926  0.1931
  254TMC3    H2 3856   0.080   1.906  16.443 -1.9777 -0.2265 -1.0321
  254TMC3    C7 3857   0.345   1.871  16.412 -0.6911  0.4119 -0.4023
  254TMC3    C8 3858   4.635   2.043  16.268 -0.5496  0.0018  0.8770
  254TMC3    O1 3859   0.293   1.783  16.479  0.1448 -0.0468 -0.4427
  254TMC3    O2 3860   4.561   2.020  16.169 -0.1464  0.4702 -0.3067
  255MPD2     C 3861   2.844   3.498  10.210 -0.1622 -0.4332  0.3749
  255MPD2    C1 3862   2.952   3.577  10.237 -0.2478 -0.2793  0.4453
  255MPD2    C2 3863   3.071   3.510  10.253  0.1918  0.5206  0.2421
  255MPD2    C3 3864   3.074   3.373  10.235  0.1381  0.3095 -0.0258
  255MPD2    C4 3865   2.960   3.300  10.213  0.0346  0.2426  0.0284
  255MPD2    C5 3866   2.844   3.362  10.205  0.3164  0.1250  0.3680
  255MPD2     H 3867   3.161   3.571  10.254  0.6906 -0.1927 -1.0917
  255MPD2    H1 3868   2.958   3.192  10.205 -0.5004  0.2881 -0.4872
  255MPD2    H2 3869   2.745   3.541  10.208  0.4109  0.8521 -0.0979
  255MPD2    H3 3870   2.746   3.318  10.199  0.4737 -0.5652  2.7741
  255MPD2     N 3871   3.203   3.320  10.232  0.1461  0.1265 -0.0189
  255MPD2    H5 3872   3.281   3.378  10.261 -0.1978 -0.7761  2.6894
  255MPD2    N1 3873   2.949   3.716  10.226 -0.3653  0.3148 -0.1045
  255MPD2    H7 3874   2.871   3.748  10.170  0.2097  1.7792 -0.0891
  256TMC3    C1 3875   3.011   3.930  10.197 -0.2253 -0.0258 -0.0193
  256TMC3    C2 3876   3.102   3.992  10.117  0.0208  0.4271 -0.0227
  256TMC3    C3 3877   3.062   4.086  10.028  0.1011 -0.4792  0.3039
  256TMC3    C4 3878   2.880   3.950  10.188  0.1334  0.0964  0.9920
  256TMC3    C5 3879   2.843   4.048  10.093 -0.3945 -0.5226  0.0606
  256TMC3    C6 3880   2.931   4.112  10.013  0.5088 -0.2444  0.1746
  256TMC3     C 3881   3.053   3.807  10.244 -0.4273 -0.2024 -0.3101
  256TMC3     O 3882   3.165   3.791  10.280 -0.5244 -0.1820 -0.9490
  256TMC3     H 3883   3.206   3.963  10.128  0.1949  0.2559 -2.0795
  256TMC3    H1 3884   2.805   3.909  10.255 -0.7042  0.4487  0.2713
  256TMC3    H2 3885   2.891   4.177   9.936  2.3864 -1.7471 -2.0536
  256TMC3    C7 3886   2.708   4.094  10.085  0.3118  0.7044  0.8291
  256TMC3    C8 3887   3.150   4.126   9.917  0.4863  0.3984  0.3277
  256TMC3    O1 3888   2.687   4.208  10.041  0.6781  0.1868 -0.1056
  256TMC3    O2 3889   3.252   4.060   9.916 -0.2641 -0.4085  0.7289
  257MPD2     C 3890   2.614   1.874  13.070  0.0208  0.0470  0.4674
  257MPD2    C1 3891   2.558   1.770  13.003 -0.7657  0.1063 -0.1119
  257MPD2    C2 3892   2.568   1.648  13.065  0.0702 -0.4854 -0.7894
  257MPD2    C3 3893   2.596   1.640  13.198  0.2063 -0.6273 -0.0293
  257MPD2    C4 3894   2.634   1.751  13.268 -0.3881  0.6834  0.0751
  257MPD2    C5 3895   2.640   1.869  13.206 -0.0685 -0.2412  0.1705
  257MPD2     H 3896   2.527   1.559  13.020 -1.6169  0.3594 -0.8981
  257MPD2    H1 3897   2.649   1.752  13.375 -0.7638 -2.1990  0.1435
  257MPD2    H2 3898   2.622   1.974  13.030 -0.5828 -0.7189 -1.5615
  257MPD2    H3 3899   2.683   1.958  13.252 -0.3030  0.6368 -1.3035
  257MPD2     N 3900   2.600   1.515  13.257  0.1211  0.3790  0.2951
  257MPD2    H5 3901   2.572   1.441  13.194  2.3192 -2.0209  2.1457
  257MPD2    N1 3902   2.503   1.789  12.876 -0.1679  0.3355  0.3038
  257MPD2    H7 3903   2.501   1.882  12.834  0.4038 -0.5443 -1.6685
  258TMC3    C1 3904   2.617   1.345  13.411  0.2398  0.9789 -0.0257
  258TMC3    C2 3905   2.672   1.253  13.331 -0.0650  0.1409 -0.2025
  258TMC3    C3 3906   2.695   1.127  13.375  0.4314 -0.5007 -0.5540
  258TMC3    C4 3907   2.581   1.310  13.538  0.5767 -0.2309  0.2606
  258TMC3    C5 3908   2.607   1.181  13.584  0.3085 -0.2410 -0.6264
  258TMC3    C6 3909   2.665   1.085  13.505 -0.5220 -0.3843  0.0406
  258TMC3     C 3910   2.615   1.487  13.386 -0.5002  0.4711  1.1735
  258TMC3     O 3911   2.618   1.557  13.489  0.1512 -0.3272  0.5657
  258TMC3     H 3912   2.683   1.278  13.226  0.1674 -0.9026 -0.4298
  258TMC3    H1 3913   2.533   1.381  13.604 -0.4011  1.2184 -1.9942
  258TMC3    H2 3914   2.691   0.988  13.546 -3.5658 -1.2307 -0.0268
  258TMC3    C7 3915   2.583   1.164  13.724  0.7196 -0.4560 -1.1308
  258TMC3    C8 3916   2.779   1.039  13.285 -0.2185 -0.5458  0.2089
  258TMC3    O1 3917   2.482   1.213  13.766  0.1636  0.0458 -0.0138
  258TMC3    O2 3918   2.836   1.102  13.195 -0.2842  0.1794  0.1022
  259MPD2     C 3919   0.480   3.069   1.158 -0.1628 -0.1800  0.0570
  259MPD2    C1 3920   0.559   2.994   1.237  0.3776  0.0766 -0.0320
  259MPD2    C2 3921   0.685   2.955   1.194 -0.1408 -0.9256 -0.1162
  259MPD2    C3 3922   0.720   2.995   1.065  0.1846  0.3815  0.8214
  259MPD2    C4 3923   0.638   3.067   0.982 -0.0968 -0.4054 -0.6904
  259MPD2    C5 3924   0.521   3.103   1.029  0.0557  0.0529  0.3959
  259MPD2     H 3925   0.752   2.892   1.251 -0.7934 -1.6161 -0.0972
  259MPD2    H1 3926   0.667   3.097   0.882 -1.2266  0.6608 -0.7007
  259MPD2    H2 3927   0.389   3.117   1.193  0.6592  1.3467  0.0937
  259MPD2    H3 3928   0.464   3.168   0.964 -1.0788 -0.8401  0.4937
  259MPD2     N 3929   0.844   2.951   1.021 -0.2077  0.7853 -0.1610
  259MPD2    H5 3930   0.890   2.877   1.074 -0.1434  0.8905 -0.0715
  259MPD2    N1 3931   0.519   2.981   1.371 -0.5443 -0.1000  0.3796
  259MPD2    H7 3932   0.425   3.013   1.392 -0.2479  1.6439 -0.9108
  260TMC3    C1 3933   1.030   2.932   0.873 -0.4673 -0.2024  0.4153
  260TMC3    C2 3934   1.100   2.980   0.765  0.3604  0.6169 -0.5746
  260TMC3    C3 3935   1.178   2.900   0.685 -0.1485  0.7809 -0.1970
  260TMC3    C4 3936   1.024   2.795   0.880 -0.4382 -0.5364  0.2008
  260TMC3    C5 3937   1.099   2.712   0.803  0.0555  0.0367 -1.5836
  260TMC3    C6 3938   1.185   2.762   0.710  0.1914 -0.9254  0.4729
  260TMC3     C 3939   0.919   3.011   0.927 -0.0623 -0.0315  0.4965
  260TMC3     O 3940   0.898   3.117   0.873  0.4047  0.3551 -0.3378
  260TMC3     H 3941   1.086   3.083   0.735 -0.9433  0.8438  0.8717
  260TMC3    H1 3942   0.959   2.751   0.956 -0.1339 -2.3404 -0.5861
  260TMC3    H2 3943   1.242   2.700   0.643 -0.7279 -0.9980 -0.2528
  260TMC3    C7 3944   1.124   2.573   0.834  0.1758 -0.0541  0.5781
  260TMC3    C8 3945   1.291   2.957   0.614 -0.1720 -0.2746  0.4060
  260TMC3    O1 3946   1.176   2.514   0.742 -0.3341 -1.3138  0.6560
  260TMC3    O2 3947   1.286   3.064   0.555 -0.4270 -0.4488 -0.3254
  261MPD2     C 3948   2.809   1.248  12.020  0.4109 -0.4795 -0.7090
  261MPD2    C1 3949   2.836   1.373  12.068  0.4460 -1.0672 -1.6026
  261MPD2    C2 3950   2.875   1.474  11.983 -0.0895  0.6550  0.5445
  261MPD2    C3 3951   2.873   1.457  11.844  0.0943 -0.3100 -0.2958
  261MPD2    C4 3952   2.829   1.335  11.796  0.4724 -0.5211 -0.1126
  261MPD2    C5 3953   2.802   1.232  11.882  0.0355 -0.4759 -0.5632
  261MPD2     H 3954   2.917   1.568  12.020  0.4724  0.7946 -0.4507
  261MPD2    H1 3955   2.827   1.314  11.689  1.5994  0.5994 -0.3574
  261MPD2    H2 3956   2.789   1.154  12.070  0.1259 -0.6628 -1.1677
  261MPD2    H3 3957   2.771   1.137  11.840  1.9831 -2.1299  1.7578
  261MPD2     N 3958   2.911   1.567  11.763 -0.0472  0.3958  0.1179
  261MPD2    H5 3959   2.942   1.652  11.810 -0.8861 -0.2591  1.8452
  261MPD2    N1 3960   2.847   1.384  12.212 -0.1606  0.0572  0.2653
  261MPD2    H7 3961   2.888   1.472  12.240  2.4133 -0.7685 -0.9361
  262TMC3    C1 3962   2.978   1.678  11.569 -0.3575  0.5054  0.1632
  262TMC3    C2 3963   2.925   1.799  11.609  0.7203 -0.3155  0.6215
  262TMC3    C3 3964   2.952   1.908  11.529 -0.3334  0.4331 -0.6104
  262TMC3    C4 3965   3.050   1.662  11.456 -0.1870 -0.0212 -0.4648
  262TMC3    C5 3966   3.066   1.770  11.370  0.9664  0.1421 -0.4657
  262TMC3    C6 3967   3.020   1.894  11.412 -0.1281  0.5967 -0.1684
  262TMC3     C 3968   2.944   1.554  11.632  0.3998  0.2620  0.0297
  262TMC3     O 3969   2.953   1.454  11.565  0.0983 -0.0076 -0.6471
  262TMC3     H 3970   2.869   1.805  11.702 -2.6832 -2.9166 -1.2424
  262TMC3    H1 3971   3.071   1.565  11.413  0.0577 -0.2539  0.1754
  262TMC3    H2 3972   3.049   1.977  11.349  0.9395  1.9190  2.0969
  262TMC3    C7 3973   3.190   1.767  11.293 -0.8703 -0.3759 -0.0165
  262TMC3    C8 3974   2.875   2.034  11.536 -1.3484 -0.2627  0.1888
  262TMC3    O1 3975   3.263   1.670  11.307  0.1725 -0.2162  0.0804
  262TMC3    O2 3976   2.916   2.120  11.459 -0.0090  0.1794  0.6299
  263MPD2     C 3977   3.999   0.742  11.716 -0.1310 -0.0701 -0.2074
  263MPD2    C1 3978   4.099   0.745  11.620 -0.8270  0.5247 -0.4481
  263MPD2    C2 3979   4.061   0.747  11.485  0.2750 -0.1666 -0.3409
  263MPD2    C3 3980   3.929   0.761  11.448 -0.4933 -0.3713 -0.6582
  263MPD2    C4 3981   3.828   0.753  11.546  0.3416 -0.3983 -0.3496
  263MPD2    C5 3982   3.869   0.747  11.677  0.0304 -0.3539  0.0799
  263MPD2     H 3983   4.136   0.753  11.407 -1.3198  0.8433 -1.7669
  263MPD2    H1 3984   3.722   0.753  11.523  0.1389 -0.1999  0.6045
  263MPD2    H2 3985   4.034   0.735  11.818  0.7978  1.2521 -0.4270
  263MPD2    H3 3986   3.793   0.755  11.753 -1.4304  0.0175 -1.4020
  263MPD2     N 3987   3.901   0.778  11.306  0.5070  0.3045 -1.4318
  263MPD2    H5 3988   3.974   0.781  11.235  3.0318 -3.8298  0.9876
  263MPD2    N1 3989   4.232   0.728  11.664  0.1226  0.0191  0.4256
  263MPD2    H7 3990   4.243   0.700  11.761 -1.1070 -0.5726  0.3954
  264TMC3    C1 3991   3.761   0.792  11.118  0.4247  0.0383 -0.0011
  264TMC3    C2 3992   3.698   0.908  11.081  0.0572 -0.1667 -0.3615
  264TMC3    C3 3993   3.732   0.960  10.951  0.2316  0.2438 -0.4982
  264TMC3    C4 3994   3.868   0.737  11.048 -0.0969  0.4344 -0.6700
  264TMC3    C5 3995   3.881   0.791  10.923  0.1142 -0.7188  0.3187
  264TMC3    C6 3996   3.822   0.901  10.870  0.3030 -0.0926  0.6479
  264TMC3     C 3997   3.772   0.798  11.261  0.2471 -0.4744 -0.5503
  264TMC3     O 3998   3.678   0.839  11.323  0.2199  0.0322  0.3131
  264TMC3     H 3999   3.619   0.959  11.135 -1.2320 -1.7874 -0.7252
  264TMC3    H1 4000   3.921   0.648  11.078 -1.0845  0.1643  0.2981
  264TMC3    H2 4001   3.851   0.934  10.771 -0.4529 -1.1114  0.0851
  264TMC3    C7 4002   3.976   0.728  10.829 -0.2983  0.0272  0.6701
  264TMC3    C8 4003   3.696   1.096  10.915 -0.1502  0.3128 -0.4751
  264TMC3    O1 4004   4.047   0.798  10.754  0.0283 -0.0332  0.0949
  264TMC3    O2 4005   3.744   1.137  10.810 -0.5800 -0.8316  0.1032
  265MPD2     C 4006   2.130   1.487  15.484  0.0731 -0.1509 -0.2081
  265MPD2    C1 4007   2.005   1.522  15.434  0.5055 -0.2996  0.0158
  265MPD2    C2 4008   1.993   1.562  15.306 -0.4068 -0.7559 -0.7869
  265MPD2    C3 4009   2.102   1.539  15.211 -0.7356 -0.3803 -0.5292
  265MPD2    C4 4010   2.224   1.512  15.263 -0.1831  0.0218  0.4002
  265MPD2    C5 4011   2.236   1.481  15.394 -0.3598 -0.6511 -0.0194
  265MPD2     H 4012   1.893   1.594  15.277 -0.6917 -0.7038  0.2588
  265MPD2    H1 4013   2.313   1.506  15.202  0.2596 -0.3189  1.0803
  265MPD2    H2 4014   2.144   1.477  15.591  0.8434  0.4367 -0.2490
  265MPD2    H3 4015   2.338   1.455  15.423 -0.4931  0.1995  1.2277
  265MPD2     N 4016   2.086   1.550  15.066  0.5839  0.1753 -0.2338
  265MPD2    H5 4017   2.168   1.532  15.008 -0.6723 -2.0983 -1.3173
  265MPD2    N1 4018   1.898   1.530  15.524  0.5329  0.5607  0.1446
  265MPD2    H7 4019   1.814   1.584  15.505  0.2619 -0.0243 -0.3178
  266TMC3    C1 4020   1.761   1.497  15.706  0.2700 -0.1354  0.3445
  266TMC3    C2 4021   1.720   1.397  15.796  0.2976 -0.0855 -0.2117
  266TMC3    C3 4022   1.642   1.437  15.902  0.4648 -0.2490  0.0336
  266TMC3    C4 4023   1.737   1.629  15.721 -0.0650 -0.0832 -0.2261
  266TMC3    C5 4024   1.662   1.660  15.833  0.4094  0.0393  0.6282
  266TMC3    C6 4025   1.620   1.570  15.924  0.2937 -0.3782  0.5502
  266TMC3     C 4026   1.896   1.473  15.652  0.4507 -0.6207  0.4933
  266TMC3     O 4027   1.962   1.388  15.711  0.1498 -0.0591 -0.2742
  266TMC3     H 4028   1.738   1.291  15.783 -1.8338 -0.2567 -1.8039
  266TMC3    H1 4029   1.804   1.694  15.665  1.7403  0.4780  2.5903
  266TMC3    H2 4030   1.556   1.606  16.004  0.5351  0.5477  0.3166
  266TMC3    C7 4031   1.673   1.800  15.867 -0.5354 -0.1790  0.0782
  266TMC3    C8 4032   1.668   1.353  16.021 -0.7750 -0.0362  0.0497
  266TMC3    O1 4033   1.661   1.824  15.986  0.2773 -0.1743  0.5232
  266TMC3    O2 4034   1.694   1.233  16.002  0.0824 -0.3944  0.4389
  267MPD2     C 4035   3.332   3.269  17.420  0.1075  0.1154 -0.2858
  267MPD2    C1 4036   3.457   3.243  17.370 -0.5343  0.7596  0.1395
  267MPD2    C2 4037   3.475   3.183  17.245  0.1846  0.2058 -0.4734
  267MPD2    C3 4038   3.362   3.141  17.176  0.3304  0.4122 -0.2597
  267MPD2    C4 4039   3.237   3.159  17.225  0.0008 -0.4597  0.6727
  267MPD2    C5 4040   3.225   3.231  17.343 -0.3968  0.6995  0.4510
  267MPD2     H 4041   3.578   3.166  17.215  0.4483 -0.9200  1.0364
  267MPD2    H1 4042   3.150   3.114  17.179 -0.0280 -0.3051  0.5733
  267MPD2    H2 4043   3.322   3.323  17.514 -0.0507  1.0540 -0.8353
  267MPD2    H3 4044   3.127   3.252  17.385 -0.6294 -0.4352  0.4720
  267MPD2     N 4045   3.372   3.075  17.052 -0.0287  0.3543 -0.3712
  267MPD2    H5 4046   3.286   3.049  17.004 -0.7008  1.4336  0.2300
  267MPD2    N1 4047   3.561   3.256  17.463 -0.6053  0.3688  0.0537
  267MPD2    H7 4048   3.523   3.282  17.554  1.0578 -1.0785  1.1702
  268TMC3    C1 4049   3.761   3.240  17.578 -0.3017  0.0314 -0.2210
  268TMC3    C2 4050   3.887   3.283  17.580  0.0636 -0.0718  0.0918
  268TMC3    C3 4051   3.967   3.250   0.009  0.2830  0.1180  0.7785
  268TMC3    C4 4052   3.705   3.171  17.676  0.2715 -0.1583 -1.1162
  268TMC3    C5 4053   3.784   3.140   0.099 -0.0243 -0.8167 -0.3582
  268TMC3    C6 4054   3.920   3.171   0.100 -0.1316 -0.0730  0.1730
  268TMC3     C 4055   3.701   3.236  17.445  0.2858 -0.0319 -0.0627
  268TMC3     O 4056   3.768   3.223  17.345 -0.3137  0.1550  0.4202
  268TMC3     H 4057   3.926   3.339  17.496 -0.4026 -0.3711 -0.3296
  268TMC3    H1 4058   3.607   3.126  17.667  0.1842 -0.0784 -0.5746
  268TMC3    H2 4059   3.985   3.125   0.173  1.4002  0.4551 -0.8731
  268TMC3    C7 4060   3.731   3.027   0.177 -0.2355 -0.2298  0.4179
  268TMC3    C8 4061   4.098   3.316   0.035  0.3909 -0.7402  0.1897
  268TMC3    O1 4062   3.816   2.954   0.227 -0.1119  0.2168 -0.2516
  268TMC3    O2 4063   4.151   3.289   0.145  0.2400 -0.3952  0.0952
  269MPD2     C 4064   4.306   2.097  15.673  0.0677  1.1428  0.1672
  269MPD2    C1 4065   4.180   2.135  15.703  0.7157 -0.4583  0.6144
  269MPD2    C2 4066   4.139   2.254  15.654 -0.6273 -0.6852 -0.7698
  269MPD2    C3 4067   4.231   2.330  15.581 -0.5237  0.1010 -0.0007
  269MPD2    C4 4068   4.354   2.287  15.547  0.6626  1.1893 -0.6108
  269MPD2    C5 4069   4.388   2.172  15.597  0.2895 -0.2641  0.3691
  269MPD2     H 4070   4.045   2.302  15.682 -0.9742 -2.1373  0.5864
  269MPD2    H1 4071   4.409   2.347  15.475 -1.4560  3.0145 -0.6969
  269MPD2    H2 4072   4.338   2.001  15.712  1.0826  0.6618 -1.8621
  269MPD2    H3 4073   4.480   2.120  15.572 -1.4469 -1.7120 -3.1149
  269MPD2     N 4074   4.180   2.454  15.544  0.2149 -0.2624 -0.2031
  269MPD2    H5 4075   4.088   2.480  15.577  1.0904  2.9782 -0.3123
  269MPD2    N1 4076   4.096   2.043  15.776  0.0917  0.4994  0.4408
  269MPD2    H7 4077   4.148   1.959  15.800  2.0959  1.6413  0.0699
  270TMC3    C1 4078   3.894   1.934  15.837  0.5012 -0.2952  0.1909
  270TMC3    C2 4079   3.779   1.893  15.780  0.5785 -0.0896 -0.2858
  270TMC3    C3 4080   3.730   1.765  15.804 -0.4356 -0.0254 -0.3459
  270TMC3    C4 4081   3.971   1.838  15.899  0.8213  0.1676  0.4996
  270TMC3    C5 4082   3.910   1.728  15.947  0.0642 -0.4064  0.1764
  270TMC3    C6 4083   3.786   1.692  15.902  0.8202  0.8896 -0.0859
  270TMC3     C 4084   3.966   2.058  15.783 -0.0547  0.2328 -0.4466
  270TMC3     O 4085   3.899   2.147  15.735 -0.1240  0.7088 -0.0644
  270TMC3     H 4086   3.744   1.957  15.699  0.3228 -0.1207 -0.2014
  270TMC3    H1 4087   4.067   1.860  15.944  0.3851  1.8269  0.6026
  270TMC3    H2 4088   3.751   1.592  15.925  0.9888  0.9288  0.3554
  270TMC3    C7 4089   3.990   1.626  16.007 -0.7549 -0.3796 -0.6637
  270TMC3    C8 4090   3.659   1.696  15.700  0.0882  0.1040  0.2117
  270TMC3    O1 4091   4.110   1.643  15.998  0.0063 -0.2773  0.7464
  270TMC3    O2 4092   3.577   1.617  15.749  0.3496 -0.2023  0.8775
  271MPD2     C 4093   3.146   1.699  14.028  0.7464 -0.2705 -0.3695
  271MPD2    C1 4094   3.066   1.709  14.139 -0.2480 -0.0390 -0.3360
  271MPD2    C2 4095   2.940   1.760  14.117 -0.0558  0.2462  0.7102
  271MPD2    C3 4096   2.899   1.799  13.989  0.1918 -0.7368  0.6866
  271MPD2    C4 4097   2.980   1.796  13.882  1.1316 -0.6068  0.6404
  271MPD2    C5 4098   3.107   1.742  13.900  0.4214 -0.4050 -0.1027
  271MPD2     H 4099   2.879   1.775  14.206  0.2179 -1.4914  1.1906
  271MPD2    H1 4100   2.967   1.834  13.781  1.1269 -0.7085  0.6033
  271MPD2    H2 4101   3.252   1.677  14.030  1.2517  2.0270 -1.2953
  271MPD2    H3 4102   3.178   1.749  13.819  0.1488  0.2270 -0.2809
  271MPD2     N 4103   2.778   1.875  13.976 -0.4299  0.2877  0.3551
  271MPD2    H5 4104   2.746   1.896  13.882 -0.2273  2.7317  0.8481
  271MPD2    N1 4105   3.107   1.667  14.266  0.3334  1.0467 -0.4216
  271MPD2    H7 4106   3.046   1.690  14.344 -0.3677 -2.8201  0.2044
  272TMC3    C1 4107   3.260   1.599  14.432  0.1498  0.3506  0.2785
  272TMC3    C2 4108   3.387   1.551  14.454  0.0561 -0.1895 -0.0295
  272TMC3    C3 4109   3.440   1.560  14.580 -0.6747  0.3494 -0.1368
  272TMC3    C4 4110   3.181   1.645  14.533  0.3000 -0.4823  0.1983
  272TMC3    C5 4111   3.238   1.653  14.660  0.5567 -0.4219 -0.3389
  272TMC3    C6 4112   3.365   1.605  14.683 -0.0789  0.2012 -0.0756
  272TMC3     C 4113   3.223   1.599  14.294 -0.4630  0.1198  0.3068
  272TMC3     O 4114   3.296   1.548  14.214 -0.4587  0.1526  1.0662
  272TMC3     H 4115   3.454   1.526  14.373 -1.0361  0.9208 -1.2890
  272TMC3    H1 4116   3.078   1.678  14.521  0.8202  1.2431  0.4403
  272TMC3    H2 4117   3.409   1.628  14.779  1.1385 -0.8571 -0.3870
  272TMC3    C7 4118   3.178   1.723  14.775 -0.7511  0.1470 -0.2696
  272TMC3    C8 4119   3.565   1.496  14.604 -0.1203 -0.0316  0.3971
  272TMC3    O1 4120   3.063   1.696  14.799  0.2770  0.0683  0.5128
  272TMC3    O2 4121   3.624   1.447  14.515  0.4537 -0.6494  0.4817
  273MPD2     C 4122   4.545   4.707  11.929  0.4279  0.0610  0.2548
  273MPD2    C1 4123   4.679   0.004  11.954 -0.8013  1.0687  0.3782
  273MPD2    C2 4124   0.047   4.699  11.849  0.4146  0.5454 -0.1783
  273MPD2    C3 4125   4.720   4.651  11.726  0.0345 -0.2321 -0.4898
  273MPD2    C4 4126   4.589   4.625  11.707  0.2756  0.1714  0.3006
  273MPD2    C5 4127   4.501   4.654  11.808  0.7579  0.2422 -1.4932
  273MPD2     H 4128   0.150   0.009  11.863  0.8148 -0.6457 -0.6072
  273MPD2    H1 4129   4.547   4.584  11.616  1.1397  1.7651 -0.8257
  273MPD2    H2 4130   4.472   4.713  12.009 -1.5446  1.1223 -1.5886
  273MPD2    H3 4131   4.395   4.638  11.791  0.2490  0.3124  1.5736
  273MPD2     N 4132   0.082   4.628  11.613 -0.2588 -0.0934  0.2161
  273MPD2    H5 4133   0.038   4.599  11.526 -0.9011  0.8950  0.2004
  273MPD2    N1 4134   0.001   0.043  12.081  0.1139  0.6278 -0.2382
  273MPD2    H7 4135   4.641   0.048  12.143 -1.2313 -1.1701 -1.8332
  274TMC3    C1 4136   0.269   4.640  11.480  0.4628  0.9904  0.2098
  274TMC3    C2 4137   0.194   4.582  11.381 -0.4188 -0.3527 -0.1439
  274TMC3    C3 4138   0.225   4.623  11.255 -0.3474  0.5940  0.4027
  274TMC3    C4 4139   0.359   0.013  11.451  0.5310 -0.3744 -0.3617
  274TMC3    C5 4140   0.391   0.043  11.323 -0.6242  0.1001 -0.4808
  274TMC3    C6 4141   0.329   4.704  11.220 -0.2986 -0.0573  0.3432
  274TMC3     C 4142   0.219   4.634  11.613  0.3180 -0.3026  0.0227
  274TMC3     O 4143   0.305   4.647  11.705  0.1259  0.3300 -0.1404
  274TMC3     H 4144   0.121   4.503  11.398 -2.1872  1.0814 -1.1674
  274TMC3    H1 4145   0.399   0.064  11.537  0.4809  3.4346 -2.5955
  274TMC3    H2 4146   0.335   0.022  11.119  3.3706  2.6845  1.6202
  274TMC3    C7 4147   0.434   0.186  11.305  0.3530 -0.0013 -0.0939
  274TMC3    C8 4148   0.133   4.569  11.159  0.1347 -0.1310  0.2268
  274TMC3    O1 4149   0.461   0.214  11.191  0.3265 -0.0063  0.1788
  274TMC3    O2 4150   0.024   4.543  11.200  0.3442  0.4922  0.4119
  275MPD2     C 4151   4.350   2.830  13.907 -0.6766 -0.1415  0.0506
  275MPD2    C1 4152   4.376   2.783  14.036  0.3957 -0.2947 -0.5164
  275MPD2    C2 4153   4.273   2.744  14.118 -0.5562  0.1529 -0.8528
  275MPD2    C3 4154   4.144   2.755  14.071  0.3187 -0.6670  0.4228
  275MPD2    C4 4155   4.117   2.785  13.944 -0.2403  0.8519  0.6872
  275MPD2    C5 4156   4.221   2.823  13.867  0.4385  0.4965  0.1664
  275MPD2     H 4157   4.295   2.708  14.218  0.0893  0.8671 -0.7361
  275MPD2    H1 4158   4.018   2.789  13.899  1.0904 -1.7605 -2.5397
  275MPD2    H2 4159   4.419   2.853  13.826  1.2916  0.1109  1.8108
  275MPD2    H3 4160   4.198   2.863  13.770  0.6006  0.5472  0.1485
  275MPD2     N 4161   4.027   2.721  14.149 -0.0142  0.0823 -0.1795
  275MPD2    H5 4162   3.940   2.716  14.097 -0.8583  0.9148  1.1479
  275MPD2    N1 4163   4.506   2.771  14.091  0.3242 -0.5762  0.7075
  275MPD2    H7 4164   4.505   2.745  14.189  0.8247  0.1316  0.9038
  276TMC3    C1 4165   0.021   2.746  14.113 -0.8336 -0.0251 -0.0828
  276TMC3    C2 4166   4.720   2.620  14.158  0.0401 -0.0975 -0.2523
  276TMC3    C3 4167   0.056   2.589  14.282  0.5030 -0.0830 -0.3048
  276TMC3    C4 4168   0.095   2.839  14.181 -0.3291 -0.2749 -0.3076
  276TMC3    C5 4169   0.148   2.804  14.301 -0.3998  0.6952 -0.2114
  276TMC3    C6 4170   0.133   2.682  14.346 -0.2127  0.0496 -0.3721
  276TMC3     C 4171   4.628   2.797  14.029  0.4314 -0.5653 -0.1131
  276TMC3     O 4172   4.649   2.831  13.912 -0.5685  0.1558 -0.0928
  276TMC3     H 4173   4.658   2.549  14.104 -0.5632 -0.3448  0.7493
  276TMC3    H1 4174   0.095   2.943  14.149 -1.4818  0.3799  1.8168
  276TMC3    H2 4175   0.200   2.641  14.421 -0.2202  0.5483 -0.0973
  276TMC3    C7 4176   0.219   2.902  14.381 -0.1096  0.2238  0.2049
  276TMC3    C8 4177   0.047   2.450  14.320 -0.6580 -0.2322  0.6452
  276TMC3    O1 4178   0.310   2.863  14.454 -0.0391  0.8963  0.3470
  276TMC3    O2 4179   0.028   2.370  14.229 -0.2672  0.3392  0.5047
  277MPD2     C 4180   1.859   1.393  13.403 -0.8328 -0.5704  0.5645
  277MPD2    C1 4181   1.727   1.411  13.450 -0.0621  0.2346  0.3782
  277MPD2    C2 4182   1.701   1.353  13.570  0.1687  0.1311 -0.0168
  277MPD2    C3 4183   1.791   1.277  13.640  0.5804  0.6035 -0.3495
  277MPD2    C4 4184   1.909   1.245  13.582 -0.0717  1.3170 -0.1460
  277MPD2    C5 4185   1.950   1.305  13.465 -0.4074  0.6790 -0.1400
  277MPD2     H 4186   1.611   1.383  13.623 -0.8725 -1.0814 -1.1069
  277MPD2    H1 4187   1.985   1.179  13.623  0.2694  1.7771 -0.0406
  277MPD2    H2 4188   1.889   1.462  13.325  0.7994 -0.8251  0.9752
  277MPD2    H3 4189   2.056   1.307  13.443 -0.3501 -1.1047 -0.0390
  277MPD2     N 4190   1.735   1.213  13.755  0.0209  0.5461  0.4650
  277MPD2    H5 4191   1.637   1.238  13.768  0.4676  2.2078  0.5932
  277MPD2    N1 4192   1.628   1.474  13.368 -0.0593 -0.0010 -0.6337
  277MPD2    H7 4193   1.668   1.531  13.293  0.2344 -0.7424 -1.0414
  278TMC3    C1 4194   1.708   1.072  13.932  0.5439 -0.0828 -0.0066
  278TMC3    C2 4195   1.660   0.943  13.911 -0.0824 -0.2318 -0.7251
  278TMC3    C3 4196   1.519   0.925  13.913 -0.2659 -0.4768 -0.5712
  278TMC3    C4 4197   1.623   1.164  13.982 -0.4808 -0.1879  0.8379
  278TMC3    C5 4198   1.490   1.130  13.996  0.2471  0.5080 -0.2585
  278TMC3    C6 4199   1.429   1.011  13.962  0.0794  0.8185  0.6390
  278TMC3     C 4200   1.794   1.115  13.829  0.3909  0.0593 -1.3633
  278TMC3     O 4201   1.890   1.046  13.797  0.1047 -0.5407 -0.3618
  278TMC3     H 4202   1.725   0.875  13.856  0.6755  0.2692 -0.4434
  278TMC3    H1 4203   1.674   1.253  14.016  0.6797 -0.4747 -0.1683
  278TMC3    H2 4204   1.324   0.987  13.973  0.6541 -1.6546  0.8070
  278TMC3    C7 4205   1.406   1.233  14.042  0.0264  0.3151  0.0759
  278TMC3    C8 4206   1.472   0.793  13.895 -0.0058 -0.1898 -0.5881
  278TMC3    O1 4207   1.461   1.343  14.057 -0.1741 -0.6305  0.4799
  278TMC3    O2 4208   1.541   0.711  13.960 -0.4909  0.2240 -0.6867
  279MPD2     C 4209   1.141   2.724  17.627 -0.6372  0.1465 -0.1596
  279MPD2    C1 4210   1.088   2.611   0.002 -1.1609  0.5727 -0.7055
  279MPD2    C2 4211   1.155   2.487  17.679 -0.5387  0.1176 -0.1560
  279MPD2    C3 4212   1.278   2.480  17.614 -0.0408 -0.3036 -0.8324
  279MPD2    C4 4213   1.319   2.586  17.535  0.6114  0.1060 -0.2770
  279MPD2    C5 4214   1.248   2.706  17.547  0.7449 -0.6346 -0.2995
  279MPD2     H 4215   1.113   2.399   0.042  0.6379 -0.6032 -0.4379
  279MPD2    H1 4216   1.410   2.598  17.478  0.5782  0.2495 -0.3007
  279MPD2    H2 4217   1.095   2.821  17.644 -1.4743  0.1552 -2.3601
  279MPD2    H3 4218   1.284   2.797  17.500 -0.0022 -0.4654 -0.5469
  279MPD2     N 4219   1.344   2.358  17.590  0.4871  0.0182  0.1045
  279MPD2    H5 4220   1.421   2.366  17.523 -0.5776 -1.4082 -1.2951
  279MPD2    N1 4221   0.961   2.625   0.067 -0.1324  1.0482  0.0900
  279MPD2    H7 4222   0.923   2.717   0.087 -0.7470  0.2811  2.4915
  280TMC3    C1 4223   0.775   2.574   0.205 -0.0968  0.1789  0.7687
  280TMC3    C2 4224   0.732   2.517   0.321  0.0667 -0.4064 -0.4847
  280TMC3    C3 4225   0.601   2.545   0.356 -0.1304  0.4381  0.5656
  280TMC3    C4 4226   0.685   2.638   0.121  0.6266 -1.0129 -1.0951
  280TMC3    C5 4227   0.561   2.668   0.162 -0.0374 -0.3907  0.5488
  280TMC3    C6 4228   0.514   2.610   0.274 -0.7975 -0.4017 -0.3806
  280TMC3     C 4229   0.904   2.531   0.147 -0.0231  0.6232 -0.2461
  280TMC3     O 4230   0.946   2.428   0.197 -0.2869  0.4460  0.4154
  280TMC3     H 4231   0.798   2.454   0.380  0.5546  0.0794 -0.5194
  280TMC3    H1 4232   0.720   2.676   0.026  0.9246  0.6789 -0.3134
  280TMC3    H2 4233   0.411   2.625   0.303 -0.3839  1.2402  0.2374
  280TMC3    C7 4234   0.472   2.738   0.073  0.2275  0.0869 -0.1400
  280TMC3    C8 4235   0.546   2.434   0.437 -0.0999  0.6787 -0.0724
  280TMC3    O1 4236   0.523   2.819   0.002  0.3511 -0.1815  0.2947
  280TMC3    O2 4237   0.619   2.347   0.485  0.3776 -0.6056  0.4689
  281TMC3    C1 4238   4.394   2.154  13.664  0.4521 -0.1733  1.0450
  281TMC3    C2 4239   4.421   2.084  13.550 -0.2072 -0.3375 -0.0466
  281TMC3    C3 4240   4.397   1.950  13.536 -0.2819  0.6441 -0.5234
  281TMC3    C4 4241   4.343   2.097  13.780  0.5149 -0.5910  0.7878
  281TMC3    C5 4242   4.320   1.958  13.763 -0.8508 -1.0573  0.0848
  281TMC3    C6 4243   4.351   1.888  13.644 -0.2684  0.0575  0.2598
  281TMC3     C 4244   4.343   2.288  13.656 -0.5444 -0.1128  0.2987
  281TMC3     O 4245   4.358   2.360  13.753 -0.0571 -0.4135  0.0153
  281TMC3     H 4246   4.442   2.146  13.463 -0.0148  0.7070  0.7455
  281TMC3    H1 4247   4.306   2.148  13.868 -0.9504  0.6165 -0.5339
  281TMC3    H2 4248   4.321   1.784  13.632  2.6347 -0.6102 -1.2490
  281TMC3    C7 4249   4.206   1.908  13.835 -0.2225  0.0135  0.3424
  281TMC3    C8 4250   4.303   1.940  13.428 -0.4137  0.4245  0.6948
  281TMC3    O1 4251   4.120   1.993  13.862  0.4914  0.4573 -0.1296
  281TMC3    O2 4252   4.246   2.045  13.399 -0.4378 -0.4544 -0.1858
  282MPD2     C 4253   1.001   3.308  14.995 -0.0481  0.1649 -0.4562
  282MPD2    C1 4254   0.984   3.441  15.031  0.2446  0.3853  0.3114
  282MPD2    C2 4255   0.978   3.532  14.925  0.5822  0.5462  0.6335
  282MPD2    C3 4256   0.963   3.489  14.790  0.0895  0.1316 -0.0284
  282MPD2    C4 4257   0.978   3.358  14.764  0.2395  0.4235  0.3475
  282MPD2    C5 4258   1.000   3.269  14.863  0.6070  0.1397  0.3129
  282MPD2     H 4259   0.964   3.637  14.949 -1.9323  0.4542 -0.4859
  282MPD2    H1 4260   0.960   3.334  14.660 -0.0015  0.5863  0.3504
  282MPD2    H2 4261   1.002   3.229  15.069  2.2487  0.0809 -0.5969
  282MPD2    H3 4262   1.016   3.164  14.839  0.8837  0.8568 -2.6305
  282MPD2     N 4263   0.928   3.599  14.697  0.5649  0.5801  0.1964
  282MPD2    H5 4264   0.928   3.691  14.739  1.7045 -0.3705  2.3224
  282MPD2    N1 4265   0.952   3.488  15.163 -0.4873 -0.3457 -0.0127
  282MPD2    H7 4266   0.924   3.585  15.165 -0.2232 -0.2643 -0.2242
  283TMC3    C1 4267   0.852   3.472  15.383  0.3854 -0.0040  0.6949
  283TMC3    C2 4268   0.886   3.598  15.428 -0.0629 -0.0217 -0.3517
  283TMC3    C3 4269   0.803   3.646  15.529 -0.0307  0.0292  0.2692
  283TMC3    C4 4270   0.755   3.389  15.431  0.1669 -0.0303  0.1146
  283TMC3    C5 4271   0.679   3.440  15.535 -0.2536  0.0358  0.3658
  283TMC3    C6 4272   0.706   3.562  15.581 -0.0872  0.1362  0.0641
  283TMC3     C 4273   0.936   3.409  15.279 -0.0205  0.1222 -0.1595
  283TMC3     O 4274   0.947   3.286  15.281  0.2872  0.5533 -0.3819
  283TMC3     H 4275   0.967   3.659  15.391 -1.7836  1.5258 -1.5786
  283TMC3    H1 4276   0.740   3.285  15.404 -0.0073  0.2571 -0.9190
  283TMC3    H2 4277   0.637   3.601  15.656  1.5625  1.7312  0.7747
  283TMC3    C7 4278   0.572   3.366  15.601  0.1323 -0.3734  0.1731
  283TMC3    C8 4279   0.798   3.786  15.561  0.1442  0.3621 -0.2784
  283TMC3    O1 4280   0.559   3.391  15.720  0.0212  0.6578  0.4198
  283TMC3    O2 4281   0.747   3.817  15.666 -0.2797  0.2250  0.1731
  284MPD2     C 4282   3.870   2.532  11.927  0.1774  0.0244 -0.6346
  284MPD2    C1 4283   3.868   2.458  11.808  0.2996 -0.6408  0.0141
  284MPD2    C2 4284   3.802   2.333  11.810  0.4828  0.3044  0.4230
  284MPD2    C3 4285   3.738   2.288  11.926 -0.0719 -0.2332  0.3098
  284MPD2    C4 4286   3.730   2.363  12.039 -0.5931  0.4037  0.4819
  284MPD2    C5 4287   3.796   2.483  12.036  1.0677  0.1825 -0.3414
  284MPD2     H 4288   3.792   2.280  11.716  0.0263 -1.8363  1.6750
  284MPD2    H1 4289   3.669   2.329  12.123  0.3469  1.3654  1.5560
  284MPD2    H2 4290   3.916   2.630  11.933 -0.0101  0.0171  1.0432
  284MPD2    H3 4291   3.791   2.543  12.126  0.7433 -0.8182  0.3049
  284MPD2     N 4292   3.677   2.161  11.934  0.2352 -0.4056 -0.6125
  284MPD2    H5 4293   3.621   2.148  12.018 -0.3058 -1.9111 -1.2111
  284MPD2    N1 4294   3.930   2.501  11.685  0.2697 -0.4003 -0.3625
  284MPD2    H7 4295   3.925   2.441  11.603 -0.0912 -0.8441 -0.0092
  285TMC3    C1 4296   4.058   2.646  11.535 -0.3039 -0.2000 -0.4144
  285TMC3    C2 4297   4.036   2.568  11.425 -0.9898 -0.3151  0.3540
  285TMC3    C3 4298   4.115   2.578  11.309 -0.2901  0.2368 -0.3856
  285TMC3    C4 4299   4.140   2.754  11.523  0.0517 -0.2196 -0.4116
  285TMC3    C5 4300   4.214   2.763  11.406 -0.2008 -0.3042 -0.7142
  285TMC3    C6 4301   4.209   2.676  11.303 -0.1779 -0.2656 -0.1957
  285TMC3     C 4302   3.987   2.626  11.662 -0.3591  0.3770  0.4193
  285TMC3     O 4303   3.990   2.721  11.739  0.4109  0.2924  0.4648
  285TMC3     H 4304   3.964   2.487  11.422 -1.5057  0.1490  0.1531
  285TMC3    H1 4305   4.126   2.831  11.599  1.3700 -0.2626 -0.1379
  285TMC3    H2 4306   4.271   2.685  11.214 -0.9451 -0.9448 -0.8005
  285TMC3    C7 4307   4.300   2.883  11.404 -0.1266 -0.1647 -0.1087
  285TMC3    C8 4308   4.117   2.457  11.223  1.1626 -0.3759 -0.3571
  285TMC3    O1 4309   4.336   2.932  11.296  0.3566 -0.7507 -0.3491
  285TMC3    O2 4310   4.023   2.378  11.228  0.1179  0.9164  0.2267
  286MPD2     C 4311   4.561   1.621   1.659  0.3138 -0.3163 -0.4152
  286MPD2    C1 4312   4.573   1.578   1.527  0.3349  0.1855 -0.5683
  286MPD2    C2 4313   4.696   1.532   1.473 -0.3104 -0.0603 -0.5316
  286MPD2    C3 4314   0.085   1.509   1.562 -0.0932 -0.5365 -0.5489
  286MPD2    C4 4315   0.073   1.558   1.691 -0.7591  0.5974  0.1487
  286MPD2    C5 4316   4.677   1.613   1.734 -0.0333 -0.0280 -0.0243
  286MPD2     H 4317   4.697   1.510   1.367  1.8483 -0.0853 -0.5020
  286MPD2    H1 4318   0.152   1.540   1.764  0.9729 -0.5336 -2.0243
  286MPD2    H2 4319   4.474   1.652   1.714  0.6125 -0.7690  0.3132
  286MPD2    H3 4320   4.679   1.643   1.838 -1.4962 -1.4937  0.4181
  286MPD2     N 4321   0.207   1.454   1.523 -0.1042  0.2047  0.0370
  286MPD2    H5 4322   0.266   1.425   1.601  0.5588  1.0130 -0.1702
  286MPD2    N1 4323   4.465   1.572   1.443  0.4224  0.3915 -0.1185
  286MPD2    H7 4324   4.484   1.559   1.344 -0.7939 -2.3779  0.0162
  287TMC3    C1 4325   0.384   1.380   1.387  0.2542  0.0288 -0.1275
  287TMC3    C2 4326   0.415   1.319   1.266 -0.4102 -0.2666  0.2182
  287TMC3    C3 4327   0.548   1.285   1.254 -0.6525  0.7895 -0.0925
  287TMC3    C4 4328   0.478   1.414   1.485 -0.8548 -0.6478 -0.1876
  287TMC3    C5 4329   0.607   1.367   1.462 -0.3734 -0.6706  0.1981
  287TMC3    C6 4330   0.639   1.295   1.350  0.2168 -0.0472  0.1180
  287TMC3     C 4331   0.250   1.437   1.395  0.0582 -0.2179  0.3637
  287TMC3     O 4332   0.194   1.468   1.290 -0.5973  0.5118 -0.7200
  287TMC3     H 4333   0.339   1.287   1.196  0.4655 -0.1496 -0.7988
  287TMC3    H1 4334   0.457   1.456   1.583  2.8240 -0.1908  0.3921
  287TMC3    H2 4335   0.737   1.247   1.342 -1.0468 -2.4613 -0.9850
  287TMC3    C7 4336   0.710   1.370   1.563  0.2023  0.1374  0.2065
  287TMC3    C8 4337   0.593   1.201   1.142  0.8985  0.7052 -0.2659
  287TMC3    O1 4338   0.678   1.338   1.675 -0.3527  0.0143  0.4933
  287TMC3    O2 4339   0.692   1.130   1.151  0.2205  0.2315 -0.2226
  288TMC3    C1 4340   1.360   1.160  14.682 -0.7660  0.2603  0.7822
  288TMC3    C2 4341   1.380   1.065  14.783  0.1412 -0.0467  0.5071
  288TMC3    C3 4342   1.432   1.120  14.895  0.2381 -0.0325 -0.4256
  288TMC3    C4 4343   1.377   1.296  14.693  0.1065  0.4234 -0.1527
  288TMC3    C5 4344   1.427   1.338  14.812 -0.3532  0.2879 -0.3333
  288TMC3    C6 4345   1.457   1.251  14.917 -0.0455  0.1128  0.3383
  288TMC3     C 4346   1.332   1.105  14.544  0.4470  0.2785 -0.5059
  288TMC3     O 4347   1.313   1.182  14.448  0.8190 -0.5593 -0.4285
  288TMC3     H 4348   1.344   0.963  14.774 -0.2878  0.1224  0.2870
  288TMC3    H1 4349   1.351   1.366  14.615 -1.3406  0.2347  0.1729
  288TMC3    H2 4350   1.488   1.293  15.012 -0.8904 -3.6537  2.2958
  288TMC3    C7 4351   1.473   1.481  14.830  0.0272 -0.0374 -0.2561
  288TMC3    C8 4352   1.424   1.039  15.017 -0.4615 -0.6857  0.5596
  288TMC3    O1 4353   1.496   1.511  14.945  0.3531  0.1815 -0.3581
  288TMC3    O2 4354   1.492   1.074  15.112 -0.1952 -0.2528  0.0375
  289MPD2     C 4355   1.915   0.293  14.596 -0.6771 -1.1983 -0.3260
  289MPD2    C1 4356   1.849   0.410  14.578 -0.1604 -0.0065 -0.7277
  289MPD2    C2 4357   1.712   0.421  14.550  0.5342  0.1731 -0.4777
  289MPD2    C3 4358   1.645   0.296  14.544  0.1568  0.4172  0.3440
  289MPD2    C4 4359   1.712   0.174  14.562  0.2336 -0.2751  0.1971
  289MPD2    C5 4360   1.848   0.172  14.596  0.5022  0.2903  0.2642
  289MPD2     H 4361   1.654   0.510  14.534  1.0243  0.6457  0.3551
  289MPD2    H1 4362   1.659   0.080  14.558 -2.6044  1.3780 -0.6801
  289MPD2    H2 4363   2.023   0.291  14.602 -0.7456  0.5685  1.4982
  289MPD2    H3 4364   1.901   0.079  14.611  3.6123  1.6995 -1.8545
  289MPD2     N 4365   1.503   0.294  14.530  0.1160  0.6936  0.0855
  289MPD2    H5 4366   1.455   0.205  14.521 -1.6642  1.5346  1.3379
  289MPD2    N1 4367   1.929   0.527  14.568 -0.4001  0.6546  0.2349
  289MPD2    H7 4368   2.023   0.522  14.606  0.1155  1.3156 -0.9474
  290TMC3    C1 4369   1.283   0.366  14.500 -0.1478 -0.6510 -0.4066
  290TMC3    C2 4370   1.190   0.466  14.513  0.7255  0.1826 -0.7869
  290TMC3    C3 4371   1.071   0.457  14.449 -0.4638 -0.2552  0.0670
  290TMC3    C4 4372   1.265   0.257  14.416  0.5874  0.1551 -0.4647
  290TMC3    C5 4373   1.142   0.247  14.359  0.5419  0.4208  0.2394
  290TMC3    C6 4374   1.051   0.345  14.372  0.1100  0.1546  0.1078
  290TMC3     C 4375   1.419   0.402  14.536  0.0065 -0.0013 -0.7090
  290TMC3     O 4376   1.428   0.514  14.590 -0.6501 -0.1306  0.0580
  290TMC3     H 4377   1.217   0.551  14.576 -2.1253 -0.2284  0.9998
  290TMC3    H1 4378   1.344   0.187  14.390  1.3645  0.6771  0.5046
  290TMC3    H2 4379   0.952   0.345  14.326  0.2001  0.3074 -0.0883
  290TMC3    C7 4380   1.100   0.126  14.284  0.8298  0.1140 -0.3697
  290TMC3    C8 4381   0.996   0.583  14.418  0.0975  0.7101  0.0685
  290TMC3    O1 4382   0.986   0.136  14.248  0.3211  0.9038 -0.0682
  290TMC3    O2 4383   0.917   0.583  14.326 -0.4492  0.2751  0.4982
  291MPD2     C 4384   0.681   4.633  17.148  0.1594  0.1620 -0.4861
  291MPD2    C1 4385   0.653   4.551  17.257 -0.2633 -0.3637  0.0677
  291MPD2    C2 4386   0.734   4.553  17.370  0.7204 -0.0959 -1.2067
  291MPD2    C3 4387   0.837   4.643  17.375 -0.0660  0.2866  0.0702
  291MPD2    C4 4388   0.870   4.713  17.265  0.1080  0.1328 -0.4677
  291MPD2    C5 4389   0.797   4.702  17.149 -0.4618  0.0794 -0.1906
  291MPD2     H 4390   0.712   4.488  17.454  2.3058  1.4696  0.4245
  291MPD2    H1 4391   0.958   0.056  17.265  0.7959 -0.8269 -1.2253
  291MPD2    H2 4392   0.616   4.631  17.062  1.5223 -0.8730 -1.4985
  291MPD2    H3 4393   0.832   0.036  17.062  0.3075 -0.3939 -0.1769
  291MPD2     N 4394   0.904   4.671  17.495  0.5057  0.4097 -0.4456
  291MPD2    H5 4395   0.978   0.019  17.498  0.3680  0.4901  1.1313
  291MPD2    N1 4396   0.556   4.451  17.264  0.3858  0.2629  0.0854
  291MPD2    H7 4397   0.554   4.388  17.344 -1.1821  1.5701  1.0609
  292TMC3    C1 4398   0.377   4.309  17.210  0.9183 -0.1398 -0.3337
  292TMC3    C2 4399   0.243   4.314  17.187 -0.2943  0.0913  0.2159
  292TMC3    C3 4400   0.169   4.214  17.242  0.4495 -1.0391 -0.3920
  292TMC3    C4 4401   0.435   4.208  17.285  0.0324 -0.1804  0.9102
  292TMC3    C5 4402   0.358   4.107  17.340 -0.0698 -0.3803 -0.3753
  292TMC3    C6 4403   0.221   4.121  17.333  0.0603  0.1635 -0.1296
  292TMC3     C 4404   0.446   4.429  17.178  0.6634  0.3061  0.5578
  292TMC3     O 4405   0.400   4.504  17.092 -1.3726 -0.0043 -0.5027
  292TMC3     H 4406   0.200   4.398  17.133  1.9801 -0.8763 -3.1026
  292TMC3    H1 4407   0.542   4.193  17.284  0.1044  0.2762  1.5655
  292TMC3    H2 4408   0.167   4.039  17.380  0.8294  1.0912  2.3411
  292TMC3    C7 4409   0.417   4.025  17.450  0.3753  0.5240 -0.2563
  292TMC3    C8 4410   0.023   4.214  17.210 -0.6839 -0.4541  0.5001
  292TMC3    O1 4411   0.335   3.986  17.530 -0.2223 -0.1151  0.2312
  292TMC3    O2 4412   4.714   4.285  17.120 -0.3578  0.1060  0.2037
  293MPD2     C 4413   2.730   1.844  12.356 -0.7600  0.6873 -0.1298
  293MPD2    C1 4414   2.693   1.746  12.437  0.0832  0.1996 -0.0757
  293MPD2    C2 4415   2.732   1.749  12.573 -0.7784 -0.3262 -0.6437
  293MPD2    C3 4416   2.794   1.856  12.629 -0.5830 -0.2547  0.7586
  293MPD2    C4 4417   2.823   1.963  12.543  0.1649 -0.1052 -0.2798
  293MPD2    C5 4418   2.799   1.946  12.409 -0.5422 -0.2650 -0.3364
  293MPD2     H 4419   2.696   1.669  12.636  1.7304  0.4172  1.7507
  293MPD2    H1 4420   2.871   2.058  12.566 -0.7994  0.4930 -0.7505
  293MPD2    H2 4421   2.704   1.848  12.251 -0.9327  1.1506 -0.0672
  293MPD2    H3 4422   2.832   2.028  12.346  1.3147  0.2725  1.3164
  293MPD2     N 4423   2.829   1.864  12.764  0.0531 -0.0576  0.5974
  293MPD2    H5 4424   2.803   1.780  12.815 -0.6088  0.7381  1.5827
  293MPD2    N1 4425   2.606   1.650  12.375  0.0433  0.1584  0.3727
  293MPD2    H7 4426   2.574   1.681  12.284  2.5587  0.3520 -0.4558
  294TMC3    C1 4427   2.452   1.485  12.344  0.0519  0.5691  0.7172
  294TMC3    C2 4428   2.346   1.424  12.405  0.1975 -0.1443  0.1199
  294TMC3    C3 4429   2.260   1.356  12.323  1.1268  0.0623 -0.1729
  294TMC3    C4 4430   2.469   1.490  12.211 -0.4432  0.3685 -0.6229
  294TMC3    C5 4431   2.383   1.426  12.132 -0.8199 -0.3833  0.3984
  294TMC3    C6 4432   2.271   1.362  12.192  0.3725 -0.1293 -0.2008
  294TMC3     C 4433   2.550   1.539  12.435  0.1762  0.3837  0.2839
  294TMC3     O 4434   2.567   1.480  12.542  0.1870  0.5958  0.9618
  294TMC3     H 4435   2.323   1.449  12.508  3.1487 -0.7016  0.9389
  294TMC3    H1 4436   2.547   1.547  12.162 -0.0202 -0.3033 -0.7216
  294TMC3    H2 4437   2.195   1.317  12.129  0.3464 -1.1960  0.6013
  294TMC3    C7 4438   2.370   1.487  11.997 -0.1546 -0.2950  0.5254
  294TMC3    C8 4439   2.137   1.305  12.375 -0.1645 -0.0788 -0.3085
  294TMC3    O1 4440   2.262   1.546  11.981 -0.0717 -0.1924 -0.7670
  294TMC3    O2 4441   2.112   1.351  12.489 -0.1116 -0.2397  0.2822
  295MPD2     C 4442   3.334   3.783   1.178  0.1804  0.1639 -0.0954
  295MPD2    C1 4443   3.268   3.900   1.182 -0.3852  1.2387 -0.4709
  295MPD2    C2 4444   3.221   3.935   1.312 -0.4906  0.7802 -0.8565
  295MPD2    C3 4445   3.248   3.860   1.421  0.2813  0.1164  1.0580
  295MPD2    C4 4446   3.313   3.741   1.407  0.3610 -0.3604  0.3642
  295MPD2    C5 4447   3.356   3.702   1.287 -0.0586 -0.1832 -0.8223
  295MPD2     H 4448   3.154   4.019   1.321 -1.1589  0.1509  0.0072
  295MPD2    H1 4449   3.338   3.680   1.493 -0.9054 -1.8587 -0.3277
  295MPD2    H2 4450   3.392   3.752   1.092 -0.5289  0.9614 -0.8595
  295MPD2    H3 4451   3.418   3.614   1.274 -0.2603 -0.7283  1.9322
  295MPD2     N 4452   3.199   3.882   1.556 -0.1045 -0.2763 -0.9658
  295MPD2    H5 4453   3.217   3.811   1.626 -0.7211  1.5701  1.0566
  295MPD2    N1 4454   3.246   3.975   1.068  0.2346  0.2942  0.2364
  295MPD2    H7 4455   3.289   3.946   0.981 -1.1712 -3.2937  0.7439
  296TMC3    C1 4456   3.093   3.988   1.737  0.5088  0.3721 -0.2271
  296TMC3    C2 4457   3.079   4.104   1.807 -0.8343 -0.5169  0.3579
  296TMC3    C3 4458   3.007   4.107   1.918 -0.0306 -0.1836 -0.1043
  296TMC3    C4 4459   3.047   3.871   1.794 -0.4483  0.7686 -0.2466
  296TMC3    C5 4460   2.970   3.873   1.910 -0.1497  0.6563  0.3509
  296TMC3    C6 4461   2.953   3.990   1.981 -0.3058  0.2421  0.7659
  296TMC3     C 4462   3.138   3.998   1.599  0.1038 -0.2341  0.1740
  296TMC3     O 4463   3.132   4.109   1.543 -0.5440 -0.2524 -0.1052
  296TMC3     H 4464   3.128   4.191   1.766  0.0445 -0.7231  0.9662
  296TMC3    H1 4465   3.052   3.777   1.741 -1.7353  0.3029  0.4573
  296TMC3    H2 4466   2.902   3.992   2.076  2.0347  0.7457  2.0197
  296TMC3    C7 4467   2.880   3.763   1.919 -0.1678  0.5279 -0.3400
  296TMC3    C8 4468   2.960   4.232   1.965  0.6334 -0.1138  0.3203
  296TMC3    O1 4469   2.898   3.659   1.854 -0.2064 -0.6581 -0.2109
  296TMC3    O2 4470   2.851   4.237   2.022  0.6132  0.1268  0.1278
  297MPD2     C 4471   0.533   2.221  16.545  0.3224 -0.1266  0.6855
  297MPD2    C1 4472   0.530   2.332  16.457  0.4735  0.2585  0.2579
  297MPD2    C2 4473   0.646   2.385  16.413  0.2391 -0.4377 -0.8277
  297MPD2    C3 4474   0.771   2.355  16.471 -0.0464 -0.4978 -0.9661
  297MPD2    C4 4475   0.773   2.249  16.562  0.7964  0.2389  0.6266
  297MPD2    C5 4476   0.656   2.184  16.592  0.3600 -0.3745 -0.2662
  297MPD2     H 4477   0.634   2.473  16.352  0.4650 -1.1299 -1.8654
  297MPD2    H1 4478   0.869   2.219  16.604  1.3288 -0.0435 -0.8032
  297MPD2    H2 4479   0.448   2.169  16.587 -0.1899 -1.1314 -1.6068
  297MPD2    H3 4480   0.658   2.105  16.667 -1.7904 -1.3920 -1.2781
  297MPD2     N 4481   0.894   2.421  16.438 -0.0544 -0.3944 -0.0800
  297MPD2    H5 4482   0.885   2.510  16.391  1.4258 -0.1231  0.1479
  297MPD2    N1 4483   0.411   2.382  16.403  0.1281  0.1577 -0.0461
  297MPD2    H7 4484   0.415   2.446  16.324 -0.2328 -0.9710 -0.9797
  298TMC3    C1 4485   0.187   2.374  16.358 -0.8586  0.0630 -0.0987
  298TMC3    C2 4486   0.218   2.390  16.226 -0.8157 -1.0748 -0.0654
  298TMC3    C3 4487   0.128   2.450  16.144 -0.3538 -0.0004  0.0543
  298TMC3    C4 4488   0.066   2.411  16.401  0.1510 -0.4006  0.6497
  298TMC3    C5 4489   4.685   2.451  16.314  0.2954 -0.5820 -1.0041
  298TMC3    C6 4490   4.718   2.476  16.179 -0.6169  0.8527 -0.5545
  298TMC3     C 4491   0.289   2.345  16.449 -0.1671 -0.2851 -0.1144
  298TMC3     O 4492   0.242   2.314  16.557 -0.1407  0.2110  0.0826
  298TMC3     H 4493   0.306   2.352  16.176  0.2819 -1.8651  2.4968
  298TMC3    H1 4494   0.038   2.397  16.504 -2.1902  3.2529  0.5070
  298TMC3    H2 4495   4.650   2.520  16.107  0.6908 -0.8066 -2.7718
  298TMC3    C7 4496   4.558   2.508  16.377 -0.0498 -0.1881  0.6537
  298TMC3    C8 4497   0.172   2.460  16.004 -0.0176  0.1348  0.2984
  298TMC3    O1 4498   4.569   2.565  16.485  0.0739 -0.2337 -0.3682
  298TMC3    O2 4499   0.293   2.451  15.985 -1.0105 -0.3652  0.1900
  299MPD2     C 4500   0.149   1.640  10.710  0.2731 -0.7601  0.0753
  299MPD2    C1 4501   0.185   1.689  10.583  0.3758  0.1148 -0.1973
  299MPD2    C2 4502   0.177   1.607  10.474 -0.1250 -0.5678 -0.4551
  299MPD2    C3 4503   0.131   1.476  10.493  0.2370 -0.0276  0.2312
  299MPD2    C4 4504   0.096   1.434  10.620 -0.0130 -0.0636 -0.2732
  299MPD2    C5 4505   0.110   1.515  10.723  0.6993  0.1054  0.3015
  299MPD2     H 4506   0.210   1.638  10.375  0.5524  4.2456  1.2969
  299MPD2    H1 4507   0.062   1.336  10.648  0.9581 -0.4376 -0.3976
  299MPD2    H2 4508   0.154   1.701  10.800 -0.2874  0.1848 -0.5350
  299MPD2    H3 4509   0.094   1.463  10.817 -0.3576 -2.3731 -1.2204
  299MPD2     N 4510   0.110   1.384  10.388 -0.5273  0.0262  0.2500
  299MPD2    H5 4511   0.069   1.296  10.419  1.2634 -1.4948 -1.6779
  299MPD2    N1 4512   0.231   1.826  10.578 -0.7433  0.4199  0.0318
  299MPD2    H7 4513   0.252   1.877  10.664  1.2233 -0.7773  0.2576
  300TMC3    C1 4514   0.087   1.286  10.183  0.1369 -0.7160 -0.1253
  300TMC3    C2 4515   0.065   1.326  10.054 -0.2388 -0.8871  0.2339
  300TMC3    C3 4516   4.660   1.348  10.009  0.6127 -1.3138 -0.5231
  300TMC3    C4 4517   4.700   1.213  10.243  0.4196  0.7393 -1.0386
  300TMC3    C5 4518   4.576   1.235  10.187  0.0964  0.6103 -0.0169
  300TMC3    C6 4519   4.549   1.298  10.071  0.1207 -1.0219  0.4472
  300TMC3     C 4520   0.127   1.404  10.250 -0.5459  0.3392  0.0941
  300TMC3     O 4521   0.158   1.502  10.182  0.1643  0.2824 -0.7104
  300TMC3     H 4522   0.142   1.374   9.994 -2.1578  1.0097 -0.7561
  300TMC3    H1 4523   4.700   1.171  10.343  3.0501 -0.1532 -1.4132
  300TMC3    H2 4524   4.450   1.284  10.030 -0.2422  0.5036  0.8067
  300TMC3    C7 4525   4.456   1.197  10.260 -0.0049 -0.5406  0.3544
  300TMC3    C8 4526   4.642   1.452   9.913 -0.1571 -0.6575 -0.5476
  300TMC3    O1 4527   4.422   1.078  10.264 -0.4014  0.0723 -0.2032
  300TMC3    O2 4528   4.556   1.437   9.827  0.1678  0.0794  0.0713
  301MPD2     C 4529   3.210   2.225   1.532 -0.4721  1.2264 -0.2145
  301MPD2    C1 4530   3.145   2.275   1.418 -0.5200  0.1650 -0.1350
  301MPD2    C2 4531   3.177   2.230   1.293 -0.6506  0.2052  0.4815
  301MPD2    C3 4532   3.279   2.131   1.279 -0.1564 -0.0786  0.3201
  301MPD2    C4 4533   3.327   2.076   1.398  0.0237  0.4400  0.6233
  301MPD2    C5 4534   3.284   2.114   1.520 -0.0006 -0.0963 -0.1211
  301MPD2     H 4535   3.138   2.269   1.200  0.7426  1.6656  0.5148
  301MPD2    H1 4536   3.392   1.990   1.384  0.1161  0.6615 -0.2952
  301MPD2    H2 4537   3.180   2.264   1.629  1.3813  3.0470 -0.3768
  301MPD2    H3 4538   3.322   2.059   1.605 -1.7052 -0.1099  0.6384
  301MPD2     N 4539   3.325   2.092   1.154  0.2295 -0.1223  0.1128
  301MPD2    H5 4540   3.399   2.023   1.155  0.7292  0.4426  1.6786
  301MPD2    N1 4541   3.051   2.380   1.422  0.4007  0.0670  0.0671
  301MPD2    H7 4542   3.001   2.395   1.335 -2.3847 -0.3136  1.6279
  302TMC3    C1 4543   3.321   2.054   0.919  0.7453  0.0084  0.0380
  302TMC3    C2 4544   3.440   1.984   0.932 -0.4274 -0.5395  0.0822
  302TMC3    C3 4545   3.481   1.921   0.820  0.3319 -0.0186  0.4808
  302TMC3    C4 4546   3.256   2.055   0.798  0.4355  0.4115  0.0410
  302TMC3    C5 4547   3.311   2.009   0.682 -0.2572 -0.1797  0.3863
  302TMC3    C6 4548   3.422   1.933   0.701 -0.4354 -0.2990 -0.5282
  302TMC3     C 4549   3.269   2.127   1.031  0.2604 -0.1924  0.0863
  302TMC3     O 4550   3.187   2.207   0.998 -0.4577 -0.3810  0.8837
  302TMC3     H 4551   3.510   2.003   1.013  1.2761 -2.0244 -1.0455
  302TMC3    H1 4552   3.162   2.109   0.802  0.7304  0.8275  1.5691
  302TMC3    H2 4553   3.461   1.881   0.613 -1.4154 -1.7367 -0.1174
  302TMC3    C7 4554   3.229   2.004   0.559 -0.3384  0.0753  0.3366
  302TMC3    C8 4555   3.586   1.815   0.824  0.1533 -1.2425  0.1123
  302TMC3    O1 4556   3.264   1.923   0.472  0.1274  0.1499  0.3976
  302TMC3    O2 4557   3.631   1.774   0.716 -0.4280 -0.2881  0.3789
  303MPD2     C 4558   2.669   1.498   9.706  0.2765 -0.0023  0.0928
  303MPD2    C1 4559   2.618   1.553   9.821  0.2087  0.0253  0.2467
  303MPD2    C2 4560   2.634   1.478   9.943 -0.0517  0.8259 -0.3683
  303MPD2    C3 4561   2.694   1.353   9.936  0.5275 -0.0458  0.1757
  303MPD2    C4 4562   2.759   1.320   9.821  0.7136  0.2717 -0.0873
  303MPD2    C5 4563   2.737   1.383   9.702 -0.0923 -0.1966 -0.2835
  303MPD2     H 4564   2.596   1.527  10.032 -0.8324  0.7307 -0.6500
  303MPD2    H1 4565   2.805   1.222   9.820  0.7634  0.2995 -2.6124
  303MPD2    H2 4566   2.657   1.556   9.616 -2.1582 -0.2419  0.2611
  303MPD2    H3 4567   2.776   1.347   9.608 -0.9834 -1.8094 -0.0402
  303MPD2     N 4568   2.709   1.267  10.047  0.3519  0.0496 -0.8340
  303MPD2    H5 4569   2.768   1.184  10.045  2.2870  1.4122 -1.0128
  303MPD2    N1 4570   2.550   1.675   9.812  0.1798 -0.4739  0.0974
  303MPD2    H7 4571   2.549   1.710   9.716 -2.3714 -0.3091  0.1965
  304TMC3    C1 4572   2.468   1.887   9.863  0.3078 -0.0296 -0.5982
  304TMC3    C2 4573   2.393   1.891   9.756  0.5844  0.4144  0.3722
  304TMC3    C3 4574   2.304   1.993   9.747 -0.0593  0.0696  0.2333
  304TMC3    C4 4575   2.460   1.977   9.968 -0.7722 -0.2284  0.2606
  304TMC3    C5 4576   2.363   2.067   9.967  0.2126  0.1842 -0.0372
  304TMC3    C6 4577   2.290   2.070   9.856  0.0261  0.6353  0.9738
  304TMC3     C 4578   2.515   1.755   9.912  0.3467 -0.0998 -0.1580
  304TMC3     O 4579   2.552   1.739  10.026  0.4228 -0.3273 -0.4560
  304TMC3     H 4580   2.406   1.832   9.666  0.3861  3.4813 -1.6317
  304TMC3    H1 4581   2.520   1.964  10.057  1.3751 -0.2154 -1.1816
  304TMC3    H2 4582   2.216   2.147   9.838 -0.1341 -0.3087 -2.3595
  304TMC3    C7 4583   2.273   2.047  10.082  0.5484 -0.7146 -0.6083
  304TMC3    C8 4584   2.173   1.961   9.690 -0.3267 -0.4418 -0.4373
  304TMC3    O1 4585   2.152   2.021  10.059 -0.2907  0.0440  0.0769
  304TMC3    O2 4586   2.171   1.924   9.573  0.9817  0.0920 -0.0190
  305MPD2     C 4587   1.623   3.414  13.966  0.0500  0.6405 -0.6347
  305MPD2    C1 4588   1.505   3.347  13.953 -0.2026  0.3065 -0.4314
  305MPD2    C2 4589   1.473   3.275  13.833  0.7311  0.3440  0.0471
  305MPD2    C3 4590   1.566   3.280  13.729  0.3686  0.3505 -0.2225
  305MPD2    C4 4591   1.682   3.356  13.740  0.4315 -1.3641 -0.1593
  305MPD2    C5 4592   1.714   3.415  13.863  0.4346  0.0753 -0.2008
  305MPD2     H 4593   1.384   3.213  13.828  0.8255  0.3224 -1.5974
  305MPD2    H1 4594   1.755   3.346  13.661  1.4178  0.0697  0.5895
  305MPD2    H2 4595   1.656   3.464  14.057  0.4804  0.3126 -0.6102
  305MPD2    H3 4596   1.808   3.466  13.881  0.1859  1.1947 -2.0597
  305MPD2     N 4597   1.558   3.201  13.607  0.6681  0.5468 -0.7737
  305MPD2    H5 4598   1.622   3.232  13.534  0.8145  0.2891 -0.7530
  305MPD2    N1 4599   1.417   3.360  14.066  0.0585 -0.1801 -0.0820
  305MPD2    H7 4600   1.452   3.426  14.135 -4.2115 -1.6832  3.5568
  306TMC3    C1 4601   1.241   3.346  14.206 -0.1472  0.5334  0.2454
  306TMC3    C2 4602   1.212   3.260  14.306 -0.0620  0.4752 -0.2417
  306TMC3    C3 4603   1.183   3.308  14.431  0.6529 -0.2424 -0.3233
  306TMC3    C4 4604   1.248   3.482  14.222 -0.0034  0.1233 -0.6943
  306TMC3    C5 4605   1.222   3.527  14.352  0.6388  0.1810 -0.6092
  306TMC3    C6 4606   1.199   3.441  14.456  0.8483 -0.8178  0.4793
  306TMC3     C 4607   1.306   3.288  14.092  0.1701 -0.0280  0.5602
  306TMC3     O 4608   1.266   3.188  14.039  0.0105  0.0977  0.2099
  306TMC3     H 4609   1.218   3.154  14.286  1.5652  0.3241  1.0572
  306TMC3    H1 4610   1.240   3.554  14.142  1.5488 -0.6962 -1.5889
  306TMC3    H2 4611   1.171   3.476  14.555  1.6056 -1.0155  0.7656
  306TMC3    C7 4612   1.234   3.667  14.395 -0.2499  0.2446 -0.1217
  306TMC3    C8 4613   1.229   3.235  14.537 -0.5177 -0.7617  0.4823
  306TMC3    O1 4614   1.178   3.756  14.329  0.3019 -0.6388 -0.0846
  306TMC3    O2 4615   1.307   3.297  14.611 -0.2107  0.6342 -0.1942
  307MPD2     C 4616   3.600   0.379   1.275  0.6731  0.6576  0.7995
  307MPD2    C1 4617   3.608   0.510   1.254  0.1545  0.7076  0.0002
  307MPD2    C2 4618   3.511   0.595   1.292  0.0468  0.5446  0.0765
  307MPD2    C3 4619   3.393   0.541   1.352 -0.3585  0.3604 -0.5592
  307MPD2    C4 4620   3.389   0.404   1.377  0.3006 -0.5861 -0.3568
  307MPD2    C5 4621   3.494   0.326   1.341 -0.1146 -0.2531 -0.0147
  307MPD2     H 4622   3.507   0.703   1.278 -1.2810  0.4951  0.0567
  307MPD2    H1 4623   3.305   0.357   1.427 -0.1092  3.8088  3.1232
  307MPD2    H2 4624   3.685   0.316   1.249 -0.6427 -0.3020 -1.2658
  307MPD2    H3 4625   3.486   0.222   1.373  2.2222 -1.0555 -1.9824
  307MPD2     N 4626   3.283   0.626   1.394 -0.0895  0.1195 -0.3557
  307MPD2    H5 4627   3.291   0.726   1.377 -2.7840  0.2018 -1.1820
  307MPD2    N1 4628   3.709   0.566   1.176 -0.1188 -0.2293  0.1494
  307MPD2    H7 4629   3.705   0.666   1.160 -1.5187 -0.6627 -2.1751
  308TMC3    C1 4630   2.850   0.736   1.466  0.2160 -0.0514  0.3319
  308TMC3    C2 4631   2.875   0.868   1.481 -0.0472 -0.1253  0.5480
  308TMC3    C3 4632   3.006   0.908   1.468 -0.0369 -0.1891 -0.1866
  308TMC3    C4 4633   2.943   0.650   1.450  0.2953  0.0983 -0.3551
  308TMC3    C5 4634   3.070   0.684   1.442  0.2224  0.0316  0.1151
  308TMC3    C6 4635   3.104   0.819   1.459  0.2479  0.0423 -0.0896
  308TMC3     C 4636   2.734   0.713   1.377 -0.7841  0.3663  0.2586
  308TMC3     O 4637   2.686   0.601   1.373  0.1173 -0.5648  0.3743
  308TMC3     H 4638   2.794   0.938   1.500 -0.0220 -0.1612  0.7868
  308TMC3    H1 4639   2.915   0.548   1.428  0.3634 -0.0438  0.2247
  308TMC3    H2 4640   3.203   0.848   1.493  0.1807  0.2504 -0.0776
  308TMC3    C7 4641   3.169   0.583   1.443 -0.7366  0.6951 -0.1780
  308TMC3    C8 4642   3.032   1.042   1.503 -0.6056  0.2394 -0.2927
  308TMC3    O1 4643   3.130   0.470   1.460 -0.4393 -0.0137 -0.5676
  308TMC3    O2 4644   2.944   1.101   1.559  0.3267  0.1626  0.0440
  309MPD2     C 4645   3.301   1.594  17.122 -0.9480 -0.0670  0.1499
  309MPD2    C1 4646   3.222   1.697  17.081 -0.7318  0.4314 -0.0552
  309MPD2    C2 4647   3.088   1.706  17.110  0.2715  0.2230 -0.1356
  309MPD2    C3 4648   3.039   1.611  17.194  0.3634 -0.1580  0.0168
  309MPD2    C4 4649   3.122   1.511  17.240  0.1872 -0.2419  0.1592
  309MPD2    C5 4650   3.253   1.497  17.201 -0.0048 -0.2424 -0.4242
  309MPD2     H 4651   3.040   1.794  17.069 -1.8283 -0.7727  0.1892
  309MPD2    H1 4652   3.089   1.435  17.309  2.8578  0.7000  2.4869
  309MPD2    H2 4653   3.407   1.586  17.100 -1.2972 -2.5553 -0.5796
  309MPD2    H3 4654   3.314   1.415  17.239 -0.9908 -0.8697 -0.1833
  309MPD2     N 4655   2.907   1.602  17.228  0.6947 -0.0545 -0.0094
  309MPD2    H5 4656   2.878   1.524  17.286 -0.4158  1.9740  2.1486
  309MPD2    N1 4657   3.282   1.796  16.995  0.2379 -0.6967  0.7033
  309MPD2    H7 4658   3.224   1.876  16.975  0.1404 -0.8771  0.2448
  310TMC3    C1 4659   3.429   1.926  16.858  0.0641 -0.0316 -0.4809
  310TMC3    C2 4660   3.323   1.975  16.784  0.2534 -0.3636 -0.3091
  310TMC3    C3 4661   3.358   2.067  16.692 -0.4766 -0.7745 -0.5299
  310TMC3    C4 4662   3.561   1.960  16.822 -0.2851 -0.4842 -0.4874
  310TMC3    C5 4663   3.596   2.059  16.728  0.0545 -0.3453 -0.9939
  310TMC3    C6 4664   3.484   2.115  16.662 -0.3920  0.5070  0.1645
  310TMC3     C 4665   3.410   1.805  16.949  0.6554 -0.0808  0.2847
  310TMC3     O 4666   3.514   1.748  16.971  0.5078 -0.2223  0.4253
  310TMC3     H 4667   3.235   1.913  16.778 -0.2863  0.4809 -1.1421
  310TMC3    H1 4668   3.641   1.918  16.881 -0.0209  0.8199  0.0870
  310TMC3    H2 4669   3.486   2.181  16.576  0.1994  1.8606  1.2065
  310TMC3    C7 4670   3.725   2.048  16.663 -0.3079  0.9113  0.1182
  310TMC3    C8 4671   3.272   2.081  16.580  0.4995  0.5662  0.2742
  310TMC3    O1 4672   3.787   1.947  16.691  0.5842  0.2998 -0.1195
  310TMC3    O2 4673   3.252   2.195  16.540 -0.0490 -0.0065  0.7218
  311MPD2     C 4674   0.263   2.811  12.720  0.4510  0.0731  0.0144
  311MPD2    C1 4675   0.249   2.947  12.753 -0.2678  0.8759 -0.1692
  311MPD2    C2 4676   0.128   2.985  12.811 -0.0732 -0.4631  0.6564
  311MPD2    C3 4677   0.018   2.900  12.818 -0.0418 -0.3283  0.1404
  311MPD2    C4 4678   0.031   2.772  12.773  0.4047  0.2271 -0.0613
  311MPD2    C5 4679   0.156   2.724  12.733 -0.2193  1.0399 -0.1246
  311MPD2     H 4680   0.116   3.081  12.859 -0.4256 -1.4611  2.5771
  311MPD2    H1 4681   4.668   2.703  12.776 -0.9942  1.9304 -0.0677
  311MPD2    H2 4682   0.355   2.765  12.684 -0.8159 -0.3028 -2.7391
  311MPD2    H3 4683   0.163   2.622  12.695 -0.0369  1.0744 -0.1817
  311MPD2     N 4684   4.620   2.942  12.878 -0.0012 -0.3562  0.4458
  311MPD2    H5 4685   4.627   3.027  12.934  1.8791 -1.6699  2.2046
  311MPD2    N1 4686   0.356   3.037  12.745 -0.2443  0.1341 -0.4869
  311MPD2    H7 4687   0.343   3.132  12.779  1.1985 -0.6589  2.3310
  312TMC3    C1 4688   4.399   2.941  12.925 -0.4750 -0.4484 -0.2112
  312TMC3    C2 4689   4.286   2.939  12.857 -0.1141  0.5435  0.4496
  312TMC3    C3 4690   4.187   3.024  12.894 -0.4675 -0.7263 -0.3832
  312TMC3    C4 4691   4.418   3.015  13.041  0.0482 -0.0084  0.1089
  312TMC3    C5 4692   4.314   3.101  13.073  0.7171  0.0736 -0.2823
  312TMC3    C6 4693   4.190   3.100  13.010  0.6900  0.1062 -0.4936
  312TMC3     C 4694   4.506   2.877  12.860 -0.6155  0.1841 -0.2522
  312TMC3     O 4695   4.475   2.798  12.767  0.1125 -0.0191 -0.2022
  312TMC3     H 4696   4.290   2.896  12.758  0.3960  0.2919  0.5795
  312TMC3    H1 4697   4.516   3.009  13.089 -0.6527 -1.1574  1.4045
  312TMC3    H2 4698   4.106   3.160  13.044  0.4452 -0.7906  0.4804
  312TMC3    C7 4699   4.332   3.206  13.175 -0.3651  0.1591 -0.1706
  312TMC3    C8 4700   4.072   3.033  12.806 -0.0141  0.6815 -0.2010
  312TMC3    O1 4701   4.245   3.293  13.181 -0.2204 -0.7091  0.0155
  312TMC3    O2 4702   4.058   2.931  12.735  0.4337  0.7555 -0.4425
  313MPD2     C 4703   4.496   2.519  10.253 -0.4070  0.2134 -1.0424
  313MPD2    C1 4704   4.468   2.413  10.334 -0.4139  0.2062 -0.2147
  313MPD2    C2 4705   4.435   2.284  10.281  0.2686  0.4780 -0.3441
  313MPD2    C3 4706   4.423   2.269  10.146 -0.7185 -0.1943  0.8560
  313MPD2    C4 4707   4.460   2.375  10.064  0.8988  0.0246 -0.2477
  313MPD2    C5 4708   4.494   2.499  10.119 -0.4691 -0.9719 -0.8669
  313MPD2     H 4709   4.411   2.200  10.345 -2.0948  0.9756 -0.5559
  313MPD2    H1 4710   4.466   2.362   9.957  2.3411 -1.6501  0.0319
  313MPD2    H2 4711   4.514   2.618  10.292 -0.3141 -0.4359  0.5869
  313MPD2    H3 4712   4.530   2.575  10.050 -2.6535  1.0031  0.1584
  313MPD2     N 4713   4.372   2.142  10.099  0.1486 -0.1766 -0.4139
  313MPD2    H5 4714   4.352   2.068  10.165 -0.2024  0.9913  0.7994
  313MPD2    N1 4715   4.478   2.430  10.480  0.2554  0.5075  0.2967
  313MPD2    H7 4716   4.459   2.343  10.529  0.4866  0.9733  1.2096
  314TMC3    C1 4717   4.529   2.528  10.696 -0.2035  0.3009 -0.0276
  314TMC3    C2 4718   4.597   2.630  10.751  0.1630 -0.2124  0.3657
  314TMC3    C3 4719   4.547   2.688  10.865 -0.1959  0.4044  0.5153
  314TMC3    C4 4720   4.405   2.490  10.748 -0.6964 -0.5544 -0.5300
  314TMC3    C5 4721   4.352   2.551  10.864 -0.1675  0.0576  0.0042
  314TMC3    C6 4722   4.426   2.650  10.923 -0.3339 -1.1070 -0.1503
  314TMC3     C 4723   4.530   2.541  10.549 -0.4189  0.3940 -0.4916
  314TMC3     O 4724   4.583   2.639  10.499  0.0568 -0.4893  0.4267
  314TMC3     H 4725   4.694   2.658  10.711 -0.0974  0.1070 -0.0457
  314TMC3    H1 4726   4.343   2.422  10.689  1.1421 -1.8923 -0.8996
  314TMC3    H2 4727   4.379   2.700  11.007 -0.3780  2.8882 -2.5555
  314TMC3    C7 4728   4.229   2.614  10.818  0.0038  0.2363 -0.3251
  314TMC3    C8 4729   4.614   2.804  10.917 -1.0610 -0.3938  0.2961
  314TMC3    O1 4730   4.225   2.732  10.792  0.2316  0.1348  0.2099
  314TMC3    O2 4731   4.684   2.858  10.834 -0.0941 -0.2863 -0.0926
  315MPD2     C 4732   4.376   1.814  17.599 -0.4088  0.1752 -0.0760
  315MPD2    C1 4733   4.471   1.869   0.005 -1.2768 -0.2708 -0.2572
  315MPD2    C2 4734   4.476   2.007   0.024  0.3604 -0.0327  0.0196
  315MPD2    C3 4735   4.377   2.091  17.662  0.3963  0.2757  0.2335
  315MPD2    C4 4736   4.284   2.036  17.569 -0.6505 -0.6116  0.6158
  315MPD2    C5 4737   4.284   1.899  17.549  0.2810  0.4329 -1.1866
  315MPD2     H 4738   4.545   2.048   0.097  0.4247 -1.4340  0.7333
  315MPD2    H1 4739   4.212   2.096  17.513  0.5818  0.7050  0.4537
  315MPD2    H2 4740   4.369   1.710  17.571  1.2434  0.0766 -0.1201
  315MPD2    H3 4741   4.208   1.861  17.481 -0.5566  0.3071 -0.1806
  315MPD2     N 4742   4.375   2.226   0.009 -0.5173  0.7772  0.3639
  315MPD2    H5 4743   4.458   2.269   0.047  0.3961 -0.6021 -0.0534
  315MPD2    N1 4744   4.564   1.772   0.066 -0.1307 -0.2489  0.6770
  315MPD2    H7 4745   4.636   1.819   0.120  1.0363  2.5491 -3.2533
  316TMC3    C1 4746   4.284   2.432   0.032 -0.3799  0.6218  0.0158
  316TMC3    C2 4747   4.399   2.480  17.656 -0.8074 -0.0060 -0.2877
  316TMC3    C3 4748   4.391   2.597  17.590  0.0721  0.0395 -0.2428
  316TMC3    C4 4749   4.169   2.513   0.032  0.5713  0.2251  1.1112
  316TMC3    C5 4750   4.165   2.634  17.641 -0.3366  0.4271  0.0478
  316TMC3    C6 4751   4.285   2.680  17.587  0.1057 -0.3680  1.1710
  316TMC3     C 4752   4.258   2.295   0.015 -0.8072  0.0928  0.4239
  316TMC3     O 4753   4.148   2.249   0.017  0.2753  0.0864 -0.6875
  316TMC3     H 4754   4.485   2.414  17.644 -0.9716 -0.3761  0.5376
  316TMC3    H1 4755   4.082   2.473   0.083 -0.1842 -0.5551 -0.7769
  316TMC3    H2 4756   4.287   2.778  17.541 -1.2120 -1.8205 -1.9871
  316TMC3    C7 4757   4.044   2.701  17.625  0.5395 -0.0652  0.2595
  316TMC3    C8 4758   4.510   2.648  17.527  0.2941  0.1893 -0.0860
  316TMC3    O1 4759   3.946   2.666   0.002  0.2624 -0.1202  0.1445
  316TMC3    O2 4760   4.499   2.711  17.422  0.1291  0.0707 -0.4580
  317MPD2     C 4761   1.229   0.382  13.137 -0.1840 -0.7164  0.0390
  317MPD2    C1 4762   1.235   0.248  13.112 -0.2429 -0.2152  0.5876
  317MPD2    C2 4763   1.319   0.163  13.188 -0.6832  0.3264  0.5505
  317MPD2    C3 4764   1.408   0.220  13.286 -0.1868 -1.2010  0.5236
  317MPD2    C4 4765   1.390   0.349  13.322  0.7190  0.3824  0.5701
  317MPD2    C5 4766   1.300   0.428  13.248  0.1605 -0.2917  0.1221
  317MPD2     H 4767   1.328   0.059  13.156  1.9447  0.7177  0.0658
  317MPD2    H1 4768   1.435   0.390  13.412  3.7019 -0.6235 -0.4638
  317MPD2    H2 4769   1.186   0.458  13.072 -0.4685 -1.1963 -0.3335
  317MPD2    H3 4770   1.284   0.532  13.274  1.0480  0.0541 -0.7070
  317MPD2     N 4771   1.508   0.136  13.345  0.8856 -0.0333  0.0747
  317MPD2    H5 4772   1.502   0.036  13.324 -1.0412  0.2332 -0.6209
  317MPD2    N1 4773   1.167   0.183  13.006  0.7967 -0.3502  0.0193
  317MPD2    H7 4774   1.196   0.086  12.998 -0.5389 -0.7165 -0.3746
  318TMC3    C1 4775   1.698   0.070  13.455 -0.0106 -0.6948 -0.1425
  318TMC3    C2 4776   1.647   4.661  13.472 -0.0357  0.7302  0.2677
  318TMC3    C3 4777   1.722   4.556  13.517  0.2566  0.3813 -0.3507
  318TMC3    C4 4778   1.829   0.091  13.481 -1.0118 -1.1522  0.8263
  318TMC3    C5 4779   1.904   4.705  13.527 -0.7590 -0.1914  0.3205
  318TMC3    C6 4780   1.857   4.574  13.546  0.0399  0.3380  1.0741
  318TMC3     C 4781   1.610   0.181  13.418 -0.8260  0.0520  0.2383
  318TMC3     O 4782   1.652   0.293  13.432  0.2446  0.0646  0.0051
  318TMC3     H 4783   1.540   4.646  13.461  0.3790 -2.6531  0.8158
  318TMC3    H1 4784   1.861   0.195  13.481 -0.9040 -1.1827 -0.7009
  318TMC3    H2 4785   1.914   4.503  13.605  0.5624 -0.6488 -0.6164
  318TMC3    C7 4786   2.048   0.018  13.557  0.9639  0.3616 -0.2327
  318TMC3    C8 4787   1.667   4.422  13.547 -0.5824 -0.1382 -0.0332
  318TMC3    O1 4788   2.074   0.137  13.565  0.8492  0.4618  0.3695
  318TMC3    O2 4789   1.747   4.345  13.600 -0.7480 -0.0531 -0.7214
  319MPD2     C 4790   2.862   1.282  17.140 -0.2494 -0.5303 -0.0087
  319MPD2    C1 4791   2.746   1.219  17.191 -0.2173 -0.0461 -0.9524
  319MPD2    C2 4792   2.629   1.201  17.119 -0.3701  0.6888  0.7109
  319MPD2    C3 4793   2.625   1.250  16.990  0.1704 -0.7055 -0.7834
  319MPD2    C4 4794   2.737   1.321  16.946  0.0200 -0.0881 -0.1695
  319MPD2    C5 4795   2.853   1.338  17.019  0.8631 -0.6708  0.0360
  319MPD2     H 4796   2.541   1.171  17.176 -0.4988 -2.9352 -1.4094
  319MPD2    H1 4797   2.736   1.370  16.850 -2.9567  2.0159  0.9381
  319MPD2    H2 4798   2.959   1.288  17.189  1.6664 -1.0466 -3.6965
  319MPD2    H3 4799   2.943   1.378  16.976  1.4089  0.1755  1.9514
  319MPD2     N 4800   2.515   1.234  16.900  0.3771  0.1862  0.0537
  319MPD2    H5 4801   2.532   1.260  16.803  0.8288  3.1494  0.9041
  319MPD2    N1 4802   2.741   1.170  17.327  0.0127  0.4705  0.1306
  319MPD2    H7 4803   2.651   1.135  17.359 -0.7009  1.4474 -0.8163
  320TMC3    C1 4804   2.311   1.163  16.814 -0.2981  0.5349 -0.5527
  320TMC3    C2 4805   2.289   1.263  16.723  0.1237 -0.2761  1.1368
  320TMC3    C3 4806   2.181   1.248  16.644 -0.2819  0.2515  0.5761
  320TMC3    C4 4807   2.233   1.048  16.810 -0.1888  0.3131  0.3938
  320TMC3    C5 4808   2.123   1.045  16.734 -0.8437 -0.7063 -0.0580
  320TMC3    C6 4809   2.089   1.151  16.653  1.1109 -0.3703  0.1235
  320TMC3     C 4810   2.401   1.166  16.926  0.2116 -0.2252  0.1875
  320TMC3     O 4811   2.365   1.105  17.027  0.1210 -0.1648 -0.4596
  320TMC3     H 4812   2.348   1.354  16.716 -1.3225  0.5451 -0.2416
  320TMC3    H1 4813   2.251   0.963  16.876  1.7231 -0.0067 -0.5297
  320TMC3    H2 4814   1.997   1.147  16.595  0.3917 -0.7062  1.2845
  320TMC3    C7 4815   2.056   0.921  16.713  0.1016  0.0188  1.0042
  320TMC3    C8 4816   2.175   1.327  16.524 -0.5718 -0.7053 -0.2684
  320TMC3    O1 4817   2.127   0.820  16.716  0.3533  0.2947 -0.4845
  320TMC3    O2 4818   2.247   1.424  16.513 -0.2216 -0.5180 -0.1601
  321TMC3    C1 4819   2.815   1.144  17.552 -0.0198  0.1657 -0.0273
  321TMC3    C2 4820   2.706   1.062  17.580  0.0875  0.0922 -0.4171
  321TMC3    C3 4821   2.658   1.048   0.025  0.4702 -0.0343  0.6432
  321TMC3    C4 4822   2.884   1.202  17.654  0.5279  0.9848  0.4793
  321TMC3    C5 4823   2.839   1.178   0.095 -0.1843  0.0431 -0.6259
  321TMC3    C6 4824   2.723   1.111   0.123 -0.1590  0.1937 -0.1943
  321TMC3     C 4825   2.837   1.201  17.422 -0.4993  0.4493 -0.3137
  321TMC3     O 4826   2.930   1.284  17.413 -0.2374 -0.1252 -0.0430
  321TMC3     H 4827   2.649   1.013  17.502 -0.2139  1.5594 -1.1073
  321TMC3    H1 4828   2.966   1.270  17.633  0.5564  0.4499 -1.1369
  321TMC3    H2 4829   2.689   1.103   0.226 -1.1926  0.0538 -0.5543
  321TMC3    C7 4830   2.932   1.125   0.191  0.0433 -0.7658 -0.4370
  321TMC3    C8 4831   2.617   0.915   0.060  0.9228 -0.9664  0.3201
  321TMC3    O1 4832   2.914   1.015   0.239  0.1227 -0.2854  0.5205
  321TMC3    O2 4833   2.525   0.862   0.001 -0.0630 -0.6276 -0.7645
  322MPD2     C 4834   1.146   2.633  13.641 -0.5602 -0.0405  0.0802
  322MPD2    C1 4835   1.182   2.595  13.770 -0.4006 -0.0092 -0.7442
  322MPD2    C2 4836   1.217   2.460  13.801  0.7084  0.3229  0.3461
  322MPD2    C3 4837   1.206   2.365  13.704 -0.0791 -0.7935  0.8932
  322MPD2    C4 4838   1.160   2.398  13.580 -0.4176 -0.0191  0.3363
  322MPD2    C5 4839   1.134   2.531  13.546 -0.0929  1.1160 -0.2592
  322MPD2     H 4840   1.251   2.436  13.901  0.7711  0.7467  0.4278
  322MPD2    H1 4841   1.175   2.327  13.500 -1.2878 -0.6315  0.7191
  322MPD2    H2 4842   1.144   2.734  13.603  1.0650  0.0438  0.2224
  322MPD2    H3 4843   1.110   2.552  13.443  1.2970 -2.9834 -1.4117
  322MPD2     N 4844   1.246   2.233  13.735  0.6915 -0.8784 -0.2254
  322MPD2    H5 4845   1.271   2.223  13.833 -0.2625  0.5673  0.1585
  322MPD2    N1 4846   1.195   2.702  13.858  0.6751  0.3040  0.5296
  322MPD2    H7 4847   1.199   2.797  13.823 -1.0178 -0.2183 -1.0709
  323TMC3    C1 4848   1.278   2.816  14.052 -0.2628 -0.4093  0.7189
  323TMC3    C2 4849   1.373   2.884  13.978  0.0311  0.7196 -0.0224
  323TMC3    C3 4850   1.456   2.968  14.042 -0.1053 -0.1655  0.5397
  323TMC3    C4 4851   1.276   2.819  14.187  0.7961 -0.8468  0.1353
  323TMC3    C5 4852   1.363   2.906  14.246 -0.0307 -0.5844  0.2938
  323TMC3    C6 4853   1.445   2.987  14.175 -0.4165  0.4146 -0.7059
  323TMC3     C 4854   1.213   2.703  13.995  1.0215 -0.1315  0.8784
  323TMC3     O 4855   1.210   2.606  14.065  0.1585 -0.3038  0.3273
  323TMC3     H 4856   1.377   2.882  13.870 -1.1420  1.0023 -0.0673
  323TMC3    H1 4857   1.218   2.746  14.242  1.1147 -1.4447 -0.3213
  323TMC3    H2 4858   1.516   3.058  14.215 -0.7791  0.0468  0.6209
  323TMC3    C7 4859   1.413   2.866  14.378  0.1887  0.2596  0.0093
  323TMC3    C8 4860   1.586   2.993  13.990  0.3312  0.3153 -0.9651
  323TMC3    O1 4861   1.377   2.755  14.411  0.0228 -0.0657  0.4133
  323TMC3    O2 4862   1.677   3.033  14.064  0.3160 -1.1978 -0.4600
  324MPD2     C 4863   3.351   4.005  13.981  0.1438 -0.0703  0.0515
  324MPD2    C1 4864   3.262   4.056  14.079  0.2600 -1.3506 -0.3328
  324MPD2    C2 4865   3.126   4.076  14.053 -0.4169  0.2412  0.8382
  324MPD2    C3 4866   3.074   4.037  13.927  0.0619 -0.7229 -0.5469
  324MPD2    C4 4867   3.164   3.986  13.841 -0.2182  0.3162 -0.4899
  324MPD2    C5 4868   3.295   3.962  13.866  0.3220 -0.6852 -0.0889
  324MPD2     H 4869   3.056   4.119  14.124 -2.5979  1.6577 -2.1442
  324MPD2    H1 4870   3.129   3.959  13.742 -0.1358  0.9479 -0.6903
  324MPD2    H2 4871   3.457   3.996  13.998  0.2834 -0.6366 -1.1832
  324MPD2    H3 4872   3.360   3.917  13.792  0.0526 -1.0165 -0.1222
  324MPD2     N 4873   2.945   4.058  13.885  0.1692 -0.0365 -0.0183
  324MPD2    H5 4874   2.909   3.990  13.819 -1.7909  1.5673 -0.5947
  324MPD2    N1 4875   3.316   4.094  14.209  0.0955 -0.1586  0.0081
  324MPD2    H7 4876   3.252   4.139  14.275  0.1165 -0.2274  0.0745
  325TMC3    C1 4877   2.722   4.140  13.872 -0.0944  0.5253 -0.3526
  325TMC3    C2 4878   2.673   4.012  13.848 -0.8426 -0.1235 -0.4396
  325TMC3    C3 4879   2.540   3.989  13.865 -0.8107 -0.4761  0.5603
  325TMC3    C4 4880   2.641   4.250  13.903 -0.3443 -0.2333  0.3868
  325TMC3    C5 4881   2.503   4.226  13.911  0.6002  0.3951  0.7629
  325TMC3    C6 4882   2.459   4.097  13.893  0.9924  0.1089  0.0253
  325TMC3     C 4883   2.859   4.159  13.921  0.3894 -0.4739 -0.3370
  325TMC3     O 4884   2.892   4.264  13.975  0.3422 -0.1902  0.3338
  325TMC3     H 4885   2.741   3.930  13.830  0.5275  1.2460 -1.5581
  325TMC3    H1 4886   2.681   4.349  13.918 -1.3501  0.1292  0.6645
  325TMC3    H2 4887   2.354   4.083  13.870  0.7889  1.8296 -0.0767
  325TMC3    C7 4888   2.409   4.333  13.903  0.3593  0.5332  0.0987
  325TMC3    C8 4889   2.474   3.867  13.819  0.1565 -0.7605  0.4364
  325TMC3    O1 4890   2.297   4.310  13.857  0.0752 -0.1978  0.2489
  325TMC3    O2 4891   2.526   3.795  13.731  0.2083 -0.3733  0.3375
  326MPD2     C 4892   4.206   4.575  11.421  0.3560  0.1032  0.0185
  326MPD2    C1 4893   4.178   4.627  11.297 -0.1394  0.3138 -0.2553
  326MPD2    C2 4894   4.200   0.039  11.263  0.6859  0.1577  0.3812
  326MPD2    C3 4895   4.264   0.117  11.362 -0.2806 -0.1988  0.0889
  326MPD2    C4 4896   4.295   0.064  11.484  0.0756  0.1114 -0.1115
  326MPD2    C5 4897   4.271   4.652  11.511  0.1060 -0.0745 -0.2174
  326MPD2     H 4898   4.188   0.086  11.166  0.3185  1.0049  0.8361
  326MPD2    H1 4899   4.344   0.118  11.564 -1.3820 -1.2405  1.6934
  326MPD2    H2 4900   4.196   4.469  11.442 -2.3566  0.3496 -0.0376
  326MPD2    H3 4901   4.282   4.611  11.611 -0.5161 -2.8513 -1.2787
  326MPD2     N 4902   4.284   0.251  11.332  0.7909  0.1121 -0.1336
  326MPD2    H5 4903   4.236   0.283  11.249 -1.5829 -1.2608  0.7148
  326MPD2    N1 4904   4.128   4.549  11.195  0.3468 -0.1986 -0.2291
  326MPD2    H7 4905   4.131   4.582  11.099  0.4258  1.2489  0.2694
  327TMC3    C1 4906   4.090   4.351  11.074 -1.1253 -0.6899 -0.1274
  327TMC3    C2 4907   3.980   4.376  10.999 -0.1285  0.1922  0.7785
  327TMC3    C3 4908   3.996   4.402  10.861 -0.5194  0.7396  0.8656
  327TMC3    C4 4909   4.216   4.367  11.024  0.0501 -0.3923  0.0786
  327TMC3    C5 4910   4.229   4.390  10.884  0.0896  0.1719  0.1583
  327TMC3    C6 4911   4.123   4.393  10.804  0.3650 -0.0495 -1.6161
  327TMC3     C 4912   4.082   4.421  11.199 -0.1776 -0.1834 -0.0896
  327TMC3     O 4913   4.051   4.349  11.291 -0.0534  1.0404  0.1776
  327TMC3     H 4914   3.898   4.423  11.053 -0.1912  1.3867 -0.3539
  327TMC3    H1 4915   4.294   4.361  11.099 -0.9492  1.3533  1.2432
  327TMC3    H2 4916   4.144   4.386  10.698  2.8729 -1.4953 -1.0357
  327TMC3    C7 4917   4.359   4.417  10.821 -0.0042  0.0248 -0.6678
  327TMC3    C8 4918   3.906   4.490  10.790  0.4681  0.0424 -0.8239
  327TMC3    O1 4919   4.356   4.432  10.701 -0.2775 -0.0949  0.1478
  327TMC3    O2 4920   3.931   4.515  10.673 -0.9405 -0.2587 -0.3374
  328MPD2     C 4921   1.689   3.876  17.309 -0.6833 -0.1160  0.0678
  328MPD2    C1 4922   1.669   3.967  17.412  0.0544  0.0710  0.0751
  328MPD2    C2 4923   1.683   4.097  17.388 -0.5096 -0.2250  0.1965
  328MPD2    C3 4924   1.717   4.138  17.262 -0.0664 -0.5439 -0.4081
  328MPD2    C4 4925   1.713   4.057  17.153  0.5209 -0.0640 -0.6051
  328MPD2    C5 4926   1.705   3.922  17.180 -0.3957 -0.7414 -0.1224
  328MPD2     H 4927   1.682   4.167  17.471 -1.3306 -1.8806  1.5966
  328MPD2    H1 4928   1.759   4.101  17.066  1.3284  0.2100 -0.0340
  328MPD2    H2 4929   1.675   3.770  17.327  0.9059 -0.4288 -0.5633
  328MPD2    H3 4930   1.726   3.847  17.104  0.0602 -2.1204  1.3664
  328MPD2     N 4931   1.764   4.268  17.228 -0.3835  0.3647  0.8285
  328MPD2    H5 4932   1.783   4.282  17.130  0.3996 -1.0721  0.7693
  328MPD2    N1 4933   1.647   3.911  17.537 -0.1718  0.5251 -0.1078
  328MPD2    H7 4934   1.657   3.811  17.551  0.0379  0.5731  0.0895
  329TMC3    C1 4935   1.572   3.888   0.078  0.5211 -0.5746  0.1153
  329TMC3    C2 4936   1.476   3.916   0.171 -0.0019  0.0981 -0.6605
  329TMC3    C3 4937   1.464   3.840   0.280  0.1693 -0.0535  0.4548
  329TMC3    C4 4938   1.663   3.794   0.095  0.1043 -0.6628 -0.1096
  329TMC3    C5 4939   1.656   3.726   0.207 -0.1429  0.3322 -0.0454
  329TMC3    C6 4940   1.555   3.738   0.298 -0.0775  0.6875  0.8400
  329TMC3     C 4941   1.577   3.970  17.641 -0.3124  0.5366  0.6241
  329TMC3     O 4942   1.500   4.064  17.633 -0.1412  0.0884 -0.2507
  329TMC3     H 4943   1.421   4.007   0.157  0.1464  0.5648  1.7390
  329TMC3    H1 4944   1.750   3.796   0.030  0.7650 -0.7308  0.7840
  329TMC3    H2 4945   1.549   3.677   0.387  0.6073 -3.1760 -1.7676
  329TMC3    C7 4946   1.734   3.611   0.216  0.4316  0.2939 -0.1162
  329TMC3    C8 4947   1.423   3.914   0.396 -0.8482  0.0663 -0.3568
  329TMC3    O1 4948   1.788   3.561   0.120 -0.0938 -0.0072 -0.1936
  329TMC3    O2 4949   1.484   3.903   0.500  0.6800 -0.0883 -0.2359
  330TMC3    C1 4950   4.227   4.559   9.363  0.4664  0.3233 -0.0179
  330TMC3    C2 4951   4.184   4.449   9.288 -0.0043 -0.4445 -0.7624
  330TMC3    C3 4952   4.239   4.326   9.312 -0.0857 -0.0467 -0.4409
  330TMC3    C4 4953   4.319   4.542   9.462  0.2370  0.1323 -0.4979
  330TMC3    C5 4954   4.374   4.415   9.475  0.2574 -0.3697  0.2110
  330TMC3    C6 4955   4.345   4.306   9.396  0.4654 -1.0547  0.3151
  330TMC3     C 4956   4.144   4.679   9.359 -0.3098  0.5359  0.1817
  330TMC3     O 4957   4.186   0.059   9.417 -0.1239  0.4984 -0.0224
  330TMC3     H 4958   4.110   4.458   9.209 -1.4932 -1.9783  0.4525
  330TMC3    H1 4959   4.361   4.625   9.518  0.1511  0.9588 -1.6586
  330TMC3    H2 4960   4.393   4.209   9.408 -0.1174 -1.3414  0.3397
  330TMC3    C7 4961   4.456   4.394   9.592  0.7031 -0.4174 -0.2282
  330TMC3    C8 4962   4.209   4.215   9.222 -0.0120  0.5855  0.0309
  330TMC3    O1 4963   4.508   4.498   9.641 -0.2201 -0.3538  0.6060
  330TMC3    O2 4964   4.141   4.245   9.125 -0.0216 -0.1802  0.1374
  331MPD2     C 4965   1.961   3.188  12.565 -0.0544 -0.0328  0.4880
  331MPD2    C1 4966   2.045   3.243  12.466 -0.1063  0.2811  0.7186
  331MPD2    C2 4967   2.114   3.152  12.393  0.4187  0.2280  0.5064
  331MPD2    C3 4968   2.108   3.015  12.420  0.3199 -0.6406  0.2271
  331MPD2    C4 4969   2.012   2.967  12.505  0.3150 -0.0068  1.0541
  331MPD2    C5 4970   1.937   3.052  12.578 -0.1945  0.9939 -0.4102
  331MPD2     H 4971   2.182   3.183  12.314 -0.3990 -0.8846 -0.6208
  331MPD2    H1 4972   1.996   2.861  12.523  2.4872 -0.3982  0.6534
  331MPD2    H2 4973   1.895   3.252  12.623  0.7492  1.6748 -0.4772
  331MPD2    H3 4974   1.860   3.025  12.649  0.3335 -2.8740 -1.3064
  331MPD2     N 4975   2.168   2.928  12.335  0.0152 -0.5561  0.2146
  331MPD2    H5 4976   2.220   2.973  12.260 -0.3239  0.2268  0.4562
  331MPD2    N1 4977   2.078   3.378  12.454 -0.0118 -0.5887 -0.5009
  331MPD2    H7 4978   2.157   3.414  12.401  2.0019 -1.2875  2.0382
  332TMC3    C1 4979   2.282   2.748  12.252  0.1511  0.4859 -0.0954
  332TMC3    C2 4980   2.295   2.824  12.132  0.2757  0.5962  1.0158
  332TMC3    C3 4981   2.420   2.822  12.074 -0.0491  0.2972 -0.3130
  332TMC3    C4 4982   2.385   2.671  12.302 -0.1119  0.1246 -0.0644
  332TMC3    C5 4983   2.508   2.684  12.238 -0.3975  0.2633  0.2163
  332TMC3    C6 4984   2.533   2.760  12.120 -0.0837 -0.3930  0.0258
  332TMC3     C 4985   2.186   2.794  12.352 -0.3332  0.7214 -0.0298
  332TMC3     O 4986   2.179   2.740  12.459  0.8195  0.0206 -0.0715
  332TMC3     H 4987   2.213   2.880  12.089  2.6353  2.0807 -1.5333
  332TMC3    H1 4988   2.375   2.611  12.392  4.0665  2.9504  2.2342
  332TMC3    H2 4989   2.629   2.755  12.070  0.0789 -1.2899  0.4330
  332TMC3    C7 4990   2.620   2.653  12.324 -0.3881  0.3053  0.6949
  332TMC3    C8 4991   2.448   2.938  11.995 -0.3054  0.1457  0.9350
  332TMC3    O1 4992   2.590   2.611  12.435  0.2512 -0.1820  0.0425
  332TMC3    O2 4993   2.564   2.968  11.998 -0.0960 -0.1498 -0.0701
  333MPD2     C 4994   2.633   3.268  11.174  0.8658 -0.4990 -0.1810
  333MPD2    C1 4995   2.615   3.190  11.060  0.3293 -0.3145  0.3592
  333MPD2    C2 4996   2.554   3.067  11.077  0.5284 -0.2657  0.3882
  333MPD2    C3 4997   2.501   3.026  11.193 -0.5503  0.4916  0.0908
  333MPD2    C4 4998   2.525   3.102  11.308 -0.0958 -0.0304 -0.2360
  333MPD2    C5 4999   2.588   3.224  11.298  0.0666 -0.0770  0.2174
  333MPD2     H 5000   2.560   2.997  10.994  0.8804 -0.6861  0.7643
  333MPD2    H1 5001   2.496   3.072  11.408 -0.0232  3.4190  0.8080
  333MPD2    H2 5002   2.683   3.362  11.153 -0.4972 -0.1414 -1.8628
  333MPD2    H3 5003   2.610   3.286  11.384 -0.7673  2.5745 -1.4685
  333MPD2     N 5004   2.455   2.896  11.205  0.6895  0.3613  0.5273
  333MPD2    H5 5005   2.455   2.853  11.113 -0.6677 -1.1524  1.2280
  333MPD2    N1 5006   2.675   3.240  10.941  0.0073  0.4284  0.4071
  333MPD2    H7 5007   2.717   3.332  10.948 -0.2298  0.6687 -1.2105
  334TMC3    C1 5008   2.771   3.246  10.724 -0.2901  0.3061  0.2879
  334TMC3    C2 5009   2.868   3.171  10.665  0.3351  0.2435  0.1953
  334TMC3    C3 5010   2.975   3.240  10.609 -0.3914 -0.4274 -0.0427
  334TMC3    C4 5011   2.770   3.382  10.717  0.8101  0.5723  0.6000
  334TMC3    C5 5012   2.876   3.446  10.646  0.2549  0.0434  0.1225
  334TMC3    C6 5013   2.988   3.375  10.602  0.3621  0.6314  0.0714
  334TMC3     C 5014   2.692   3.175  10.822 -0.1623  0.3290 -0.4058
  334TMC3     O 5015   2.659   3.059  10.790  0.0695  0.6691  0.1396
  334TMC3     H 5016   2.860   3.063  10.671 -1.4788  0.3115 -1.1379
  334TMC3    H1 5017   2.697   3.444  10.768  0.9097  1.6619 -0.5732
  334TMC3    H2 5018   3.068   3.421  10.546 -0.1658  0.3438 -0.9299
  334TMC3    C7 5019   2.879   3.586  10.606 -0.3581  0.5071  0.2422
  334TMC3    C8 5020   3.083   3.163  10.552 -0.3065 -0.0810  0.3937
  334TMC3    O1 5021   2.984   3.639  10.566 -0.3728  0.2309 -0.1730
  334TMC3    O2 5022   3.050   3.050  10.518 -0.3585 -0.3480  0.0866
  335TMC3    C1 5023   2.639   0.035  17.486  0.2945  0.6216 -0.7876
  335TMC3    C2 5024   2.550   0.055  17.384  0.3557 -0.1137  0.2180
  335TMC3    C3 5025   2.606   0.067  17.259 -0.3481 -0.4200 -0.0597
  335TMC3    C4 5026   2.775   0.022  17.468 -0.2774 -0.4486  0.0140
  335TMC3    C5 5027   2.824   0.042  17.339 -0.0469 -0.3256 -0.5616
  335TMC3    C6 5028   2.744   0.077  17.233 -0.1043  0.2924 -0.0681
  335TMC3     C 5029   2.588   0.040  17.627 -0.3771  0.3457  0.2048
  335TMC3     O 5030   2.479   4.711  17.649  0.3059 -0.0919  0.0419
  335TMC3     H 5031   2.443   0.049  17.399  0.2171 -0.2894 -0.8693
  335TMC3    H1 5032   2.842   0.011  17.552 -1.1966  1.2098  0.9607
  335TMC3    H2 5033   2.774   0.096  17.130  0.6809 -1.2721 -0.1249
  335TMC3    C7 5034   2.964   0.008  17.315 -0.4345 -0.2618  0.0118
  335TMC3    C8 5035   2.525   0.023  17.140 -0.3306 -0.8288  0.1203
  335TMC3    O1 5036   3.012   0.041  17.204 -0.2549 -0.0662  0.2945
  335TMC3    O2 5037   2.572   0.041  17.025  0.0762 -0.0257 -0.8889
  336MPD2     C 5038   2.401   2.646  16.668  0.5861  0.5574  0.4226
  336MPD2    C1 5039   2.395   2.580  16.546  0.0979 -0.1274 -0.4781
  336MPD2    C2 5040   2.438   2.451  16.532  0.7762 -0.3555  0.1227
  336MPD2    C3 5041   2.459   2.379  16.649  0.1771 -0.2970  0.5607
  336MPD2    C4 5042   2.465   2.442  16.767  0.2237 -1.1679 -0.1615
  336MPD2    C5 5043   2.427   2.566  16.776  0.6257 -0.6506 -0.3079
  336MPD2     H 5044   2.447   2.409  16.432  2.6712  0.5277 -0.0640
  336MPD2    H1 5045   2.483   2.385  16.857  3.0515  2.8482  1.8250
  336MPD2    H2 5046   2.371   2.748  16.685 -2.7643  0.0708 -2.5171
  336MPD2    H3 5047   2.424   2.599  16.879 -1.0777  0.0019 -0.5703
  336MPD2     N 5048   2.498   2.244  16.637  0.0174 -0.7672 -0.4887
  336MPD2    H5 5049   2.532   2.201  16.723  0.0174 -0.3286 -0.2671
  336MPD2    N1 5050   2.382   2.653  16.423 -0.1209 -0.0740 -0.2823
  336MPD2    H7 5051   2.384   2.595  16.339 -0.5810 -0.2804 -0.1520
  337TMC3    C1 5052   2.311   2.823  16.275 -0.2106 -0.2585  0.2513
  337TMC3    C2 5053   2.253   2.732  16.193  0.2484  0.3513  0.2387
  337TMC3    C3 5054   2.189   2.769  16.083  0.5320  0.3577 -0.5180
  337TMC3    C4 5055   2.303   2.954  16.245  0.3708  0.1631  0.4715
  337TMC3    C5 5056   2.247   2.997  16.127 -0.1200 -0.1502  0.7505
  337TMC3    C6 5057   2.195   2.902  16.048  0.5431 -0.5191 -0.0050
  337TMC3     C 5058   2.353   2.783  16.414  0.1194  0.2804  0.3343
  337TMC3     O 5059   2.315   2.861  16.496 -0.0971 -0.2073  0.0395
  337TMC3     H 5060   2.270   2.627  16.213  1.2590  0.5414  0.4066
  337TMC3    H1 5061   2.356   3.012  16.320 -1.4944 -0.2111  2.0687
  337TMC3    H2 5062   2.131   2.931  15.966 -0.1879 -1.7373  0.1314
  337TMC3    C7 5063   2.227   3.127  16.076 -0.5581 -0.6198 -0.1346
  337TMC3    C8 5064   2.067   2.700  16.086  0.6761  0.7255 -0.2421
  337TMC3    O1 5065   2.152   3.140  15.979 -0.4699  0.4068 -0.1048
  337TMC3    O2 5066   2.054   2.643  16.195 -0.3400 -0.1907  0.0849
  338MPD2     C 5067   2.955   1.680   0.814  0.5194 -0.3825  0.5408
  338MPD2    C1 5068   2.833   1.667   0.876  0.0168  0.2942 -0.1864
  338MPD2    C2 5069   2.810   1.728   0.998  0.5150 -0.2678 -0.6062
  338MPD2    C3 5070   2.909   1.804   1.057  0.0440 -0.5986  1.2540
  338MPD2    C4 5071   3.034   1.811   0.989  0.1006 -0.6299  0.3863
  338MPD2    C5 5072   3.056   1.750   0.870  0.2740  0.2598 -0.1008
  338MPD2     H 5073   2.726   1.702   1.062  0.9432 -2.6283 -1.0208
  338MPD2    H1 5074   3.116   1.865   1.034  0.5198 -1.4617  0.6319
  338MPD2    H2 5075   2.972   1.625   0.723  0.2576 -0.4274  0.5208
  338MPD2    H3 5076   3.151   1.758   0.820  0.8350 -1.3557  0.7122
  338MPD2     N 5077   2.891   1.867   1.184 -0.2658  0.2211  0.2077
  338MPD2    H5 5078   2.798   1.867   1.225  0.1447  0.3980  1.1593
  338MPD2    N1 5079   2.745   1.581   0.812  0.2672  0.2838 -0.6612
  338MPD2    H7 5080   2.759   1.556   0.715  1.2981 -0.2245 -0.3764
  339TMC3    C1 5081   2.948   1.996   1.370 -0.0781  0.0867  0.4176
  339TMC3    C2 5082   2.959   1.953   1.502  0.4414 -0.2951  0.1875
  339TMC3    C3 5083   2.859   1.992   1.582  0.4303  0.0689 -0.0384
  339TMC3    C4 5084   2.845   2.074   1.328 -0.4127  0.0317 -0.2637
  339TMC3    C5 5085   2.750   2.111   1.415 -0.3837 -0.0265  0.2589
  339TMC3    C6 5086   2.752   2.073   1.545  0.3905  0.4197 -1.0795
  339TMC3     C 5087   2.994   1.913   1.260 -0.0614 -0.3997 -0.6092
  339TMC3     O 5088   3.100   1.858   1.256  0.2442  0.1867  0.3875
  339TMC3     H 5089   3.038   1.895   1.549  1.5576 -0.8661 -2.4144
  339TMC3    H1 5090   2.845   2.100   1.223  1.1567 -0.3956 -0.3830
  339TMC3    H2 5091   2.679   2.100   1.621  0.7147 -0.5172 -0.4326
  339TMC3    C7 5092   2.632   2.179   1.361 -0.0873  0.1687  0.5351
  339TMC3    C8 5093   2.861   1.945   1.721 -0.0730 -0.0311 -0.0998
  339TMC3    O1 5094   2.611   2.167   1.243 -0.1665  0.1006 -0.2720
  339TMC3    O2 5095   2.977   1.926   1.757  0.0595 -0.1978  0.2473
  340MPD2     C 5096   2.205   3.998  10.102  0.2941  0.1327  0.0294
  340MPD2    C1 5097   2.270   4.120  10.073  0.1958  0.0028 -0.7459
  340MPD2    C2 5098   2.403   4.123  10.088  0.3370  0.2846  0.6110
  340MPD2    C3 5099   2.474   4.013  10.119 -0.2999  0.1066  0.0003
  340MPD2    C4 5100   2.414   3.893  10.140 -0.2387 -0.3097 -0.3585
  340MPD2    C5 5101   2.278   3.886  10.130  0.4220  0.7202 -0.2835
  340MPD2     H 5102   2.463   4.212  10.072  2.7215 -1.2948  0.6586
  340MPD2    H1 5103   2.466   3.801  10.161  0.6309  0.1537 -0.4941
  340MPD2    H2 5104   2.097   3.993  10.109  0.4009 -1.2873  0.5067
  340MPD2    H3 5105   2.226   3.791  10.145  3.7558 -1.0218  0.1792
  340MPD2     N 5106   2.618   3.998  10.111 -0.0240 -0.1371 -0.1101
  340MPD2    H5 5107   2.656   3.903  10.110  0.0445 -0.0906 -2.1378
  340MPD2    N1 5108   2.193   4.225  10.011 -1.0352  0.5070 -0.5854
  340MPD2    H7 5109   2.099   4.198   9.984 -0.5239 -2.7624  0.9727
  341TMC3    C1 5110   2.146   4.415   9.874  0.0271  0.6328 -0.3885
  341TMC3    C2 5111   2.043   4.332   9.845 -0.3400 -0.5013 -0.0537
  341TMC3    C3 5112   2.004   4.321   9.716  0.1665  0.4002  0.8865
  341TMC3    C4 5113   2.207   4.490   9.776 -0.3267  0.4111 -0.2881
  341TMC3    C5 5114   2.178   4.465   9.646  0.1685 -0.8916  0.4530
  341TMC3    C6 5115   2.079   4.378   9.617  0.5238  0.1301  1.2648
  341TMC3     C 5116   2.242   4.349   9.964  0.2879 -0.0513 -0.3919
  341TMC3     O 5117   2.362   4.388   9.967 -0.3235  0.2398  0.1777
  341TMC3     H 5118   1.977   4.283   9.917 -1.6278  0.5845 -0.4852
  341TMC3    H1 5119   2.302   4.538   9.798 -0.8927  1.1677  0.5132
  341TMC3    H2 5120   2.065   4.351   9.513  2.4841  0.5758  0.8880
  341TMC3    C7 5121   2.295   4.445   9.561  0.1222 -0.3183  0.6628
  341TMC3    C8 5122   1.933   4.192   9.686 -0.1544 -1.2308  0.0269
  341TMC3    O1 5123   2.307   4.331   9.514 -0.0679 -0.2592 -0.6518
  341TMC3    O2 5124   1.915   4.113   9.779  0.0723 -0.6126 -0.7897
  342MPD2     C 5125   0.646   2.797  16.942  0.4550  1.0326  0.3726
  342MPD2    C1 5126   0.705   2.787  17.070  0.0803 -0.3015 -0.4933
  342MPD2    C2 5127   0.769   2.895  17.122  0.1081 -0.0102  0.2183
  342MPD2    C3 5128   0.772   3.020  17.055  0.0004 -0.6032 -0.6831
  342MPD2    C4 5129   0.719   3.024  16.930  0.0985 -0.5442 -0.2941
  342MPD2    C5 5130   0.659   2.918  16.866 -0.0638  0.0227  0.1219
  342MPD2     H 5131   0.819   2.885  17.217 -1.6888 -1.1386  1.0517
  342MPD2    H1 5132   0.727   3.110  16.864  3.4985 -0.9656 -0.4231
  342MPD2    H2 5133   0.602   2.715  16.886  1.6896  1.6493 -1.5255
  342MPD2    H3 5134   0.630   2.924  16.762 -2.4744  0.3823  0.8030
  342MPD2     N 5135   0.844   3.135  17.091  0.1228  0.5920  0.2397
  342MPD2    H5 5136   0.867   3.200  17.016 -1.3021  0.3462 -0.4281
  342MPD2    N1 5137   0.724   2.670  17.135  0.7424  0.3595  0.1985
  342MPD2    H7 5138   0.786   2.671  17.215  1.2895 -0.3606 -0.2216
  343TMC3    C1 5139   0.755   2.448  17.167  0.2888  0.2573 -0.2519
  343TMC3    C2 5140   0.887   2.464  17.199  0.4404  0.7662 -0.7376
  343TMC3    C3 5141   0.955   2.358  17.256  0.1641 -0.3883  0.1511
  343TMC3    C4 5142   0.685   2.329  17.190 -0.7254 -0.6011  0.2671
  343TMC3    C5 5143   0.766   2.229  17.245 -0.7154  0.0365 -0.7659
  343TMC3    C6 5144   0.899   2.234  17.273  0.7674 -0.3668 -0.5907
  343TMC3     C 5145   0.682   2.548  17.094 -0.0267 -0.6449 -0.0156
  343TMC3     O 5146   0.588   2.515  17.018 -0.2514  0.1131 -1.0553
  343TMC3     H 5147   0.943   2.551  17.166  2.9039 -0.9627 -1.1387
  343TMC3    H1 5148   0.582   2.316  17.159 -0.1270 -0.5515 -1.7799
  343TMC3    H2 5149   0.957   2.152  17.314  1.5465 -0.1555 -1.2717
  343TMC3    C7 5150   0.694   2.107  17.277  0.3844 -0.4366 -0.4405
  343TMC3    C8 5151   1.094   2.379  17.284 -0.0380  0.1538  0.2743
  343TMC3    O1 5152   0.618   2.066  17.191 -0.9448 -0.6149  0.8033
  343TMC3    O2 5153   1.134   2.492  17.314 -0.6222  0.3571 -0.0241
  344MPD2     C 5154   0.450   2.518  10.110  0.4736  0.0255 -0.8283
  344MPD2    C1 5155   0.491   2.527  10.243  0.0441 -0.1518 -0.1904
  344MPD2    C2 5156   0.563   2.643  10.283 -0.0807  0.8206  0.2376
  344MPD2    C3 5157   0.602   2.735  10.192  0.4155  0.9724 -0.0128
  344MPD2    C4 5158   0.564   2.723  10.058 -0.6805 -0.9822  0.4389
  344MPD2    C5 5159   0.490   2.611  10.021 -0.1870  0.2971  0.1986
  344MPD2     H 5160   0.598   2.654  10.385  0.1777 -0.2948  0.2736
  344MPD2    H1 5161   0.597   2.799   9.988 -1.6796  0.5119  1.5783
  344MPD2    H2 5162   0.382   2.446  10.066 -0.9827  0.6657  0.3753
  344MPD2    H3 5163   0.449   2.604   9.921  0.4368  0.6157 -0.0808
  344MPD2     N 5164   0.684   2.845  10.220  0.3958 -0.1473 -0.1745
  344MPD2    H5 5165   0.707   2.909  10.145 -0.7264 -1.3312 -1.5300
  344MPD2    N1 5166   0.456   2.436  10.348 -0.2958 -0.5021  0.1942
  344MPD2    H7 5167   0.476   2.462  10.444 -1.3148  0.9556 -0.0052
  345TMC3    C1 5168   0.828   3.004  10.326 -0.0826  0.6809 -0.2876
  345TMC3    C2 5169   0.908   3.038  10.435  0.5558 -0.0404  0.7782
  345TMC3    C3 5170   1.007   3.137  10.413 -0.1116 -0.2203 -0.4959
  345TMC3    C4 5171   0.823   3.089  10.219  0.2109  0.1930 -0.2587
  345TMC3    C5 5172   0.916   3.190  10.209  0.2987 -1.1670 -0.9582
  345TMC3    C6 5173   1.014   3.212  10.302  0.0229 -0.4413  0.1189
  345TMC3     C 5174   0.746   2.882  10.337 -0.5200  0.2071 -0.3220
  345TMC3     O 5175   0.752   2.814  10.436  0.2580  0.6705  0.1841
  345TMC3     H 5176   0.923   2.962  10.511 -1.2687 -1.5022 -0.3274
  345TMC3    H1 5177   0.750   3.064  10.143  0.2708 -0.2449 -0.1734
  345TMC3    H2 5178   1.086   3.291  10.286  0.7007 -0.4300  3.3417
  345TMC3    C7 5179   0.894   3.307  10.132 -0.0579  0.3190  0.3419
  345TMC3    C8 5180   1.102   3.161  10.520  0.0244 -0.2282  0.0081
  345TMC3    O1 5181   0.987   3.384  10.110  0.0657 -0.1839 -0.6966
  345TMC3    O2 5182   1.063   3.137  10.632 -0.0341  0.0355 -0.4919
  346MPD2     C 5183   1.908   4.565  14.825  0.6107  0.0991  0.9108
  346MPD2    C1 5184   1.969   4.562  14.702 -0.0226  0.3733  0.1726
  346MPD2    C2 5185   2.100   4.596  14.686  0.4576  0.3361  0.4331
  346MPD2    C3 5186   2.166   4.646  14.795 -0.1156 -0.5399  0.5482
  346MPD2    C4 5187   2.102   4.656  14.919  0.1015 -0.1070  0.1323
  346MPD2    C5 5188   1.974   4.616  14.930 -0.1473  0.6019  1.2145
  346MPD2     H 5189   2.145   4.581  14.588 -1.6242 -1.1587 -0.2810
  346MPD2    H1 5190   2.136   4.714  15.004 -1.3134 -1.0636  1.3613
  346MPD2    H2 5191   1.813   4.517  14.846 -0.1493  1.3623  0.3372
  346MPD2    H3 5192   1.926   4.623  15.027 -0.7199  0.7939  0.9169
  346MPD2     N 5193   2.291   4.697  14.770 -0.1893  0.0600  0.5952
  346MPD2    H5 5194   2.325   4.680  14.676 -0.0036  1.5967  0.3799
  346MPD2    N1 5195   1.894   4.512  14.595 -0.0131 -0.1557  0.1200
  346MPD2    H7 5196   1.938   4.498  14.505  1.8565 -1.0645  1.1727
  347TMC3    C1 5197   2.495   0.071  14.782 -0.1224 -0.3850 -0.3802
  347TMC3    C2 5198   2.498   0.002  14.674 -0.5676  0.1166  0.1793
  347TMC3    C3 5199   2.502   0.060  14.548 -0.1613  0.2674  0.5440
  347TMC3    C4 5200   2.510   0.211  14.769  0.2129 -0.3971 -0.6302
  347TMC3    C5 5201   2.533   0.269  14.645  0.8801  0.0439  0.1996
  347TMC3    C6 5202   2.520   0.193  14.531 -0.2801  0.6880  0.1207
  347TMC3     C 5203   2.378   0.036  14.858 -0.2252 -0.4278  0.4070
  347TMC3     O 5204   2.361   0.078  14.974  0.0409  0.4815  0.0479
  347TMC3     H 5205   2.497   4.615  14.692 -2.5396  0.4808  2.3282
  347TMC3    H1 5206   2.524   0.266  14.862 -0.1695 -2.3075  0.5534
  347TMC3    H2 5207   2.543   0.233  14.433  0.7875 -4.0425 -1.5236
  347TMC3    C7 5208   2.588   0.397  14.629  0.8484 -0.0529  0.2047
  347TMC3    C8 5209   2.474   4.701  14.429  0.5623 -0.0599 -0.2155
  347TMC3    O1 5210   2.576   0.446  14.516 -0.2808 -0.2827 -0.4208
  347TMC3    O2 5211   2.491   4.580  14.442 -0.0255 -0.3009  0.2183
  348MPD2     C 5212   4.559   3.569  12.009 -0.0535  0.3274 -0.2006
  348MPD2    C1 5213   4.659   3.667  11.996  0.0750 -0.3374  0.1220
  348MPD2    C2 5214   4.660   3.755  11.888  0.0132  0.0052 -0.2505
  348MPD2    C3 5215   4.551   3.751  11.791  0.1894 -0.2406 -0.1657
  348MPD2    C4 5216   4.452   3.655  11.813  0.3493  0.0921 -0.2124
  348MPD2    C5 5217   4.461   3.566  11.912 -0.1847  0.0775  0.2860
  348MPD2     H 5218   0.022   3.824  11.872 -1.6428  1.9325 -0.5365
  348MPD2    H1 5219   4.378   3.635  11.736 -1.1144  1.0793  0.9367
  348MPD2    H2 5220   4.563   3.490  12.083 -0.3976 -0.2845 -0.8305
  348MPD2    H3 5221   4.390   3.485  11.921  0.3559 -0.2716  1.4186
  348MPD2     N 5222   4.548   3.848  11.682  0.1745  0.4515  0.0610
  348MPD2    H5 5223   4.617   3.923  11.682 -1.0347  1.5341  4.1906
  348MPD2    N1 5224   0.050   3.660  12.079 -0.2299  0.2615 -0.5594
  348MPD2    H7 5225   0.124   3.726  12.060  1.3298 -1.0956  0.7740
  349TMC3    C1 5226   0.201   3.543  12.211 -1.0407  0.2546  0.8184
  349TMC3    C2 5227   0.214   3.410  12.244 -0.0589  0.1784  0.9433
  349TMC3    C3 5228   0.316   3.345  12.183  0.2254 -0.1595 -0.3726
  349TMC3    C4 5229   0.295   3.603  12.118 -0.7628  0.0143 -0.3323
  349TMC3    C5 5230   0.371   3.518  12.043 -0.2028 -0.4849 -0.0853
  349TMC3    C6 5231   0.372   3.385  12.068  0.2803 -0.2000  0.2710
  349TMC3     C 5232   0.063   3.576  12.185 -0.3724  0.3313  0.4460
  349TMC3     O 5233   4.708   3.514  12.256  0.6211  0.5966 -0.3006
  349TMC3     H 5234   0.158   3.365  12.325 -0.6035 -1.4941 -0.3542
  349TMC3    H1 5235   0.301   3.711  12.108  0.3621  0.0330  0.4835
  349TMC3    H2 5236   0.437   3.326  12.004 -0.3206  0.8021 -1.2591
  349TMC3    C7 5237   0.374   3.535  11.902 -0.3095  0.9270 -0.5480
  349TMC3    C8 5238   0.358   3.222  12.247 -0.5772  0.1535  0.7326
  349TMC3    O1 5239   0.341   3.446  11.828 -0.0550  0.4480 -0.1904
  349TMC3    O2 5240   0.360   3.220  12.369 -0.6799  0.1861  0.2688
  350MPD2     C 5241   3.509   1.694  10.014 -0.5894  0.5569 -0.5509
  350MPD2    C1 5242   3.597   1.593  10.022 -0.3598 -0.6760 -0.1276
  350MPD2    C2 5243   3.728   1.625   9.984  0.4244  0.1405 -0.2015
  350MPD2    C3 5244   3.762   1.750   9.935 -0.2760 -0.8198 -0.1150
  350MPD2    C4 5245   3.672   1.856   9.938 -0.1908 -0.2760  0.0552
  350MPD2    C5 5246   3.547   1.819   9.980  0.1088  0.5159  0.2794
  350MPD2     H 5247   3.800   1.545   9.999 -2.4771 -2.9541 -2.7110
  350MPD2    H1 5248   3.695   1.957   9.910 -1.0991  0.0271  0.3917
  350MPD2    H2 5249   3.404   1.676  10.034  0.2121 -0.4255  2.8258
  350MPD2    H3 5250   3.474   1.898   9.991  1.2494  1.7718 -1.1189
  350MPD2     N 5251   3.899   1.772   9.898  0.5868  0.4178 -0.0261
  350MPD2    H5 5252   3.966   1.696   9.903 -0.6586 -0.7090 -0.6260
  350MPD2    N1 5253   3.562   1.458  10.060 -0.2750 -0.2750 -0.1048
  350MPD2    H7 5254   3.634   1.389  10.042  0.5931  0.1240  1.9127
  351TMC3    C1 5255   3.460   1.267  10.167 -0.5557 -0.2146 -0.5798
  351TMC3    C2 5256   3.581   1.202  10.158 -0.1257 -0.1317 -0.2434
  351TMC3    C3 5257   3.589   1.085  10.230 -0.5954  0.3487 -0.0546
  351TMC3    C4 5258   3.349   1.212  10.228  0.6312 -0.2343  0.3294
  351TMC3    C5 5259   3.361   1.103  10.305 -0.5207 -0.4898  0.4105
  351TMC3    C6 5260   3.488   1.042  10.312  1.0127  0.5029 -0.2029
  351TMC3     C 5261   3.447   1.413  10.124  0.3471  1.0284 -0.3132
  351TMC3     O 5262   3.347   1.469  10.161 -0.0650 -0.3671 -0.6671
  351TMC3     H 5263   3.668   1.250  10.115  0.3602 -1.3899 -0.6588
  351TMC3    H1 5264   3.260   1.273  10.236  1.1594  0.8571 -1.8562
  351TMC3    H2 5265   3.508   0.966  10.386  1.4589 -0.2226 -1.0664
  351TMC3    C7 5266   3.236   1.046  10.353  0.2920  0.1169  0.3745
  351TMC3    C8 5267   3.710   1.012  10.213  1.0211  0.0550  0.0153
  351TMC3    O1 5268   3.133   1.104  10.321 -0.4829  0.2970 -0.2764
  351TMC3    O2 5269   3.779   1.027  10.113 -0.3937  0.0940 -0.0335
  352MPD2     C 5270   2.906   3.296   1.867 -0.4523 -0.6044  0.2738
  352MPD2    C1 5271   2.899   3.293   1.731 -0.2472  0.1483  0.0445
  352MPD2    C2 5272   2.897   3.173   1.661 -0.4180 -0.3548  0.5604
  352MPD2    C3 5273   2.901   3.053   1.735  0.3254 -0.5694  0.7625
  352MPD2    C4 5274   2.930   3.056   1.870  0.3397 -0.0714  0.1764
  352MPD2    C5 5275   2.920   3.177   1.934  0.4994  0.3057  0.0058
  352MPD2     H 5276   2.895   3.176   1.553  0.8458  3.4323  0.6444
  352MPD2    H1 5277   2.937   2.960   1.919  0.6449 -1.3513 -2.3429
  352MPD2    H2 5278   2.905   3.393   1.915 -0.7673 -1.0461  1.1422
  352MPD2    H3 5279   2.937   3.179   2.041  0.5188 -2.6387  0.0547
  352MPD2     N 5280   2.881   2.927   1.681  0.0857 -0.2449 -1.0619
  352MPD2    H5 5281   2.896   2.849   1.744  0.1734  0.7336  0.1205
  352MPD2    N1 5282   2.883   3.418   1.667 -0.4589  0.1823  0.0107
  352MPD2    H7 5283   2.896   3.503   1.720  0.4210  0.8816 -1.3365
  353TMC3    C1 5284   2.830   2.763   1.511 -0.2831  0.3723  0.0154
  353TMC3    C2 5285   2.905   2.666   1.571 -0.8685 -0.2572 -0.1017
  353TMC3    C3 5286   2.913   2.549   1.501  0.5142  1.0154  0.4633
  353TMC3    C4 5287   2.758   2.744   1.394 -0.0537 -0.0534  0.3525
  353TMC3    C5 5288   2.755   2.623   1.336  0.1063 -0.7440  0.0772
  353TMC3    C6 5289   2.832   2.525   1.393  0.0511  0.0788 -0.6695
  353TMC3     C 5290   2.845   2.903   1.555 -0.3314  0.0651  0.9107
  353TMC3     O 5291   2.798   2.990   1.483 -0.3171 -0.6218  0.3479
  353TMC3     H 5292   2.978   2.697   1.644  0.0309 -0.5893 -0.8632
  353TMC3    H1 5293   2.708   2.830   1.352 -0.2825 -0.1843  0.3520
  353TMC3    H2 5294   2.827   2.424   1.353 -1.0999 -0.4015  0.6875
  353TMC3    C7 5295   2.677   2.595   1.212 -0.3118 -0.1582 -0.0873
  353TMC3    C8 5296   3.019   2.459   1.535 -0.0745 -0.3226 -0.2124
  353TMC3    O1 5297   2.725   2.512   1.138  0.9369 -0.1837 -0.1356
  353TMC3    O2 5298   3.061   2.460   1.648  0.4325  0.3927  0.2345
  354TMC3    C1 5299   3.945   0.331  13.433 -0.5815 -0.1868 -0.4172
  354TMC3    C2 5300   3.982   0.459  13.458  0.2957  0.0005  0.0428
  354TMC3    C3 5301   3.922   0.559  13.389  0.2227 -0.5010 -0.1084
  354TMC3    C4 5302   3.867   0.304  13.330  0.1436  0.7507  0.2542
  354TMC3    C5 5303   3.801   0.406  13.267 -0.0776  0.5750  0.1086
  354TMC3    C6 5304   3.822   0.533  13.300 -0.0059 -0.8083  0.0932
  354TMC3     C 5305   3.987   0.217  13.520  0.0381  0.1798  0.2061
  354TMC3     O 5306   3.926   0.109  13.515 -0.0613  0.6575  0.5359
  354TMC3     H 5307   4.052   0.483  13.537  2.1468 -0.2071 -1.5350
  354TMC3    H1 5308   3.842   0.200  13.313 -0.9942  0.9923  0.4260
  354TMC3    H2 5309   3.774   0.610  13.240 -2.5142 -2.7947 -0.4925
  354TMC3    C7 5310   3.801   0.415  13.128 -0.0449  0.5222 -0.7421
  354TMC3    C8 5311   4.006   0.654  13.311  0.4834  0.1884  0.0583
  354TMC3    O1 5312   3.701   0.459  13.080  0.3695 -0.4855 -0.7846
  354TMC3    O2 5313   3.946   0.752  13.265 -0.0933 -0.2986  0.2217
  355MPD2     C 5314   3.865   1.052  11.875  0.6133 -0.0344 -0.0860
  355MPD2    C1 5315   3.886   1.078  11.739 -0.5119  0.6934  0.7971
  355MPD2    C2 5316   4.019   1.107  11.689  0.0007  0.1663 -0.5802
  355MPD2    C3 5317   4.115   1.118  11.784 -0.4721 -0.6203 -0.7654
  355MPD2    C4 5318   4.090   1.097  11.916  0.9457 -0.6721  0.3092
  355MPD2    C5 5319   3.971   1.070  11.956  1.0050  0.3237  0.3658
  355MPD2     H 5320   4.026   1.125  11.583 -1.5664 -0.0462 -0.7226
  355MPD2    H1 5321   4.164   1.095  11.994 -0.0921 -0.8222  1.2866
  355MPD2    H2 5322   3.770   1.011  11.909 -0.0549  1.6120  0.0124
  355MPD2    H3 5323   3.957   1.056  12.063 -1.2486  1.8765  0.2915
  355MPD2     N 5324   4.253   1.146  11.754  0.0106 -0.2178 -0.3586
  355MPD2    H5 5325   4.319   1.136  11.830 -0.2789 -2.4150 -0.3799
  355MPD2    N1 5326   3.772   1.077  11.658 -0.4222  0.0944 -0.3869
  355MPD2    H7 5327   3.688   1.031  11.692 -0.5506  0.5995 -0.0266
  356TMC3    C1 5328   4.437   1.229  11.654  0.3478  0.2379  0.5036
  356TMC3    C2 5329   4.488   1.303  11.550  0.1403  0.5588 -0.9876
  356TMC3    C3 5330   4.621   1.343  11.562  0.2348  0.3015  0.3449
  356TMC3    C4 5331   4.514   1.184  11.765 -0.7201  0.5054 -0.2487
  356TMC3    C5 5332   4.633   1.252  11.778  0.5687 -0.5871 -1.3390
  356TMC3    C6 5333   4.689   1.320  11.677  0.2348 -0.4095  1.1834
  356TMC3     C 5334   4.299   1.185  11.637  0.4013 -0.1628  0.3058
  356TMC3     O 5335   4.240   1.205  11.529  0.1250  0.0696  0.3939
  356TMC3     H 5336   4.424   1.332  11.467 -0.2291 -2.4061 -1.7343
  356TMC3    H1 5337   4.478   1.111  11.836  0.1802 -0.5243 -0.8443
  356TMC3    H2 5338   0.074   1.343  11.665  0.0626 -0.5086 -0.4855
  356TMC3    C7 5339   4.711   1.238  11.896  0.6001 -0.0240  0.9076
  356TMC3    C8 5340   4.677   1.408  11.450  0.6670  0.2442  0.2418
  356TMC3    O1 5341   4.685   1.143  11.970 -0.3203 -0.0039 -0.1465
  356TMC3    O2 5342   4.623   1.394  11.344  0.2325  0.6280  0.1934
  357MPD2     C 5343   0.635   0.518   0.903 -0.4758  0.2838 -0.5808
  357MPD2    C1 5344   0.557   0.438   0.826 -0.1718  0.5697  0.3486
  357MPD2    C2 5345   0.606   0.306   0.797 -0.4833 -0.1772 -0.3724
  357MPD2    C3 5346   0.724   0.262   0.852  0.0647 -0.1530  0.2240
  357MPD2    C4 5347   0.803   0.350   0.925 -0.3063 -0.0255 -0.5654
  357MPD2    C5 5348   0.751   0.479   0.952 -0.3478  0.5631  0.1087
  357MPD2     H 5349   0.563   0.234   0.728 -0.9009 -0.3720  0.0878
  357MPD2    H1 5350   0.902   0.321   0.960 -1.2556 -1.6170  0.7764
  357MPD2    H2 5351   0.590   0.611   0.937 -1.0207  0.3034 -1.3485
  357MPD2    H3 5352   0.807   0.545   1.018  0.0662 -1.6578  1.9963
  357MPD2     N 5353   0.790   0.138   0.819  0.1264 -0.7858 -0.5091
  357MPD2    H5 5354   0.884   0.130   0.856  0.9278 -0.6196 -2.5318
  357MPD2    N1 5355   0.436   0.493   0.777  0.0477  0.3796  0.2495
  357MPD2    H7 5356   0.430   0.594   0.785  0.8253  0.4209  0.3350
  358TMC3    C1 5357   0.237   0.489   0.652 -0.3134  0.0876 -0.1600
  358TMC3    C2 5358   0.166   0.435   0.548  0.2757 -1.1462 -0.5062
  358TMC3    C3 5359   0.082   0.514   0.471 -0.1305  0.0798  0.0668
  358TMC3    C4 5360   0.205   0.616   0.690 -0.0243  0.2844  0.4041
  358TMC3    C5 5361   0.113   0.689   0.615 -0.6948 -0.4725 -0.4892
  358TMC3    C6 5362   0.073   0.645   0.493 -0.1972 -0.1260 -0.3027
  358TMC3     C 5363   0.346   0.415   0.705 -0.4665 -0.0154  0.3283
  358TMC3     O 5364   0.343   0.294   0.704  0.7463 -0.0890 -0.5148
  358TMC3     H 5365   0.185   0.329   0.533 -0.1141 -1.3006  0.1026
  358TMC3    H1 5366   0.256   0.658   0.776 -1.6469  1.4831  0.7704
  358TMC3    H2 5367   4.720   0.703   0.438 -0.2707 -0.0638 -0.1371
  358TMC3    C7 5368   0.094   0.828   0.641 -0.0743  0.5413  0.0767
  358TMC3    C8 5369   4.704   0.446   0.380 -0.0520 -0.5463  0.3088
  358TMC3    O1 5370   0.066   0.899   0.547  0.1044  0.2317 -0.0795
  358TMC3    O2 5371   4.609   0.516   0.347 -0.6794 -0.4326 -0.3000
  359MPD2     C 5372   4.393   0.182  12.637 -0.7691 -0.6807  0.4732
  359MPD2    C1 5373   4.424   0.088  12.543  0.1480  0.3038 -0.0337
  359MPD2    C2 5374   4.328   0.021  12.479  0.1258  0.2474  0.3606
  359MPD2    C3 5375   4.191   0.040  12.507 -0.8863 -0.9135 -0.4510
  359MPD2    C4 5376   4.159   0.138  12.594 -0.3376  0.6351 -0.7751
  359MPD2    C5 5377   4.257   0.200  12.664 -0.6966 -0.2494  0.5453
  359MPD2     H 5378   4.358   4.674  12.400 -3.0861 -1.4127  0.5451
  359MPD2    H1 5379   4.058   0.149  12.632 -0.1860  1.4984 -0.6129
  359MPD2    H2 5380   4.464   0.242  12.692 -0.4676 -0.1248 -0.5237
  359MPD2    H3 5381   4.239   0.267  12.747 -1.3179  0.1725  0.0633
  359MPD2     N 5382   4.088   4.684  12.448  0.7275 -0.2725  0.3711
  359MPD2    H5 5383   3.990   4.707  12.456  0.9364  0.8162 -0.1678
  359MPD2    N1 5384   4.556   0.057  12.498  0.4011 -0.5182 -0.0084
  359MPD2    H7 5385   4.567   4.710  12.423 -1.2266 -0.1354 -0.5965
  360TMC3    C1 5386   0.066   0.108  12.478 -0.2283  0.0133 -0.4894
  360TMC3    C2 5387   0.178   0.052  12.526 -0.1692  0.0411 -0.1284
  360TMC3    C3 5388   0.288   0.047  12.439  0.4717  0.3068 -0.5630
  360TMC3    C4 5389   0.046   0.120  12.343 -0.1008  0.4420  0.3288
  360TMC3    C5 5390   0.152   0.114  12.258  0.0175 -0.3918 -0.2515
  360TMC3    C6 5391   0.280   0.080  12.311 -0.1518 -0.0986 -0.1963
  360TMC3     C 5392   4.668   0.107  12.564  0.2328 -0.2837 -0.3422
  360TMC3     O 5393   4.674   0.133  12.682 -0.1600 -0.3921 -0.0526
  360TMC3     H 5394   0.201   0.043  12.631 -1.0476  1.8308  0.2155
  360TMC3    H1 5395   4.671   0.157  12.307 -0.5587  0.6893  1.7963
  360TMC3    H2 5396   0.373   0.084  12.255 -0.2203 -0.3760 -0.3326
  360TMC3    C7 5397   0.135   0.064  12.128 -0.1700 -0.1023 -0.5993
  360TMC3    C8 5398   0.383   4.667  12.476  0.3726  0.1834  0.3779
  360TMC3    O1 5399   0.241   0.039  12.070  0.1450 -0.4776 -0.1649
  360TMC3    O2 5400   0.387   4.632  12.593 -0.1265  0.2537 -0.6982
  361MPD2     C 5401   2.115   3.066  16.889 -0.3298  0.2279 -0.1068
  361MPD2    C1 5402   2.110   3.140  17.005 -0.3386  0.1099  0.4352
  361MPD2    C2 5403   2.202   3.115  17.108 -0.2081 -0.0404  0.0824
  361MPD2    C3 5404   2.295   3.010  17.085  0.4774 -0.9886 -0.1681
  361MPD2    C4 5405   2.305   2.949  16.964 -0.0449  0.3158 -0.3535
  361MPD2    C5 5406   2.225   2.988  16.864 -0.7324  0.4495 -0.0720
  361MPD2     H 5407   2.186   3.158  17.206 -0.5573 -2.8245  1.2404
  361MPD2    H1 5408   2.369   2.867  16.936 -0.1280 -0.2806  1.1904
  361MPD2    H2 5409   2.043   3.065  16.808  0.3977 -1.2426 -0.7416
  361MPD2    H3 5410   2.244   2.938  16.769  1.7416  0.2130  0.5536
  361MPD2     N 5411   2.385   2.956  17.184  0.3414  0.5481 -0.2338
  361MPD2    H5 5412   2.416   2.862  17.164 -1.6003 -0.2014  0.3136
  361MPD2    N1 5413   2.018   3.240  17.027  0.0783  0.3422 -0.7690
  361MPD2    H7 5414   2.028   3.291  17.114  3.6334 -0.2026 -0.8434
  362TMC3    C1 5415   1.852   3.394  16.982  0.8554 -0.2763  0.0652
  362TMC3    C2 5416   1.809   3.385  17.107  0.5461 -0.1181  0.2971
  362TMC3    C3 5417   1.711   3.467  17.145 -0.5357  0.6394 -0.3952
  362TMC3    C4 5418   1.805   3.482  16.890  0.1416 -0.1621  0.2522
  362TMC3    C5 5419   1.703   3.560  16.935 -0.1063 -0.5917 -0.9840
  362TMC3    C6 5420   1.665   3.567  17.061  0.2387  0.5194  0.0594
  362TMC3     C 5421   1.937   3.293  16.930  0.3209  0.2089 -0.2073
  362TMC3     O 5422   1.940   3.279  16.808  0.4740  0.0609  0.4801
  362TMC3     H 5423   1.845   3.308  17.175 -0.0069 -2.9364 -2.5959
  362TMC3    H1 5424   1.855   3.498  16.795  1.5623  1.6902  1.3130
  362TMC3    H2 5425   1.580   3.631  17.082  0.2183  0.9103 -1.2425
  362TMC3    C7 5426   1.619   3.624  16.835  0.5456 -0.3548  0.1354
  362TMC3    C8 5427   1.657   3.462  17.283  0.3034  0.6620  0.3265
  362TMC3    O1 5428   1.565   3.726  16.870  0.0831 -0.5447 -0.3331
  362TMC3    O2 5429   1.717   3.392  17.360  0.4872  0.2259 -0.0558
  363TMC3    C1 5430   4.280   0.872   9.310  0.7525  0.0463 -0.8881
  363TMC3    C2 5431   4.326   0.794   9.413  0.5070  0.4457  0.0478
  363TMC3    C3 5432   4.232   0.762   9.510 -0.1503 -0.7858 -0.3485
  363TMC3    C4 5433   4.151   0.916   9.297  0.4264 -0.8600  0.7593
  363TMC3    C5 5434   4.062   0.881   9.388 -0.3140  0.2922 -0.1994
  363TMC3    C6 5435   4.102   0.807   9.494 -0.1089 -0.0445  0.5624
  363TMC3     C 5436   4.361   0.916   9.205  0.6033 -0.0198 -0.1714
  363TMC3     O 5437   4.333   1.004   9.127  0.2636 -0.4834 -0.3829
  363TMC3     H 5438   4.433   0.778   9.425  0.0725 -2.1768  0.2778
  363TMC3    H1 5439   4.122   0.964   9.204 -0.5971 -1.3152  0.8546
  363TMC3    H2 5440   4.032   0.778   9.572 -2.0119  1.8452 -0.4771
  363TMC3    C7 5441   3.918   0.917   9.371  0.1221  0.5878  0.0455
  363TMC3    C8 5442   4.270   0.732   9.643 -0.3174  0.5385 -0.0536
  363TMC3    O1 5443   3.892   1.012   9.290  0.4752  0.8183  0.2428
  363TMC3    O2 5444   4.193   0.745   9.732  0.0475 -0.7266  0.1772
  364MPD2     C 5445   3.511   0.084  10.801  0.0248 -0.3430  0.8811
  364MPD2    C1 5446   3.627   0.099  10.731 -0.2589  0.5057 -0.6563
  364MPD2    C2 5447   3.722   0.002  10.749 -0.2548 -0.1996  1.1451
  364MPD2    C3 5448   3.699   4.625  10.843  0.2900 -0.2777 -0.8313
  364MPD2    C4 5449   3.589   4.618  10.920  0.2872  0.0561  0.1633
  364MPD2    C5 5450   3.489   4.703  10.892  0.2689  0.2642  0.2489
  364MPD2     H 5451   3.811   0.017  10.690 -0.3379  2.0643  1.6025
  364MPD2    H1 5452   3.580   4.545  11.000  0.7625 -0.8566 -0.6147
  364MPD2    H2 5453   3.427   0.149  10.782 -0.7041 -1.4853  0.2168
  364MPD2    H3 5454   3.396   4.694  10.946 -0.6647 -1.5301 -1.6425
  364MPD2     N 5455   3.794   4.519  10.868  0.2063  0.6067 -0.1718
  364MPD2    H5 5456   3.777   4.466  10.952  1.4215  1.6004  0.6967
  364MPD2    N1 5457   3.649   0.219  10.664 -0.5069  0.5537 -0.2153
  364MPD2    H7 5458   3.581   0.294  10.678  1.1806  1.7674  1.5807
  365TMC3    C1 5459   3.744   0.376  10.518  0.5501  0.0243  0.0298
  365TMC3    C2 5460   3.768   0.371  10.387  0.0539  0.0186  0.3291
  365TMC3    C3 5461   3.712   0.468  10.307  0.8767 -0.1604  0.1225
  365TMC3    C4 5462   3.650   0.459  10.572  0.4779  1.2159 -0.3147
  365TMC3    C5 5463   3.599   0.555  10.491 -1.0341  0.2791  0.1042
  365TMC3    C6 5464   3.625   0.561  10.358 -0.4136 -1.1526 -0.2470
  365TMC3     C 5465   3.739   0.241  10.570  0.0109  0.2388  0.3922
  365TMC3     O 5466   3.796   0.151  10.512  0.0100  0.2452 -0.0498
  365TMC3     H 5467   3.854   0.316  10.351 -0.7228 -1.1918  0.3367
  365TMC3    H1 5468   3.642   0.465  10.680  0.2210 -0.7287 -0.2248
  365TMC3    H2 5469   3.565   0.635  10.306 -0.2612 -0.5834  0.3903
  365TMC3    C7 5470   3.531   0.671  10.549 -1.0422 -0.7696 -1.0190
  365TMC3    C8 5471   3.684   0.413  10.174 -0.1741  0.1218  0.2105
  365TMC3    O1 5472   3.498   0.764  10.472  0.2996  0.9403 -0.1420
  365TMC3    O2 5473   3.723   0.301  10.167 -0.2703 -0.4702 -0.0445
  366MPD2     C 5474   2.515   1.911  14.973  0.4583 -0.8095 -0.5385
  366MPD2    C1 5475   2.511   1.911  15.113  0.2528 -0.0313 -0.5388
  366MPD2    C2 5476   2.629   1.949  15.182 -0.1996 -0.4290 -0.3717
  366MPD2    C3 5477   2.745   1.991  15.113 -1.2989  0.7456 -0.2016
  366MPD2    C4 5478   2.746   1.994  14.975 -0.1849  0.0810  0.3821
  366MPD2    C5 5479   2.633   1.945  14.909  0.5172 -0.1076 -0.6287
  366MPD2     H 5480   2.621   1.953  15.290 -3.1624  0.3162 -0.6343
  366MPD2    H1 5481   2.820   2.041  14.912  1.8780  0.2535  2.9485
  366MPD2    H2 5482   2.424   1.894  14.916  0.5786 -1.0738 -0.6536
  366MPD2    H3 5483   2.641   1.934  14.802  0.8895 -0.8526 -0.5242
  366MPD2     N 5484   2.863   2.048  15.178  0.5539 -0.6172  0.7370
  366MPD2    H5 5485   2.946   2.059  15.121  0.7287 -1.7743  0.7597
  366MPD2    N1 5486   2.397   1.897  15.199  0.3715 -0.4939  0.0145
  366MPD2    H7 5487   2.409   1.896  15.300 -0.8020 -1.6792  0.1427
  367TMC3    C1 5488   2.167   1.880  15.258  0.5056  0.3532 -0.8495
  367TMC3    C2 5489   2.204   1.882  15.392 -0.3852  0.1313  0.7076
  367TMC3    C3 5490   2.118   1.936  15.489 -0.4728 -0.0069 -0.6392
  367TMC3    C4 5491   2.048   1.940  15.221 -0.6229 -0.2562  0.1593
  367TMC3    C5 5492   1.959   1.980  15.321 -0.7879 -0.1336 -0.8234
  367TMC3    C6 5493   1.996   1.981  15.456  0.0027 -0.0276  0.2303
  367TMC3     C 5494   2.266   1.880  15.155 -0.4110  0.2895  0.0103
  367TMC3     O 5495   2.229   1.874  15.040 -0.1800  0.6936 -0.1089
  367TMC3     H 5496   2.293   1.833  15.430  0.1559  0.7359  0.2117
  367TMC3    H1 5497   2.025   1.960  15.117  3.3054 -0.6658 -0.7854
  367TMC3    H2 5498   1.935   2.021  15.536  0.8924 -0.1960  0.9883
  367TMC3    C7 5499   1.858   2.076  15.293 -0.0317 -0.5365 -0.3299
  367TMC3    C8 5500   2.178   2.011  15.596  0.3364  0.1449  0.1809
  367TMC3    O1 5501   1.862   2.179  15.360  0.5267  0.2071 -0.6957
  367TMC3    O2 5502   2.279   1.961  15.643  0.6283  0.6607  0.1652
  368MPD2     C 5503   2.563   4.419  13.061 -0.9305  0.5107 -0.3397
  368MPD2    C1 5504   2.523   4.452  12.932  0.6416 -0.2062  0.1140
  368MPD2    C2 5505   2.601   4.444  12.817 -0.4896 -0.2612 -0.3887
  368MPD2    C3 5506   2.720   4.379  12.835  0.0783 -0.0282  0.3177
  368MPD2    C4 5507   2.761   4.346  12.964  0.4483  0.3205 -0.4094
  368MPD2    C5 5508   2.688   4.369  13.078 -0.1600  0.0190  0.7690
  368MPD2     H 5509   2.566   4.476  12.720  0.5308  0.5534 -0.4897
  368MPD2    H1 5510   2.858   4.304  12.987 -0.6695 -2.3874 -0.6608
  368MPD2    H2 5511   2.506   4.428  13.153  0.1124 -2.6115  0.5931
  368MPD2    H3 5512   2.736   4.350  13.173 -0.2864  2.7839  1.3857
  368MPD2     N 5513   2.808   4.360  12.730 -0.4041 -0.3799  0.2839
  368MPD2    H5 5514   2.901   4.334  12.761  0.1554  1.0333 -0.2402
  368MPD2    N1 5515   2.395   4.507  12.929  0.7270  0.0700  0.1327
  368MPD2    H7 5516   2.338   4.503  13.012  0.3796  0.0592 -0.1064
  369TMC3    C1 5517   2.193   4.581  12.828  0.0090 -0.1634 -0.3089
  369TMC3    C2 5518   2.149   4.646  12.714 -0.0912 -0.3718  0.1762
  369TMC3    C3 5519   2.037   4.597  12.661  0.7057 -0.4203 -0.2847
  369TMC3    C4 5520   2.127   4.484  12.887  0.0466  0.4678  0.3118
  369TMC3    C5 5521   2.010   4.437  12.831  0.6528  0.1327  0.5528
  369TMC3    C6 5522   1.965   4.489  12.709  0.3814  0.2464 -0.3822
  369TMC3     C 5523   2.333   4.552  12.813 -0.3885 -0.1864 -1.0125
  369TMC3     O 5524   2.366   4.555  12.699  0.5111 -0.0182  0.1729
  369TMC3     H 5525   2.206   0.006  12.668  0.4423  0.0815  1.6301
  369TMC3    H1 5526   2.167   4.420  12.965 -1.0479  0.1996  0.6606
  369TMC3    H2 5527   1.885   4.442  12.653 -0.7989 -0.5312  1.9432
  369TMC3    C7 5528   1.972   4.299  12.866  0.4622  0.3309 -0.2740
  369TMC3    C8 5529   2.054   4.577  12.523  0.0366 -0.2169  0.0493
  369TMC3    O1 5530   2.062   4.233  12.920  0.5583  0.0373  0.0851
  369TMC3    O2 5531   1.963   4.576  12.446  0.2890  0.3391  0.5737
  370TMC3    C1 5532   2.881   4.356  16.420 -0.8491  0.0027 -0.0018
  370TMC3    C2 5533   2.837   4.262  16.508  0.8136  0.1584  0.5487
  370TMC3    C3 5534   2.858   4.129  16.478  0.2882  0.3898  0.1759
  370TMC3    C4 5535   2.934   4.322  16.300 -0.3241  0.4519  0.8159
  370TMC3    C5 5536   2.949   4.188  16.266 -0.1339  0.4509 -0.5582
  370TMC3    C6 5537   2.911   4.089  16.356 -1.0425  0.5738 -0.4429
  370TMC3     C 5538   2.891   4.488  16.478 -0.4688 -0.3085 -0.2180
  370TMC3     O 5539   2.881   4.489  16.599  0.1208  0.2029  0.3891
  370TMC3     H 5540   2.803   4.286  16.609 -1.4013  0.1920 -0.2094
  370TMC3    H1 5541   2.973   4.394  16.229 -2.8683  0.4722 -0.5752
  370TMC3    H2 5542   2.889   3.987  16.328  2.4277 -0.5398  0.8985
  370TMC3    C7 5543   2.972   4.157  16.125 -0.5760  0.7853 -0.0724
  370TMC3    C8 5544   2.810   4.019  16.560 -1.1343  0.9103 -0.3973
  370TMC3    O1 5545   2.963   4.250  16.044  0.4473 -0.1599  0.2059
  370TMC3    O2 5546   2.790   3.910  16.502 -0.2566 -0.4958  0.3486
  371TMC3    C1 5547   4.153   2.651  15.411 -0.0112  0.3633  0.4519
  371TMC3    C2 5548   4.024   2.647  15.456  0.1322 -0.4442 -0.4689
  371TMC3    C3 5549   3.957   2.762  15.458  0.3070  0.0234 -0.3126
  371TMC3    C4 5550   4.214   2.768  15.378 -0.2660 -0.5820 -0.6493
  371TMC3    C5 5551   4.139   2.880  15.375 -0.6853 -0.2293  0.1783
  371TMC3    C6 5552   4.013   2.886  15.427 -0.1303  0.1749 -0.4088
  371TMC3     C 5553   4.241   2.534  15.450  0.3300 -1.0412 -0.8146
  371TMC3     O 5554   4.350   2.540  15.407 -0.1988 -0.2630  0.5411
  371TMC3     H 5555   3.973   2.556  15.484 -0.0920 -0.3210 -0.4803
  371TMC3    H1 5556   4.319   2.764  15.351  0.3592  0.7628  1.5866
  371TMC3    H2 5557   3.969   2.985  15.428 -0.1911  0.1060  3.3679
  371TMC3    C7 5558   4.183   3.004  15.309  0.0490  0.0245  0.5919
  371TMC3    C8 5559   3.819   2.750  15.449 -1.1282  0.3586  0.2874
  371TMC3    O1 5560   4.141   3.111  15.354  0.4493  0.1464  0.1686
  371TMC3    O2 5561   3.781   2.654  15.378  0.0778 -0.3361  0.4965
  372MPD2     C 5562   3.458   4.080  13.108 -0.9733 -0.3923 -0.0874
  372MPD2    C1 5563   3.510   3.958  13.118  0.5878 -0.3952 -0.6646
  372MPD2    C2 5564   3.441   3.849  13.159  0.0620  0.0809  0.0645
  372MPD2    C3 5565   3.299   3.861  13.170  0.0445  0.0863 -0.6189
  372MPD2    C4 5566   3.240   3.985  13.149 -0.2899  0.4826  0.3619
  372MPD2    C5 5567   3.319   4.096  13.116 -0.1529 -0.1786  0.6324
  372MPD2     H 5568   3.493   3.756  13.178 -0.9419 -0.1580  1.6532
  372MPD2    H1 5569   3.135   4.013  13.155 -0.8908 -2.0444  1.7336
  372MPD2    H2 5570   3.523   4.164  13.085 -1.3204 -0.1014 -0.0113
  372MPD2    H3 5571   3.270   4.189  13.089  1.4882  0.3925 -0.3394
  372MPD2     N 5572   3.231   3.742  13.198 -0.2135  0.4723  0.0814
  372MPD2    H5 5573   3.291   3.661  13.206  1.3437  1.4189 -1.8949
  372MPD2    N1 5574   3.647   3.937  13.103  0.0206  0.6129 -0.6728
  372MPD2    H7 5575   3.679   3.843  13.126 -0.2108  0.2388 -1.8703
  373TMC3    C1 5576   3.094   3.583  13.276  1.2032  0.5059 -0.5180
  373TMC3    C2 5577   2.999   3.561  13.375 -0.4151  0.7032 -0.7223
  373TMC3    C3 5578   2.986   3.427  13.419  0.1322  0.8129 -0.1220
  373TMC3    C4 5579   3.167   3.482  13.218 -0.1264 -0.0114 -0.7832
  373TMC3    C5 5580   3.142   3.351  13.261  0.1165  0.1683 -0.2030
  373TMC3    C6 5581   3.052   3.319  13.355 -0.4601 -0.0144 -0.0273
  373TMC3     C 5582   3.100   3.718  13.225 -0.5029 -0.3136 -1.3221
  373TMC3     O 5583   3.009   3.793  13.242  0.5520 -0.6696 -0.1467
  373TMC3     H 5584   2.945   3.643  13.422  1.3352  0.5184  1.6021
  373TMC3    H1 5585   3.236   3.510  13.139 -0.5413  1.5747 -0.5851
  373TMC3    H2 5586   3.058   3.219  13.398  2.8739 -0.9203 -2.6609
  373TMC3    C7 5587   3.240   3.247  13.225 -0.0694 -0.1185  0.2798
  373TMC3    C8 5588   3.002   3.418  13.566 -0.1041 -0.4578  0.0725
  373TMC3    O1 5589   3.194   3.139  13.197  0.0968  0.2208 -0.0645
  373TMC3    O2 5590   3.103   3.367  13.611 -0.3350  0.3010 -0.2216
  374TMC3    C1 5591   3.831   3.925   9.496  0.5743  0.4838 -0.4543
  374TMC3    C2 5592   3.866   4.042   9.557 -0.0341  0.3579  0.0382
  374TMC3    C3 5593   3.881   4.151   9.473  0.3602  0.1563 -0.5724
  374TMC3    C4 5594   3.798   3.920   9.365 -0.4258  0.4389  0.0592
  374TMC3    C5 5595   3.823   4.029   9.285  0.8873 -0.0299  0.1298
  374TMC3    C6 5596   3.862   4.149   9.338  0.0901 -0.1986 -0.2443
  374TMC3     C 5597   3.815   3.799   9.573 -0.3144  0.1900 -0.3056
  374TMC3     O 5598   3.786   3.705   9.506  0.3395  0.1241 -0.5363
  374TMC3     H 5599   3.896   4.044   9.661 -0.7153  1.3078  0.2146
  374TMC3    H1 5600   3.768   3.828   9.315 -0.0202  0.5647 -0.4131
  374TMC3    H2 5601   3.857   4.239   9.277 -0.4463 -0.6758 -0.9082
  374TMC3    C7 5602   3.762   4.038   9.150  0.0907 -0.9976 -0.2419
  374TMC3    C8 5603   3.935   4.275   9.523  0.3196  0.1378 -0.0731
  374TMC3    O1 5604   3.785   4.139   9.082 -0.6003  0.0245 -0.2901
  374TMC3    O2 5605   3.937   4.376   9.457 -0.6908 -0.3719  0.4527
  375MPD2     C 5606   4.328   4.529  17.130 -0.0907  0.3991 -0.0231
  375MPD2    C1 5607   4.245   4.578  17.035 -0.8765 -0.6297 -0.4135
  375MPD2    C2 5608   4.260   4.538  16.900  0.6154 -0.5001 -0.2968
  375MPD2    C3 5609   4.363   4.453  16.864  0.0043 -0.3185  0.4932
  375MPD2    C4 5610   4.449   4.408  16.961 -0.3660 -0.9498  0.4762
  375MPD2    C5 5611   4.435   4.452  17.091 -0.4165 -1.0335  0.7195
  375MPD2     H 5612   4.193   4.580  16.827  0.9578  0.7610  0.1147
  375MPD2    H1 5613   4.535   4.347  16.935  0.8024  0.2146  1.5773
  375MPD2    H2 5614   4.318   4.551  17.235  1.0906  1.5907 -0.1472
  375MPD2    H3 5615   4.503   4.420  17.169  0.6908  0.2248  0.2883
  375MPD2     N 5616   4.391   4.413  16.731 -0.2581  0.4241  0.0479
  375MPD2    H5 5617   4.463   4.342  16.723 -0.3671  0.0458  2.5655
  375MPD2    N1 5618   4.136   4.661  17.065  0.3421 -0.5966 -0.2655
  375MPD2    H7 5619   4.081   4.699  16.989 -0.4390 -0.2354  0.4697
  376TMC3    C1 5620   4.377   4.374  16.503 -0.6950  0.6963  0.1703
  376TMC3    C2 5621   4.497   4.304  16.503  0.3192 -0.0857  0.2361
  376TMC3    C3 5622   4.546   4.267  16.379 -0.1829  0.2346 -0.7560
  376TMC3    C4 5623   4.316   4.410  16.384  0.3158  0.0054  0.0810
  376TMC3    C5 5624   4.369   4.363  16.273  0.0638 -0.5359 -0.1929
  376TMC3    C6 5625   4.494   4.302  16.262  0.2504 -0.3756  0.3404
  376TMC3     C 5626   4.316   4.434  16.624  0.4939 -0.6008 -0.2078
  376TMC3     O 5627   4.204   4.476  16.610 -0.0179 -0.2002 -0.0445
  376TMC3     H 5628   4.549   4.275  16.593  2.5449  1.3015 -0.5855
  376TMC3    H1 5629   4.231   4.477  16.383  0.5256  0.3186  1.9160
  376TMC3    H2 5630   4.556   4.301  16.174 -0.3121 -1.8306 -0.0432
  376TMC3    C7 5631   4.314   4.427  16.153 -0.3245  0.3394  0.4776
  376TMC3    C8 5632   4.689   4.247  16.371  0.7177  0.7080 -0.1267
  376TMC3    O1 5633   4.255   4.530  16.162  0.1567 -0.0343 -0.2151
  376TMC3    O2 5634   0.019   4.144  16.422 -0.7527  0.0023  0.4563
  377MPD2     C 5635   1.910   4.302  12.336  0.1834 -0.4080 -0.2531
  377MPD2    C1 5636   1.973   4.221  12.426 -0.0221  0.3908 -0.2742
  377MPD2    C2 5637   1.899   4.116  12.474  0.3042 -0.5588  0.0964
  377MPD2    C3 5638   1.770   4.094  12.442  0.2393  0.3692 -0.1385
  377MPD2    C4 5639   1.708   4.170  12.340 -0.3126  0.2760  0.2377
  377MPD2    C5 5640   1.782   4.278  12.295 -0.2272 -0.1371  0.5011
  377MPD2     H 5641   1.944   4.072  12.562 -0.0428  2.0501  1.5760
  377MPD2    H1 5642   1.611   4.145  12.298  0.0845 -0.5510 -0.1674
  377MPD2    H2 5643   1.957   4.390  12.294 -0.6536  0.3075  0.2916
  377MPD2    H3 5644   1.746   4.349  12.221  1.4636 -0.7930 -0.9405
  377MPD2     N 5645   1.696   3.990  12.506  0.2572  0.1638 -0.3348
  377MPD2    H5 5646   1.596   3.984  12.492  0.3048  0.0151 -0.6045
  377MPD2    N1 5647   2.108   4.246  12.442  0.4342 -0.1001 -0.5613
  377MPD2    H7 5648   2.151   4.316  12.382 -0.1581 -0.9158 -1.9531
  378TMC3    C1 5649   2.496   4.123  12.351 -0.0859 -0.3528 -0.1654
  378TMC3    C2 5650   2.368   4.164  12.384  0.2367 -0.2830 -0.0491
  378TMC3    C3 5651   2.335   4.170  12.510 -0.4880  0.0245  1.0901
  378TMC3    C4 5652   2.584   4.081  12.442 -0.3816 -0.5961  0.4383
  378TMC3    C5 5653   2.545   4.076  12.578 -0.5690 -0.2911  0.2334
  378TMC3    C6 5654   2.420   4.122  12.611  0.7757  0.1944 -0.2893
  378TMC3     C 5655   2.524   4.117  12.211  0.1315 -0.0538 -0.0564
  378TMC3     O 5656   2.434   4.074  12.140  0.0788  0.6818 -0.2329
  378TMC3     H 5657   2.288   4.164  12.311 -0.3580 -1.4050  0.6241
  378TMC3    H1 5658   2.687   4.059  12.416  0.2879  2.5767  0.4489
  378TMC3    H2 5659   2.400   4.121  12.717 -2.4100  0.3165 -0.8950
  378TMC3    C7 5660   2.644   4.040  12.679 -0.4621 -0.0108 -0.8200
  378TMC3    C8 5661   2.190   4.171  12.539  0.1974 -0.2902 -0.5932
  378TMC3    O1 5662   2.605   4.029  12.796 -0.0881 -0.0735 -0.6638
  378TMC3    O2 5663   2.153   4.119  12.643 -0.1439 -0.5298  0.1434
  379MPD2     C 5664   3.137   1.901  16.099  0.9705  0.1699  0.3781
  379MPD2    C1 5665   3.100   2.012  16.174 -0.1780  0.1155 -0.1128
  379MPD2    C2 5666   3.133   2.035  16.308  1.0720  0.5273 -0.4919
  379MPD2    C3 5667   3.213   1.949  16.375  0.1247  0.7022 -0.1217
  379MPD2    C4 5668   3.235   1.836  16.304  0.1228  0.0860  0.3846
  379MPD2    C5 5669   3.206   1.808  16.175  0.1935  0.4534  0.1280
  379MPD2     H 5670   3.099   2.129  16.348 -1.1330 -0.4386 -0.1110
  379MPD2    H1 5671   3.298   1.762  16.352 -0.9852 -0.6469  0.7396
  379MPD2    H2 5672   3.102   1.888  15.998  0.9858 -0.7261  0.4810
  379MPD2    H3 5673   3.243   1.710  16.148 -0.2867  0.7585 -1.6371
  379MPD2     N 5674   3.263   1.963  16.511  0.0956  0.2843  0.7382
  379MPD2    H5 5675   3.306   1.890  16.567  1.7686  0.2951 -0.5308
  379MPD2    N1 5676   3.012   2.096  16.098  0.9023  0.2900 -0.2630
  379MPD2    H7 5677   3.017   2.086  15.998  3.7134  1.9993 -0.2923
  380TMC3    C1 5678   2.834   2.250  16.068 -0.5655  0.2927  0.1548
  380TMC3    C2 5679   2.882   2.299  15.948  0.7989  0.3842 -0.0789
  380TMC3    C3 5680   2.808   2.392  15.884 -0.3603 -0.3285 -0.1513
  380TMC3    C4 5681   2.701   2.270  16.105  0.4258 -0.3790 -0.2197
  380TMC3    C5 5682   2.629   2.362  16.040  0.0269 -0.1546  0.4296
  380TMC3    C6 5683   2.676   2.418  15.924 -0.2342 -0.1643  0.1911
  380TMC3     C 5684   2.919   2.177  16.161 -0.7511 -0.2216  0.2978
  380TMC3     O 5685   2.886   2.181  16.280 -0.0297 -0.0129 -0.1409
  380TMC3     H 5686   2.982   2.281  15.911  0.2013 -2.7810 -0.1445
  380TMC3    H1 5687   2.665   2.235  16.201 -0.7714  1.1544 -0.1010
  380TMC3    H2 5688   2.613   2.487  15.868  2.8858  0.8042 -2.0920
  380TMC3    C7 5689   2.483   2.372  16.055 -0.4515  0.2120  0.6149
  380TMC3    C8 5690   2.842   2.407  15.743 -0.6067 -0.7423  0.3213
  380TMC3    O1 5691   2.443   2.473  16.114 -0.2461  0.3853 -0.5292
  380TMC3    O2 5692   2.952   2.373  15.702 -0.3535  0.1836  0.5777
  381TMC3    C1 5693   2.628   3.744  16.282 -0.1761  0.0173  0.4776
  381TMC3    C2 5694   2.746   3.691  16.232  0.4851  0.4879  0.0678
  381TMC3    C3 5695   2.803   3.587  16.311  0.4235 -0.4599  0.6481
  381TMC3    C4 5696   2.575   3.714  16.399  0.4675  0.1892  0.4982
  381TMC3    C5 5697   2.639   3.625  16.473  0.0394  0.4015 -0.5840
  381TMC3    C6 5698   2.749   3.556  16.429 -0.1677 -0.3651  0.3051
  381TMC3     C 5699   2.596   3.870  16.231  0.2604 -0.0836 -0.4271
  381TMC3     O 5700   2.629   3.890  16.114 -0.5380 -0.2145  0.0969
  381TMC3     H 5701   2.797   3.730  16.145  2.8373 -1.8572  0.3593
  381TMC3    H1 5702   2.476   3.747  16.429 -0.2939  0.7469 -2.6209
  381TMC3    H2 5703   2.784   3.479  16.497  0.7629 -1.1807 -1.1037
  381TMC3    C7 5704   2.564   3.550  16.572 -0.1733  0.2580 -0.2021
  381TMC3    C8 5705   2.946   3.593  16.318  0.9387  0.2464 -0.6090
  381TMC3    O1 5706   2.567   3.428  16.560 -0.1376 -0.2387  0.5668
  381TMC3    O2 5707   3.008   3.578  16.213 -0.2385 -0.3975 -0.1032
  382MPD2     C 5708   2.299   0.851   0.439 -0.3038  0.2104  0.0222
  382MPD2    C1 5709   2.164   0.830   0.438  0.2641 -0.0311 -0.2110
  382MPD2    C2 5710   2.115   0.716   0.380 -0.1385  0.1920 -0.4068
  382MPD2    C3 5711   2.206   0.623   0.330  0.5157  0.7441  1.0132
  382MPD2    C4 5712   2.341   0.644   0.329 -0.5044 -0.7167  0.0699
  382MPD2    C5 5713   2.382   0.760   0.384  0.3756  0.6146  0.8646
  382MPD2     H 5714   2.011   0.689   0.395 -1.2509  2.4560 -4.0298
  382MPD2    H1 5715   2.412   0.568   0.300 -0.1829  0.7665 -2.9883
  382MPD2    H2 5716   2.343   0.936   0.489 -1.4787 -0.2850  1.8977
  382MPD2    H3 5717   2.488   0.776   0.401  0.3404  1.5524  0.1408
  382MPD2     N 5718   2.156   0.496   0.278 -0.1118  0.3766  0.5484
  382MPD2    H5 5719   2.223   0.420   0.267 -0.7152  0.0690 -0.9653
  382MPD2    N1 5720   2.072   0.926   0.485 -0.2446 -0.0412  0.3856
  382MPD2    H7 5721   1.978   0.896   0.509 -0.5391  1.3688  1.0007
  383TMC3    C1 5722   1.995   0.355   0.168  0.2499  0.0733  0.5153
  383TMC3    C2 5723   1.889   0.354   0.088  0.6302 -0.4189  1.4570
  383TMC3    C3 5724   1.846   0.234   0.024  0.4853  0.4425 -0.4530
  383TMC3    C4 5725   2.069   0.246   0.193 -0.2275 -0.5682 -0.6598
  383TMC3    C5 5726   2.020   0.128   0.143 -0.4151 -0.1170  0.0211
  383TMC3    C6 5727   1.918   0.122   0.055 -0.3942  0.3336  0.1287
  383TMC3     C 5728   2.037   0.488   0.213  0.1804 -0.5725 -1.0794
  383TMC3     O 5729   1.965   0.581   0.181  0.6481 -0.3437  1.3011
  383TMC3     H 5730   1.838   0.447   0.065  1.9812 -0.0464 -0.0038
  383TMC3    H1 5731   2.156   0.250   0.258 -0.2488 -1.6348 -0.5634
  383TMC3    H2 5732   1.892   0.030   0.004  0.3965  0.1796  0.0136
  383TMC3    C7 5733   2.101   0.010   0.158 -0.0400 -0.3748  0.3095
  383TMC3    C8 5734   1.743   0.233  17.608  0.0205  0.8031  0.0363
  383TMC3    O1 5735   2.194   0.029   0.240  0.0845 -0.5357 -0.1799
  383TMC3    O2 5736   1.753   0.152  17.516 -0.4631  0.2201 -0.5893
  384MPD2     C 5737   3.261   2.166  11.614 -0.3306  0.6342 -0.3715
  384MPD2    C1 5738   3.201   2.124  11.730  0.6191 -0.1271 -0.1284
  384MPD2    C2 5739   3.206   1.994  11.768 -0.1333 -0.7940  0.2227
  384MPD2    C3 5740   3.270   1.902  11.692  0.3518  0.5171  0.2589
  384MPD2    C4 5741   3.337   1.948  11.577  0.1927  0.1687  0.3273
  384MPD2    C5 5742   3.330   2.078  11.536 -0.1752  0.2616 -0.3531
  384MPD2     H 5743   3.162   1.968  11.863 -0.2218 -4.7221 -0.8862
  384MPD2    H1 5744   3.390   1.880  11.512 -0.0551 -1.6813  2.0859
  384MPD2    H2 5745   3.243   2.267  11.581 -1.4070  0.1661 -1.1758
  384MPD2    H3 5746   3.381   2.118  11.449  1.2589 -2.8354 -0.9375
  384MPD2     N 5747   3.298   1.774  11.729 -0.8915  0.2676 -0.2876
  384MPD2    H5 5748   3.378   1.730  11.684 -1.3356  0.8462 -1.6175
  384MPD2    N1 5749   3.125   2.222  11.803  0.5137  0.0428 -0.2991
  384MPD2    H7 5750   3.146   2.319  11.781  0.0803 -0.0047 -0.9203
  385TMC3    C1 5751   3.291   1.613  11.903  0.2416  0.6952 -0.8959
  385TMC3    C2 5752   3.213   1.511  11.948 -0.0144  0.2550  0.0326
  385TMC3    C3 5753   3.225   1.468  12.077  0.3223  0.5090 -0.2825
  385TMC3    C4 5754   3.376   1.674  11.988  0.5600 -0.0981  0.2384
  385TMC3    C5 5755   3.381   1.632  12.119 -0.3844  0.0603 -0.4509
  385TMC3    C6 5756   3.303   1.534  12.171  0.9405  0.2330  0.4499
  385TMC3     C 5757   3.220   1.707  11.821 -0.1753  0.5209  0.2395
  385TMC3     O 5758   3.116   1.743  11.866 -0.0261  0.3231 -0.6540
  385TMC3     H 5759   3.132   1.470  11.890 -0.4843  0.6464  0.4178
  385TMC3    H1 5760   3.444   1.754  11.961  1.4862 -0.7598  0.5924
  385TMC3    H2 5761   3.308   1.500  12.274 -1.5001 -1.2746  0.0822
  385TMC3    C7 5762   3.393   1.748  12.202  0.1287 -0.0976 -0.1237
  385TMC3    C8 5763   3.194   1.334  12.107  0.2196 -1.3175  0.1097
  385TMC3    O1 5764   3.428   1.849  12.146  0.2275  0.5162 -0.3001
  385TMC3    O2 5765   3.205   1.305  12.224  0.3390 -0.0087 -0.1753
  386TMC3    C1 5766   3.111   4.490  11.498  0.1307 -0.1188  1.1365
  386TMC3    C2 5767   3.177   4.512  11.377 -0.5079  0.2698 -1.0284
  386TMC3    C3 5768   3.103   4.574  11.286  0.3522  0.6153  0.1437
  386TMC3    C4 5769   2.978   4.514  11.517  0.3644  0.4157 -0.2128
  386TMC3    C5 5770   2.909   4.552  11.412 -0.6130 -0.2412 -0.2589
  386TMC3    C6 5771   2.964   4.591  11.296 -0.2332 -0.2302  0.4684
  386TMC3     C 5772   3.178   4.414  11.602 -0.4452  0.4530  0.0371
  386TMC3     O 5773   3.128   4.423  11.716 -0.9862  0.0417 -0.2742
  386TMC3     H 5774   3.285   4.498  11.368 -0.3499  2.3974 -2.3870
  386TMC3    H1 5775   2.928   4.505  11.613  1.8595 -0.4122  0.4852
  386TMC3    H2 5776   2.903   4.629  11.215  1.1610 -1.0529 -0.9878
  386TMC3    C7 5777   2.764   4.526  11.412  0.3242  0.5716 -0.0506
  386TMC3    C8 5778   3.162   4.618  11.162  0.7284  0.1040 -0.0118
  386TMC3    O1 5779   2.718   4.488  11.524 -0.4377  0.5134  0.6302
  386TMC3    O2 5780   3.236   4.541  11.105  0.2086  0.2527 -0.7913
  387MPD2     C 5781   0.997   0.094   9.898 -0.5499 -0.4561 -0.2649
  387MPD2    C1 5782   1.104   0.007   9.905 -0.6696 -0.1039 -0.7194
  387MPD2    C2 5783   1.080   4.598   9.870  0.2487 -0.0158  0.0699
  387MPD2    C3 5784   0.956   4.551   9.836  1.0171  0.4619 -0.1580
  387MPD2    C4 5785   0.848   4.633   9.857  0.0247  0.0703 -0.1025
  387MPD2    C5 5786   0.873   0.048   9.882 -0.6154  0.0050 -0.2338
  387MPD2     H 5787   1.165   4.531   9.871  0.0555 -0.2203  2.7191
  387MPD2    H1 5788   0.751   4.585   9.865  0.4983 -0.5918  1.8477
  387MPD2    H2 5789   1.009   0.197   9.929 -0.9932 -0.9958  1.6450
  387MPD2    H3 5790   0.789   0.117   9.884  0.0265  0.7795 -0.1278
  387MPD2     N 5791   0.941   4.414   9.811  0.0133  0.3378 -0.5107
  387MPD2    H5 5792   1.032   4.372   9.797 -0.5390 -0.9092 -0.2965
  387MPD2    N1 5793   1.238   0.042   9.939 -0.2009 -0.1875 -0.9686
  387MPD2    H7 5794   1.302   4.685   9.952 -2.1706 -1.4669  1.1374
  388TMC3    C1 5795   1.413   0.152  10.060  0.3771  0.8093 -0.0240
  388TMC3    C2 5796   1.423   0.224  10.168 -0.1824 -0.8005  0.5767
  388TMC3    C3 5797   1.516   0.203  10.260  0.2782  0.6533 -0.2055
  388TMC3    C4 5798   1.495   0.050  10.034 -0.1018 -0.3293 -0.5641
  388TMC3    C5 5799   1.582   0.019  10.130 -0.2025  0.3963  0.5957
  388TMC3    C6 5800   1.600   0.094  10.246 -0.0087  0.1273  0.0129
  388TMC3     C 5801   1.283   0.160   9.991 -0.7688 -0.0360 -0.6271
  388TMC3     O 5802   1.238   0.272   9.979 -0.1021  0.2219 -0.2261
  388TMC3     H 5803   1.354   0.307  10.176  2.2311  1.1846  0.6829
  388TMC3    H1 5804   1.489   0.009   9.933  1.9586  1.4223 -1.4036
  388TMC3    H2 5805   1.663   0.055  10.325  3.6625  0.7477 -2.6510
  388TMC3    C7 5806   1.620   4.598  10.154  0.2740  0.6176  0.0380
  388TMC3    C8 5807   1.469   0.233  10.399  0.1081 -0.0369  0.3533
  388TMC3    O1 5808   1.689   4.571  10.253  0.2100  0.0073 -0.5546
  388TMC3    O2 5809   1.354   0.275  10.402  0.4127 -0.6404  0.8928
  389MPD2     C 5810   0.161   2.228  10.810  0.3866 -0.1987 -0.0425
  389MPD2    C1 5811   0.088   2.152  10.722 -0.2334  0.1557  0.6656
  389MPD2    C2 5812   0.020   2.039  10.768 -0.1776 -0.4992 -0.2509
  389MPD2    C3 5813   0.024   2.010  10.901 -0.4980  0.0853 -0.1660
  389MPD2    C4 5814   0.111   2.074  10.987  0.2880 -0.4364  0.1607
  389MPD2    C5 5815   0.179   2.187  10.942  0.2569  0.6540  0.3464
  389MPD2     H 5816   4.684   1.979  10.697 -1.9328 -1.6692  2.1356
  389MPD2    H1 5817   0.124   2.042  11.089  1.4551 -0.8843 -0.1358
  389MPD2    H2 5818   0.205   2.325  10.787 -3.1219  1.6085  0.8580
  389MPD2    H3 5819   0.226   2.249  11.016 -1.6118  0.7613  1.4333
  389MPD2     N 5820   4.666   1.909  10.959 -0.0468 -0.0980  0.0063
  389MPD2    H5 5821   4.674   1.904  11.060 -1.8779  1.4568  0.2272
  389MPD2    N1 5822   0.077   2.202  10.596  0.9600 -0.8276  0.0301
  389MPD2    H7 5823   0.134   2.286  10.585 -1.6888  0.8342 -1.1133
  390TMC3    C1 5824   4.477   1.779  11.012  0.2426 -0.4162  0.1646
  390TMC3    C2 5825   4.532   1.778  11.141 -0.0808  0.2557  0.2454
  390TMC3    C3 5826   4.463   1.829  11.247 -0.3950  0.8271 -0.0075
  390TMC3    C4 5827   4.348   1.805  10.987 -0.0738  0.1739 -0.2477
  390TMC3    C5 5828   4.280   1.857  11.094  0.5076  0.4090 -0.1504
  390TMC3    C6 5829   4.335   1.874  11.218  0.3497  0.0982 -0.2332
  390TMC3     C 5830   4.571   1.823  10.905 -0.0941 -0.8908  0.4304
  390TMC3     O 5831   4.530   1.813  10.788  0.0604  0.0268  0.0795
  390TMC3     H 5832   4.632   1.738  11.159 -0.7661 -0.6698  1.9715
  390TMC3    H1 5833   4.304   1.822  10.890  0.1596 -4.1127 -1.1017
  390TMC3    H2 5834   4.291   1.939  11.292 -0.2394  0.4098 -0.8548
  390TMC3    C7 5835   4.140   1.809  11.094  0.6032 -0.1329  0.8194
  390TMC3    C8 5836   4.544   1.902  11.341  0.6739  0.0762 -0.3948
  390TMC3    O1 5837   4.099   1.762  10.993 -0.0960 -0.0043 -0.2921
  390TMC3    O2 5838   4.642   1.952  11.286  0.6686  0.4996  0.6879
  391MPD2     C 5839   4.027   4.023  11.036 -0.0564 -0.5650 -0.7689
  391MPD2    C1 5840   4.165   4.025  11.037 -0.8653  0.0253  0.5124
  391MPD2    C2 5841   4.230   4.037  10.920  0.0237 -0.1810 -0.2033
  391MPD2    C3 5842   4.160   4.063  10.806 -0.3592  0.8711  0.3178
  391MPD2    C4 5843   4.027   4.076  10.806 -0.3766 -0.0554 -0.3667
  391MPD2    C5 5844   3.960   4.054  10.918 -0.6707  0.2735 -0.7366
  391MPD2     H 5845   4.336   4.016  10.917  0.3920  1.5814 -0.0419
  391MPD2    H1 5846   3.962   4.103  10.723 -0.0171 -0.0020 -0.6305
  391MPD2    H2 5847   3.966   3.993  11.120  0.2872  3.0266  0.7299
  391MPD2    H3 5848   3.854   4.074  10.918 -0.6000  0.6504 -0.6578
  391MPD2     N 5849   4.237   4.074  10.684  0.8377 -0.0039  0.3194
  391MPD2    H5 5850   4.338   4.067  10.689  0.6516 -3.2571 -0.6214
  391MPD2    N1 5851   4.228   4.033  11.159  0.2079 -0.6632 -0.8754
  391MPD2    H7 5852   4.171   4.011  11.240 -1.7513 -0.0264 -2.1011
  392TMC3    C1 5853   4.276   4.141  10.454 -0.7133  0.2131 -0.1250
  392TMC3    C2 5854   4.217   4.157  10.333  0.4494 -0.5049 -0.2257
  392TMC3    C3 5855   4.294   4.221  10.234 -0.1455 -0.3506  1.0537
  392TMC3    C4 5856   4.395   4.199  10.489 -0.4846 -0.9227 -0.1559
  392TMC3    C5 5857   4.458   4.270  10.395  0.9065  0.2289 -0.3612
  392TMC3    C6 5858   4.413   4.290  10.267  0.8543 -0.0815 -0.0137
  392TMC3     C 5859   4.185   4.090  10.557 -0.3931  0.4092 -0.1186
  392TMC3     O 5860   4.067   4.104  10.535  0.3211 -0.7023 -0.0747
  392TMC3     H 5861   4.121   4.113  10.310  0.4962 -1.5164  1.5117
  392TMC3    H1 5862   4.434   4.183  10.589 -0.9681 -0.3219  0.1290
  392TMC3    H2 5863   4.483   4.321  10.190  0.3683 -2.4604 -1.3991
  392TMC3    C7 5864   4.598   4.297  10.420 -0.4500 -0.6150 -1.0206
  392TMC3    C8 5865   4.237   4.238  10.104  0.8846 -0.3690  0.4959
  392TMC3    O1 5866   4.653   4.235  10.512  0.3188 -0.5633  0.0047
  392TMC3    O2 5867   4.146   4.162  10.076 -0.0656  0.2749  0.6061
  393TMC3    C1 5868   3.478   1.795  10.362 -0.2473  0.7957 -0.1468
  393TMC3    C2 5869   3.372   1.762  10.432  0.2317  0.7069 -0.0351
  393TMC3    C3 5870   3.378   1.658  10.521  0.3201 -0.4361  0.0524
  393TMC3    C4 5871   3.590   1.713  10.363 -0.1940  0.0884  0.2768
  393TMC3    C5 5872   3.589   1.600  10.448 -0.0192 -0.6345  0.3887
  393TMC3    C6 5873   3.489   1.584  10.533  0.1423  0.5522  0.1625
  393TMC3     C 5874   3.484   1.929  10.311  0.3499 -0.2698  0.1416
  393TMC3     O 5875   3.389   2.003  10.339 -0.6728 -0.3718 -0.0383
  393TMC3     H 5876   3.279   1.812  10.410 -0.5466 -0.6547  0.1508
  393TMC3    H1 5877   3.660   1.723  10.281 -0.1340  2.9116  0.6939
  393TMC3    H2 5878   3.490   1.491  10.590 -0.1499  0.9766  0.8590
  393TMC3    C7 5879   3.680   1.497  10.406 -0.5007  0.2070 -0.3953
  393TMC3    C8 5880   3.255   1.630  10.600 -0.1878  0.5671  0.7813
  393TMC3    O1 5881   3.641   1.384  10.425  0.1577 -0.1244  0.5277
  393TMC3    O2 5882   3.180   1.724  10.606  0.5261 -0.4328  0.2436
  394TMC3    C1 5883   0.038   2.228  10.364 -0.1596  0.0039  0.1682
  394TMC3    C2 5884   0.008   2.170  10.244 -0.0266 -0.2540  0.2133
  394TMC3    C3 5885   0.054   2.229  10.125  0.4998 -0.3565 -0.1304
  394TMC3    C4 5886   0.072   2.359  10.367  0.1218  0.0638  0.1500
  394TMC3    C5 5887   0.109   2.424  10.248 -0.1671 -0.3929  0.2462
  394TMC3    C6 5888   0.104   2.353  10.130 -0.2386  0.9061 -0.7034
  394TMC3     C 5889   0.014   2.152  10.484 -0.0330 -0.5731 -0.1109
  394TMC3     O 5890   4.675   2.043  10.462 -0.2091  1.0562 -0.0682
  394TMC3     H 5891   4.688   2.070  10.243  0.1115 -0.3051 -0.6838
  394TMC3    H1 5892   0.088   2.416  10.459 -0.1575 -1.2727  1.0273
  394TMC3    H2 5893   0.146   2.398  10.040  0.8440  0.4593 -0.4200
  394TMC3    C7 5894   0.148   2.567  10.244  0.6477 -0.1192  0.1065
  394TMC3    C8 5895   0.029   2.165   9.996  0.0070 -0.2593  0.1746
  394TMC3    O1 5896   0.165   2.614  10.355 -0.0176 -0.2911 -0.3266
  394TMC3    O2 5897   0.006   2.223   9.888 -0.3059 -0.1386 -0.2203
  395TMC3    C1 5898   0.201   4.069  15.067  0.2921 -0.9249  0.1245
  395TMC3    C2 5899   0.173   4.003  14.950 -0.0805  1.1352  0.0382
  395TMC3    C3 5900   0.216   4.057  14.831  0.1165 -0.3137 -0.3233
  395TMC3    C4 5901   0.254   4.195  15.055  0.7972 -0.3180  0.5063
  395TMC3    C5 5902   0.304   4.235  14.936  0.5821  0.1612  0.3861
  395TMC3    C6 5903   0.297   4.167  14.821  0.2411  0.0360 -0.1750
  395TMC3     C 5904   0.131   4.016  15.185 -0.2338  0.4212 -0.0679
  395TMC3     O 5905   0.111   3.895  15.200  0.6245  0.2402  0.3256
  395TMC3     H 5906   0.119   3.909  14.954  0.4821  0.7668 -1.2315
  395TMC3    H1 5907   0.271   4.259  15.141 -2.3417  2.4080 -0.9335
  395TMC3    H2 5908   0.324   4.204  14.723 -0.6307  2.3205  0.4461
  395TMC3    C7 5909   0.381   4.357  14.932  0.6079  0.6781  0.4899
  395TMC3    C8 5910   0.142   4.008  14.712  0.1993 -0.2778 -0.0796
  395TMC3    O1 5911   0.351   4.442  15.020  0.4320 -0.1232 -0.2323
  395TMC3    O2 5912   0.136   4.083  14.615 -0.0365  1.1082 -0.1646
  396MPD2     C 5913   0.374   0.807  17.355  0.2234 -0.2063  0.4838
  396MPD2    C1 5914   0.507   0.816  17.325  0.4034  0.4970 -0.1181
  396MPD2    C2 5915   0.558   0.944  17.289 -0.2509  0.6180  0.2045
  396MPD2    C3 5916   0.471   1.048  17.262 -0.2384 -0.5730  0.1590
  396MPD2    C4 5917   0.340   1.041  17.301 -0.1508 -0.8137  0.3357
  396MPD2    C5 5918   0.296   0.915  17.336  0.5582 -1.1090  0.7417
  396MPD2     H 5919   0.664   0.954  17.266  0.1248  2.4444  2.7468
  396MPD2    H1 5920   0.273   1.125  17.292  2.4154  1.3484  1.6457
  396MPD2    H2 5921   0.328   0.710  17.375  0.2402 -0.4453 -0.6422
  396MPD2    H3 5922   0.188   0.910  17.348  0.2772  1.8468 -0.4063
  396MPD2     N 5923   0.526   1.174  17.213 -0.2601 -0.2588 -0.2165
  396MPD2    H5 5924   0.625   1.177  17.194 -0.1067  3.6191  1.2632
  396MPD2    N1 5925   0.583   0.698  17.335 -0.8446 -0.1559  0.1589
  396MPD2    H7 5926   0.529   0.611  17.331 -2.0408  0.5981 -0.2228
  397TMC3    C1 5927   0.759   0.542  17.333 -0.5691 -0.8109 -0.0506
  397TMC3    C2 5928   0.733   0.481  17.214 -0.2874  0.9408 -0.2524
  397TMC3    C3 5929   0.685   0.351  17.200  0.0173 -0.0434  1.1087
  397TMC3    C4 5930   0.728   0.473  17.453 -0.1671 -0.3093 -0.0415
  397TMC3    C5 5931   0.677   0.344  17.435 -0.0393  0.1308  0.2883
  397TMC3    C6 5932   0.652   0.282  17.312 -0.2462  0.1744  0.1156
  397TMC3     C 5933   0.720   0.678  17.325 -0.2275 -0.6970 -0.1540
  397TMC3     O 5934   0.806   0.761  17.301 -0.5264 -0.3435  0.4019
  397TMC3     H 5935   0.712   0.551  17.134 -0.0779  1.2773 -0.0145
  397TMC3    H1 5936   0.736   0.532  17.544 -0.2858  1.2790 -1.0607
  397TMC3    H2 5937   0.621   0.178  17.310 -0.7011  0.2941  0.7405
  397TMC3    C7 5938   0.667   0.253  17.547 -0.2702  0.4547  0.3009
  397TMC3    C8 5939   0.625   0.318  17.073  0.0702  0.0689  0.9699
  397TMC3    O1 5940   0.598   0.152  17.548  0.1571  0.0624  0.0369
  397TMC3    O2 5941   0.691   0.367  16.980  0.3420 -0.4804 -0.0265
  398MPD2     C 5942   2.840   1.215   0.503 -0.0383 -0.3401 -0.1488
  398MPD2    C1 5943   2.885   1.168   0.626 -0.5118 -0.2241 -0.3231
  398MPD2    C2 5944   2.978   1.245   0.693 -0.0629  0.4993  0.3940
  398MPD2    C3 5945   3.034   1.358   0.640 -0.1019 -0.9906  0.2329
  398MPD2    C4 5946   2.998   1.399   0.512 -0.5356  0.1865  0.0087
  398MPD2    C5 5947   2.895   1.332   0.448  0.4407 -0.4034 -0.0943
  398MPD2     H 5948   3.016   1.221   0.792  2.0550  0.0104 -0.5403
  398MPD2    H1 5949   3.051   1.472   0.451 -0.8105  0.5950  0.2577
  398MPD2    H2 5950   2.769   1.163   0.439  0.5531  0.5759 -1.5498
  398MPD2    H3 5951   2.865   1.359   0.347  3.1787 -0.7254 -0.9904
  398MPD2     N 5952   3.144   1.412   0.710 -0.2830 -0.0446 -0.1240
  398MPD2    H5 5953   3.179   1.356   0.787  1.7177  1.4766  0.0557
  398MPD2    N1 5954   2.831   1.050   0.686 -0.0262  0.1806 -0.0341
  398MPD2    H7 5955   2.870   1.020   0.775 -2.2855 -0.4866  0.7271
  399TMC3    C1 5956   2.705   0.849   0.716  0.4129  0.1064  0.7203
  399TMC3    C2 5957   2.806   0.774   0.771  0.0261 -0.1423  0.7292
  399TMC3    C3 5958   2.773   0.656   0.821  0.4393  0.3012  0.5097
  399TMC3    C4 5959   2.576   0.811   0.716  0.7849 -0.2092 -0.6646
  399TMC3    C5 5960   2.545   0.685   0.761 -0.6689  0.7727  0.3610
  399TMC3    C6 5961   2.646   0.608   0.810  0.1530 -1.0825 -0.3695
  399TMC3     C 5962   2.731   0.969   0.637 -0.7627  0.7268  0.7266
  399TMC3     O 5963   2.652   0.983   0.543 -0.1231  0.1632  0.1560
  399TMC3     H 5964   2.909   0.806   0.770  0.6807 -2.2424  0.2693
  399TMC3    H1 5965   2.506   0.878   0.668 -0.7134 -0.5545  1.0232
  399TMC3    H2 5966   2.622   0.515   0.860 -2.8421 -0.8826 -1.4539
  399TMC3    C7 5967   2.409   0.634   0.770  0.5918  0.2714 -0.3095
  399TMC3    C8 5968   2.866   0.589   0.911 -0.1889  0.1620 -0.4628
  399TMC3    O1 5969   2.411   0.513   0.787 -0.3746 -0.1194 -0.4217
  399TMC3    O2 5970   2.936   0.664   0.976  0.2622  0.3448  0.4667
  400TMC3    C1 5971   1.870   4.473  17.255 -0.5366 -0.4422  0.0856
  400TMC3    C2 5972   1.796   4.533  17.157 -0.7240 -0.3251  0.5056
  400TMC3    C3 5973   1.823   4.664  17.122 -0.1097  0.2596  0.3587
  400TMC3    C4 5974   1.962   4.546  17.324 -0.0021 -0.0006 -0.0475
  400TMC3    C5 5975   1.986   4.677  17.282  0.4261  0.3962 -0.1341
  400TMC3    C6 5976   1.918   0.019  17.181 -0.5041 -0.2943 -0.0875
  400TMC3     C 5977   1.813   4.358  17.322  0.2650  0.0011 -0.0015
  400TMC3     O 5978   1.832   4.343  17.442  0.1954 -0.3423  0.2964
  400TMC3     H 5979   1.696   4.502  17.126  0.1326 -2.8456  0.3040
  400TMC3    H1 5980   2.014   4.512  17.413 -1.6283  3.0535  2.0485
  400TMC3    H2 5981   1.947   0.112  17.134  1.1363 -0.1527  1.2089
  400TMC3    C7 5982   2.079   0.021  17.371 -0.0203 -0.0987  0.2063
  400TMC3    C8 5983   1.731   0.007  17.033  0.5858 -0.1297  0.2935
  400TMC3    O1 5984   2.169   4.687  17.432  0.1283  0.1730 -0.0248
  400TMC3    O2 5985   1.712   0.123  17.064  0.1820  0.0210 -0.0120
  401MPD2     C 5986   3.750   3.599   0.302  0.3858 -0.0460 -0.1131
  401MPD2    C1 5987   3.856   3.513   0.297  0.1567 -0.1384 -0.2258
  401MPD2    C2 5988   3.844   3.397   0.366  1.0885 -0.0172  0.2161
  401MPD2    C3 5989   3.722   3.361   0.427  0.4329  0.1597  0.2070
  401MPD2    C4 5990   3.606   3.444   0.420  0.6043 -0.4708  0.1332
  401MPD2    C5 5991   3.624   3.561   0.348 -0.3331  0.0732 -0.5753
  401MPD2     H 5992   3.932   3.334   0.365  1.7824  0.8751  3.3754
  401MPD2    H1 5993   3.505   3.427   0.456  0.2541 -0.0327 -0.6348
  401MPD2    H2 5994   3.771   3.695   0.256  0.9523 -0.3568 -0.5076
  401MPD2    H3 5995   3.543   3.633   0.344 -1.0002 -0.6727 -0.5001
  401MPD2     N 5996   3.729   3.240   0.495 -0.0171 -0.0429 -0.1888
  401MPD2    H5 5997   3.820   3.196   0.499  0.4788  1.1733  1.6474
  401MPD2    N1 5998   3.979   3.538   0.229  0.3610  0.2888 -0.7740
  401MPD2    H7 5999   4.054   3.470   0.235 -1.3436 -1.7611 -2.8886
  402TMC3    C1 6000   3.654   3.056   0.631 -0.2269 -0.3832  0.7403
  402TMC3    C2 6001   3.586   3.017   0.738 -0.2127 -0.5052  0.5552
  402TMC3    C3 6002   3.578   2.885   0.771  0.1028  0.5072  0.1739
  402TMC3    C4 6003   3.726   2.971   0.555  0.5969  0.3837  0.4451
  402TMC3    C5 6004   3.724   2.841   0.598 -0.2721  0.1096 -0.1631
  402TMC3    C6 6005   3.660   2.797   0.708 -0.6392  0.1800  0.1079
  402TMC3     C 6006   3.640   3.199   0.595 -0.2743 -0.3738  0.5354
  402TMC3     O 6007   3.538   3.256   0.633  0.3116 -0.0713 -1.0037
  402TMC3     H 6008   3.546   3.094   0.804 -0.2199 -0.7856  0.8779
  402TMC3    H1 6009   3.775   3.003   0.463  2.7677 -2.1201  0.7271
  402TMC3    H2 6010   3.652   2.691   0.729 -0.1701  0.2195  0.4950
  402TMC3    C7 6011   3.833   2.748   0.554 -0.4243 -0.4835 -0.9267
  402TMC3    C8 6012   3.598   2.864   0.916  0.2429 -0.1451 -0.0709
  402TMC3    O1 6013   3.841   2.641   0.615  0.2175 -0.3610 -0.6038
  402TMC3    O2 6014   3.677   2.941   0.967 -0.1295  0.5599  0.2119
  403MPD2     C 6015   2.923   2.422  13.343 -0.1386  0.0792  0.4951
  403MPD2    C1 6016   3.009   2.318  13.358 -0.3046  0.4543 -0.8458
  403MPD2    C2 6017   3.115   2.336  13.449  0.0671 -0.3973 -0.2762
  403MPD2    C3 6018   3.124   2.443  13.532 -0.0765  0.5741  0.3051
  403MPD2    C4 6019   3.030   2.545  13.517  0.2227 -0.2115  0.0827
  403MPD2    C5 6020   2.931   2.535  13.422  0.4608 -0.3006 -0.7522
  403MPD2     H 6021   3.199   2.268  13.448 -0.1675 -0.6797 -0.7600
  403MPD2    H1 6022   3.030   2.637  13.574 -1.1625 -0.9442  1.2579
  403MPD2    H2 6023   2.844   2.414  13.269 -1.8408  2.6333  2.0104
  403MPD2    H3 6024   2.861   2.617  13.416  0.4036 -0.0703  3.1829
  403MPD2     N 6025   3.237   2.448  13.624 -0.0890  0.7960  0.9182
  403MPD2    H5 6026   3.306   2.374  13.625 -0.5707  0.3747  2.7269
  403MPD2    N1 6027   2.996   2.218  13.265 -0.7841 -0.7242 -0.0764
  403MPD2    H7 6028   2.916   2.219  13.202 -0.3342  2.9855 -0.5785
  404TMC3    C1 6029   3.023   2.003  13.172 -0.2439  1.0782  0.2261
  404TMC3    C2 6030   3.022   1.876  13.226 -0.5610  0.0808 -0.1752
  404TMC3    C3 6031   2.987   1.778  13.137 -0.0335 -0.9703  0.9186
  404TMC3    C4 6032   2.989   2.041  13.044 -0.9651 -0.4965 -0.1322
  404TMC3    C5 6033   2.937   1.940  12.963  0.1303 -0.6584  0.5674
  404TMC3    C6 6034   2.954   1.805  13.005 -0.0412 -0.7376 -0.5311
  404TMC3     C 6035   3.072   2.106  13.265  0.0229 -0.5778  1.0229
  404TMC3     O 6036   3.172   2.077  13.329 -0.0853 -0.2688 -0.2777
  404TMC3     H 6037   3.046   1.863  13.331  2.2791 -0.5114 -0.8870
  404TMC3    H1 6038   2.982   2.146  13.017 -1.4887 -0.4001  0.3720
  404TMC3    H2 6039   2.921   1.720  12.947  1.0076 -1.1219 -0.5543
  404TMC3    C7 6040   2.889   1.970  12.830 -0.1273 -0.3044  0.7968
  404TMC3    C8 6041   2.981   1.638  13.185 -0.3009 -0.3969 -0.0353
  404TMC3    O1 6042   2.888   2.090  12.795  0.0003  0.4271 -0.3856
  404TMC3    O2 6043   2.963   1.555  13.099 -0.1499 -0.4601  0.2631
  405MPD2     C 6044   3.406   2.924  14.725 -0.3298 -0.5420 -0.4188
  405MPD2    C1 6045   3.315   2.820  14.722 -0.1473  0.5238 -0.0399
  405MPD2    C2 6046   3.182   2.849  14.693  0.3320 -0.3295  0.4319
  405MPD2    C3 6047   3.143   2.977  14.679 -0.2527  0.3356 -0.2848
  405MPD2    C4 6048   3.229   3.085  14.690 -0.3886  0.3332  0.3290
  405MPD2    C5 6049   3.360   3.052  14.711  0.1194 -0.2603 -0.5083
  405MPD2     H 6050   3.111   2.769  14.673 -1.7910  1.4788  0.7548
  405MPD2    H1 6051   3.205   3.190  14.678 -0.5174  0.3730  0.9152
  405MPD2    H2 6052   3.512   2.909  14.739  0.5146  3.1703 -2.8613
  405MPD2    H3 6053   3.431   3.131  14.731 -0.5964  0.6656 -1.5860
  405MPD2     N 6054   3.007   2.991  14.647 -0.2560 -0.1721  0.1063
  405MPD2    H5 6055   2.959   2.902  14.639  1.4286 -0.9730 -1.1259
  405MPD2    N1 6056   3.364   2.691  14.748 -0.1803  1.1868 -0.0562
  405MPD2    H7 6057   3.463   2.682  14.767 -0.1190 -1.4024 -1.6686
  406TMC3    C1 6058   2.612   3.084  14.738  0.1214  0.5317 -0.0542
  406TMC3    C2 6059   2.590   2.953  14.696  0.2307  0.3851  0.1891
  406TMC3    C3 6060   2.679   2.898  14.611 -0.1512 -0.5745 -0.6380
  406TMC3    C4 6061   2.720   3.162  14.701  0.5771 -0.0464  0.9427
  406TMC3    C5 6062   2.808   3.104  14.605 -0.5437 -0.0799 -0.2926
  406TMC3    C6 6063   2.777   2.978  14.555 -0.4561 -0.3028 -0.0050
  406TMC3     C 6064   2.492   3.169  14.760  0.4779  0.6713 -0.8979
  406TMC3     O 6065   2.506   3.277  14.707  0.8240 -0.2338 -0.4399
  406TMC3     H 6066   2.506   2.897  14.734  0.2141 -1.2073 -2.1945
  406TMC3    H1 6067   2.729   3.263  14.740 -1.9991  0.7137 -0.4245
  406TMC3    H2 6068   2.841   2.942  14.476  1.3472  0.1683  1.2322
  406TMC3    C7 6069   2.945   3.117  14.630 -0.2550 -0.2099 -0.0188
  406TMC3    C8 6070   2.743   2.774  14.660  0.3167  1.0524  0.3926
  406TMC3    O1 6071   2.989   3.233  14.624 -0.1191 -0.5211  0.2087
  406TMC3    O2 6072   2.858   2.766  14.621  0.8621  0.4027 -0.0688
  407MPD2     C 6073   0.270   4.257   9.759  0.5909  0.3020  1.1298
  407MPD2    C1 6074   0.371   4.163   9.787  0.7207 -0.7460 -0.1037
  407MPD2    C2 6075   0.460   4.178   9.887 -0.0317 -0.0585  0.1189
  407MPD2    C3 6076   0.460   4.296   9.961  0.4980 -0.0965  1.0247
  407MPD2    C4 6077   0.373   4.399   9.918  0.1442 -0.4967  0.4562
  407MPD2    C5 6078   0.281   4.375   9.826 -0.1543  0.5717  0.2270
  407MPD2     H 6079   0.524   4.093   9.908  0.5375  0.3408  0.0056
  407MPD2    H1 6080   0.375   4.494   9.970 -0.2393 -0.7315  0.8900
  407MPD2    H2 6081   0.191   4.246   9.686  0.0271 -1.2141  1.9563
  407MPD2    H3 6082   0.207   4.449   9.800  0.2614  1.5012  1.6398
  407MPD2     N 6083   0.551   4.321  10.071 -0.2122  0.2501  0.2504
  407MPD2    H5 6084   0.549   4.417  10.105 -0.3420  0.9103 -1.6372
  407MPD2    N1 6085   0.388   4.044   9.708 -0.3192 -0.0182  0.8464
  407MPD2    H7 6086   0.467   3.984   9.730 -1.1055 -0.9485  1.1433
  408TMC3    C1 6087   0.351   3.889   9.518  0.7463 -0.4281  0.0977
  408TMC3    C2 6088   0.480   3.853   9.521  0.0274  0.6713 -0.2586
  408TMC3    C3 6089   0.513   3.741   9.451  0.2791  0.7114  0.7668
  408TMC3    C4 6090   0.247   3.825   9.454  1.2049 -0.0271  0.6756
  408TMC3    C5 6091   0.286   3.716   9.384 -0.4110  0.2251 -0.0515
  408TMC3    C6 6092   0.417   3.669   9.382  0.0000 -0.1794 -0.1503
  408TMC3     C 6093   0.302   4.003   9.606 -0.1957 -0.2300 -0.2125
  408TMC3     O 6094   0.193   4.056   9.582  0.2649 -0.1556  0.1180
  408TMC3     H 6095   0.552   3.917   9.570 -0.8623  1.8205 -0.4437
  408TMC3    H1 6096   0.144   3.855   9.464  1.3939  1.0389 -0.7112
  408TMC3    H2 6097   0.450   3.579   9.331 -2.2191 -1.2237  0.2834
  408TMC3    C7 6098   0.175   3.629   9.340  0.1525  0.7717 -0.5337
  408TMC3    C8 6099   0.637   3.673   9.477 -0.0445 -0.4027  0.2887
  408TMC3    O1 6100   0.060   3.646   9.378 -0.3879 -0.0796 -0.2284
  408TMC3    O2 6101   0.649   3.554   9.442  0.1294  0.3374 -0.1726
  409MPD2     C 6102   0.753   4.303  17.037  0.0903 -0.3124 -0.0236
  409MPD2    C1 6103   0.878   4.320  17.098 -0.2845 -0.0243 -0.6778
  409MPD2    C2 6104   0.967   4.412  17.046  0.0528  0.0264  0.5374
  409MPD2    C3 6105   0.940   4.488  16.939  0.1114  0.1641 -0.2099
  409MPD2    C4 6106   0.820   4.473  16.883  0.3520 -0.3194  0.2636
  409MPD2    C5 6107   0.725   4.385  16.931 -0.7725  0.6834  0.2452
  409MPD2     H 6108   1.057   4.429  17.103  2.2999 -2.4210 -2.2825
  409MPD2    H1 6109   0.802   4.545  16.803  1.2504 -0.3830  0.0031
  409MPD2    H2 6110   0.680   4.229  17.067 -1.0109  0.6170 -0.3896
  409MPD2    H3 6111   0.628   4.389  16.883 -0.1587  1.7466 -0.9014
  409MPD2     N 6112   1.020   4.595  16.897 -0.1484  0.0928 -0.0711
  409MPD2    H5 6113   0.972   4.671  16.850  2.2247  1.6085 -0.0676
  409MPD2    N1 6114   0.913   4.258  17.217  0.0212 -0.2056  0.2385
  409MPD2    H7 6115   1.006   4.282  17.251 -0.5353  1.2990  0.7067
  410TMC3    C1 6116   1.214   0.013  16.935 -0.1405 -0.1403 -0.2936
  410TMC3    C2 6117   1.298   0.044  17.030  0.2896  0.2275 -0.2326
  410TMC3    C3 6118   1.339   0.171  17.041 -0.7827 -0.1821  1.2044
  410TMC3    C4 6119   1.162   0.111  16.842  0.1949  0.0067  0.1461
  410TMC3    C5 6120   1.207   0.241  16.861  0.4925  0.2637 -0.0423
  410TMC3    C6 6121   1.291   0.272  16.963 -0.1641 -0.4345  0.5219
  410TMC3     C 6122   1.152   4.603  16.938 -0.1618 -0.7461 -0.1667
  410TMC3     O 6123   1.221   4.518  16.994  0.5463 -0.4896 -0.1457
  410TMC3     H 6124   1.326   4.693  17.106 -0.9241 -0.7725 -0.7165
  410TMC3    H1 6125   1.089   0.085  16.767 -2.2417 -0.5581  2.7189
  410TMC3    H2 6126   1.356   0.358  16.972 -0.7229 -0.2548  2.7725
  410TMC3    C7 6127   1.187   0.336  16.756  0.1675  0.4229  0.5986
  410TMC3    C8 6128   1.425   0.208  17.153  0.2745 -0.0007 -0.5282
  410TMC3    O1 6129   1.134   0.293  16.651  0.6088 -0.1490 -0.0766
  410TMC3    O2 6130   1.484   0.119  17.212  0.1906 -0.5547 -0.0029
  411MPD2     C 6131   0.990   0.551  14.817 -0.2013  0.2342  0.1500
  411MPD2    C1 6132   0.865   0.568  14.777 -0.7060 -1.1485  0.0969
  411MPD2    C2 6133   0.794   0.462  14.731  0.5564  0.0062 -0.7376
  411MPD2    C3 6134   0.858   0.339  14.714 -0.8848 -0.1808 -0.4364
  411MPD2    C4 6135   0.997   0.325  14.740 -0.3755  0.0458 -0.7634
  411MPD2    C5 6136   1.056   0.432  14.801 -0.0798  0.4421 -0.3438
  411MPD2     H 6137   0.693   0.483  14.697  0.4894  2.7885  1.1474
  411MPD2    H1 6138   1.048   0.230  14.733  0.0893  0.0121  3.0998
  411MPD2    H2 6139   1.057   0.633  14.841 -1.4580  1.5952 -0.9754
  411MPD2    H3 6140   1.152   0.420  14.849 -0.2230  0.3671 -0.0732
  411MPD2     N 6141   0.794   0.228  14.650 -0.7752  0.4379  0.1727
  411MPD2    H5 6142   0.846   0.149  14.614 -0.2061  0.1331  1.6309
  411MPD2    N1 6143   0.795   0.693  14.785 -0.0032  0.3424 -0.0284
  411MPD2    H7 6144   0.718   0.702  14.720 -0.3605  0.3888  0.4047
  412TMC3    C1 6145   0.625   0.097  14.564 -0.1829  0.1073  0.1280
  412TMC3    C2 6146   0.498   0.051  14.594 -0.9505  0.3937  0.6922
  412TMC3    C3 6147   0.426   4.706  14.497 -0.0791  0.1298  0.5605
  412TMC3    C4 6148   0.680   0.091  14.436 -0.9963  0.5720  0.2718
  412TMC3    C5 6149   0.593   0.037  14.338  0.5429  1.1494  0.6272
  412TMC3    C6 6150   0.478   4.691  14.370  0.0507 -0.2952  0.0521
  412TMC3     C 6151   0.660   0.208  14.649 -0.1544 -0.0436  0.3815
  412TMC3     O 6152   0.570   0.268  14.703 -0.3647 -0.1149  0.1842
  412TMC3     H 6153   0.461   0.046  14.696  0.4334 -0.7240  1.1334
  412TMC3    H1 6154   0.770   0.145  14.410 -0.4755 -0.3933  0.1116
  412TMC3    H2 6155   0.412   4.637  14.304 -0.9476  1.7436 -0.6335
  412TMC3    C7 6156   0.576   0.114  14.217  0.0830 -0.3670  0.1739
  412TMC3    C8 6157   0.287   0.019  14.504 -0.1480 -0.0512 -0.5453
  412TMC3    O1 6158   0.461   0.113  14.173 -0.2709  0.3081  0.3204
  412TMC3    O2 6159   0.226   4.704  14.604 -0.3593 -0.6323  0.0721
  413MPD2     C 6160   1.885   3.499  15.619  0.4173  0.3025 -0.2986
  413MPD2    C1 6161   1.922   3.544  15.498 -0.1512  0.5310  0.4951
  413MPD2    C2 6162   2.055   3.525  15.450 -0.4192  0.6983  0.5211
  413MPD2    C3 6163   2.143   3.448  15.533  1.2664  0.5415 -0.4935
  413MPD2    C4 6164   2.089   3.393  15.646 -0.9077  0.2677 -0.0099
  413MPD2    C5 6165   1.962   3.423  15.691  0.7896  0.3776 -0.0499
  413MPD2     H 6166   2.092   3.593  15.374 -0.3145 -1.0694 -1.0058
  413MPD2    H1 6167   2.146   3.333  15.716  0.4545  3.0006  1.2164
  413MPD2    H2 6168   1.783   3.522  15.650  0.5745  0.3855  0.1536
  413MPD2    H3 6169   1.929   3.377  15.783  1.7464  1.8630  1.0319
  413MPD2     N 6170   2.281   3.432  15.497 -0.2006 -0.1784 -0.5753
  413MPD2    H5 6171   2.312   3.482  15.414 -0.6615 -0.1161 -0.7100
  413MPD2    N1 6172   1.827   3.623  15.428  0.2280 -0.7588  0.0551
  413MPD2    H7 6173   1.734   3.623  15.467 -0.2580 -0.0271 -1.0907
  414TMC3    C1 6174   2.505   3.378  15.493  0.3380  0.7476  0.0716
  414TMC3    C2 6175   2.594   3.276  15.507 -0.0020  0.4410  0.1588
  414TMC3    C3 6176   2.725   3.318  15.511  0.1478 -0.3163 -0.3753
  414TMC3    C4 6177   2.544   3.503  15.464  0.3544 -0.0203  0.1915
  414TMC3    C5 6178   2.678   3.525  15.442  0.1712 -0.4888 -0.4696
  414TMC3    C6 6179   2.774   3.441  15.484 -0.3929  0.1910  0.5624
  414TMC3     C 6180   2.372   3.358  15.558 -0.6383 -0.1068 -0.3652
  414TMC3     O 6181   2.364   3.294  15.663  0.1041  0.2240  0.0308
  414TMC3     H 6182   2.564   3.178  15.542  0.6032 -0.3167 -1.4739
  414TMC3    H1 6183   2.477   3.588  15.452 -1.8999 -1.7248  0.6046
  414TMC3    H2 6184   2.870   3.464  15.439 -1.2150  0.6085 -1.0011
  414TMC3    C7 6185   2.721   3.651  15.382  0.9909  0.1237  0.1349
  414TMC3    C8 6186   2.831   3.219  15.505 -0.8552 -0.1126 -0.0813
  414TMC3    O1 6187   2.826   3.699  15.429  0.8695  0.3985  0.3018
  414TMC3    O2 6188   2.791   3.113  15.463  0.8862  0.1678  0.2263
  415TMC3    C1 6189   2.614   1.139  10.220 -0.3655  0.7378 -0.8355
  415TMC3    C2 6190   2.717   1.049  10.209  0.1818 -0.7792 -0.4804
  415TMC3    C3 6191   2.698   0.920  10.253 -0.0872  0.0657 -0.1455
  415TMC3    C4 6192   2.490   1.110  10.263  0.0582  0.1022 -0.0130
  415TMC3    C5 6193   2.471   0.973  10.298 -0.0419 -0.6120  0.3756
  415TMC3    C6 6194   2.571   0.883  10.299 -0.3322  0.5189 -0.7482
  415TMC3     C 6195   2.624   1.268  10.156 -0.4066 -0.8611 -0.4779
  415TMC3     O 6196   2.541   1.351  10.187 -0.5671 -0.4900  0.6451
  415TMC3     H 6197   2.814   1.084  10.176 -0.0750  0.0814 -0.3262
  415TMC3    H1 6198   2.408   1.173  10.232  1.6453  1.8595 -0.6644
  415TMC3    H2 6199   2.560   0.779  10.327  3.4521 -0.2287 -2.0700
  415TMC3    C7 6200   2.338   0.933  10.338 -0.5836 -0.1788 -0.0287
  415TMC3    C8 6201   2.802   0.822  10.252  0.2116 -0.1543  0.3000
  415TMC3    O1 6202   2.310   0.817  10.326  0.0042 -0.5680  0.1311
  415TMC3    O2 6203   2.785   0.719  10.318 -0.3764  0.1831  0.1704
  416MPD2     C 6204   0.310   0.675  11.368  0.3073  0.5528  0.3055
  416MPD2    C1 6205   0.238   0.598  11.463 -0.8234 -1.0574  0.2325
  416MPD2    C2 6206   0.263   0.459  11.464  0.2110  0.3576  0.2918
  416MPD2    C3 6207   0.358   0.399  11.383  0.0201  0.0245 -0.2004
  416MPD2    C4 6208   0.441   0.474  11.314  0.1496  0.6291 -0.6104
  416MPD2    C5 6209   0.412   0.610  11.296  0.2627  0.2519  0.5384
  416MPD2     H 6210   0.201   0.391  11.522  2.0388 -0.4125  1.3414
  416MPD2    H1 6211   0.515   0.431  11.249 -0.0320  0.4126 -0.6743
  416MPD2    H2 6212   0.292   0.779  11.344 -0.9321  0.3615  0.4437
  416MPD2    H3 6213   0.475   0.668  11.230 -1.0805 -0.0900 -1.0181
  416MPD2     N 6214   0.372   0.261  11.398  0.6205  0.1918 -0.2109
  416MPD2    H5 6215   0.329   0.210  11.475  0.4635 -1.1090 -1.1718
  416MPD2    N1 6216   0.141   0.660  11.540  0.3094  0.2012  0.6974
  416MPD2    H7 6217   0.115   0.753  11.508  1.0996 -0.6173 -2.3211
  417TMC3    C1 6218   4.686   0.694  11.703 -0.2160  0.9852 -0.5842
  417TMC3    C2 6219   4.668   0.711  11.835  1.0101  0.0730  0.5963
  417TMC3    C3 6220   4.552   0.777  11.877 -0.0781  0.0841  0.2377
  417TMC3    C4 6221   4.580   0.702  11.615  0.2382  0.1366  0.4817
  417TMC3    C5 6222   4.462   0.756  11.664 -0.3002  0.5605  0.0212
  417TMC3    C6 6223   4.452   0.799  11.794  0.0100 -0.2100  0.3976
  417TMC3     C 6224   0.085   0.609  11.657  0.4934  0.4116 -0.1969
  417TMC3     O 6225   0.117   0.522  11.735 -0.1564  0.2985 -0.3092
  417TMC3     H 6226   0.032   0.697  11.901  0.6678 -2.2954  0.5547
  417TMC3    H1 6227   4.585   0.662  11.514  0.6691  2.1180 -0.2877
  417TMC3    H2 6228   4.366   0.854  11.831  0.0421 -0.1859  0.4368
  417TMC3    C7 6229   4.343   0.743  11.585 -0.7262 -1.0006 -0.4739
  417TMC3    C8 6230   4.550   0.852  12.005  0.2701 -0.0478 -0.4905
  417TMC3    O1 6231   4.356   0.782  11.470  0.3932 -0.0330  0.7828
  417TMC3    O2 6232   4.462   0.934  12.026  0.2242  0.3525 -0.0760
  418TMC3    C1 6233   3.560   1.433   0.737 -0.3350  0.2796  0.4644
  418TMC3    C2 6234   3.463   1.509   0.666  0.1519 -0.9821 -0.4823
  418TMC3    C3 6235   3.351   1.534   0.735 -0.2969  0.0012  0.1458
  418TMC3    C4 6236   3.555   1.405   0.871 -0.7739 -0.2757  0.4807
  418TMC3    C5 6237   3.443   1.451   0.940 -1.0866  0.2762  0.7400
  418TMC3    C6 6238   3.345   1.505   0.870 -0.3351 -0.1504  0.1006
  418TMC3     C 6239   3.677   1.395   0.671  0.3418 -0.0309  0.6331
  418TMC3     O 6240   3.704   1.460   0.571 -0.2788 -0.7098 -0.1500
  418TMC3     H 6241   3.471   1.532   0.561 -2.3943  0.6152 -0.3015
  418TMC3    H1 6242   3.636   1.356   0.924  0.4667  1.2403 -0.0298
  418TMC3    H2 6243   3.251   1.528   0.919 -1.2861  1.3989 -2.4465
  418TMC3    C7 6244   3.416   1.382   1.067  0.4102  0.3213  0.1789
  418TMC3    C8 6245   3.231   1.503   0.658  0.1327 -0.0658 -0.0406
  418TMC3    O1 6246   3.439   1.262   1.076  0.3884 -0.3920 -0.5805
  418TMC3    O2 6247   3.225   1.573   0.557 -1.2302 -0.4211 -0.0564
  419MPD2     C 6248   1.817   0.196  12.441 -0.6819  0.2868 -0.6591
  419MPD2    C1 6249   1.804   0.331  12.413 -0.3270  0.7639 -0.2963
  419MPD2    C2 6250   1.806   0.426  12.513 -0.1732 -0.2434 -1.1022
  419MPD2    C3 6251   1.809   0.387  12.641 -0.2751  0.5151 -0.3253
  419MPD2    C4 6252   1.818   0.254  12.675  0.5138 -0.7990 -0.3037
  419MPD2    C5 6253   1.829   0.163  12.575 -0.0870  0.0844  0.7846
  419MPD2     H 6254   1.803   0.528  12.477  1.9322  0.5546  1.0577
  419MPD2    H1 6255   1.819   0.217  12.777 -2.4667  1.9874  0.7304
  419MPD2    H2 6256   1.832   0.115  12.370 -0.9706 -1.0502  0.8186
  419MPD2    H3 6257   1.845   0.058  12.594  0.9872  0.0491 -0.2697
  419MPD2     N 6258   1.794   0.495  12.727 -0.9362 -0.1504  0.4322
  419MPD2    H5 6259   1.794   0.592  12.697  0.6257  0.2955  1.8733
  419MPD2    N1 6260   1.798   0.392  12.284  0.0135 -0.3458 -0.1325
  419MPD2    H7 6261   1.807   0.493  12.282 -1.0872 -0.1985  2.2885
  420TMC3    C1 6262   1.818   0.604  12.925 -0.1809 -0.2715 -0.4992
  420TMC3    C2 6263   1.747   0.714  12.876 -0.2914 -0.4047 -0.0673
  420TMC3    C3 6264   1.730   0.826  12.950 -0.3287  0.4043  0.7810
  420TMC3    C4 6265   1.880   0.621  13.048 -0.1786  0.3327  0.8580
  420TMC3    C5 6266   1.876   0.741  13.111 -0.0910  0.0465  0.1685
  420TMC3    C6 6267   1.804   0.841  13.064  0.3207 -0.5911 -0.8934
  420TMC3     C 6268   1.810   0.474  12.863  0.4107  0.0911 -0.6026
  420TMC3     O 6269   1.843   0.378  12.934 -0.1639  0.4722 -0.3550
  420TMC3     H 6270   1.685   0.705  12.788  0.9523 -0.1903 -0.9581
  420TMC3    H1 6271   1.932   0.542  13.101  0.4399 -0.8030 -1.4308
  420TMC3    H2 6272   1.793   0.931  13.122  1.8127  1.4201 -3.7303
  420TMC3    C7 6273   1.907   0.739  13.248 -0.0331 -0.4775  0.2958
  420TMC3    C8 6274   1.656   0.931  12.884  0.1709  0.1885  0.1450
  420TMC3    O1 6275   1.877   0.646  13.318 -0.9430  0.7365  0.4697
  420TMC3    O2 6276   1.567   0.906  12.801  0.7205 -0.3180 -0.1709
  421TMC3    C1 6277   3.386   2.514  13.804 -0.1120  0.3837 -0.0931
  421TMC3    C2 6278   3.449   2.615  13.862 -0.0545  0.3400 -0.4310
  421TMC3    C3 6279   3.574   2.597  13.912  0.1811  0.7756 -0.1955
  421TMC3    C4 6280   3.438   2.390  13.796 -0.0654  0.9384  0.3733
  421TMC3    C5 6281   3.559   2.378  13.861 -0.0776 -0.2024  0.8326
  421TMC3    C6 6282   3.632   2.476  13.917  0.1888  0.4109  0.4555
  421TMC3     C 6283   3.276   2.545  13.711  0.4852 -0.4825 -1.2690
  421TMC3     O 6284   3.226   2.657  13.726 -0.4854 -0.0244 -0.1054
  421TMC3     H 6285   3.404   2.714  13.868  0.2397  0.5530 -1.8188
  421TMC3    H1 6286   3.384   2.298  13.776  1.3901  0.3223 -0.7618
  421TMC3    H2 6287   3.719   2.464  13.981 -0.6175 -1.3642  1.2079
  421TMC3    C7 6288   3.593   2.248  13.911 -0.1623  0.2424 -0.0173
  421TMC3    C8 6289   3.651   2.705  13.974  0.2788 -0.0799 -0.7004
  421TMC3    O1 6290   3.712   2.229  13.932 -0.2242 -0.3413  0.1632
  421TMC3    O2 6291   3.771   2.696  13.981  0.1231  0.5475  0.1371
  422TMC3    C1 6292   0.753   3.244  12.593  0.0173  0.0647 -0.1537
  422TMC3    C2 6293   0.732   3.353  12.673  0.0897  0.4932 -0.1582
  422TMC3    C3 6294   0.626   3.353  12.757 -0.6218  0.5345 -0.3633
  422TMC3    C4 6295   0.670   3.130  12.601  0.9415 -0.1734  0.3441
  422TMC3    C5 6296   0.571   3.135  12.694 -0.0207  0.1680  0.0447
  422TMC3    C6 6297   0.539   3.246  12.768  0.3152 -0.7827 -0.1311
  422TMC3     C 6298   0.891   3.239  12.535  0.2924 -0.1714 -0.3253
  422TMC3     O 6299   0.915   3.340  12.473  0.3237  0.3213 -0.3554
  422TMC3     H 6300   0.796   3.439  12.656 -0.5875  0.8210 -1.0580
  422TMC3    H1 6301   0.690   3.040  12.543  1.4698  0.4633 -0.4561
  422TMC3    H2 6302   0.476   3.244  12.856  1.1059  0.6261  0.4677
  422TMC3    C7 6303   0.477   3.019  12.688 -0.7216 -0.4021 -0.0000
  422TMC3    C8 6304   0.627   3.456  12.856  0.6260  0.2197 -0.1146
  422TMC3    O1 6305   0.520   2.919  12.633  0.1200 -0.0523 -0.2899
  422TMC3    O2 6306   0.728   3.528  12.859  0.4202  0.1151  0.1043
  423MPD2     C 6307   2.823   4.081   0.996  0.1336  0.2689 -0.0995
  423MPD2    C1 6308   2.862   3.952   1.011 -1.0002 -0.0822 -0.2006
  423MPD2    C2 6309   2.882   3.876   0.893 -0.3512 -0.9059  0.3940
  423MPD2    C3 6310   2.860   3.918   0.767  0.6088 -0.0430  0.4635
  423MPD2    C4 6311   2.833   4.053   0.757 -0.0995 -0.2736  0.7517
  423MPD2    C5 6312   2.801   4.128   0.870  0.4243  0.7274  0.2953
  423MPD2     H 6313   2.904   3.769   0.898 -1.3759 -1.0093  2.4048
  423MPD2    H1 6314   2.829   4.107   0.663  2.2258 -1.2148  0.1288
  423MPD2    H2 6315   2.807   4.154   1.075 -1.2670  0.2043 -0.3285
  423MPD2    H3 6316   2.768   4.231   0.862 -2.6824 -0.3618 -0.8980
  423MPD2     N 6317   2.867   3.833   0.655 -0.0529  0.3828  0.1999
  423MPD2    H5 6318   2.841   3.880   0.569 -3.1246 -1.5789  0.0353
  423MPD2    N1 6319   2.868   3.892   1.140  0.5989 -0.4356  0.4284
  423MPD2    H7 6320   2.846   3.963   1.209  4.0852 -0.3958  1.5003
  424TMC3    C1 6321   2.896   3.737   1.320 -0.1792 -0.2736  0.3563
  424TMC3    C2 6322   2.921   3.611   1.367 -0.8784 -0.8193  0.1206
  424TMC3    C3 6323   2.864   3.576   1.487 -0.1850  0.5203 -0.6371
  424TMC3    C4 6324   2.834   3.831   1.404 -0.2377  0.2718 -0.2164
  424TMC3    C5 6325   2.794   3.792   1.528 -0.9524  0.3692  0.9606
  424TMC3    C6 6326   2.806   3.664   1.580  0.3031  0.6037 -0.7880
  424TMC3     C 6327   2.885   3.756   1.174 -0.9432  0.0472 -0.1671
  424TMC3     O 6328   2.898   3.660   1.100  0.2561  0.5722 -0.1073
  424TMC3     H 6329   2.984   3.548   1.305 -1.3311 -0.4121 -0.7643
  424TMC3    H1 6330   2.805   3.928   1.364  0.6024  1.1924  1.3744
  424TMC3    H2 6331   2.752   3.627   1.667 -0.8183 -0.8725 -2.1010
  424TMC3    C7 6332   2.748   3.910   1.607  0.6446 -0.8010  0.0140
  424TMC3    C8 6333   2.873   3.436   1.531 -0.4405  0.3574  0.1483
  424TMC3    O1 6334   2.790   4.023   1.595  0.2137  0.0809  0.4391
  424TMC3    O2 6335   2.903   3.367   1.437 -0.2913  0.1638 -0.3277
  425MPD2     C 6336   1.578   3.192  16.770 -0.2766 -0.3086  0.0234
  425MPD2    C1 6337   1.569   3.139  16.901  0.6095 -0.4473  0.0453
  425MPD2    C2 6338   1.469   3.189  16.987 -0.1790 -0.6316 -0.1367
  425MPD2    C3 6339   1.389   3.291  16.954 -0.2131  0.1898  0.1547
  425MPD2    C4 6340   1.393   3.345  16.824  0.2417 -0.2919  0.4328
  425MPD2    C5 6341   1.485   3.290  16.736  0.1217 -0.7230  0.3405
  425MPD2     H 6342   1.448   3.137  17.080 -0.0313 -3.4600 -1.7001
  425MPD2    H1 6343   1.334   3.431  16.795 -0.1981  0.3401  3.1753
  425MPD2    H2 6344   1.655   3.157  16.702  0.7986  1.0048  0.5592
  425MPD2    H3 6345   1.491   3.332  16.636  2.4022 -1.0463  0.3355
  425MPD2     N 6346   1.290   3.335  17.051 -0.2166 -0.4877 -0.4902
  425MPD2    H5 6347   1.289   3.290  17.141  4.4006  0.9032  0.2563
  425MPD2    N1 6348   1.656   3.039  16.943 -0.6201 -0.4503 -0.1768
  425MPD2    H7 6349   1.715   2.986  16.880  0.7171  0.8613 -0.0132
  426TMC3    C1 6350   1.790   2.925  17.098  0.3736  0.2973  0.7867
  426TMC3    C2 6351   1.778   2.802  17.036  0.1745 -0.2315  0.1083
  426TMC3    C3 6352   1.844   2.693  17.105  0.4318 -0.5626 -0.2996
  426TMC3    C4 6353   1.874   2.940  17.206 -0.6951  0.0119 -0.2671
  426TMC3    C5 6354   1.932   2.830  17.268  0.9187 -0.6580  0.3112
  426TMC3    C6 6355   1.920   2.701  17.216 -0.6000  0.1955  1.0209
  426TMC3     C 6356   1.688   3.024  17.076  0.1469  0.2542  0.0365
  426TMC3     O 6357   1.668   3.091  17.174  0.0428 -0.3874  0.4204
  426TMC3     H 6358   1.698   2.777  16.966  0.7309 -0.0986 -0.5757
  426TMC3    H1 6359   1.871   3.035  17.257  0.1482  0.6158 -1.3582
  426TMC3    H2 6360   1.966   2.618  17.268  0.0025 -1.8134 -2.6841
  426TMC3    C7 6361   1.903   2.838  17.416  0.0300  0.1779  0.0073
  426TMC3    C8 6362   1.830   2.556  17.053 -0.4453 -0.1127  0.7352
  426TMC3    O1 6363   1.833   2.928  17.461 -0.0483 -0.2245  0.2627
  426TMC3    O2 6364   1.922   2.478  17.063 -0.4708 -0.2908 -0.2055
  427MPD2     C 6365   4.578   1.403  15.285  0.0060  0.4007 -0.2887
  427MPD2    C1 6366   4.541   1.299  15.373 -0.2361 -0.0001  0.8096
  427MPD2    C2 6367   4.411   1.280  15.413 -0.2800 -0.5091  0.7416
  427MPD2    C3 6368   4.311   1.362  15.365 -0.3132  0.0085 -0.2551
  427MPD2    C4 6369   4.344   1.463  15.273 -0.2825  0.4174  0.1630
  427MPD2    C5 6370   4.478   1.485  15.240 -0.4176 -0.3065  0.1919
  427MPD2     H 6371   4.390   1.212  15.494 -1.6939 -1.4899 -0.4475
  427MPD2    H1 6372   4.267   1.519  15.223 -1.5068 -1.5738 -0.2026
  427MPD2    H2 6373   4.681   1.425  15.261  1.3303 -2.4459  2.9063
  427MPD2    H3 6374   4.502   1.570  15.177  0.9246 -0.3472  0.6442
  427MPD2     N 6375   4.174   1.341  15.393 -0.0579 -0.0757  0.2364
  427MPD2    H5 6376   4.111   1.405  15.345 -0.0072 -0.0224  0.2419
  427MPD2    N1 6377   4.640   1.215  15.422 -0.1564 -0.1477  0.4071
  427MPD2    H7 6378   4.602   1.164  15.501 -1.5210 -2.0120 -1.4752
  428TMC3    C1 6379   0.112   1.090  15.438  0.0234 -0.0950  0.4434
  428TMC3    C2 6380   0.049   0.968  15.444 -0.1600 -0.3421 -0.2641
  428TMC3    C3 6381   0.126   0.859  15.468 -0.0265 -0.9762 -0.7128
  428TMC3    C4 6382   0.244   1.095  15.443  0.6936  0.1777 -0.0271
  428TMC3    C5 6383   0.313   0.975  15.468 -0.3352  0.2537  0.1067
  428TMC3    C6 6384   0.259   0.851  15.482  0.2918 -0.0205 -0.1086
  428TMC3     C 6385   0.049   1.200  15.373 -0.1263 -0.5932  0.7005
  428TMC3     O 6386   0.112   1.261  15.291 -0.1080  1.0094  0.1007
  428TMC3     H 6387   4.663   0.958  15.425 -0.4173  2.0930  0.0070
  428TMC3    H1 6388   0.290   1.193  15.448  0.9809 -0.0073  1.0174
  428TMC3    H2 6389   0.313   0.761  15.507  0.1564 -0.5359 -1.6587
  428TMC3    C7 6390   0.456   0.994  15.492 -0.2968  0.1378  0.1303
  428TMC3    C8 6391   0.065   0.721  15.468 -0.5814 -0.8153 -0.0531
  428TMC3    O1 6392   0.481   1.089  15.565  0.1331 -0.4382 -0.6820
  428TMC3    O2 6393   0.113   0.633  15.539 -0.7660 -0.3335  0.2672
  429MPD2     C 6394   1.541   0.764   0.487 -0.6148  1.1637 -0.3631
  429MPD2    C1 6395   1.593   0.675   0.403 -0.1012 -0.0323  0.4971
  429MPD2    C2 6396   1.684   0.703   0.306 -0.0252 -0.0814  0.2495
  429MPD2    C3 6397   1.715   0.834   0.276 -0.1264 -0.2255  0.0094
  429MPD2    C4 6398   1.642   0.929   0.355 -0.0246  0.7973 -0.7057
  429MPD2    C5 6399   1.570   0.900   0.470  0.2427  0.0003  0.2238
  429MPD2     H 6400   1.724   0.625   0.242  2.0076 -0.8439  2.4727
  429MPD2    H1 6401   1.646   1.032   0.323 -1.0345  0.6497 -1.3177
  429MPD2    H2 6402   1.468   0.729   0.558  1.0139 -0.8789  0.2812
  429MPD2    H3 6403   1.525   0.980   0.527 -1.4986 -2.2221  2.0191
  429MPD2     N 6404   1.798   0.854   0.161  0.1804 -0.1182  0.1725
  429MPD2    H5 6405   1.835   0.767   0.125  1.7072  0.3840  0.4947
  429MPD2    N1 6406   1.557   0.535   0.426  0.4026  0.0054 -0.1708
  429MPD2    H7 6407   1.516   0.511   0.515 -0.8705  1.4321 -0.3776
  430TMC3    C1 6408   1.929   0.973  17.684  0.2495 -0.3469 -1.2791
  430TMC3    C2 6409   1.909   1.065  17.588  0.4451 -0.0428  0.3089
  430TMC3    C3 6410   1.896   1.019  17.458  0.4544  0.0980 -1.3223
  430TMC3    C4 6411   1.961   0.847  17.656  0.1774  0.3408  0.4344
  430TMC3    C5 6412   1.943   0.802  17.523  0.8222 -0.1246  0.0720
  430TMC3    C6 6413   1.893   0.886  17.430 -0.5279  0.2616 -0.2374
  430TMC3     C 6414   1.833   0.984   0.107  0.3382  0.5538 -0.0987
  430TMC3     O 6415   1.801   1.096   0.133 -0.3133 -0.6794  0.2533
  430TMC3     H 6416   1.887   1.167  17.617 -3.7148 -0.6196 -0.7853
  430TMC3    H1 6417   1.992   0.774   0.046  0.9573  0.2987  0.0659
  430TMC3    H2 6418   1.885   0.847  17.329 -1.2585  1.6226 -0.7060
  430TMC3    C7 6419   1.977   0.667  17.478 -0.0837 -0.2125  0.0040
  430TMC3    C8 6420   1.824   1.090  17.352 -0.6663 -0.0546  0.1976
  430TMC3    O1 6421   1.914   0.628  17.375 -0.5902  0.4000  0.2654
  430TMC3    O2 6422   1.757   1.025  17.273  0.0250 -0.3787 -0.1096
  431MPD2     C 6423   1.919   1.120  12.470  0.4478  0.0499 -0.0636
  431MPD2    C1 6424   1.998   1.101  12.361  0.1116  0.0883 -0.0502
  431MPD2    C2 6425   1.970   1.001  12.261  0.3144  0.2312  0.4865
  431MPD2    C3 6426   1.862   0.921  12.280  0.1677 -0.8354  0.2845
  431MPD2    C4 6427   1.786   0.938  12.399 -0.5382  0.8792 -0.2685
  431MPD2    C5 6428   1.815   1.036  12.489  0.1637 -0.1400 -0.4832
  431MPD2     H 6429   2.042   0.990  12.181  2.0499  0.5951  2.0007
  431MPD2    H1 6430   1.691   0.887  12.412 -1.1314  2.1584  0.4391
  431MPD2    H2 6431   1.942   1.197  12.543  0.9529 -0.3072  0.1482
  431MPD2    H3 6432   1.756   1.039  12.580  1.9583 -0.5267  0.6880
  431MPD2     N 6433   1.816   0.818  12.181 -0.0911 -0.1991 -0.5357
  431MPD2    H5 6434   1.737   0.765  12.216 -0.6541  1.4295  0.6394
  431MPD2    N1 6435   2.102   1.189  12.322 -0.3997  0.4962  0.1113
  431MPD2    H7 6436   2.158   1.161  12.243 -2.5301 -1.2713 -0.7727
  432TMC3    C1 6437   1.836   0.644  12.013  0.5295  0.4477  0.4072
  432TMC3    C2 6438   1.917   0.589  11.915 -1.1029  0.3857 -0.7161
  432TMC3    C3 6439   1.909   0.461  11.890 -0.6972 -0.6026  0.1120
  432TMC3    C4 6440   1.766   0.554  12.087 -0.4074 -0.1906 -0.5549
  432TMC3    C5 6441   1.771   0.420  12.056  0.0687 -0.0330 -0.3762
  432TMC3    C6 6442   1.828   0.370  11.947  0.0184 -0.4173 -0.6833
  432TMC3     C 6443   1.882   0.772  12.071 -0.4655 -0.2360 -0.7232
  432TMC3     O 6444   1.969   0.826  12.011 -0.7215  0.1879  0.4614
  432TMC3     H 6445   1.988   0.648  11.857 -1.0592  0.5078 -0.5377
  432TMC3    H1 6446   1.709   0.592  12.170  2.1453  0.4541  0.9163
  432TMC3    H2 6447   1.836   0.264  11.927  0.8490 -0.4307 -0.2704
  432TMC3    C7 6448   1.776   0.328  12.166 -0.1429 -0.3093  0.1120
  432TMC3    C8 6449   2.027   0.404  11.826  0.5725 -0.2565  0.3020
  432TMC3    O1 6450   1.767   0.208  12.146 -0.1802  0.4753  0.2336
  432TMC3    O2 6451   2.075   0.456  11.731 -0.3038  0.0405 -0.2336
  433MPD2     C 6452   0.941   4.341  11.134 -0.1924 -0.5327  0.0079
  433MPD2    C1 6453   0.839   4.253  11.150  0.2021  0.1254 -0.5017
  433MPD2    C2 6454   0.791   4.231  11.276  0.1985 -0.0236 -0.4492
  433MPD2    C3 6455   0.855   4.280  11.388 -1.0352 -0.2516  0.6374
  433MPD2    C4 6456   0.952   4.375  11.373 -0.4599  0.5918  0.2698
  433MPD2    C5 6457   0.997   4.394  11.249 -0.4400  0.3282  0.4116
  433MPD2     H 6458   0.711   4.163  11.301  0.7438 -1.0869 -1.6053
  433MPD2    H1 6459   1.008   4.408  11.460  0.8066 -0.9014  0.0083
  433MPD2    H2 6460   0.976   4.354  11.033 -3.1283 -0.7880 -1.0442
  433MPD2    H3 6461   1.086   4.457  11.245 -0.0438 -0.1414  1.7443
  433MPD2     N 6462   0.803   4.227  11.511 -0.7046 -0.2219 -0.8550
  433MPD2    H5 6463   0.736   4.151  11.505  0.0162 -1.1549  3.1152
  433MPD2    N1 6464   0.789   4.182  11.033  0.0382  0.0931 -0.5416
  433MPD2    H7 6465   0.836   4.203  10.946 -0.3251  0.4888 -0.6405
  434TMC3    C1 6466   0.702   4.003  10.913  0.3037  0.1827 -0.5347
  434TMC3    C2 6467   0.726   3.867  10.918 -0.8000 -0.6470 -0.1746
  434TMC3    C3 6468   0.777   3.806  10.801 -0.0457  0.1404  0.3772
  434TMC3    C4 6469   0.734   4.077  10.799  0.8122 -0.2218  0.4084
  434TMC3    C5 6470   0.772   4.010  10.686 -0.0435 -0.2294 -0.2408
  434TMC3    C6 6471   0.798   3.875  10.689  0.4989 -0.6723 -0.5700
  434TMC3     C 6472   0.716   4.070  11.038 -0.1244  0.3220 -0.4164
  434TMC3     O 6473   0.679   4.012  11.138  0.2386  0.1637  0.0248
  434TMC3     H 6474   0.713   3.804  11.005  2.4180 -0.9718  0.0826
  434TMC3    H1 6475   0.714   4.183  10.793  0.2145 -0.3392  0.3782
  434TMC3    H2 6476   0.846   3.828  10.604  2.0969 -0.6881  0.3474
  434TMC3    C7 6477   0.706   4.069  10.569  0.1471 -0.4681  0.1033
  434TMC3    C8 6478   0.866   3.695  10.841 -0.1014  0.2193 -0.5413
  434TMC3    O1 6479   0.697   4.192  10.556  0.2385 -0.1069 -0.6153
  434TMC3    O2 6480   0.846   3.641  10.947 -0.2034  0.2181  0.1523
  435MPD2     C 6481   3.166   4.287  15.583  0.0995 -0.0677  0.3502
  435MPD2    C1 6482   3.129   4.302  15.712  0.1591 -0.0994 -0.1474
  435MPD2    C2 6483   3.219   4.262  15.816 -0.3286 -0.1048 -0.5881
  435MPD2    C3 6484   3.340   4.200  15.789  0.2971 -0.1440  0.3034
  435MPD2    C4 6485   3.369   4.172  15.658  1.2100  0.4567 -0.4092
  435MPD2    C5 6486   3.276   4.215  15.562  0.8289 -0.4080 -0.3621
  435MPD2     H 6487   3.189   4.272  15.920  2.3651 -0.8540  0.2411
  435MPD2    H1 6488   3.455   4.116  15.624  0.9748  1.0647 -2.0191
  435MPD2    H2 6489   3.116   4.318  15.493  0.8254 -1.9102 -0.6831
  435MPD2    H3 6490   3.313   4.208  15.461  2.1307 -0.0353  0.0884
  435MPD2     N 6491   3.425   4.158  15.900  0.0117  0.2669 -0.7771
  435MPD2    H5 6492   3.401   4.170  15.998 -0.5077 -0.4180 -0.8201
  435MPD2    N1 6493   3.005   4.361  15.742 -0.3334 -0.2919  0.0118
  435MPD2    H7 6494   3.000   4.378  15.842 -0.3039 -0.5902  0.0635
  436TMC3    C1 6495   2.702   4.593  15.897  0.1063  0.3631 -0.0540
  436TMC3    C2 6496   2.801   4.513  15.845  0.2384 -0.3907  0.0333
  436TMC3    C3 6497   2.791   4.459  15.722 -0.1228 -0.1815  0.0271
  436TMC3    C4 6498   2.585   4.607  15.824 -0.4134 -0.4888 -0.6020
  436TMC3    C5 6499   2.576   4.538  15.709 -0.0536  0.5567  0.1407
  436TMC3    C6 6500   2.679   4.459  15.656  0.3605  0.0680  0.0973
  436TMC3     C 6501   2.726   4.677  16.013  0.3072  0.3286 -0.0755
  436TMC3     O 6502   2.840   4.672  16.056 -0.0490 -0.5376 -0.4346
  436TMC3     H 6503   2.898   4.531  15.889  0.8453  1.4001 -2.0559
  436TMC3    H1 6504   2.499   4.660  15.863  0.8464 -0.4160  2.0596
  436TMC3    H2 6505   2.669   4.430  15.552 -1.2522  1.6538 -0.1931
  436TMC3    C7 6506   2.462   4.569  15.625  0.5751  0.3039  0.5482
  436TMC3    C8 6507   2.907   4.398  15.656  0.1300 -0.0148  0.6418
  436TMC3    O1 6508   2.415   4.683  15.637  0.3219 -0.6225  0.1010
  436TMC3    O2 6509   2.905   4.387  15.534 -0.0309  0.4455 -0.0774
  437TMC3    C1 6510   1.361   1.485  12.941 -0.8179 -0.0965 -0.3215
  437TMC3    C2 6511   1.230   1.460  12.962  0.2818 -0.6367  0.1859
  437TMC3    C3 6512   1.142   1.540  12.898  0.3040  0.0072  0.2308
  437TMC3    C4 6513   1.408   1.576  12.858  0.4154  0.2760 -0.1905
  437TMC3    C5 6514   1.318   1.645  12.782 -0.5123  0.4932  0.5390
  437TMC3    C6 6515   1.181   1.639  12.805  0.3831  0.7723  0.7221
  437TMC3     C 6516   1.461   1.405  13.005  0.6133 -0.3851 -0.0016
  437TMC3     O 6517   1.564   1.463  13.028 -0.1465 -0.4174  0.0397
  437TMC3     H 6518   1.199   1.395  13.044  2.4848  0.3257  1.7834
  437TMC3    H1 6519   1.515   1.586  12.843  0.4597  0.0463 -0.0297
  437TMC3    H2 6520   1.107   1.702  12.758  0.0213 -0.2324 -0.0572
  437TMC3    C7 6521   1.360   1.729  12.669 -0.5219  0.0585 -1.1872
  437TMC3    C8 6522   0.996   1.541  12.927  0.2038 -0.0210 -0.3892
  437TMC3    O1 6523   1.275   1.783  12.601  0.0828 -0.3973 -0.0247
  437TMC3    O2 6524   0.925   1.635  12.884  0.0951  0.0187  1.0166
  438MPD2     C 6525   3.623   2.224  17.027  0.1125  0.0622 -0.1994
  438MPD2    C1 6526   3.687   2.125  17.087 -0.4697  0.2449 -0.1330
  438MPD2    C2 6527   3.621   2.046  17.177 -0.3128  0.2580 -0.8886
  438MPD2    C3 6528   3.481   2.062  17.194  0.2695  0.3290  0.3087
  438MPD2    C4 6529   3.419   2.175  17.138  0.1233  0.4664  0.0418
  438MPD2    C5 6530   3.493   2.251  17.052 -0.0362 -0.8761 -0.7819
  438MPD2     H 6531   3.677   1.970  17.231 -0.9957  0.3129 -0.0933
  438MPD2    H1 6532   3.314   2.194  17.156  0.3103  0.5662  1.0471
  438MPD2    H2 6533   3.667   2.290  16.953 -0.9188 -0.0638 -0.9215
  438MPD2    H3 6534   3.443   2.333  17.003 -0.7493 -1.0844 -0.4078
  438MPD2     N 6535   3.406   1.973  17.275  0.5952  0.2697  0.6305
  438MPD2    H5 6536   3.309   2.000  17.286  0.1246 -0.6055 -1.4415
  438MPD2    N1 6537   3.826   2.101  17.070  0.3956 -0.0759 -0.2313
  438MPD2    H7 6538   3.888   2.035  17.116 -0.2885 -1.3279 -1.1008
  439TMC3    C1 6539   4.042   2.170  17.014  0.3832  0.0531 -0.3420
  439TMC3    C2 6540   4.126   2.234  16.927  0.9331  0.6786  0.5789
  439TMC3    C3 6541   4.260   2.230  16.957  0.4015 -0.0980  0.3794
  439TMC3    C4 6542   4.081   2.112  17.131 -0.2308 -0.1836 -0.0868
  439TMC3    C5 6543   4.214   2.096  17.142 -0.3180  0.5504 -0.0978
  439TMC3    C6 6544   4.305   2.161  17.063  0.7242 -0.1592  0.2974
  439TMC3     C 6545   3.901   2.191  16.997  0.1388  0.4448  0.2155
  439TMC3     O 6546   3.878   2.276  16.912  0.1169  0.5541 -0.2476
  439TMC3     H 6547   4.090   2.294  16.844 -1.0187  0.5144  1.2989
  439TMC3    H1 6548   4.020   2.066  17.207 -0.4314  1.1706  0.5797
  439TMC3    H2 6549   4.410   2.137  17.079  1.1934  0.9571 -1.1222
  439TMC3    C7 6550   4.275   1.985  17.213  0.0727  0.6357  0.0585
  439TMC3    C8 6551   4.348   2.206  16.845 -0.9839 -0.2103 -0.6460
  439TMC3    O1 6552   4.392   1.996  17.244  0.3083 -0.0001  0.7042
  439TMC3    O2 6553   4.453   2.150  16.860  0.0316  0.3426 -0.0400
  440MPD2     C 6554   2.803   3.358  15.033  0.8758 -0.2867  0.8848
  440MPD2    C1 6555   2.760   3.238  15.076  0.2016  0.0626  0.3361
  440MPD2    C2 6556   2.841   3.125  15.064  0.1548  0.4021  0.1181
  440MPD2    C3 6557   2.965   3.137  15.006  0.3500 -0.0199 -0.6790
  440MPD2    C4 6558   3.015   3.265  14.971 -0.3493  0.0944 -0.2708
  440MPD2    C5 6559   2.933   3.373  14.997  0.2544  0.2776  0.1563
  440MPD2     H 6560   2.806   3.027  15.097 -0.2416  0.5113  0.0209
  440MPD2    H1 6561   3.108   3.302  14.931 -0.2982 -0.8204 -1.0131
  440MPD2    H2 6562   2.747   3.447  15.060 -0.9656 -1.2391  0.2253
  440MPD2    H3 6563   2.960   3.476  14.976  2.4611  0.3096  3.1636
  440MPD2     N 6564   3.057   3.024  15.000 -0.4090  0.6329  0.0981
  440MPD2    H5 6565   3.153   3.039  14.971 -0.6991 -1.1712 -1.7829
  440MPD2    N1 6566   2.630   3.212  15.132  0.4653 -0.0896  0.0689
  440MPD2    H7 6567   2.621   3.118  15.171  3.6048 -0.1954  0.5118
  441TMC3    C1 6568   3.138   2.803  14.996 -0.6387  0.5042 -0.8846
  441TMC3    C2 6569   3.250   2.868  15.048 -0.0796 -0.4332  0.0002
  441TMC3    C3 6570   3.318   2.819  15.158 -0.9519  0.1963 -0.4454
  441TMC3    C4 6571   3.105   2.684  15.050  0.1840  0.3204 -0.3683
  441TMC3    C5 6572   3.159   2.649  15.173  0.2274 -0.2898  0.2882
  441TMC3    C6 6573   3.267   2.714  15.231  0.1761  0.4337  0.3958
  441TMC3     C 6574   3.023   2.891  14.988  0.5591 -0.3084  0.4304
  441TMC3     O 6575   2.915   2.835  15.003 -0.1974 -0.4628  0.3411
  441TMC3     H 6576   3.282   2.960  15.002 -0.3923  1.8250  4.2888
  441TMC3    H1 6577   3.023   2.624  15.013 -1.3983  1.4835  1.2230
  441TMC3    H2 6578   3.306   2.682  15.327  0.0103 -1.2365 -0.0945
  441TMC3    C7 6579   3.067   2.600  15.278 -0.2412  0.9504 -0.3331
  441TMC3    C8 6580   3.360   2.929  15.248 -0.2550 -0.0048  0.8621
  441TMC3    O1 6581   3.108   2.603  15.395  0.0271  0.5488  0.6254
  441TMC3    O2 6582   3.432   3.014  15.200 -0.3564  0.1477 -0.4883
  442MPD2     C 6583   1.346   3.298  16.419 -0.7426 -0.2163 -0.1158
  442MPD2    C1 6584   1.238   3.243  16.487 -0.0817 -0.7861  0.3539
  442MPD2    C2 6585   1.223   3.109  16.489 -0.2251  0.5460 -0.0539
  442MPD2    C3 6586   1.304   3.023  16.421  0.7106  0.4106  0.3405
  442MPD2    C4 6587   1.407   3.075  16.351 -0.0208 -0.4278 -0.8657
  442MPD2    C5 6588   1.433   3.215  16.358  0.6859 -0.2049 -0.6174
  442MPD2     H 6589   1.134   3.073  16.539  0.4737 -0.9062  0.1208
  442MPD2    H1 6590   1.485   3.011  16.312  0.4156  0.2616 -1.1242
  442MPD2    H2 6591   1.374   3.402  16.418 -0.3900 -0.3183 -0.5962
  442MPD2    H3 6592   1.521   3.260  16.312 -0.0652 -0.6834 -2.5346
  442MPD2     N 6593   1.298   2.883  16.436 -0.5059  0.0700 -0.0147
  442MPD2    H5 6594   1.359   2.833  16.372  1.1282  0.3349  1.3269
  442MPD2    N1 6595   1.136   3.320  16.554  0.0345 -0.0576 -0.3741
  442MPD2    H7 6596   1.065   3.268  16.604 -1.1516  1.8288 -0.1213
  443TMC3    C1 6597   1.008   3.508  16.628  0.0933 -0.1684  0.4167
  443TMC3    C2 6598   0.960   3.624  16.574  0.5597  0.6407 -0.8026
  443TMC3    C3 6599   0.867   3.687  16.648 -0.5332 -0.3954 -0.7931
  443TMC3    C4 6600   0.969   3.459  16.751  0.4383 -0.2569  0.8884
  443TMC3    C5 6601   0.875   3.533  16.819 -0.3062  0.3513  0.6102
  443TMC3    C6 6602   0.837   3.657  16.775 -0.1227  0.2495 -0.4758
  443TMC3     C 6603   1.125   3.457  16.551 -0.5932 -0.0260  0.3144
  443TMC3     O 6604   1.171   3.543  16.475 -0.3606 -0.2311 -0.1013
  443TMC3     H 6605   0.974   3.642  16.468 -3.0224 -0.1479 -1.4162
  443TMC3    H1 6606   1.004   3.358  16.771  0.6445  0.2455  3.0994
  443TMC3    H2 6607   0.774   3.720  16.836 -0.7608  0.3171 -1.1985
  443TMC3    C7 6608   0.794   3.456  16.910 -0.7710 -0.1248 -0.0413
  443TMC3    C8 6609   0.741   3.718  16.572 -0.7346  0.2395  0.1568
  443TMC3    O1 6610   0.800   3.335  16.892  0.6770 -0.1243 -0.2707
  443TMC3    O2 6611   0.729   3.677  16.456 -0.0318  0.3868  0.3896
  444MPD2     C 6612   1.389   2.358  17.245 -0.1767  0.5822  0.2383
  444MPD2    C1 6613   1.299   2.256  17.235 -0.2811  0.0457  0.5495
  444MPD2    C2 6614   1.356   2.131  17.208 -0.7465 -0.1310 -0.2310
  444MPD2    C3 6615   1.492   2.114  17.181 -1.2919 -0.0263 -0.5689
  444MPD2    C4 6616   1.573   2.222  17.196 -0.0963  0.0499 -0.5379
  444MPD2    C5 6617   1.520   2.340  17.236 -0.4575  0.7546  0.2922
  444MPD2     H 6618   1.289   2.045  17.211  0.3097 -1.0520 -2.9214
  444MPD2    H1 6619   1.680   2.218  17.178  0.4607  4.0980  1.9196
  444MPD2    H2 6620   1.358   2.459  17.266 -0.8705  0.1322  1.3619
  444MPD2    H3 6621   1.580   2.430  17.242 -0.9502  1.0280  1.0687
  444MPD2     N 6622   1.540   1.988  17.152  0.1908  0.0997  0.5425
  444MPD2    H5 6623   1.473   1.914  17.139  0.3700 -0.3276  2.0038
  444MPD2    N1 6624   1.161   2.264  17.255  0.6835 -0.2337 -0.5068
  444MPD2    H7 6625   1.107   2.181  17.232 -1.3308  0.7642  0.6939
  445TMC3    C1 6626   1.696   1.822  17.099  0.2317  0.5019 -0.0767
  445TMC3    C2 6627   1.603   1.760  17.010 -0.2085  0.0185 -0.9559
  445TMC3    C3 6628   1.627   1.631  16.970  0.3093 -0.0098 -0.4735
  445TMC3    C4 6629   1.807   1.761  17.148  0.9024 -0.1718 -0.3637
  445TMC3    C5 6630   1.827   1.635  17.093  0.4205  0.1586  0.5373
  445TMC3    C6 6631   1.743   1.568  17.009  0.0029  0.5033  0.1922
  445TMC3     C 6632   1.675   1.960  17.147  0.2368 -0.5041 -0.2403
  445TMC3     O 6633   1.779   2.013  17.195 -0.2969 -0.1883 -0.5681
  445TMC3     H 6634   1.515   1.811  16.972 -1.6735 -3.1508 -1.8113
  445TMC3    H1 6635   1.871   1.806  17.223 -0.3116  2.3812 -0.8446
  445TMC3    H2 6636   1.781   1.471  16.977  0.7717  1.4784 -1.8968
  445TMC3    C7 6637   1.965   1.585  17.102 -0.0959  0.8343  0.2210
  445TMC3    C8 6638   1.542   1.578  16.867 -0.2709  0.1461  0.0148
  445TMC3    O1 6639   1.982   1.462  17.098  0.3436  0.1749 -0.0574
  445TMC3    O2 6640   1.457   1.643  16.805  0.6383  0.7835  0.7324
  446MPD2     C 6641   0.459   3.580  11.413 -0.4168 -0.4012  0.0354
  446MPD2    C1 6642   0.447   3.662  11.302 -0.3384  0.8374  0.1353
  446MPD2    C2 6643   0.564   3.722  11.258  0.1363 -0.3805  0.4344
  446MPD2    C3 6644   0.686   3.710  11.331  0.7470  0.1794 -0.5906
  446MPD2    C4 6645   0.686   3.645  11.452 -0.1853 -0.3560 -0.5148
  446MPD2    C5 6646   0.576   3.578  11.490  0.0546  0.1272  0.6116
  446MPD2     H 6647   0.560   3.773  11.162 -1.7592  1.1631  1.3270
  446MPD2    H1 6648   0.774   3.650  11.516  0.2374 -0.2853 -1.1018
  446MPD2    H2 6649   0.377   3.536  11.469  2.1997 -3.4270  1.4967
  446MPD2    H3 6650   0.577   3.534  11.589  0.7059  0.0232  0.5595
  446MPD2     N 6651   0.805   3.751  11.273  0.1490 -0.4925 -0.2105
  446MPD2    H5 6652   0.795   3.825  11.204 -0.5365 -0.6486 -0.2799
  446MPD2    N1 6653   0.326   3.663  11.229  0.3632 -0.1067  0.0611
  446MPD2    H7 6654   0.262   3.594  11.267  0.3682 -0.1345  0.0192
  447TMC3    C1 6655   1.042   3.795  11.258  0.2717  1.0705 -0.1371
  447TMC3    C2 6656   1.029   3.882  11.152 -0.0451 -0.3557 -0.2314
  447TMC3    C3 6657   1.146   3.915  11.085 -0.4671 -0.1486  0.1468
  447TMC3    C4 6658   1.164   3.763  11.311 -0.4269 -0.2086 -0.4738
  447TMC3    C5 6659   1.272   3.839  11.264 -0.0085 -0.8179  0.0491
  447TMC3    C6 6660   1.269   3.895  11.139 -0.1047  0.1926 -0.1355
  447TMC3     C 6661   0.933   3.713  11.314  0.2238  0.1471 -0.5403
  447TMC3     O 6662   0.961   3.620  11.381 -0.3715  0.5161  0.1144
  447TMC3     H 6663   0.931   3.906  11.112  0.7543 -2.3919 -3.3996
  447TMC3    H1 6664   1.171   3.694  11.395  3.4956  1.7013  0.7691
  447TMC3    H2 6665   1.357   3.954  11.116 -0.0961 -0.0740 -0.7946
  447TMC3    C7 6666   1.409   3.811  11.313  0.0854 -0.7350 -0.4695
  447TMC3    C8 6667   1.135   3.978  10.957 -0.1545 -0.3334 -0.7480
  447TMC3    O1 6668   1.494   3.795  11.228  0.0525  0.0165 -0.0302
  447TMC3    O2 6669   1.034   4.052  10.949  0.1127  0.1540 -0.2835
  448TMC3    C1 6670   4.489   3.927  16.954  0.2157  0.4219 -0.1700
  448TMC3    C2 6671   4.360   3.889  16.902  0.2244 -0.3805 -0.3547
  448TMC3    C3 6672   4.312   3.777  16.955  0.0133 -0.2087  0.3710
  448TMC3    C4 6673   4.537   3.868  17.070  0.4372  0.4893  0.5034
  448TMC3    C5 6674   4.472   3.765  17.127  0.2642  0.3394 -0.5561
  448TMC3    C6 6675   4.359   3.714  17.066 -0.7576 -0.2456  0.5505
  448TMC3     C 6676   4.573   4.029  16.890  0.2128  0.7804 -0.2374
  448TMC3     O 6677   4.510   4.095  16.809 -0.7202  0.3150  0.5455
  448TMC3     H 6678   4.322   3.935  16.812  0.6669 -0.8551 -0.7858
  448TMC3    H1 6679   4.620   3.910  17.126 -1.0082  0.9692  2.3077
  448TMC3    H2 6680   4.315   3.625  17.110  0.1523  0.2095  2.4024
  448TMC3    C7 6681   4.505   3.722  17.259  1.0966  0.9263  0.3477
  448TMC3    C8 6682   4.210   3.691  16.883  0.1863 -0.4870  0.6154
  448TMC3    O1 6683   4.611   3.763  17.307 -0.1167  0.0226  0.6216
  448TMC3    O2 6684   4.156   3.606  16.957  0.3259  0.3906  1.0053
  449MPD2     C 6685   0.914   2.281  14.389 -0.3785  0.0605 -0.1220
  449MPD2    C1 6686   0.799   2.239  14.331  0.7589 -0.2373 -0.4550
  449MPD2    C2 6687   0.716   2.149  14.395  0.4461 -0.9242  0.0470
  449MPD2    C3 6688   0.753   2.097  14.518 -0.0287  0.4191  0.0945
  449MPD2    C4 6689   0.868   2.153  14.584  0.3434  0.2073 -0.4562
  449MPD2    C5 6690   0.936   2.252  14.524 -0.6267  0.1834  0.4916
  449MPD2     H 6691   0.633   2.101  14.343  0.1863  1.7247 -1.9434
  449MPD2    H1 6692   0.889   2.128  14.687  1.0146  0.3245 -0.5643
  449MPD2    H2 6693   0.972   2.354  14.334 -0.1516 -0.9194 -1.1855
  449MPD2    H3 6694   1.019   2.302  14.572 -0.8262  1.5325 -0.5696
  449MPD2     N 6695   0.668   2.000  14.577  0.0314 -0.4662 -0.3630
  449MPD2    H5 6696   0.579   1.970  14.539  0.4460 -0.2907 -1.4871
  449MPD2    N1 6697   0.760   2.280  14.203  0.1973 -0.5674  0.2708
  449MPD2    H7 6698   0.674   2.244  14.165 -0.1279  1.9875 -1.3836
  450TMC3    C1 6699   0.785   2.337  13.986  0.3678 -0.3076  0.2849
  450TMC3    C2 6700   0.875   2.278  13.901 -0.0485  0.2523  0.1905
  450TMC3    C3 6701   0.835   2.164  13.834 -0.2211  0.2327  0.0410
  450TMC3    C4 6702   0.654   2.304  13.980  0.7253  0.6609 -0.3985
  450TMC3    C5 6703   0.614   2.191  13.913 -0.5467 -0.2537  0.0048
  450TMC3    C6 6704   0.702   2.119  13.832  0.2453 -0.5384  0.7975
  450TMC3     C 6705   0.840   2.352  14.120  0.1329 -0.8224  1.2498
  450TMC3     O 6706   0.961   2.385  14.125  0.1657 -0.6995 -0.0697
  450TMC3     H 6707   0.978   2.309  13.893  0.4951 -1.7161 -0.5376
  450TMC3    H1 6708   0.587   2.350  14.052 -0.3627  1.6443 -2.0462
  450TMC3    H2 6709   0.684   2.016  13.804  0.7404 -0.0730 -1.2742
  450TMC3    C7 6710   0.530   2.116  14.000  0.0350  0.3739 -0.3605
  450TMC3    C8 6711   0.927   2.050  13.863  0.3707 -0.1746 -0.2206
  450TMC3    O1 6712   0.518   2.158  14.115 -0.1533  0.0239  0.1068
  450TMC3    O2 6713   1.010   2.070  13.949  0.5420 -0.5046  0.2390
  451MPD2     C 6714   1.766   1.384   1.860 -0.1952  0.3376 -0.1482
  451MPD2    C1 6715   1.639   1.341   1.874  0.8898 -0.2845 -0.1105
  451MPD2    C2 6716   1.611   1.203   1.882  0.3964 -0.9403 -0.3510
  451MPD2    C3 6717   1.720   1.115   1.873 -0.4408  0.2666  0.2284
  451MPD2    C4 6718   1.842   1.160   1.843  0.2172  0.2734  0.1899
  451MPD2    C5 6719   1.869   1.297   1.853  0.2892 -0.0597 -0.3517
  451MPD2     H 6720   1.507   1.173   1.895  0.0664  0.2261 -0.2674
  451MPD2    H1 6721   1.930   1.097   1.840  0.0512 -0.0488  2.2211
  451MPD2    H2 6722   1.793   1.489   1.867 -1.8459  0.6739  1.2568
  451MPD2    H3 6723   1.973   1.321   1.839  0.5557 -0.4001  1.0260
  451MPD2     N 6724   1.706   0.979   1.895 -0.2724  0.3591 -0.3072
  451MPD2    H5 6725   1.797   0.938   1.913 -0.4808 -0.4424 -1.0367
  451MPD2    N1 6726   1.539   1.445   1.889  0.2668 -0.7466 -0.3407
  451MPD2    H7 6727   1.564   1.544   1.891  0.6318 -0.8499  0.3168
  452TMC3    C1 6728   1.634   0.765   1.960  0.3509 -0.4532  0.2135
  452TMC3    C2 6729   1.575   0.704   2.065  0.4416 -0.3179 -0.2616
  452TMC3    C3 6730   1.626   0.583   2.101  0.1406  0.4691 -0.4980
  452TMC3    C4 6731   1.727   0.702   1.882 -0.0501 -1.2494  0.3193
  452TMC3    C5 6732   1.766   0.579   1.919  0.6784  0.2279  0.7221
  452TMC3    C6 6733   1.723   0.517   2.027  0.0954  0.1044  0.7652
  452TMC3     C 6734   1.593   0.901   1.927  0.0332  0.2407 -0.6074
  452TMC3     O 6735   1.477   0.936   1.940  0.7732  0.0984 -0.6513
  452TMC3     H 6736   1.494   0.752   2.119 -1.0675 -1.1896 -1.7474
  452TMC3    H1 6737   1.755   0.743   1.786 -0.3035  0.4667  0.9718
  452TMC3    H2 6738   1.747   0.415   2.058 -1.3778 -0.3951  0.2582
  452TMC3    C7 6739   1.829   0.496   1.814  0.0461 -0.4957 -0.0331
  452TMC3    C8 6740   1.593   0.513   2.224 -0.5248 -0.9933  0.2475
  452TMC3    O1 6741   1.831   0.531   1.697  0.0727  0.1937 -0.0469
  452TMC3    O2 6742   1.665   0.419   2.263  1.2755 -0.2493 -0.4599
  453TMC3    C1 6743   2.737   3.003  11.645  0.9386 -0.3279  0.4592
  453TMC3    C2 6744   2.702   2.885  11.697  0.9704  0.2180 -0.2269
  453TMC3    C3 6745   2.701   2.771  11.612 -0.1169 -0.1467 -0.4708
  453TMC3    C4 6746   2.763   3.017  11.509 -0.3068 -0.2367 -0.4113
  453TMC3    C5 6747   2.771   2.905  11.430  0.2239  0.0928  0.2540
  453TMC3    C6 6748   2.743   2.780  11.480  0.3960 -0.6560  0.3826
  453TMC3     C 6749   2.812   3.098  11.727  0.4553  0.6095  0.3211
  453TMC3     O 6750   2.901   3.164  11.678  0.2834 -0.2859  0.2606
  453TMC3     H 6751   2.687   2.862  11.801  0.4733 -0.0806 -0.3638
  453TMC3    H1 6752   2.782   3.112  11.460 -1.5264  0.0956 -0.2609
  453TMC3    H2 6753   2.756   2.691  11.420  0.7130  0.2628 -0.8915
  453TMC3    C7 6754   2.815   2.912  11.289  0.8220 -0.3337  0.3918
  453TMC3    C8 6755   2.662   2.647  11.678  0.0662  0.4069  0.0330
  453TMC3    O1 6756   2.800   2.813  11.220 -0.3083 -0.3255  0.0334
  453TMC3    O2 6757   2.592   2.667  11.776  0.2525  0.0980 -0.3889
  454MPD2     C 6758   2.443   1.763  16.226  0.0267 -1.0037  0.1114
  454MPD2    C1 6759   2.366   1.868  16.267  0.4646  0.1706 -0.4373
  454MPD2    C2 6760   2.319   1.862  16.405  0.2597  0.3022  0.6325
  454MPD2    C3 6761   2.342   1.750  16.483 -0.6719  0.1954  0.1839
  454MPD2    C4 6762   2.419   1.646  16.434 -0.7017 -0.2852 -0.3019
  454MPD2    C5 6763   2.479   1.660  16.312  0.5471 -0.0000 -0.4675
  454MPD2     H 6764   2.245   1.931  16.444 -1.1054 -0.8744  0.1445
  454MPD2    H1 6765   2.442   1.557  16.492  0.4031  0.0872 -0.1649
  454MPD2    H2 6766   2.484   1.764  16.126 -1.0637 -0.1046 -0.3247
  454MPD2    H3 6767   2.547   1.584  16.275  2.8463  0.8752  1.9391
  454MPD2     N 6768   2.273   1.722  16.602 -0.7662  0.4715  0.6803
  454MPD2    H5 6769   2.255   1.628  16.637 -2.5377  0.7084  0.4202
  454MPD2    N1 6770   2.315   1.964  16.185 -0.2315 -0.1826 -0.3765
  454MPD2    H7 6771   2.254   2.031  16.230 -0.3715 -0.8840  0.4841
  455TMC3    C1 6772   2.086   1.793  16.755 -0.5531  0.4534  0.1487
  455TMC3    C2 6773   2.036   1.906  16.813  0.2947  0.0687 -0.0867
  455TMC3    C3 6774   1.904   1.926  16.792  0.5426  0.1073  0.3568
  455TMC3    C4 6775   2.000   1.707  16.694  0.2360  0.2931  0.4414
  455TMC3    C5 6776   1.864   1.720  16.691  0.2474  0.2775  0.3746
  455TMC3    C6 6777   1.813   1.840  16.735  0.1140 -0.3642  0.4870
  455TMC3     C 6778   2.210   1.823  16.673  0.3228  0.1426  0.1135
  455TMC3     O 6779   2.255   1.937  16.678  0.0918 -0.2527  0.4408
  455TMC3     H 6780   2.100   1.980  16.860  1.7092 -0.8837 -0.5134
  455TMC3    H1 6781   2.053   1.632  16.636  2.4173  0.6896  1.9405
  455TMC3    H2 6782   1.711   1.859  16.703  0.6133 -2.0671 -2.0765
  455TMC3    C7 6783   1.795   1.648  16.586  0.2091  0.6880  0.5555
  455TMC3    C8 6784   1.858   2.058  16.831 -0.2973  0.0864  0.5274
  455TMC3    O1 6785   1.739   1.718  16.498  0.7201  0.1499 -0.0550
  455TMC3    O2 6786   1.931   2.125  16.901 -0.1038 -0.2511  0.4952
  456MPD2     C 6787   4.216   2.513  16.232 -0.1170  0.1349 -0.4758
  456MPD2    C1 6788   4.318   2.558  16.317  0.0425 -0.3103 -0.8497
  456MPD2    C2 6789   4.280   2.655  16.413 -0.8264  0.0903  0.6375
  456MPD2    C3 6790   4.146   2.692  16.431  0.0232  0.9997 -0.1661
  456MPD2    C4 6791   4.049   2.650  16.346 -0.2143 -0.5525 -0.7634
  456MPD2    C5 6792   4.090   2.559  16.251 -0.1728 -0.5449 -0.0500
  456MPD2     H 6793   4.351   2.694  16.485  0.0672 -2.3962  1.1118
  456MPD2    H1 6794   3.942   2.659  16.365  0.1809  1.0905  0.7001
  456MPD2    H2 6795   4.219   2.424  16.171  2.5245  0.3594 -0.6968
  456MPD2    H3 6796   4.022   2.509  16.183  0.0296 -0.5141 -0.2773
  456MPD2     N 6797   4.116   2.779  16.532 -0.4246 -0.1692  0.1203
  456MPD2    H5 6798   4.185   2.804  16.602  0.4732  0.9054 -1.1437
  456MPD2    N1 6799   4.446   2.498  16.297 -0.0837 -0.2723 -0.4910
  456MPD2    H7 6800   4.452   2.434  16.218  2.3180 -1.9487  1.0403
  457TMC3    C1 6801   3.994   2.956  16.636 -0.0839 -1.3413  0.1966
  457TMC3    C2 6802   3.926   3.074  16.628  0.2247  0.3039 -0.0633
  457TMC3    C3 6803   3.879   3.136  16.745 -0.2215  0.7239  0.1177
  457TMC3    C4 6804   3.996   2.894  16.750 -0.1975  0.1866  0.2072
  457TMC3    C5 6805   3.945   2.953  16.857 -0.1404  0.0911 -0.6555
  457TMC3    C6 6806   3.890   3.081  16.864  0.7159 -0.8655 -0.7131
  457TMC3     C 6807   4.010   2.869  16.522 -0.4258  1.2073 -0.4442
  457TMC3     O 6808   3.946   2.906  16.423  0.2614 -0.0971 -0.5017
  457TMC3     H 6809   3.900   3.108  16.529 -1.3920 -0.1341  0.2074
  457TMC3    H1 6810   4.047   2.799  16.763 -1.2478 -0.4086 -0.0256
  457TMC3    H2 6811   3.852   3.122  16.957  0.2832 -2.4807 -0.1721
  457TMC3    C7 6812   3.965   2.898  16.989 -0.1570  0.0023  0.1602
  457TMC3    C8 6813   3.899   3.280  16.750 -0.3723  0.3672 -0.3051
  457TMC3    O1 6814   4.056   2.818  16.995  0.0426  0.0575  0.4558
  457TMC3    O2 6815   3.904   3.332  16.865  0.2247 -0.4679 -0.5217
  458MPD2     C 6816   1.752   1.925  12.396 -0.1038 -0.1090  0.6402
  458MPD2    C1 6817   1.807   1.836  12.484  0.1340 -0.3844  0.5851
  458MPD2    C2 6818   1.718   1.774  12.574  0.3339 -0.0799  0.4454
  458MPD2    C3 6819   1.580   1.787  12.558 -0.1380  0.2118  0.1485
  458MPD2    C4 6820   1.523   1.871  12.458 -0.2842 -0.2022 -0.0893
  458MPD2    C5 6821   1.614   1.932  12.376 -0.1868 -0.5419  0.2317
  458MPD2     H 6822   1.761   1.710  12.650 -0.9763 -1.8867 -0.3395
  458MPD2    H1 6823   1.416   1.888  12.460 -0.2522 -0.0731  0.6406
  458MPD2    H2 6824   1.814   1.974  12.322 -1.8475  1.4553  0.1982
  458MPD2    H3 6825   1.567   1.996  12.302  0.9513 -0.5695 -0.5360
  458MPD2     N 6826   1.498   1.726  12.657  0.2761  0.5458 -0.1414
  458MPD2    H5 6827   1.548   1.674  12.728 -0.2072  0.4206  0.1089
  458MPD2    N1 6828   1.949   1.826  12.488  0.2469  0.6781  0.4637
  458MPD2    H7 6829   2.000   1.881  12.420 -1.5212 -1.9366 -2.9192
  459TMC3    C1 6830   2.169   1.768  12.556 -0.3410  0.4714  0.5660
  459TMC3    C2 6831   2.214   1.888  12.505 -0.2570 -0.4885 -0.4422
  459TMC3    C3 6832   2.337   1.933  12.549  0.0780  0.2015  0.2273
  459TMC3    C4 6833   2.246   1.700  12.645 -0.5561 -0.2964  0.7685
  459TMC3    C5 6834   2.360   1.754  12.689 -0.5214  0.2049 -0.3082
  459TMC3    C6 6835   2.412   1.871  12.645 -0.3706  0.5306  0.4306
  459TMC3     C 6836   2.023   1.738  12.561  1.0204 -0.1917 -0.3923
  459TMC3     O 6837   1.984   1.648  12.639 -0.5112 -0.1998 -0.4283
  459TMC3     H 6838   2.165   1.932  12.419 -2.7170 -0.8363  0.8029
  459TMC3    H1 6839   2.210   1.606  12.685 -0.2484 -0.7583 -0.0477
  459TMC3    H2 6840   2.516   1.897  12.662 -0.2606 -0.7976  1.7058
  459TMC3    C7 6841   2.425   1.695  12.804 -0.0586 -0.0838  0.3219
  459TMC3    C8 6842   2.406   2.041  12.482 -0.5191  0.3291  0.5404
  459TMC3    O1 6843   2.394   1.578  12.833 -0.3252 -0.1241 -0.1850
  459TMC3    O2 6844   2.519   2.062  12.513  0.4708  0.4164  0.2971
  460MPD2     C 6845   1.345   3.952  10.665 -0.5048 -0.6416 -0.2758
  460MPD2    C1 6846   1.248   4.008  10.740  0.1219 -0.6602 -0.3414
  460MPD2    C2 6847   1.152   4.092  10.680 -0.1331 -0.3920 -0.5471
  460MPD2    C3 6848   1.164   4.127  10.549 -0.4441 -0.5485  0.3887
  460MPD2    C4 6849   1.273   4.078  10.474 -0.6354  0.8341  0.0215
  460MPD2    C5 6850   1.359   3.988  10.532  0.6459 -0.7989  0.4524
  460MPD2     H 6851   1.086   4.145  10.748 -1.0596 -0.3861 -1.4415
  460MPD2    H1 6852   1.298   4.103  10.371  1.2858  3.4684  1.1189
  460MPD2    H2 6853   1.425   3.901  10.718 -0.4835 -1.6774 -1.3292
  460MPD2    H3 6854   1.445   3.958  10.474  0.1090 -1.4288 -0.0120
  460MPD2     N 6855   1.065   4.220  10.497  0.0547  0.6740 -0.4144
  460MPD2    H5 6856   0.978   4.238  10.547  0.4446  2.1823 -0.2858
  460MPD2    N1 6857   1.243   3.963  10.876 -0.1231 -0.2140  0.4031
  460MPD2    H7 6858   1.320   3.908  10.913  1.1453 -0.0448 -1.9682
  461TMC3    C1 6859   0.926   4.309  10.330 -0.7171  0.6717 -1.2120
  461TMC3    C2 6860   0.838   4.235  10.253  0.1879  0.3225  0.2492
  461TMC3    C3 6861   0.717   4.286  10.229 -0.3504  0.2821 -0.5103
  461TMC3    C4 6862   0.885   4.420  10.399  0.3229 -0.2412 -0.4714
  461TMC3    C5 6863   0.764   4.468  10.368  0.3454 -0.0801 -0.0229
  461TMC3    C6 6864   0.675   4.399  10.287  0.0518  0.6274 -0.1930
  461TMC3     C 6865   1.058   4.262  10.363 -0.5655  0.4865  0.3010
  461TMC3     O 6866   1.123   4.205  10.276  0.0641  0.4660 -0.8003
  461TMC3     H 6867   0.876   4.145  10.204 -2.0409  0.3156 -1.4757
  461TMC3    H1 6868   0.960   4.468  10.462  1.7570 -0.8320 -1.7224
  461TMC3    H2 6869   0.573   4.433  10.277  0.0920  0.5290 -0.9304
  461TMC3    C7 6870   0.758   4.607  10.360 -0.0137  0.8164  0.2676
  461TMC3    C8 6871   0.641   4.228  10.117  0.6701 -0.0956 -0.0632
  461TMC3    O1 6872   0.643   4.649  10.340 -0.1411 -0.6967  0.1634
  461TMC3    O2 6873   0.671   4.114  10.087 -0.1453 -0.2492 -0.1083
  462TMC3    C1 6874   1.049   0.123   0.136 -0.3117  0.0155 -0.3545
  462TMC3    C2 6875   1.077   0.050   0.249  0.0449 -0.3156  0.2015
  462TMC3    C3 6876   1.051   4.636   0.243 -0.2150  0.3164  0.4916
  462TMC3    C4 6877   0.992   0.068   0.026 -0.5235  0.2221 -0.3658
  462TMC3    C5 6878   0.951   4.663   0.040  0.0979  0.7864  0.4619
  462TMC3    C6 6879   0.977   4.585   0.143  0.3561  0.0154  0.3762
  462TMC3     C 6880   1.107   0.260   0.113 -0.5712 -0.4158 -0.1368
  462TMC3     O 6881   1.111   0.308  17.684 -0.1718 -0.0953 -0.1467
  462TMC3     H 6882   1.148   0.078   0.327  0.8700 -0.0361 -0.6530
  462TMC3    H1 6883   0.957   0.128  17.628  1.4299 -0.1032 -1.4193
  462TMC3    H2 6884   0.928   4.490   0.158  0.0613  0.3437  1.4950
  462TMC3    C7 6885   0.881   4.603  17.615  0.3390  0.8436  0.3679
  462TMC3    C8 6886   1.098   4.557   0.356  0.1883 -0.3242 -0.1792
  462TMC3    O1 6887   0.817   4.502  17.638  0.5273 -0.5600  0.6443
  462TMC3    O2 6888   1.118   4.616   0.460  0.0845 -0.6288 -0.0346
  463MPD2     C 6889   1.492   3.584   2.838 -0.0125  0.0900  0.5372
  463MPD2    C1 6890   1.543   3.556   2.708 -0.0709  0.3988  1.4850
  463MPD2    C2 6891   1.665   3.603   2.667 -0.0108 -0.5907  0.4451
  463MPD2    C3 6892   1.736   3.686   2.756 -0.4454  0.1214 -0.1358
  463MPD2    C4 6893   1.685   3.720   2.877 -0.4612 -0.5590 -0.3483
  463MPD2    C5 6894   1.562   3.672   2.917  0.1768  0.4963 -0.8657
  463MPD2     H 6895   1.704   3.588   2.567 -1.6461  0.2074 -0.3152
  463MPD2    H1 6896   1.739   3.786   2.944 -0.3820 -0.0725 -0.8866
  463MPD2    H2 6897   1.402   3.536   2.876 -0.1754  1.4556  1.8583
  463MPD2    H3 6898   1.523   3.697   3.015  2.1176 -1.4611  0.3967
  463MPD2     N 6899   1.869   3.720   2.729 -0.1542  0.0335  0.5685
  463MPD2    H5 6900   1.912   3.791   2.787  2.8314 -0.4226 -1.0509
  463MPD2    N1 6901   1.479   3.474   2.611 -0.0167 -0.7269  0.0141
  463MPD2    H7 6902   1.507   3.482   2.513 -0.9906  2.1093 -0.0105
  464TMC3    C1 6903   1.315   3.342   2.514 -0.8174  0.0894  0.2124
  464TMC3    C2 6904   1.395   3.318   2.403  0.0223 -0.4247  0.1321
  464TMC3    C3 6905   1.336   3.305   2.282  0.1397 -0.2220 -0.4515
  464TMC3    C4 6906   1.177   3.342   2.509  0.5353  0.5611  0.2593
  464TMC3    C5 6907   1.121   3.335   2.387  0.3284 -0.2799 -0.0940
  464TMC3    C6 6908   1.197   3.318   2.274 -0.5456  0.2303  0.1732
  464TMC3     C 6909   1.366   3.401   2.635 -0.1323  0.3746 -0.0972
  464TMC3     O 6910   1.293   3.409   2.733 -0.9963 -0.2149 -0.5596
  464TMC3     H 6911   1.504   3.321   2.404 -0.0943  3.7898 -0.6158
  464TMC3    H1 6912   1.114   3.367   2.593 -0.7926 -1.2564 -0.1881
  464TMC3    H2 6913   1.148   3.309   2.178  1.5549 -1.6683 -0.7437
  464TMC3    C7 6914   0.972   3.346   2.369 -0.2044 -0.4612 -0.5597
  464TMC3    C8 6915   1.424   3.316   2.169 -0.0319 -0.1289 -0.3460
  464TMC3    O1 6916   0.917   3.416   2.452 -0.3374  0.0541 -0.1092
  464TMC3    O2 6917   1.538   3.353   2.186  0.3164  0.0209 -0.3521
  465MPD2     C 6918   3.678   2.582  16.482  0.6646  0.0088  0.3095
  465MPD2    C1 6919   3.591   2.542  16.587 -0.5035 -0.7210  0.4830
  465MPD2    C2 6920   3.463   2.502  16.553 -0.2549 -0.3771 -1.0932
  465MPD2    C3 6921   3.420   2.509  16.422  0.4834  0.1361 -0.3946
  465MPD2    C4 6922   3.505   2.551  16.320  0.2699  0.3710 -0.4588
  465MPD2    C5 6923   3.633   2.587  16.352  0.7733  0.1787 -0.7621
  465MPD2     H 6924   3.396   2.473  16.633  1.5334 -2.3117 -0.3012
  465MPD2    H1 6925   3.481   2.543  16.214  1.8466 -0.2782 -0.7681
  465MPD2    H2 6926   3.779   2.621  16.491  0.9327 -0.4578 -0.7175
  465MPD2    H3 6927   3.704   2.603  16.272  1.0342 -1.3258 -0.8417
  465MPD2     N 6928   3.280   2.480  16.401  0.9445  0.7666 -0.3939
  465MPD2    H5 6929   3.229   2.442  16.480  0.5662  1.5925 -0.2349
  465MPD2    N1 6930   3.618   2.546  16.726 -0.2377  0.1561 -0.2183
  465MPD2    H7 6931   3.542   2.513  16.785  0.8001  0.7367  1.4488
  466TMC3    C1 6932   2.893   2.427  16.454 -0.0425  0.0507 -0.3436
  466TMC3    C2 6933   2.803   2.490  16.367 -1.1905 -0.2222 -0.1608
  466TMC3    C3 6934   2.853   2.551  16.251  0.1968  0.5685  0.5474
  466TMC3    C4 6935   3.029   2.423  16.418  0.0281  0.3514  0.7338
  466TMC3    C5 6936   3.070   2.481  16.301  0.5193  0.2343  0.3290
  466TMC3    C6 6937   2.984   2.538  16.213 -0.1562 -0.2600  0.1457
  466TMC3     C 6938   2.845   2.361  16.573 -0.3810  0.7162  0.6017
  466TMC3     O 6939   2.773   2.409  16.656  0.1977  0.0586  0.0448
  466TMC3     H 6940   2.697   2.500  16.391 -1.3317 -1.1760 -0.4172
  466TMC3    H1 6941   3.095   2.360  16.476  0.5059 -0.9675 -1.2728
  466TMC3    H2 6942   3.026   2.593  16.129  1.0414  1.5735  1.9379
  466TMC3    C7 6943   3.213   2.511  16.289 -0.1335 -0.6318 -0.0457
  466TMC3    C8 6944   2.784   2.672  16.209  0.2080 -0.7651 -0.2674
  466TMC3    O1 6945   3.250   2.559  16.183  0.0244  1.1784 -0.1285
  466TMC3    O2 6946   2.787   2.703  16.093  0.3846  0.1564 -0.1866
  467TMC3    C1 6947   4.248   0.946  13.672 -0.2877 -0.1894 -0.5442
  467TMC3    C2 6948   4.267   1.068  13.728  0.7909  0.2086 -0.0197
  467TMC3    C3 6949   4.146   1.130  13.769 -0.1806  0.2912  0.1767
  467TMC3    C4 6950   4.126   0.889  13.644  0.2276 -0.7105 -0.2633
  467TMC3    C5 6951   4.018   0.950  13.702 -0.0963 -0.0592 -0.5600
  467TMC3    C6 6952   4.023   1.067  13.774  0.3335  0.5524 -0.3260
  467TMC3     C 6953   4.366   0.864  13.653 -0.2493  0.2755  0.8161
  467TMC3     O 6954   4.355   0.777  13.570  0.1610 -0.6095  0.0417
  467TMC3     H 6955   4.357   1.128  13.725 -0.2056  1.6900 -0.5049
  467TMC3    H1 6956   4.107   0.791  13.602 -2.9945 -0.4023  0.4580
  467TMC3    H2 6957   3.935   1.127  13.793  0.1746  0.3230 -0.3411
  467TMC3    C7 6958   3.893   0.905  13.664 -0.4796  0.1983  0.8724
  467TMC3    C8 6959   4.153   1.272  13.797  0.1375  0.0790  0.9512
  467TMC3    O1 6960   3.870   0.852  13.559  0.0815 -0.3872 -0.0294
  467TMC3    O2 6961   4.254   1.326  13.747 -0.5534 -0.3663 -0.0360
  468MPD2     C 6962   2.621   4.009  10.476 -0.1996  0.5275 -0.0542
  468MPD2    C1 6963   2.755   3.996  10.495 -0.3652 -0.1398  0.3840
  468MPD2    C2 6964   2.806   3.872  10.529 -0.8969 -0.6256  0.3165
  468MPD2    C3 6965   2.721   3.765  10.545  0.2533  0.1714  0.6457
  468MPD2    C4 6966   2.589   3.781  10.518 -0.2723  0.2652 -0.0266
  468MPD2    C5 6967   2.535   3.902  10.491 -0.4696 -0.4664  0.6484
  468MPD2     H 6968   2.912   3.862  10.548 -1.1208 -1.0764  1.3258
  468MPD2    H1 6969   2.518   3.702  10.540 -0.4566  0.6200  0.6519
  468MPD2    H2 6970   2.574   4.097  10.433  0.3582  0.0352 -1.7001
  468MPD2    H3 6971   2.429   3.914  10.470 -0.8489 -2.5856  1.3408
  468MPD2     N 6972   2.749   3.633  10.583 -0.0047  0.0369 -0.1293
  468MPD2    H5 6973   2.665   3.578  10.599  0.2090 -0.0938  0.5428
  468MPD2    N1 6974   2.846   4.101  10.486  0.2928 -0.4095 -0.3615
  468MPD2    H7 6975   2.942   4.080  10.512  0.3145 -0.4022 -0.4368
  469TMC3    C1 6976   2.947   4.298  10.400  0.4654 -0.6221 -0.4654
  469TMC3    C2 6977   2.999   4.339  10.517  0.0049 -0.1264  0.9172
  469TMC3    C3 6978   3.088   4.445  10.519 -0.0972 -0.2644 -0.2183
  469TMC3    C4 6979   2.954   4.376  10.285 -0.1945 -0.1947  0.1526
  469TMC3    C5 6980   3.047   4.478  10.283  0.6937 -0.1288  0.1442
  469TMC3    C6 6981   3.115   4.520  10.401 -0.1953  0.1630  0.2359
  469TMC3     C 6982   2.824   4.217  10.413 -0.4376  0.2379  0.0661
  469TMC3     O 6983   2.719   4.265  10.372 -0.1155  0.1020  0.3284
  469TMC3     H 6984   2.996   4.276  10.605 -0.5965 -1.3700  0.0106
  469TMC3    H1 6985   2.882   4.359  10.205  0.2431 -0.8029 -0.1087
  469TMC3    H2 6986   3.182   4.606  10.407  0.2069 -0.1204 -0.1564
  469TMC3    C7 6987   3.044   4.574  10.178 -0.6434  0.1771  0.9167
  469TMC3    C8 6988   3.124   4.504  10.644  0.2860  0.2961  0.0910
  469TMC3    O1 6989   3.050   4.531  10.062 -0.1036  0.2574  0.5325
  469TMC3    O2 6990   3.124   4.426  10.740 -0.3713 -0.4383  0.0605
  470TMC3    C1 6991   0.895   1.305   0.650 -0.1716  0.1657  0.9115
  470TMC3    C2 6992   0.851   1.416   0.706 -0.5935  0.2216  1.4528
  470TMC3    C3 6993   0.832   1.404   0.846  0.0749  0.9127  0.5803
  470TMC3    C4 6994   0.948   1.205   0.720  0.4146  1.0088 -0.0413
  470TMC3    C5 6995   0.944   1.209   0.852 -0.5954 -0.4283  0.3818
  470TMC3    C6 6996   0.879   1.304   0.925 -0.0025  0.0270  0.1138
  470TMC3     C 6997   0.934   1.316   0.513  0.0643  0.0473 -0.4158
  470TMC3     O 6998   0.913   1.214   0.450  0.0216 -0.6024  0.9953
  470TMC3     H 6999   0.810   1.498   0.648 -0.1999 -1.3000 -0.9725
  470TMC3    H1 7000   0.968   1.110   0.672  0.3136  0.4979  0.9304
  470TMC3    H2 7001   0.860   1.308   1.032 -2.1367 -0.2532 -0.2607
  470TMC3    C7 7002   1.038   1.130   0.929 -0.1552 -0.1281  0.1771
  470TMC3    C8 7003   0.723   1.481   0.917 -0.1276  0.3035  0.8606
  470TMC3    O1 7004   1.139   1.097   0.876  0.3811  0.3673  0.1000
  470TMC3    O2 7005   0.711   1.465   1.037  0.3112  0.2430  0.0419
  471MPD2     C 7006   1.524   1.494  17.273  0.0927  0.2937  0.0282
  471MPD2    C1 7007   1.523   1.367  17.227  0.5191 -0.6500 -0.0951
  471MPD2    C2 7008   1.611   1.268  17.273 -0.1799 -0.4169  0.8825
  471MPD2    C3 7009   1.716   1.306  17.361 -0.2943  0.3859 -0.4501
  471MPD2    C4 7010   1.724   1.437  17.406 -0.3797  0.6837 -0.1325
  471MPD2    C5 7011   1.620   1.530  17.361  0.1543  0.2934  0.4365
  471MPD2     H 7012   1.603   1.170  17.228  0.3946  0.2926 -0.7472
  471MPD2    H1 7013   1.805   1.476  17.467 -1.0104 -1.1481  1.8707
  471MPD2    H2 7014   1.451   1.569  17.244 -0.2618  0.4220  1.2208
  471MPD2    H3 7015   1.626   1.633  17.393  1.7150 -0.1513  1.6176
  471MPD2     N 7016   1.818   1.218  17.392 -0.2509 -0.5170 -0.0176
  471MPD2    H5 7017   1.889   1.262  17.450 -0.1772 -0.1533 -0.3791
  471MPD2    N1 7018   1.424   1.311  17.142 -0.0056  0.4137  0.3684
  471MPD2    H7 7019   1.428   1.210  17.133 -2.1418  0.3299  0.4015
  472TMC3    C1 7020   1.221   1.303  17.012  1.4212  0.2480 -0.6032
  472TMC3    C2 7021   1.101   1.362  16.974 -0.0083  0.1385 -0.5688
  472TMC3    C3 7022   1.000   1.286  16.929  0.4310 -0.5062  0.0719
  472TMC3    C4 7023   1.234   1.166  17.021  0.0129 -0.1429 -0.1521
  472TMC3    C5 7024   1.146   1.105  16.939  0.1991 -0.6146  0.7921
  472TMC3    C6 7025   1.029   1.156  16.894  0.0332 -0.2448  0.4817
  472TMC3     C 7026   1.321   1.385  17.087  0.0309  0.5198  0.6594
  472TMC3     O 7027   1.319   1.508  17.073 -0.4446  0.8290  0.0641
  472TMC3     H 7028   1.090   1.469  16.988  0.4338  0.2286 -0.9204
  472TMC3    H1 7029   1.320   1.110  17.054  0.7889  3.0888  3.3035
  472TMC3    H2 7030   0.962   1.095  16.834 -0.3548  0.5626  0.0857
  472TMC3    C7 7031   1.178   0.970  16.895  0.2161 -0.3980 -0.2444
  472TMC3    C8 7032   0.880   1.352  16.875  0.0721  0.0362 -0.0312
  472TMC3    O1 7033   1.271   0.920  16.959  0.4769  0.4523  0.0992
  472TMC3    O2 7034   0.876   1.476  16.872  0.5212 -0.0469  0.8661
  473MPD2     C 7035   1.224   3.618  13.736 -0.0083  0.2642  0.2998
  473MPD2    C1 7036   1.132   3.708  13.800  0.2307 -0.2185  0.7056
  473MPD2    C2 7037   1.173   3.775  13.910  0.2445 -0.2313 -0.5808
  473MPD2    C3 7038   1.300   3.754  13.971 -0.6290 -0.2836  0.1112
  473MPD2    C4 7039   1.382   3.661  13.909  0.1536 -0.8830 -0.1690
  473MPD2    C5 7040   1.343   3.597  13.793 -0.5197  0.2107 -0.5518
  473MPD2     H 7041   1.104   3.839  13.965  0.0382 -0.0710 -1.0290
  473MPD2    H1 7042   1.482   3.639  13.943  0.0955 -0.1506  0.4733
  473MPD2    H2 7043   1.202   3.559  13.648 -0.3377  2.3060 -0.9931
  473MPD2    H3 7044   1.406   3.522  13.746  0.6684  1.3745 -0.8163
  473MPD2     N 7045   1.338   3.823  14.091  0.2101  0.2085  0.1801
  473MPD2    H5 7046   1.266   3.885  14.128  1.2327  0.1542  2.2630
  473MPD2    N1 7047   0.997   3.720  13.753 -0.1459  0.1101  0.1426
  473MPD2    H7 7048   0.951   3.802  13.791 -0.1011  1.1714 -2.0686
  474TMC3    C1 7049   1.476   3.917  14.256  0.1707  0.1185  0.3237
  474TMC3    C2 7050   1.392   4.025  14.246  0.3230  0.9874  0.0810
  474TMC3    C3 7051   1.412   4.121  14.337  0.1515 -0.5203 -0.2164
  474TMC3    C4 7052   1.572   3.905  14.348  0.0735  0.3086  0.0852
  474TMC3    C5 7053   1.581   4.007  14.442 -0.4505  0.1876 -0.0844
  474TMC3    C6 7054   1.501   4.121  14.443 -0.3812  0.2170 -0.1990
  474TMC3     C 7055   1.460   3.815  14.160 -0.0811  0.2817 -0.9362
  474TMC3     O 7056   1.544   3.724  14.156  0.4639  0.6944  0.0664
  474TMC3     H 7057   1.319   4.042  14.169  0.0195  0.2989  0.2138
  474TMC3    H1 7058   1.650   3.831  14.337  1.3799  1.5229  1.2433
  474TMC3    H2 7059   1.532   4.202  14.507  0.9689  0.2028 -0.8366
  474TMC3    C7 7060   1.691   3.994  14.539  0.2244  0.0146 -0.1571
  474TMC3    C8 7061   1.331   4.242  14.332  0.6272  0.4696 -0.0484
  474TMC3    O1 7062   1.782   3.913  14.527 -0.7783 -0.0946  0.3022
  474TMC3    O2 7063   1.378   4.325  14.410  0.2025 -0.1610 -0.2704
  475MPD2     C 7064   4.070   1.345  10.107  0.5712 -0.0855 -0.4914
  475MPD2    C1 7065   4.076   1.486  10.134 -0.3997  0.1438  0.0706
  475MPD2    C2 7066   3.984   1.551  10.221 -0.1788  0.4758  0.1997
  475MPD2    C3 7067   3.896   1.475  10.286 -0.3223 -0.3949  0.4488
  475MPD2    C4 7068   3.896   1.342  10.266  0.3042 -0.2219 -0.4961
  475MPD2    C5 7069   3.980   1.272  10.185 -0.5841 -0.6102  0.8009
  475MPD2     H 7070   3.980   1.659  10.228 -1.8028  0.4755 -0.7818
  475MPD2    H1 7071   3.825   1.277  10.316 -0.7174  1.9881  0.9083
  475MPD2    H2 7072   4.125   1.281  10.039 -2.2316 -2.8269 -0.1612
  475MPD2    H3 7073   3.957   1.167  10.169  0.6367 -0.6823 -0.5038
  475MPD2     N 7074   3.802   1.546  10.361  0.0511 -0.0473  0.2051
  475MPD2    H5 7075   3.817   1.646  10.369 -3.1342  0.2754  2.0812
  475MPD2    N1 7076   4.171   1.559  10.063  0.3664  0.1721  0.0753
  475MPD2    H7 7077   4.211   1.509   9.985 -1.4178  1.0439 -1.3901
  476TMC3    C1 7078   4.261   1.760   9.968  0.9835 -0.3949 -0.2609
  476TMC3    C2 7079   4.160   1.760   9.874  0.0935 -0.1504 -0.8358
  476TMC3    C3 7080   4.097   1.877   9.833 -0.2379  0.0577  0.0532
  476TMC3    C4 7081   4.316   1.881  10.004  0.1228 -0.0521 -0.3354
  476TMC3    C5 7082   4.273   1.993   9.936  0.0667  0.3266 -0.1624
  476TMC3    C6 7083   4.157   1.996   9.856 -0.7627 -1.1870  0.8088
  476TMC3     C 7084   4.210   1.689  10.089  0.1849  0.3001 -0.1780
  476TMC3     O 7085   4.196   1.754  10.191 -0.6679 -0.3105 -0.7412
  476TMC3     H 7086   4.114   1.666   9.846 -0.4339  0.6502 -2.6879
  476TMC3    H1 7087   4.410   1.889  10.057 -0.6409  2.3776  0.6383
  476TMC3    H2 7088   4.121   2.091   9.819  0.5977 -0.7532  0.5750
  476TMC3    C7 7089   4.329   2.125   9.970  0.6587 -0.6156  0.1982
  476TMC3    C8 7090   3.957   1.887   9.852  0.2171 -0.0159 -0.2760
  476TMC3    O1 7091   4.327   2.213   9.878 -0.3728  0.1330 -0.1702
  476TMC3    O2 7092   3.909   1.998   9.840  0.5085 -0.8579  0.0457
  477MPD2     C 7093   1.780   3.307  11.659  0.4702  0.4068  0.1343
  477MPD2    C1 7094   1.674   3.213  11.657 -0.5517  0.4529 -0.2734
  477MPD2    C2 7095   1.683   3.111  11.753 -0.5014 -0.1663  0.5314
  477MPD2    C3 7096   1.794   3.102  11.837 -0.9146 -0.0565  0.6257
  477MPD2    C4 7097   1.887   3.203  11.844 -0.1441  0.3889 -0.0845
  477MPD2    C5 7098   1.883   3.298  11.749 -0.1694 -0.1427 -0.7576
  477MPD2     H 7099   1.608   3.033  11.764 -1.0727 -0.0314 -2.4539
  477MPD2    H1 7100   1.977   3.195  11.903  0.1135  1.1221 -0.3763
  477MPD2    H2 7101   1.780   3.380  11.579  0.3531  1.1136  0.7844
  477MPD2    H3 7102   1.967   3.363  11.728 -0.9640  1.0514 -0.2848
  477MPD2     N 7103   1.791   2.991  11.924 -0.2638  0.4066 -0.0089
  477MPD2    H5 7104   1.721   2.919  11.910  1.9775 -1.8155  0.2481
  477MPD2    N1 7105   1.563   3.233  11.581  0.3116 -0.0567 -0.3556
  477MPD2    H7 7106   1.566   3.317  11.524 -2.6309 -1.4963 -2.6363
  478TMC3    C1 7107   1.350   3.203  11.479  1.0284  0.9459 -0.5046
  478TMC3    C2 7108   1.218   3.181  11.503  0.5678  0.3049 -0.1454
  478TMC3    C3 7109   1.128   3.247  11.431  0.3369 -0.4257  0.5026
  478TMC3    C4 7110   1.397   3.295  11.388 -0.0296  0.5587  0.5034
  478TMC3    C5 7111   1.307   3.372  11.324  0.0651 -0.6019  0.3853
  478TMC3    C6 7112   1.171   3.351  11.343  0.0104 -0.5097  0.1998
  478TMC3     C 7113   1.448   3.153  11.570  0.0161 -0.2297 -0.2040
  478TMC3     O 7114   1.416   3.052  11.634 -0.3544 -0.4758 -0.1431
  478TMC3     H 7115   1.188   3.102  11.572 -1.0866 -0.2313 -1.4604
  478TMC3    H1 7116   1.500   3.306  11.357 -0.2717  0.3052 -0.3984
  478TMC3    H2 7117   1.098   3.425  11.314 -0.0628 -0.2335  1.1099
  478TMC3    C7 7118   1.349   3.428  11.194  0.7088  0.0322  0.5566
  478TMC3    C8 7119   1.003   3.255  11.501  0.7318 -0.4024 -0.1554
  478TMC3    O1 7120   1.466   3.424  11.155  0.7365 -0.0488  0.5349
  478TMC3    O2 7121   0.944   3.150  11.530 -0.0734 -0.3325 -0.0266
  479MPD2     C 7122   0.719   0.743  15.435 -0.1003 -0.2458 -0.0186
  479MPD2    C1 7123   0.671   0.865  15.468  0.2465  0.3049  0.4763
  479MPD2    C2 7124   0.757   0.964  15.519 -0.1232 -0.1512  0.5767
  479MPD2    C3 7125   0.889   0.943  15.536  0.3795 -1.3428 -0.0384
  479MPD2    C4 7126   0.940   0.824  15.498  0.0097  0.3763  0.1378
  479MPD2    C5 7127   0.855   0.731  15.439 -0.1285 -0.2743 -0.7372
  479MPD2     H 7128   0.714   1.056  15.556 -1.9818  0.0753 -2.1368
  479MPD2    H1 7129   1.040   0.784  15.508 -0.2611 -0.3662 -0.0612
  479MPD2    H2 7130   0.661   0.656  15.408  1.3251 -1.4907  0.9417
  479MPD2    H3 7131   0.890   0.630  15.422  0.3798 -0.3208  0.5982
  479MPD2     N 7132   0.969   1.042  15.604  0.9210  0.8404  0.7774
  479MPD2    H5 7133   1.059   1.010  15.636  0.0877 -1.9080  0.4038
  479MPD2    N1 7134   0.530   0.879  15.456 -0.2589 -0.3486  0.2554
  479MPD2    H7 7135   0.486   0.804  15.405 -1.8920  0.5685  0.3415
  480TMC3    C1 7136   0.792   1.187  15.869  0.6065 -0.3882 -0.1656
  480TMC3    C2 7137   0.715   1.299  15.850 -0.5394  0.3136  0.7453
  480TMC3    C3 7138   0.747   1.377  15.744 -0.3421  0.4543 -0.9168
  480TMC3    C4 7139   0.910   1.168  15.800  0.2375 -0.1601  0.5120
  480TMC3    C5 7140   0.938   1.252  15.702 -0.8793 -0.1553  0.7610
  480TMC3    C6 7141   0.861   1.363  15.676  0.4457  1.0956  0.1643
  480TMC3     C 7142   0.737   1.076  15.934  0.9467 -0.4965 -0.3923
  480TMC3     O 7143   0.793   0.971  15.919  0.2243  0.3018  0.4480
  480TMC3     H 7144   0.616   1.308  15.893 -0.9378  0.7676 -0.2895
  480TMC3    H1 7145   0.977   1.091  15.834 -0.4229 -1.0305 -0.1497
  480TMC3    H2 7146   0.882   1.423  15.588  0.3748  0.1107 -0.5264
  480TMC3    C7 7147   0.937   1.174  15.587  0.4928  0.1000 -0.9491
  480TMC3    C8 7148   0.638   1.430  15.659  0.1147  0.4853 -0.6798
  480TMC3    O1 7149   0.875   1.229  15.498 -0.1402 -0.0234 -0.0394
  480TMC3    O2 7150   0.545   1.478  15.716  0.0095  0.0614 -0.3895
  481MPD2     C 7151   2.431   0.882  14.399  0.0618  0.2307  0.5854
  481MPD2    C1 7152   2.344   0.774  14.383  0.3779 -0.6673  0.0420
  481MPD2    C2 7153   2.314   0.691  14.494 -0.0376  0.4025  0.1567
  481MPD2    C3 7154   2.374   0.723  14.615 -0.2749  0.0825  0.4257
  481MPD2    C4 7155   2.449   0.836  14.629  0.5073 -0.5698 -0.4613
  481MPD2    C5 7156   2.489   0.910  14.517 -0.1007  0.8566  0.2933
  481MPD2     H 7157   2.240   0.613  14.481 -1.1856  1.0122  3.1119
  481MPD2    H1 7158   2.493   0.874  14.721  0.0517  2.5045 -1.5182
  481MPD2    H2 7159   2.457   0.939  14.310  1.2633  0.5846  1.1708
  481MPD2    H3 7160   2.548   1.001  14.517  0.0895  0.7296 -1.3272
  481MPD2     N 7161   2.351   0.641  14.735  0.3044  1.1673  0.0296
  481MPD2    H5 7162   2.395   0.679  14.818 -1.2391  0.2131  1.2644
  481MPD2    N1 7163   2.274   0.763  14.259 -0.1362  0.1113  0.4206
  481MPD2    H7 7164   2.275   0.843  14.197  0.2337 -0.2061  0.0068
  482TMC3    C1 7165   2.098   0.679  14.140  0.3182 -0.2660 -0.0722
  482TMC3    C2 7166   1.987   0.621  14.196  0.1956  0.4253  0.9157
  482TMC3    C3 7167   1.882   0.596  14.112 -0.9295 -0.5081  0.0350
  482TMC3    C4 7168   2.108   0.713  14.013 -0.3293  0.6495  0.3457
  482TMC3    C5 7169   1.995   0.690  13.940  0.0437 -0.2706 -0.9511
  482TMC3    C6 7170   1.880   0.632  13.982 -0.5671  0.3767  0.1112
  482TMC3     C 7171   2.211   0.651  14.216 -0.5262  0.8459 -0.0748
  482TMC3     O 7172   2.204   0.544  14.272 -0.0416 -0.6733 -0.8178
  482TMC3     H 7173   2.002   0.562  14.285 -0.1218  0.3459  0.9160
  482TMC3    H1 7174   2.202   0.754  13.977  0.0747 -2.3167 -1.9332
  482TMC3    H2 7175   1.789   0.622  13.924  1.1996 -1.7019 -2.3266
  482TMC3    C7 7176   1.996   0.719  13.799 -0.2798 -0.2164 -0.0984
  482TMC3    C8 7177   1.795   0.493  14.166 -0.4048  0.0099  0.0020
  482TMC3    O1 7178   1.911   0.665  13.734  0.0729 -0.5621  0.0765
  482TMC3    O2 7179   1.842   0.413  14.252 -0.1959  0.4859  0.8177
  483TMC3    C1 7180   4.155   3.659   0.142  0.0541 -0.2080  0.2358
  483TMC3    C2 7181   4.200   3.760   0.065 -0.0172  0.1163  0.4266
  483TMC3    C3 7182   4.337   3.784   0.065 -0.7398 -0.1847 -0.0422
  483TMC3    C4 7183   4.238   3.578   0.220 -0.7354  0.4352  0.0208
  483TMC3    C5 7184   4.373   3.607   0.208  0.5517  0.3281 -0.1967
  483TMC3    C6 7185   4.425   3.700   0.128  0.0318  0.0217  0.4975
  483TMC3     C 7186   4.008   3.653   0.157  0.4940 -0.0208 -0.5149
  483TMC3     O 7187   3.929   3.739   0.110  0.4507 -0.2962 -0.1725
  483TMC3     H 7188   4.130   3.822   0.010  1.1194  1.5818  0.6002
  483TMC3    H1 7189   4.199   3.498   0.280  2.3145 -0.3977  0.9159
  483TMC3    H2 7190   4.532   3.717   0.130 -0.1727  1.2982  0.6591
  483TMC3    C7 7191   4.473   3.511   0.258  0.6607  0.4049  0.7552
  483TMC3    C8 7192   4.396   3.878  17.661  0.7157  0.0709  0.4168
  483TMC3    O1 7193   4.589   3.544   0.267  0.1912  0.1641 -0.1239
  483TMC3    O2 7194   4.514   3.896   0.004  0.2928  0.0676 -0.0364
  484MPD2     C 7195   2.284   2.273  12.225  0.0189  0.1234 -0.5153
  484MPD2    C1 7196   2.378   2.203  12.298  0.5310  0.5982  0.0396
  484MPD2    C2 7197   2.510   2.223  12.274 -0.3048 -0.7953 -0.0818
  484MPD2    C3 7198   2.553   2.319  12.187  0.2550 -0.3694 -0.3757
  484MPD2    C4 7199   2.458   2.390  12.103 -0.0641 -0.5672  0.1260
  484MPD2    C5 7200   2.331   2.360  12.123  0.7987 -0.4986  0.7071
  484MPD2     H 7201   2.582   2.155  12.318 -1.8589 -0.7031  2.6219
  484MPD2    H1 7202   2.486   2.457  12.022 -0.3893 -1.3973 -0.6777
  484MPD2    H2 7203   2.178   2.252  12.230  0.0064  0.3711  0.1269
  484MPD2    H3 7204   2.254   2.397  12.056  1.9570 -0.0300 -0.3635
  484MPD2     N 7205   2.690   2.350  12.166  0.9752 -0.2430 -0.3106
  484MPD2    H5 7206   2.711   2.415  12.092 -2.1983  1.0641 -0.0884
  484MPD2    N1 7207   2.327   2.120  12.404 -0.7568  0.1980  0.4610
  484MPD2    H7 7208   2.226   2.107  12.399 -0.5419  0.3876 -4.6046
  485TMC3    C1 7209   2.913   2.354  12.187 -0.5526 -0.3759  0.6380
  485TMC3    C2 7210   3.014   2.350  12.276 -0.7152 -0.2423 -0.2557
  485TMC3    C3 7211   3.137   2.322  12.224  0.3648 -0.5351 -0.0938
  485TMC3    C4 7212   2.932   2.340  12.050 -0.2105  0.1669 -0.2356
  485TMC3    C5 7213   3.053   2.299  12.007 -0.0164 -0.3667  0.5795
  485TMC3    C6 7214   3.152   2.292  12.091  0.0288  0.6850  1.2141
  485TMC3     C 7215   2.791   2.320  12.248 -0.1892  0.5579  0.2333
  485TMC3     O 7216   2.784   2.263  12.352 -0.4417 -0.5594 -0.7525
  485TMC3     H 7217   2.992   2.372  12.380  1.7282  0.2060  0.1514
  485TMC3    H1 7218   2.848   2.317  11.986  0.2310 -0.3370 -0.6363
  485TMC3    H2 7219   3.247   2.256  12.053 -1.2173 -0.6034 -0.6982
  485TMC3    C7 7220   3.056   2.189  11.918 -1.2046 -0.5868 -0.2998
  485TMC3    C8 7221   3.220   2.239  12.297  0.2994  0.5003 -0.6659
  485TMC3    O1 7222   3.006   2.088  11.956  0.1310 -0.0542  0.4133
  485TMC3    O2 7223   3.329   2.212  12.244 -0.0065  0.6443  0.2245
  486MPD2     C 7224   0.177   1.148  12.983 -0.6300 -0.0279  0.0161
  486MPD2    C1 7225   0.057   1.099  12.932  0.0516  0.0394  0.0205
  486MPD2    C2 7226   4.673   1.189  12.896 -0.3560  0.1051  0.0105
  486MPD2    C3 7227   4.693   1.323  12.918  0.3925 -0.3369 -0.0192
  486MPD2    C4 7228   0.090   1.369  12.969  0.3039 -0.7961  0.2173
  486MPD2    C5 7229   0.193   1.284  13.004  0.5851 -0.4287 -0.3632
  486MPD2     H 7230   4.574   1.157  12.867 -0.3270  1.0137 -1.0929
  486MPD2    H1 7231   0.110   1.475  12.974 -1.4895 -0.5528  2.4494
  486MPD2    H2 7232   0.258   1.081  13.007 -0.1318  0.9519  1.0903
  486MPD2    H3 7233   0.288   1.315  13.046  1.1375 -1.2839 -0.9961
  486MPD2     N 7234   4.580   1.402  12.887  0.7043 -0.9113  0.0390
  486MPD2    H5 7235   4.497   1.347  12.871  0.2534 -0.5782  1.2610
  486MPD2    N1 7236   0.041   0.959  12.915 -0.0237 -0.3242  0.5384
  486MPD2    H7 7237   0.110   0.902  12.961 -0.1909 -1.4774 -0.6309
  487TMC3    C1 7238   4.651   0.755  12.862  0.2266  0.5854  0.4722
  487TMC3    C2 7239   4.538   0.695  12.805 -0.2602  0.5865  0.6806
  487TMC3    C3 7240   4.534   0.558  12.810 -0.0349  0.5896  0.8387
  487TMC3    C4 7241   0.021   0.684  12.936  0.2179 -0.4795  0.2417
  487TMC3    C5 7242   0.006   0.545  12.946 -0.4225 -0.2475 -0.4664
  487TMC3    C6 7243   4.627   0.477  12.873 -0.0011 -0.2783 -0.1926
  487TMC3     C 7244   4.660   0.894  12.843 -0.0053  0.1934  0.1523
  487TMC3     O 7245   4.566   0.944  12.779 -0.3803 -0.2635  0.3387
  487TMC3     H 7246   4.467   0.761  12.758  0.3285  1.9878  1.7498
  487TMC3    H1 7247   0.110   0.719  12.989  0.6902 -0.6450 -0.4464
  487TMC3    H2 7248   4.606   0.372  12.889 -0.0390 -0.4597 -1.4111
  487TMC3    C7 7249   0.022   0.502  13.083  0.2360 -0.0330  0.4279
  487TMC3    C8 7250   4.405   0.503  12.846 -0.2992 -1.0873  0.2210
  487TMC3    O1 7251   0.102   0.558  13.156 -0.2917 -0.6694  0.6288
  487TMC3    O2 7252   4.405   0.410  12.930 -0.2856 -0.1614 -0.0008
  488MPD2     C 7253   0.142   2.761  16.591  1.0065 -0.3601 -0.5433
  488MPD2    C1 7254   0.200   2.879  16.616  0.3463 -0.2342  0.1566
  488MPD2    C2 7255   0.260   2.893  16.743 -0.5113 -0.3436  0.4775
  488MPD2    C3 7256   0.241   2.798  16.842  0.2434 -0.2896  0.6010
  488MPD2    C4 7257   0.166   2.685  16.815 -0.0652 -0.5028  0.4995
  488MPD2    C5 7258   0.124   2.665  16.687  0.3169 -0.6079 -0.2824
  488MPD2     H 7259   0.313   2.986  16.758 -0.9960  0.4770 -2.8364
  488MPD2    H1 7260   0.152   2.598  16.879 -1.1579 -0.9337 -0.3335
  488MPD2    H2 7261   0.105   2.730  16.494  0.4698 -0.7575 -0.2146
  488MPD2    H3 7262   0.074   2.570  16.672  1.5267 -1.0722 -1.4210
  488MPD2     N 7263   0.296   2.826  16.969 -0.7747  0.5773  0.2746
  488MPD2    H5 7264   0.342   2.917  16.975  0.0080  0.2780 -0.9915
  488MPD2    N1 7265   0.220   2.977  16.511 -0.1198  0.0888  0.2162
  488MPD2    H7 7266   0.302   3.037  16.515 -1.6122  2.0866  0.9551
  489TMC3    C1 7267   0.357   2.778  17.199  0.2148 -0.1405  0.9000
  489TMC3    C2 7268   0.384   2.909  17.212  0.4275  0.3486 -0.1336
  489TMC3    C3 7269   0.472   2.946  17.309 -0.0037 -0.4748  0.3020
  489TMC3    C4 7270   0.412   2.681  17.278 -0.5700 -0.2431  0.2069
  489TMC3    C5 7271   0.502   2.731  17.371 -0.1642 -0.9250 -0.1169
  489TMC3    C6 7272   0.534   2.860  17.389 -0.4483 -0.2036 -0.4705
  489TMC3     C 7273   0.311   2.731  17.071  0.4704  0.0406 -0.0292
  489TMC3     O 7274   0.286   2.611  17.068 -0.0920  0.3296 -0.1117
  489TMC3     H 7275   0.335   2.988  17.157  3.1319  1.8306 -0.4324
  489TMC3    H1 7276   0.399   2.574  17.266  0.7018 -0.3176 -0.5507
  489TMC3    H2 7277   0.602   2.883  17.470  1.5728  2.7024 -2.9756
  489TMC3    C7 7278   0.584   2.627  17.446 -0.0700  0.0858  0.5125
  489TMC3    C8 7279   0.491   3.087  17.339 -0.0442  0.3111 -0.6652
  489TMC3    O1 7280   0.701   2.659  17.464 -0.1044  0.2662  0.4509
  489TMC3    O2 7281   0.486   3.129  17.454  0.1409 -0.0384  0.2967
  490MPD2     C 7282   1.952   1.942   0.009  0.1469  0.4114 -0.8560
  490MPD2    C1 7283   1.850   2.024   0.042  0.1588 -0.5069  0.5975
  490MPD2    C2 7284   1.856   2.096   0.162  0.5229 -0.6931  0.3604
  490MPD2    C3 7285   1.960   2.068   0.250 -0.1066  0.0755 -0.3164
  490MPD2    C4 7286   2.061   1.977   0.213 -0.7300 -0.5929 -0.4758
  490MPD2    C5 7287   2.057   1.913   0.093  0.3681  0.2103 -0.5160
  490MPD2     H 7288   1.773   2.162   0.184 -0.0208 -1.8927  1.8839
  490MPD2    H1 7289   2.135   1.944   0.285 -2.2320 -2.0947  0.3642
  490MPD2    H2 7290   1.953   1.915  17.588  0.1423  0.0230 -0.7552
  490MPD2    H3 7291   2.147   1.860   0.062  0.3792 -0.2746  0.3583
  490MPD2     N 7292   1.965   2.134   0.381  0.0619  0.0875 -0.0316
  490MPD2    H5 7293   2.028   2.095   0.450  0.1022 -0.5325 -0.4154
  490MPD2    N1 7294   1.723   2.038  17.652  0.2372 -0.1627  0.0095
  490MPD2    H7 7295   1.647   2.091   0.008 -0.1623  1.9154 -3.5132
  491TMC3    C1 7296   1.553   1.996  17.515  0.0958 -0.1450 -0.3942
  491TMC3    C2 7297   1.510   2.124  17.554  0.5878 -0.2874  0.1151
  491TMC3    C3 7298   1.377   2.129  17.584 -0.2002 -0.2978  0.5091
  491TMC3    C4 7299   1.473   1.892  17.492 -0.1325 -0.1564 -0.5688
  491TMC3    C5 7300   1.342   1.900  17.541 -0.2506 -0.6753  0.2885
  491TMC3    C6 7301   1.291   2.022  17.578  0.4456  0.1001 -0.2271
  491TMC3     C 7302   1.687   1.963  17.541  0.8591 -0.8094  0.3775
  491TMC3     O 7303   1.748   1.870  17.486  0.7985 -0.1091  0.1207
  491TMC3     H 7304   1.579   2.208  17.555  2.0122 -1.4789  1.2233
  491TMC3    H1 7305   1.516   1.797  17.461  0.2715 -0.2722  0.3541
  491TMC3    H2 7306   1.189   2.029  17.614  0.3090 -0.4830 -0.4990
  491TMC3    C7 7307   1.240   1.803  17.502  0.5009 -0.4010  0.2349
  491TMC3    C8 7308   1.323   2.238  17.656  0.5015 -0.0063 -0.3339
  491TMC3    O1 7309   1.140   1.858  17.458 -0.9067  0.1025 -0.3981
  491TMC3    O2 7310   1.244   2.220   0.064  0.7402  0.5134  0.4740
  492MPD2     C 7311   0.757   2.386  10.919 -0.4431 -0.1484 -0.1113
  492MPD2    C1 7312   0.676   2.278  10.909  1.0416  0.2866 -0.5188
  492MPD2    C2 7313   0.681   2.182  11.011  0.3027 -0.4895 -0.9247
  492MPD2    C3 7314   0.761   2.196  11.123 -0.0675 -0.3880 -0.3121
  492MPD2    C4 7315   0.849   2.302  11.125  1.3301  0.1377 -0.5388
  492MPD2    C5 7316   0.839   2.399  11.024 -0.5551  0.3536 -0.1652
  492MPD2     H 7317   0.637   2.084  10.993 -1.1555 -0.3827  2.0791
  492MPD2    H1 7318   0.914   2.312  11.211 -0.5134 -0.6805  0.9486
  492MPD2    H2 7319   0.758   2.464  10.843  1.5359 -1.3643 -1.3141
  492MPD2    H3 7320   0.906   2.483  11.031 -2.2253  1.7678 -1.1284
  492MPD2     N 7321   0.761   2.102  11.231 -0.5265  0.0635 -0.2856
  492MPD2    H5 7322   0.832   2.128  11.299  0.8329 -1.5811 -1.0562
  492MPD2    N1 7323   0.593   2.268  10.798 -0.6700  0.0506 -0.7654
  492MPD2    H7 7324   0.620   2.332  10.724 -0.5926 -0.1802 -0.9365
  493TMC3    C1 7325   0.469   2.140  10.646 -0.1779  0.5912  0.1374
  493TMC3    C2 7326   0.461   2.245  10.560  0.0739 -0.1825  0.5195
  493TMC3    C3 7327   0.392   2.224  10.440  0.2613  0.0360 -0.1820
  493TMC3    C4 7328   0.405   2.023  10.620 -0.3364 -0.8134  0.6664
  493TMC3    C5 7329   0.350   2.003  10.501  0.2657 -0.8584 -0.1993
  493TMC3    C6 7330   0.347   2.102  10.409  0.3546  0.2288 -0.5438
  493TMC3     C 7331   0.502   2.170  10.783  0.1914  0.1478  0.3512
  493TMC3     O 7332   0.453   2.094  10.869 -0.1111  0.3781  0.5507
  493TMC3     H 7333   0.497   2.343  10.590  1.7393 -1.4430  2.5888
  493TMC3    H1 7334   0.420   1.938  10.686 -0.2013  0.6648  2.5636
  493TMC3    H2 7335   0.294   2.085  10.316 -1.1656 -0.7741  0.5096
  493TMC3    C7 7336   0.283   1.885  10.465 -0.1217 -0.1532 -0.0151
  493TMC3    C8 7337   0.416   2.305  10.319 -0.0756 -0.1919 -0.2289
  493TMC3    O1 7338   0.300   1.841  10.350 -0.0086  0.5566 -0.8687
  493TMC3    O2 7339   0.386   2.247  10.216 -0.5244  0.0211  0.2117
  494TMC3    C1 7340   2.129   3.587   0.633  0.2547 -0.3121  0.5693
  494TMC3    C2 7341   2.197   3.483   0.582  0.3701  0.1947  0.5172
  494TMC3    C3 7342   2.207   3.472   0.445  0.2857 -0.4880 -0.6556
  494TMC3    C4 7343   2.066   3.682   0.557 -0.9616  0.2210 -0.6703
  494TMC3    C5 7344   2.089   3.672   0.424  0.1744  0.2836 -0.4990
  494TMC3    C6 7345   2.153   3.568   0.365 -0.3312  0.0670 -0.2054
  494TMC3     C 7346   2.130   3.596   0.776  0.4390 -0.6801  0.3178
  494TMC3     O 7347   2.129   3.494   0.839 -0.4417  0.1424 -0.1659
  494TMC3     H 7348   2.244   3.409   0.647  0.6074  2.3487  2.8002
  494TMC3    H1 7349   2.001   3.757   0.601  1.1402  2.0234 -0.6418
  494TMC3    H2 7350   2.158   3.555   0.258 -0.0101  1.1874 -0.3207
  494TMC3    C7 7351   2.070   3.777   0.333 -0.5020 -0.2482 -0.1363
  494TMC3    C8 7352   2.267   3.351   0.398 -0.5093 -0.1565 -0.0051
  494TMC3    O1 7353   2.158   3.789   0.246 -0.3369 -0.1709 -0.4392
  494TMC3    O2 7354   2.318   3.275   0.478  0.4963 -0.8387 -0.3339
  495TMC3    C1 7355   0.756   0.914  14.846 -0.0421  0.4142  0.2241
  495TMC3    C2 7356   0.674   0.924  14.736  0.3358 -0.7538  0.5059
  495TMC3    C3 7357   0.601   1.039  14.736 -0.0424  0.0467  0.2566
  495TMC3    C4 7358   0.766   1.002  14.950  0.0532 -0.7807  1.0316
  495TMC3    C5 7359   0.702   1.118  14.934  0.2044 -0.0690 -0.1461
  495TMC3    C6 7360   0.606   1.134  14.840  0.1148 -0.1791 -0.6705
  495TMC3     C 7361   0.822   0.791  14.872 -0.3234  0.3958 -0.1975
  495TMC3     O 7362   0.888   0.786  14.973 -0.8018  0.1550  0.2543
  495TMC3     H 7363   0.677   0.857  14.651 -1.0437  2.2224 -1.8634
  495TMC3    H1 7364   0.843   0.995  15.026  0.6334 -1.8458  0.3363
  495TMC3    H2 7365   0.568   1.234  14.825 -2.0644 -0.6730  1.5281
  495TMC3    C7 7366   0.692   1.202  15.052  0.0136  0.5198  0.0037
  495TMC3    C8 7367   0.487   1.054  14.642 -0.2446  0.1546 -0.0293
  495TMC3    O1 7368   0.794   1.222  15.118 -0.3557  0.4004  0.0636
  495TMC3    O2 7369   0.408   1.148  14.668  0.4779 -0.1133  0.1812
  496MPD2     C 7370   2.541   1.201  15.562 -0.5178  0.1011 -0.3202
  496MPD2    C1 7371   2.616   1.113  15.628  0.6517  0.1859  0.0858
  496MPD2    C2 7372   2.594   1.083  15.760 -0.0445 -0.0709 -0.6026
  496MPD2    C3 7373   2.474   1.108  15.815  0.2278 -0.4872 -0.4664
  496MPD2    C4 7374   2.380   1.172  15.744  0.0819 -0.3940 -0.3749
  496MPD2    C5 7375   2.414   1.226  15.618 -0.1870  0.3619  0.1615
  496MPD2     H 7376   2.657   1.003  15.800  1.5446 -1.1467 -5.2618
  496MPD2    H1 7377   2.292   1.202  15.799  0.3285  1.2337 -0.8650
  496MPD2    H2 7378   2.561   1.229  15.459 -0.4262 -1.8174 -0.8160
  496MPD2    H3 7379   2.339   1.291  15.573 -1.3506 -1.2687 -0.2642
  496MPD2     N 7380   2.448   1.058  15.947  0.4804 -0.4615  0.5191
  496MPD2    H5 7381   2.351   1.067  15.976  0.5063  0.0318  0.4441
  496MPD2    N1 7382   2.733   1.073  15.554  0.0686 -0.0577 -0.2426
  496MPD2    H7 7383   2.735   1.080  15.453  1.1358  0.4064 -0.1917
  497TMC3    C1 7384   2.475   0.976  16.169  0.3524 -0.7601  0.1248
  497TMC3    C2 7385   2.339   0.955  16.177 -0.0216 -0.7023 -0.0357
  497TMC3    C3 7386   2.286   0.933  16.303  0.6297 -0.3558 -0.4420
  497TMC3    C4 7387   2.551   0.985  16.286 -0.3956 -0.6678 -0.3793
  497TMC3    C5 7388   2.485   0.968  16.409 -0.6703 -0.5937 -0.1558
  497TMC3    C6 7389   2.349   0.938  16.421 -0.1209 -0.7688  0.2556
  497TMC3     C 7390   2.537   1.005  16.039 -0.4022 -0.1367  0.5398
  497TMC3     O 7391   2.659   1.012  16.041 -0.7906 -0.4313  0.5222
  497TMC3     H 7392   2.278   0.943  16.088 -1.3511  1.7054  0.5557
  497TMC3    H1 7393   2.659   0.990  16.284 -0.3956  0.1882  1.4893
  497TMC3    H2 7394   2.298   0.913  16.513  1.1460  1.4144  1.5683
  497TMC3    C7 7395   2.553   0.947  16.539  0.6005  0.4754 -0.8373
  497TMC3    C8 7396   2.143   0.922  16.309  0.4899 -0.2676 -0.0664
  497TMC3    O1 7397   2.485   0.896  16.625  0.7190 -0.3523  0.3654
  497TMC3    O2 7398   2.091   0.977  16.407  0.1516  1.0410  0.0358
  498MPD2     C 7399   3.294   0.718  10.130  0.1956  0.2566  0.2377
  498MPD2    C1 7400   3.251   0.826  10.050 -0.3843  0.6595 -0.5134
  498MPD2    C2 7401   3.123   0.870  10.061  0.2673  0.0911  0.3915
  498MPD2    C3 7402   3.034   0.800  10.137 -0.2882  0.1328  0.8298
  498MPD2    C4 7403   3.079   0.696  10.206 -0.4468  0.3468  0.3118
  498MPD2    C5 7404   3.205   0.653  10.211 -0.0513 -0.2014 -0.3442
  498MPD2     H 7405   3.100   0.965  10.015  1.5785  0.6478  0.8707
  498MPD2    H1 7406   3.013   0.642  10.272  0.2769 -1.1569 -0.1979
  498MPD2    H2 7407   3.391   0.671  10.124 -0.0331  0.1187 -2.2104
  498MPD2    H3 7408   3.241   0.580  10.282 -0.7378 -1.2711 -1.0996
  498MPD2     N 7409   2.902   0.856  10.155 -0.4268  1.0766 -0.4527
  498MPD2    H5 7410   2.880   0.925  10.083 -3.1349  0.8840  0.1665
  498MPD2    N1 7411   3.337   0.897   9.958  0.1267  0.0573  0.4870
  498MPD2    H7 7412   3.296   0.971   9.903 -1.4245 -0.0793  1.4661
  499TMC3    C1 7413   3.540   0.979   9.881 -0.1315  0.1299  0.1780
  499TMC3    C2 7414   3.667   0.949   9.831 -0.0645 -0.0437 -0.1300
  499TMC3    C3 7415   3.717   1.044   9.750  0.2751 -0.2061  0.5186
  499TMC3    C4 7416   3.470   1.103   9.856 -0.1711  0.2408 -0.1492
  499TMC3    C5 7417   3.525   1.186   9.760  0.0208  0.4359 -0.6037
  499TMC3    C6 7418   3.649   1.157   9.701 -0.1747  0.6701  0.0527
  499TMC3     C 7419   3.471   0.877   9.950  0.1036  0.3185  0.2430
  499TMC3     O 7420   3.537   0.792  10.011 -0.2223  0.2622 -0.2282
  499TMC3     H 7421   3.727   0.862   9.853 -3.1353 -1.8035  1.1748
  499TMC3    H1 7422   3.371   1.138   9.883 -0.8142 -2.4216  1.0351
  499TMC3    H2 7423   3.692   1.224   9.627 -0.0689 -0.8201 -1.2384
  499TMC3    C7 7424   3.465   1.310   9.726 -0.1052  0.6656 -0.0735
  499TMC3    C8 7425   3.858   1.059   9.723  0.5011 -1.0370 -0.0840
  499TMC3    O1 7426   3.540   1.374   9.654  0.0873  0.1156  0.4140
  499TMC3    O2 7427   3.900   1.127   9.631 -0.7811 -0.0301  0.0446
  500MPD2     C 7428   4.340   3.546  10.013  0.0691  0.0186 -0.3929
  500MPD2    C1 7429   4.381   3.465  10.116  0.3339 -0.4544 -0.2249
  500MPD2    C2 7430   4.298   3.366  10.157  0.7264 -0.1231  0.0433
  500MPD2    C3 7431   4.185   3.331  10.090 -0.0530 -0.1255  0.6350
  500MPD2    C4 7432   4.132   3.415   9.994  0.0632  0.0961  0.5564
  500MPD2    C5 7433   4.209   3.524   9.958 -0.0472  1.2569 -0.0454
  500MPD2     H 7434   4.335   3.294  10.229 -1.5048 -0.8204  0.4752
  500MPD2    H1 7435   4.041   3.391   9.942 -1.1224  4.3406  0.6851
  500MPD2    H2 7436   4.402   3.629   9.981  0.2593  0.2334  0.5314
  500MPD2    H3 7437   4.178   3.580   9.871 -0.5235  2.3160  0.8109
  500MPD2     N 7438   4.113   3.216  10.110  0.6008 -0.4299  0.4087
  500MPD2    H5 7439   4.036   3.203  10.045 -1.0419  0.1181  2.2440
  500MPD2    N1 7440   4.520   3.470  10.165  0.3422  0.3694  0.0652
  500MPD2    H7 7441   4.538   3.414  10.248  1.2788 -1.8073 -1.5942
  501TMC3    C1 7442   0.013   3.560  10.210  0.1653 -0.4017 -0.5710
  501TMC3    C2 7443   0.116   3.616  10.142 -0.2636 -0.4889 -0.0903
  501TMC3    C3 7444   0.236   3.559  10.176 -0.0712 -0.5224 -0.1021
  501TMC3    C4 7445   0.026   3.458  10.302  0.4863  0.1241  0.2513
  501TMC3    C5 7446   0.145   3.403  10.333 -1.3153 -0.5031  0.7017
  501TMC3    C6 7447   0.255   3.452  10.263  0.1412  0.7156  0.0137
  501TMC3     C 7448   4.612   3.563  10.132  0.3186  0.0410  0.5768
  501TMC3     O 7449   4.609   3.645  10.047  0.0666 -0.2757  0.1855
  501TMC3     H 7450   0.110   3.694  10.067 -2.2661  0.9747  1.5668
  501TMC3    H1 7451   4.655   3.428  10.351 -0.9484  0.1675 -2.4046
  501TMC3    H2 7452   0.352   3.407  10.279 -0.2866 -0.6900 -1.2897
  501TMC3    C7 7453   0.174   3.403  10.471 -0.2981 -0.9508  0.3788
  501TMC3    C8 7454   0.341   3.652  10.204  0.0035 -0.4521  0.0372
  501TMC3    O1 7455   0.127   3.311  10.537 -0.7027 -0.0611  0.8522
  501TMC3    O2 7456   0.424   3.603  10.281 -0.7272 -0.3710 -0.1173
  502TMC3    C1 7457   0.254   2.155  15.245 -0.6271  0.1277 -0.9664
  502TMC3    C2 7458   0.230   2.242  15.147  0.6417  0.7727  0.0332
  502TMC3    C3 7459   0.112   2.237  15.078 -0.8376  0.4425 -0.3436
  502TMC3    C4 7460   0.155   2.058  15.276 -0.2486  0.2624  0.0541
  502TMC3    C5 7461   0.032   2.074  15.215  0.0009  0.0447  0.4469
  502TMC3    C6 7462   0.008   2.159  15.114  0.3339  0.2584 -0.1746
  502TMC3     C 7463   0.357   2.190  15.335  0.4583 -0.1508  0.1457
  502TMC3     O 7464   0.446   2.266  15.299  0.4823  1.0936  0.2981
  502TMC3     H 7465   0.311   2.303  15.109 -0.2728  2.0972  0.2096
  502TMC3    H1 7466   0.165   1.989  15.359  1.1490  2.7166  1.9175
  502TMC3    H2 7467   4.627   2.174  15.079  0.7998 -0.1056 -1.6644
  502TMC3    C7 7468   4.652   1.977  15.265 -0.1522  0.3653  0.4371
  502TMC3    C8 7469   0.112   2.273  14.939  0.4349  0.3157 -0.1127
  502TMC3    O1 7470   4.701   1.879  15.318 -0.1865  0.7354  0.2682
  502TMC3    O2 7471   0.191   2.356  14.890  0.1727 -0.3065 -1.2453
  503MPD2     C 7472   2.156   2.304  17.422 -0.6783  0.2027  0.0180
  503MPD2    C1 7473   2.293   2.319  17.416  0.7630 -0.1985  0.1894
  503MPD2    C2 7474   2.375   2.211  17.399 -0.2067  1.1009 -0.1928
  503MPD2    C3 7475   2.317   2.082  17.399 -0.2190  0.3765 -0.0084
  503MPD2    C4 7476   2.176   2.071  17.424  0.3405  0.0959 -0.1493
  503MPD2    C5 7477   2.103   2.183  17.437  1.2697  0.3754  0.8785
  503MPD2     H 7478   2.480   2.226  17.376 -0.4383  1.4623 -1.0193
  503MPD2    H1 7479   2.131   1.975  17.441 -0.0357 -0.0334 -1.8735
  503MPD2    H2 7480   2.091   2.391  17.414  1.1080  1.3549 -1.9159
  503MPD2    H3 7481   1.997   2.170  17.456  1.2988 -0.0914  0.7154
  503MPD2     N 7482   2.402   1.973  17.372  0.3121 -0.3520 -0.6325
  503MPD2    H5 7483   2.500   1.998  17.380 -0.0366  0.8929 -0.2989
  503MPD2    N1 7484   2.356   2.440  17.440 -0.4444  0.1542  1.0296
  503MPD2    H7 7485   2.457   2.432  17.445 -0.5421 -0.4709  2.1049
  504TMC3    C1 7486   2.479   1.750  17.370 -0.0695 -0.0480 -0.4769
  504TMC3    C2 7487   2.464   1.627  17.431  0.9173  0.3412  0.1613
  504TMC3    C3 7488   2.556   1.531  17.423 -0.6165 -0.1502  0.3985
  504TMC3    C4 7489   2.594   1.768  17.295 -0.5407 -0.2038  0.3552
  504TMC3    C5 7490   2.690   1.671  17.284  0.1002 -0.1574 -0.1289
  504TMC3    C6 7491   2.667   1.546  17.343  0.1657  0.8454 -0.3965
  504TMC3     C 7492   2.367   1.839  17.360  0.0017 -0.1205  0.3995
  504TMC3     O 7493   2.256   1.794  17.375  0.5627 -0.3516 -0.2779
  504TMC3     H 7494   2.371   1.613  17.485 -0.4310  5.0907 -0.9569
  504TMC3    H1 7495   2.616   1.867  17.256 -1.1177 -0.6327 -1.0512
  504TMC3    H2 7496   2.741   1.467  17.339  0.1583  0.8539 -0.7019
  504TMC3    C7 7497   2.812   1.697  17.210 -0.7621 -0.2856 -0.4927
  504TMC3    C8 7498   2.523   1.406  17.486  0.0848 -0.1923  0.7142
  504TMC3    O1 7499   2.815   1.810  17.164 -0.7222 -0.4028 -0.0855
  504TMC3    O2 7500   2.514   1.299  17.426 -0.1550 -0.0182 -0.1727
  505MPD2     C 7501   1.712   1.746   9.805 -0.0621  0.1117 -0.2887
  505MPD2    C1 7502   1.782   1.780   9.921  0.0574 -0.2855 -0.3670
  505MPD2    C2 7503   1.907   1.843   9.913  0.3916 -0.5476  0.6936
  505MPD2    C3 7504   1.965   1.872   9.789 -0.1402  1.0086  0.9436
  505MPD2    C4 7505   1.898   1.833   9.670  0.0397 -0.2735 -0.3895
  505MPD2    C5 7506   1.773   1.772   9.686  0.5411 -0.2169 -0.1129
  505MPD2     H 7507   1.954   1.877  10.005 -0.4178 -0.4374  1.0639
  505MPD2    H1 7508   1.930   1.847   9.568 -2.1116 -2.1188 -1.3178
  505MPD2    H2 7509   1.615   1.701   9.821 -0.3700  1.4690  1.7038
  505MPD2    H3 7510   1.721   1.738   9.597  0.1392  0.4101 -0.1209
  505MPD2     N 7511   2.096   1.925   9.796  0.6875  0.0191  0.2009
  505MPD2    H5 7512   2.144   1.933   9.885  0.3097 -2.7895  0.6480
  505MPD2    N1 7513   1.730   1.734  10.045  0.3986 -0.0923  0.2749
  505MPD2    H7 7514   1.660   1.661  10.035 -0.9799  1.1783  0.6497
  506TMC3    C1 7515   1.717   1.715  10.286  0.2280  0.5407  0.2275
  506TMC3    C2 7516   1.722   1.580  10.276  0.6106 -0.5318 -0.1508
  506TMC3    C3 7517   1.773   1.519  10.379  0.2419  0.7836 -0.4040
  506TMC3    C4 7518   1.759   1.784  10.394 -0.3547  0.5004 -0.4673
  506TMC3    C5 7519   1.808   1.713  10.503  0.6985  1.0567  0.0272
  506TMC3    C6 7520   1.820   1.576  10.493  0.9459 -0.0368  0.1561
  506TMC3     C 7521   1.773   1.784  10.173  0.1603  0.4874  0.2595
  506TMC3     O 7522   1.836   1.881  10.205 -0.0104  0.0556 -0.3605
  506TMC3     H 7523   1.702   1.531  10.181  0.5955  0.4628 -0.6604
  506TMC3    H1 7524   1.752   1.893  10.394  1.0322  0.5937 -1.4555
  506TMC3    H2 7525   1.880   1.516  10.561  0.3820 -0.0037  0.6761
  506TMC3    C7 7526   1.931   1.778  10.546 -0.0344  0.4936 -0.9580
  506TMC3    C8 7527   1.780   1.374  10.370 -0.0168 -0.6470  0.0633
  506TMC3    O1 7528   1.987   1.719  10.640  0.5590 -0.1244 -0.2412
  506TMC3    O2 7529   1.689   1.323  10.311 -0.1446 -0.0596  0.1385
  507TMC3    C1 7530   3.396   2.365  14.993 -0.0541 -0.4103  0.1178
  507TMC3    C2 7531   3.295   2.269  14.981 -0.2021 -0.9240  0.2033
  507TMC3    C3 7532   3.221   2.262  14.869 -0.3143 -0.0168  0.9371
  507TMC3    C4 7533   3.416   2.464  14.895 -0.1188 -0.0559 -0.3409
  507TMC3    C5 7534   3.344   2.455  14.782 -0.3663 -0.2774 -0.4358
  507TMC3    C6 7535   3.250   2.349  14.771  0.3785  0.1843  0.1145
  507TMC3     C 7536   3.437   2.400  15.120  0.5574 -0.0177 -0.2946
  507TMC3     O 7537   3.537   2.469  15.138  0.0521  0.2772 -0.2228
  507TMC3     H 7538   3.293   2.191  15.056 -3.3142 -0.7064  0.3462
  507TMC3    H1 7539   3.476   2.547  14.932  0.3980 -1.0385  1.0366
  507TMC3    H2 7540   3.201   2.340  14.675  0.8625 -2.7361  0.1399
  507TMC3    C7 7541   3.288   2.576  14.730 -0.2211 -0.3720 -0.8014
  507TMC3    C8 7542   3.081   2.256  14.908  0.1137 -0.7885  0.3058
  507TMC3    O1 7543   3.173   2.560  14.687  0.1213 -0.0346  0.7863
  507TMC3    O2 7544   3.055   2.200  15.014 -0.0871 -0.3903  0.0333
  508MPD2     C 7545   4.331   4.304  15.811 -0.8306  0.1568 -0.0761
  508MPD2    C1 7546   4.313   4.398  15.911  0.0753 -0.0895  0.0218
  508MPD2    C2 7547   4.258   4.523  15.876  0.4610 -0.4581  0.5476
  508MPD2    C3 7548   4.217   4.557  15.755  0.3676  0.9653  0.0928
  508MPD2    C4 7549   4.238   4.458  15.657 -0.3668  0.0051 -0.0918
  508MPD2    C5 7550   4.303   4.343  15.683  0.8240 -0.1895  0.3247
  508MPD2     H 7551   4.247   4.593  15.958  1.0926  1.6812 -1.2373
  508MPD2    H1 7552   4.213   4.473  15.552 -0.6297  0.3685  0.0205
  508MPD2    H2 7553   4.380   4.209  15.825 -0.7608 -0.0506 -1.7512
  508MPD2    H3 7554   4.312   4.264  15.610 -1.6191 -0.5329  0.4008
  508MPD2     N 7555   4.172   4.689  15.739 -0.3634  0.3485  0.5016
  508MPD2    H5 7556   4.177   0.023  15.825  0.0799  1.7784 -0.4180
  508MPD2    N1 7557   4.338   4.353  16.038  0.6853  0.2558 -0.0850
  508MPD2    H7 7558   4.376   4.259  16.046 -1.9782 -0.8229 -0.1264
  509TMC3    C1 7559   3.999   0.363  15.696 -0.5210 -0.3290 -0.5622
  509TMC3    C2 7560   4.051   0.445  15.596 -0.1950 -0.2274 -0.0834
  509TMC3    C3 7561   4.119   0.372  15.494  0.3656 -0.3259  0.3098
  509TMC3    C4 7562   4.035   0.229  15.713  0.0889  0.2810  0.9969
  509TMC3    C5 7563   4.109   0.171  15.619  0.2861  0.2275 -0.6892
  509TMC3    C6 7564   4.149   0.239  15.509  0.9003 -0.2362 -1.1552
  509TMC3     C 7565   3.902   0.424  15.783 -0.3665  0.5369 -0.6706
  509TMC3     O 7566   3.891   0.376  15.899 -0.1182 -0.0473 -0.7748
  509TMC3     H 7567   4.029   0.550  15.579  0.3478 -0.3880 -1.7836
  509TMC3    H1 7568   4.007   0.173  15.802  0.2557 -3.5076 -1.3191
  509TMC3    H2 7569   4.206   0.196  15.427 -1.4231 -1.0407 -2.3462
  509TMC3    C7 7570   4.140   0.030  15.620 -0.4370  0.0168 -0.2769
  509TMC3    C8 7571   4.222   0.447  15.435  0.1074 -0.3559 -0.4441
  509TMC3    O1 7572   4.149   4.700  15.512 -0.3616  0.5861 -0.5811
  509TMC3    O2 7573   4.221   0.457  15.315  0.2211  0.0763  0.2446
  510MPD2     C 7574   2.116   1.653  14.210 -0.6292 -0.0574 -0.2370
  510MPD2    C1 7575   2.191   1.635  14.323 -0.6969 -0.2675 -0.4562
  510MPD2    C2 7576   2.325   1.616  14.314 -0.4109 -0.0675  0.0003
  510MPD2    C3 7577   2.387   1.615  14.186 -0.1491  0.3002  0.1321
  510MPD2    C4 7578   2.313   1.649  14.075  0.5307 -0.0096  0.7025
  510MPD2    C5 7579   2.179   1.658  14.090  0.3973 -0.3120 -0.1623
  510MPD2     H 7580   2.387   1.579  14.395  2.1736  0.8167 -1.5864
  510MPD2    H1 7581   2.350   1.662  13.974 -1.4639 -0.0148 -0.0156
  510MPD2    H2 7582   2.010   1.665  14.226 -0.6283 -0.7310  0.2957
  510MPD2    H3 7583   2.121   1.659  13.998  0.6967 -0.1341 -0.3520
  510MPD2     N 7584   2.527   1.572  14.176 -0.1206  0.1093 -0.3720
  510MPD2    H5 7585   2.570   1.549  14.265 -2.1363 -1.1368  0.2841
  510MPD2    N1 7586   2.114   1.604  14.439 -0.5181  0.0510 -0.3077
  510MPD2    H7 7587   2.013   1.597  14.440 -0.5338  0.2552 -0.9542
  511TMC3    C1 7588   2.080   1.529  14.656 -0.9232 -0.2811 -0.2073
  511TMC3    C2 7589   2.078   1.583  14.784 -0.4426 -0.1179 -0.7470
  511TMC3    C3 7590   1.973   1.544  14.861  0.1151  0.8202 -0.4869
  511TMC3    C4 7591   1.979   1.456  14.601  0.3459 -0.1737  0.1849
  511TMC3    C5 7592   1.874   1.427  14.684  0.2503 -0.7722 -0.6413
  511TMC3    C6 7593   1.867   1.469  14.814  0.7817  0.2688  0.5890
  511TMC3     C 7594   2.174   1.587  14.565 -0.6617  0.4012 -0.6191
  511TMC3     O 7595   2.285   1.594  14.613  0.4224  0.0252 -0.2335
  511TMC3     H 7596   2.136   1.666  14.823 -0.6034 -0.7098  0.7654
  511TMC3    H1 7597   1.982   1.412  14.502  0.9672 -1.3410  0.7207
  511TMC3    H2 7598   1.784   1.440  14.878  1.0407 -2.9337 -0.5444
  511TMC3    C7 7599   1.795   1.306  14.647 -0.8007 -0.1824 -0.1574
  511TMC3    C8 7600   1.965   1.573  15.005  0.2722 -0.2702  0.7007
  511TMC3    O1 7601   1.739   1.314  14.541  0.0906  0.0485  0.0205
  511TMC3    O2 7602   1.853   1.570  15.052  0.5260  0.0100 -0.1407
  512TMC3    C1 7603   0.701   0.653  13.312 -0.0843 -0.2255 -0.0827
  512TMC3    C2 7604   0.817   0.637  13.377 -0.5257  0.2523 -0.0770
  512TMC3    C3 7605   0.899   0.530  13.348  0.1390 -0.2900  0.3940
  512TMC3    C4 7606   0.666   0.570  13.209 -0.5200 -0.5907 -0.2304
  512TMC3    C5 7607   0.751   0.477  13.174 -0.7922  0.5937  0.1104
  512TMC3    C6 7608   0.867   0.447  13.242 -0.3770 -0.5277 -0.2575
  512TMC3     C 7609   0.633   0.781  13.321 -0.3339  0.0216 -0.1636
  512TMC3     O 7610   0.689   0.878  13.368  0.0604 -0.1151  0.3221
  512TMC3     H 7611   0.831   0.707  13.459  2.1931 -1.3626  0.8186
  512TMC3    H1 7612   0.576   0.567  13.148  0.3371 -1.2497 -1.4773
  512TMC3    H2 7613   0.948   0.395  13.191  0.7564  0.2767  0.7440
  512TMC3    C7 7614   0.708   0.373  13.077 -0.1128 -0.3600 -0.5608
  512TMC3    C8 7615   0.988   0.475  13.444  0.8141  0.6828  0.7100
  512TMC3    O1 7616   0.649   0.426  12.984 -0.1570  0.1779  0.2155
  512TMC3    O2 7617   1.012   0.354  13.437 -0.2233 -0.0646 -0.2403
  513MPD2     C 7618   2.528   0.756  13.882  0.1080  0.1725 -0.1034
  513MPD2    C1 7619   2.567   0.730  13.756  0.3300  0.2492 -0.5705
  513MPD2    C2 7620   2.702   0.701  13.730 -0.1953  0.4475  0.5033
  513MPD2    C3 7621   2.797   0.702  13.830  0.6589 -0.4293 -0.6949
  513MPD2    C4 7622   2.753   0.716  13.959  0.0823  0.2253 -0.3869
  513MPD2    C5 7623   2.621   0.740  13.985  0.6048  0.1372  0.1604
  513MPD2     H 7624   2.738   0.663  13.635  0.8376  1.2982  0.5537
  513MPD2    H1 7625   2.824   0.709  14.041  0.3253  2.3124 -0.4258
  513MPD2    H2 7626   2.425   0.776  13.908  0.2526 -1.6187  1.7642
  513MPD2    H3 7627   2.586   0.757  14.086  0.6508 -1.1847  0.3974
  513MPD2     N 7628   2.933   0.673  13.793 -0.1127 -0.2667 -0.2508
  513MPD2    H5 7629   2.952   0.641  13.699 -0.9520 -0.0050 -0.5111
  513MPD2    N1 7630   2.466   0.701  13.668 -0.1758 -0.2307  0.1717
  513MPD2    H7 7631   2.379   0.662  13.703 -0.9540  0.2807 -1.1815
  514TMC3    C1 7632   2.400   0.606  13.464 -0.1252 -0.4980 -0.2779
  514TMC3    C2 7633   2.338   0.636  13.343  0.6182  0.1722 -0.6124
  514TMC3    C3 7634   2.281   0.533  13.283  0.4842  0.1538 -0.2942
  514TMC3    C4 7635   2.409   0.471  13.506 -0.5095 -0.6064 -0.1970
  514TMC3    C5 7636   2.364   0.372  13.426  0.0883 -0.1511 -0.0902
  514TMC3    C6 7637   2.295   0.400  13.317  0.9244  0.0822  0.1489
  514TMC3     C 7638   2.481   0.704  13.527  0.1847  0.1197 -0.2979
  514TMC3     O 7639   2.575   0.751  13.468  0.2845  0.1946 -0.0933
  514TMC3     H 7640   2.351   0.732  13.294  0.4465  1.8835  2.6709
  514TMC3    H1 7641   2.454   0.442  13.600  0.9462 -1.2187 -1.0895
  514TMC3    H2 7642   2.244   0.321  13.264  2.6443 -0.4653 -0.6986
  514TMC3    C7 7643   2.455   0.267  13.389  0.0423  0.7350 -0.0772
  514TMC3    C8 7644   2.258   0.550  13.138 -0.0570 -0.0367 -1.4115
  514TMC3    O1 7645   2.444   0.215  13.280 -0.2466 -0.3321 -0.1836
  514TMC3    O2 7646   2.207   0.655  13.103 -0.3538 -0.0108 -0.0137
  515MPD2     C 7647   0.790   2.881  15.015  0.2094 -0.2611  0.3444
  515MPD2    C1 7648   0.804   2.742  15.035 -0.1661  0.6512  0.1550
  515MPD2    C2 7649   0.898   2.694  15.122  0.1806 -0.7763  0.3875
  515MPD2    C3 7650   0.979   2.771  15.190 -0.4176  0.5065  0.0313
  515MPD2    C4 7651   0.959   2.908  15.172 -0.1096 -0.2566  0.2504
  515MPD2    C5 7652   0.868   2.963  15.090  0.3009  1.0628  0.1102
  515MPD2     H 7653   0.925   2.589  15.125  0.4768 -0.6077  3.1174
  515MPD2    H1 7654   1.024   2.984  15.215  0.3427  0.3541 -1.5153
  515MPD2    H2 7655   0.710   2.922  14.954 -0.1409 -0.9014  0.3793
  515MPD2    H3 7656   0.866   3.069  15.070 -1.3531  1.1052  0.4488
  515MPD2     N 7657   1.086   2.719  15.267 -0.0208  0.4500 -0.0820
  515MPD2    H5 7658   1.118   2.626  15.242 -2.1870 -0.6218  1.1774
  515MPD2    N1 7659   0.715   2.649  14.971 -0.0522  0.4761 -0.7820
  515MPD2    H7 7660   0.732   2.554  15.002 -0.1427  0.2328 -1.4752
  516TMC3    C1 7661   0.567   2.551  14.811 -0.1213 -0.7890  0.1550
  516TMC3    C2 7662   0.508   2.563  14.683  0.6940  0.1001 -0.6126
  516TMC3    C3 7663   0.464   2.449  14.622 -0.3735  0.4867 -0.8552
  516TMC3    C4 7664   0.589   2.428  14.873 -0.0700  0.4728 -0.2518
  516TMC3    C5 7665   0.549   2.318  14.803  0.1680  0.4371 -0.4441
  516TMC3    C6 7666   0.484   2.327  14.682 -0.2232  0.6273  0.0336
  516TMC3     C 7667   0.621   2.672  14.870 -0.8149  0.4509  0.1875
  516TMC3     O 7668   0.598   2.775  14.803  0.2687  0.2430 -0.4054
  516TMC3     H 7669   0.489   2.655  14.629  0.4010 -0.1775 -0.9842
  516TMC3    H1 7670   0.642   2.412  14.966 -2.0508 -0.8700  0.6646
  516TMC3    H2 7671   0.464   2.236  14.626 -2.3116  0.8855  0.3348
  516TMC3    C7 7672   0.542   2.196  14.885  0.6161  0.3474  0.6036
  516TMC3    C8 7673   0.408   2.442  14.490 -0.3988 -0.7751 -0.7576
  516TMC3    O1 7674   0.635   2.177  14.969  0.2901 -0.3330 -0.3371
  516TMC3    O2 7675   0.353   2.337  14.466 -0.9769  0.0435 -0.0279
  517MPD2     C 7676   0.762   3.688  17.623  0.4336  0.8469 -0.1675
  517MPD2    C1 7677   0.797   3.717  17.489 -0.3272 -0.2505  0.3731
  517MPD2    C2 7678   0.724   3.823  17.428  0.4311 -0.3310  0.1782
  517MPD2    C3 7679   0.616   3.879  17.499 -0.0985 -0.3574  0.0005
  517MPD2    C4 7680   0.583   3.835  17.622  0.0221  0.3460 -0.8694
  517MPD2    C5 7681   0.660   3.743  17.682  1.2671 -0.3448 -0.3913
  517MPD2     H 7682   0.729   3.837  17.321 -1.9494 -0.0492  0.1108
  517MPD2    H1 7683   0.497   3.875  17.673 -0.4150  1.1242 -2.2128
  517MPD2    H2 7684   0.818   3.618  17.684  1.3533  1.5966 -0.1374
  517MPD2    H3 7685   0.635   3.716   0.100  2.2307 -1.9059 -0.5718
  517MPD2     N 7686   0.546   3.979  17.426  0.9818 -0.0039 -0.0442
  517MPD2    H5 7687   0.593   4.010  17.341 -0.1713 -1.8844 -1.3821
  517MPD2    N1 7688   0.903   3.654  17.408  0.6053 -0.2115 -0.0986
  517MPD2    H7 7689   0.907   3.685  17.312  3.5660  1.1242  0.4460
  518TMC3    C1 7690   1.016   3.459  17.342 -0.5095 -0.7139  0.3422
  518TMC3    C2 7691   0.963   3.332  17.337  0.6895 -0.2684 -0.2250
  518TMC3    C3 7692   0.970   3.264  17.218  0.4072 -0.1265 -0.0457
  518TMC3    C4 7693   1.078   3.513  17.230  0.2630 -0.1446 -0.6128
  518TMC3    C5 7694   1.099   3.435  17.115  0.3405 -0.3867 -0.1652
  518TMC3    C6 7695   1.039   3.311  17.106 -0.6584  0.2424 -0.7191
  518TMC3     C 7696   0.972   3.541  17.453  0.0764 -0.1798  0.3156
  518TMC3     O 7697   0.964   3.478  17.559 -0.2721  0.2573 -0.5321
  518TMC3     H 7698   0.908   3.293  17.422  2.8053  1.4932  1.9633
  518TMC3    H1 7699   1.120   3.613  17.237 -0.6606  0.1117  1.3053
  518TMC3    H2 7700   1.039   3.266  17.008 -0.8031 -1.5804  0.1065
  518TMC3    C7 7701   1.219   3.446  17.038  0.1559  0.1665 -0.6880
  518TMC3    C8 7702   0.891   3.153  17.214 -0.6659 -0.1290  0.6970
  518TMC3    O1 7703   1.210   3.531  16.955  0.2443 -0.8840 -0.2192
  518TMC3    O2 7704   0.862   3.098  17.323 -0.4838 -0.1786 -0.3276
  519MPD2     C 7705   2.238   2.506  14.552 -0.0411  0.9224  0.0146
  519MPD2    C1 7706   2.183   2.502  14.426 -0.5677  0.0003  0.9745
  519MPD2    C2 7707   2.222   2.404  14.337  0.3680 -0.0154 -0.1944
  519MPD2    C3 7708   2.321   2.313  14.369  0.0439  0.2573 -0.0784
  519MPD2    C4 7709   2.386   2.330  14.494 -0.1323 -0.6178 -0.3047
  519MPD2    C5 7710   2.350   2.431  14.579  0.0800  0.2364  0.1879
  519MPD2     H 7711   2.158   2.392  14.251  0.7536  2.7152 -0.8479
  519MPD2    H1 7712   2.467   2.268  14.531 -0.2094 -0.4340  0.1616
  519MPD2    H2 7713   2.196   2.558  14.638 -0.4967  0.0987  0.2890
  519MPD2    H3 7714   2.382   2.424  14.683 -2.2367 -1.1431  0.8174
  519MPD2     N 7715   2.357   2.203  14.285  0.5879  0.1848  0.3300
  519MPD2    H5 7716   2.440   2.152  14.315  2.0037  1.7364 -0.8967
  519MPD2    N1 7717   2.068   2.575  14.406 -0.2574  0.2084 -0.1732
  519MPD2    H7 7718   2.020   2.621  14.483 -0.6116 -0.1981 -0.1504
  520TMC3    C1 7719   2.360   2.053  14.098 -1.3244 -0.0453  0.6958
  520TMC3    C2 7720   2.297   2.012  13.981  0.3385 -0.6023  0.4731
  520TMC3    C3 7721   2.373   1.942  13.890 -0.4812  0.4811  0.3081
  520TMC3    C4 7722   2.493   2.031  14.119  0.0857  0.0332  0.9318
  520TMC3    C5 7723   2.569   1.964  14.028 -0.1987 -1.2084  0.0758
  520TMC3    C6 7724   2.503   1.909  13.924 -0.1823 -0.7232  0.4363
  520TMC3     C 7725   2.297   2.173  14.162  0.4432  0.8711 -0.2019
  520TMC3     O 7726   2.211   2.230  14.097 -0.1914  0.3488 -0.5690
  520TMC3     H 7727   2.195   2.040  13.960 -0.2345 -1.5876  1.9966
  520TMC3    H1 7728   2.558   2.069  14.197  0.1874  0.6207  0.5637
  520TMC3    H2 7729   2.556   1.849  13.851 -1.1143 -2.2836  1.0630
  520TMC3    C7 7730   2.688   1.900  14.078 -1.2361  0.1462 -0.0504
  520TMC3    C8 7731   2.307   1.849  13.799 -0.5537 -0.4362 -0.1890
  520TMC3    O1 7732   2.700   1.883  14.198 -0.0489 -0.8825 -0.1085
  520TMC3    O2 7733   2.378   1.782  13.727  0.1113 -0.2990 -0.3386
  521MPD2     C 7734   3.179   4.494  17.491 -0.3286  0.1111 -0.5352
  521MPD2    C1 7735   3.153   4.609  17.418 -0.0709  0.0273 -0.6459
  521MPD2    C2 7736   3.251   4.667  17.347 -0.0649 -0.3681 -0.6277
  521MPD2    C3 7737   3.384   4.632  17.370 -0.2545 -0.4178 -0.1427
  521MPD2    C4 7738   3.413   4.523  17.453  0.4440  0.3105 -0.5887
  521MPD2    C5 7739   3.313   4.454  17.506 -0.6244 -0.0604  0.4552
  521MPD2     H 7740   3.238   0.030  17.279 -0.6317  0.2446  0.2377
  521MPD2    H1 7741   3.512   4.489  17.478  0.5938  1.8195  0.8590
  521MPD2    H2 7742   3.105   4.426  17.532  0.4127  0.3260  1.1418
  521MPD2    H3 7743   3.332   4.365  17.565 -2.6311  0.9553  2.6351
  521MPD2     N 7744   3.488   4.702  17.296 -0.0499 -0.3616 -0.0207
  521MPD2    H5 7745   3.455   0.054  17.233  0.5972  0.4260  0.5409
  521MPD2    N1 7746   3.016   4.649  17.408  0.1371 -0.0605  0.8077
  521MPD2    H7 7747   2.955   4.582  17.453  1.8144 -1.1980  1.3915
  522TMC3    C1 7748   3.718   0.034  17.225  0.2348 -0.3087 -0.1286
  522TMC3    C2 7749   3.853   0.012  17.261  0.3711 -0.1499 -0.1033
  522TMC3    C3 7750   3.949   0.033  17.168 -0.0348  0.5316  0.3739
  522TMC3    C4 7751   3.679   0.074  17.104 -0.0783 -0.5311 -0.6702
  522TMC3    C5 7752   3.776   0.088  17.010 -0.2065 -0.0843 -0.8086
  522TMC3    C6 7753   3.909   0.068  17.041 -0.2085  0.5591  0.4799
  522TMC3     C 7754   3.624   4.694  17.322 -0.7101 -1.1179  0.1464
  522TMC3     O 7755   3.673   4.624  17.409 -0.1570  0.4552  0.0938
  522TMC3     H 7756   3.885   4.708  17.362  0.0614 -0.5523 -0.1009
  522TMC3    H1 7757   3.575   0.050  17.082 -0.8042  0.8941  1.2019
  522TMC3    H2 7758   3.985   0.110  16.976 -1.6718 -0.1534 -1.6847
  522TMC3    C7 7759   3.766   0.177  16.894 -0.1461  0.3689  0.1234
  522TMC3    C8 7760   4.082   4.693  17.188 -0.0080  0.1900  0.0474
  522TMC3    O1 7761   3.857   0.179  16.810  0.3915  0.7211  0.2226
  522TMC3    O2 7762   4.111   4.640  17.292  0.5020 -0.2308  0.0296
  523MPD2     C 7763   1.003   0.141  10.289  0.2040  0.5149  0.7770
  523MPD2    C1 7764   0.883   0.078  10.285 -0.1406  0.0891 -0.2317
  523MPD2    C2 7765   0.774   0.142  10.219  0.2990 -0.0562 -0.3779
  523MPD2    C3 7766   0.793   0.268  10.156  0.0041 -0.7951 -0.8732
  523MPD2    C4 7767   0.921   0.325  10.169  0.3805  0.3372  0.1452
  523MPD2    C5 7768   1.025   0.261  10.226 -0.1933 -0.2443 -0.3461
  523MPD2     H 7769   0.689   0.081  10.188  0.3429 -0.1847 -0.2433
  523MPD2    H1 7770   0.942   0.427  10.137  1.3835  0.2186  0.4311
  523MPD2    H2 7771   1.086   0.093  10.338 -0.3752 -0.0626  1.1931
  523MPD2    H3 7772   1.127   0.296  10.233 -0.4003  0.0348  1.3839
  523MPD2     N 7773   0.699   0.326  10.065  0.3801  0.1285  0.4558
  523MPD2    H5 7774   0.726   0.409  10.014 -1.7407 -0.7135 -2.0390
  523MPD2    N1 7775   0.875   4.677  10.355 -0.3997  0.3132  0.3132
  523MPD2    H7 7776   0.962   4.633  10.383 -0.4735 -1.6764 -2.5320
  524TMC3    C1 7777   0.498   0.353   9.952  0.3255 -0.2654 -0.7344
  524TMC3    C2 7778   0.560   0.421   9.851  0.3925  0.7120 -0.2585
  524TMC3    C3 7779   0.481   0.519   9.792  0.0243 -0.0204 -0.3111
  524TMC3    C4 7780   0.366   0.366   9.981  0.4321  0.2369  0.5514
  524TMC3    C5 7781   0.294   0.446   9.902 -0.1762 -0.3595 -0.3057
  524TMC3    C6 7782   0.345   0.524   9.813  0.0153  0.0069  0.3961
  524TMC3     C 7783   0.569   0.272  10.047 -0.6347 -0.1316  0.4936
  524TMC3     O 7784   0.505   0.201  10.122  0.4205  0.0359  0.3174
  524TMC3     H 7785   0.668   0.417   9.844  0.5202  0.7306  1.5868
  524TMC3    H1 7786   0.316   0.300  10.052  0.0691  1.7020  1.6594
  524TMC3    H2 7787   0.289   0.604   9.765  3.2488  0.6358 -2.3321
  524TMC3    C7 7788   0.161   0.475   9.952 -0.1221  0.2266  0.2830
  524TMC3    C8 7789   0.544   0.609   9.699 -0.4966  0.3300  0.3923
  524TMC3    O1 7790   0.149   0.475  10.075  0.0751 -0.1428  0.1922
  524TMC3    O2 7791   0.470   0.694   9.649 -0.0508  0.1869 -0.1118
  525MPD2     C 7792   3.363   2.069  14.507  0.3256 -0.7117  0.5389
  525MPD2    C1 7793   3.498   2.093  14.508  0.5216 -0.8114  0.1075
  525MPD2    C2 7794   3.553   2.199  14.433  0.4032  0.5689 -0.6126
  525MPD2    C3 7795   3.469   2.288  14.366 -0.0399  0.0301  0.0028
  525MPD2    C4 7796   3.333   2.271  14.384  0.1203  0.2091  0.0940
  525MPD2    C5 7797   3.286   2.160  14.444  0.6643  0.0593 -0.5098
  525MPD2     H 7798   3.661   2.206  14.424  0.5603  0.6239  1.3867
  525MPD2    H1 7799   3.254   2.339  14.354  0.1438 -0.3514 -1.2590
  525MPD2    H2 7800   3.320   1.982  14.555 -0.5394 -0.9798 -0.7226
  525MPD2    H3 7801   3.181   2.139  14.461  0.4176  2.0474  0.3670
  525MPD2     N 7802   3.516   2.407  14.311  0.3132 -0.5487 -0.4827
  525MPD2    H5 7803   3.454   2.487  14.308  0.8612 -0.1429 -1.0723
  525MPD2    N1 7804   3.597   2.007  14.573 -0.0576  0.2748 -0.2126
  525MPD2    H7 7805   3.694   2.035  14.564  0.2530 -1.0280 -0.8926
  526TMC3    C1 7806   3.693   1.851  14.729  0.1623  0.7397 -0.1579
  526TMC3    C2 7807   3.667   1.783  14.845  1.7294 -0.0669  0.0812
  526TMC3    C3 7808   3.772   1.720  14.910 -0.5252  0.2500  0.4601
  526TMC3    C4 7809   3.815   1.874  14.676 -0.9568  0.8664 -0.1780
  526TMC3    C5 7810   3.915   1.819  14.745  0.0228 -0.0829 -0.0715
  526TMC3    C6 7811   3.898   1.737  14.854 -0.2389 -0.1983 -0.3960
  526TMC3     C 7812   3.577   1.907  14.665  0.2229 -0.8010 -0.5578
  526TMC3     O 7813   3.469   1.880  14.717 -0.2936 -0.3857  0.0502
  526TMC3     H 7814   3.567   1.774  14.886  2.2707 -1.1632  1.1251
  526TMC3    H1 7815   3.838   1.934  14.589 -0.0283  0.4461 -0.2162
  526TMC3    H2 7816   3.985   1.708  14.911 -1.3882 -0.9247  0.9870
  526TMC3    C7 7817   4.046   1.825  14.692 -0.9591  0.4554  0.5380
  526TMC3    C8 7818   3.773   1.715  15.053 -0.0296 -0.1161 -0.2970
  526TMC3    O1 7819   4.078   1.918  14.614  0.3877 -0.0064 -0.0175
  526TMC3    O2 7820   3.869   1.767  15.111 -0.2271  0.6400  0.1744
  527MPD2     C 7821   2.437   4.092   1.981 -0.3087  0.2430 -0.2408
  527MPD2    C1 7822   2.401   3.960   1.951 -0.2166 -0.5206  0.1999
  527MPD2    C2 7823   2.471   3.894   1.857 -0.6919  0.2246  0.1822
  527MPD2    C3 7824   2.584   3.944   1.786 -1.2672  0.3699  0.7208
  527MPD2    C4 7825   2.634   4.064   1.835  0.1442  0.3043  0.1323
  527MPD2    C5 7826   2.557   4.140   1.922  0.6450  0.1697 -0.2785
  527MPD2     H 7827   2.437   3.794   1.829 -0.1233  0.3836 -1.0864
  527MPD2    H1 7828   2.714   4.121   1.790 -1.2976  3.0117  1.0050
  527MPD2    H2 7829   2.387   4.164   2.044 -1.6024 -0.1643 -0.8193
  527MPD2    H3 7830   2.603   4.233   1.955 -1.8895  1.4040 -0.2427
  527MPD2     N 7831   2.650   3.869   1.690 -0.2556 -0.3552  0.5704
  527MPD2    H5 7832   2.613   3.775   1.682  0.6081 -0.5931 -0.7236
  527MPD2    N1 7833   2.283   3.903   2.003 -0.3974 -0.6324  0.1928
  527MPD2    H7 7834   2.251   3.816   1.963 -1.1956  1.0425 -2.8069
  528TMC3    C1 7835   2.077   3.881   2.124  0.2959  0.1824 -0.2939
  528TMC3    C2 7836   2.019   3.920   2.242  0.6256 -0.1632  0.8274
  528TMC3    C3 7837   1.882   3.890   2.261  0.5609 -0.2792  0.1076
  528TMC3    C4 7838   2.010   3.819   2.025 -0.4028  0.0323  0.2447
  528TMC3    C5 7839   1.880   3.784   2.047  0.4801 -0.5630 -0.2108
  528TMC3    C6 7840   1.816   3.812   2.171  0.1332 -0.6678 -0.4311
  528TMC3     C 7841   2.202   3.953   2.102  0.5801 -0.6596 -0.4474
  528TMC3     O 7842   2.216   4.048   2.175 -0.0083  0.6818 -0.0508
  528TMC3     H 7843   2.078   3.962   2.323 -2.0618 -0.4726  2.9426
  528TMC3    H1 7844   2.062   3.796   1.933  0.1537  2.0483  0.0551
  528TMC3    H2 7845   1.708   3.804   2.172  0.3049 -3.2314 -0.7299
  528TMC3    C7 7846   1.799   3.724   1.943 -0.0310  0.5157  0.4197
  528TMC3    C8 7847   1.818   3.936   2.386  0.3129  0.5019  0.2771
  528TMC3    O1 7848   1.715   3.643   1.981  0.9280 -0.0603 -0.5560
  528TMC3    O2 7849   1.873   4.029   2.440  0.0294  0.2107  0.5482
  529MPD2     C 7850   3.365   2.756   0.403  0.6771 -0.0420 -0.0826
  529MPD2    C1 7851   3.491   2.719   0.360  0.5089 -0.8630 -0.2937
  529MPD2    C2 7852   3.568   2.815   0.295 -0.3209  0.1929 -0.2186
  529MPD2    C3 7853   3.520   2.946   0.272 -0.5746  0.5251 -0.3482
  529MPD2    C4 7854   3.395   2.976   0.308 -0.2417  0.4441 -0.3228
  529MPD2    C5 7855   3.324   2.887   0.381  0.3322  0.1538  0.0863
  529MPD2     H 7856   3.669   2.786   0.268 -0.4464 -1.0352  0.6367
  529MPD2    H1 7857   3.350   3.074   0.296 -1.1935 -0.0785 -1.0000
  529MPD2    H2 7858   3.301   2.682   0.448  2.1998 -1.2626  0.0738
  529MPD2    H3 7859   3.221   2.908   0.408  0.4173  0.2186  0.3674
  529MPD2     N 7860   3.593   3.041   0.206 -0.0676 -0.6087 -0.4875
  529MPD2    H5 7861   3.550   3.130   0.186 -1.4824 -1.2589 -0.3548
  529MPD2    N1 7862   3.560   2.604   0.409 -0.4560  1.0522 -0.1090
  529MPD2    H7 7863   3.652   2.590   0.369 -0.4485  0.6145  0.0616
  530TMC3    C1 7864   3.616   2.435   0.568  0.2871  0.0009  0.2343
  530TMC3    C2 7865   3.601   2.404   0.696  0.0315 -0.1146  0.2418
  530TMC3    C3 7866   3.703   2.330   0.752 -0.4451 -0.8720 -0.2062
  530TMC3    C4 7867   3.731   2.414   0.500  0.6771 -0.2753 -0.3133
  530TMC3    C5 7868   3.828   2.339   0.555 -0.4566 -0.2992 -0.2593
  530TMC3    C6 7869   3.818   2.295   0.685  0.1108  0.6181 -0.7931
  530TMC3     C 7870   3.520   2.513   0.501 -0.1149 -0.2491 -0.0557
  530TMC3     O 7871   3.411   2.511   0.559 -0.1324  0.1615  0.6982
  530TMC3     H 7872   3.514   2.447   0.744 -0.1765 -0.3003  0.0354
  530TMC3    H1 7873   3.734   2.448   0.397  0.1708 -0.9295 -0.5389
  530TMC3    H2 7874   3.898   2.237   0.730 -1.4495 -1.2748 -0.4650
  530TMC3    C7 7875   3.933   2.291   0.464  0.4216  0.1674  0.4169
  530TMC3    C8 7876   3.694   2.305   0.897  0.3316 -0.1502 -1.1152
  530TMC3    O1 7877   3.942   2.354   0.358  0.7105  0.3026  0.1214
  530TMC3    O2 7878   3.577   2.276   0.938  0.6008 -0.2711  0.0215
  531MPD2     C 7879   2.942   0.099  13.387  0.4698  0.7919  0.1849
  531MPD2    C1 7880   2.929   0.208  13.465 -0.1720  0.9418  0.3742
  531MPD2    C2 7881   2.799   0.257  13.493  0.6929  0.0792  0.1742
  531MPD2    C3 7882   2.692   0.217  13.426 -0.1909 -0.5852 -0.2679
  531MPD2    C4 7883   2.706   0.115  13.333  0.3320  0.1945  0.3692
  531MPD2    C5 7884   2.832   0.060  13.311 -0.6969  0.2360 -0.4365
  531MPD2     H 7885   2.788   0.342  13.559 -1.1677 -0.8714  1.0830
  531MPD2    H1 7886   2.621   0.084  13.273  0.7100  0.7313 -0.4440
  531MPD2    H2 7887   3.039   0.066  13.351  1.7393  2.6328  1.9323
  531MPD2    H3 7888   2.841   4.707  13.232 -1.1583  0.3356 -0.5879
  531MPD2     N 7889   2.569   0.280  13.458 -0.4113  0.0198  0.1504
  531MPD2    H5 7890   2.580   0.351  13.530 -0.6457  0.7185 -0.4967
  531MPD2    N1 7891   3.048   0.278  13.511  0.3362  1.0913  0.0450
  531MPD2    H7 7892   3.137   0.229  13.517 -1.4860 -2.1166  0.7227
  532TMC3    C1 7893   3.167   0.440  13.635  0.2444 -0.6083 -0.4807
  532TMC3    C2 7894   3.147   0.559  13.689 -0.2211  0.1870 -0.3603
  532TMC3    C3 7895   3.159   0.589  13.818 -0.1006  0.3102  0.7602
  532TMC3    C4 7896   3.216   0.338  13.708 -0.2328  0.6856  0.3100
  532TMC3    C5 7897   3.233   0.371  13.843  0.7224 -0.2973 -0.0810
  532TMC3    C6 7898   3.201   0.490  13.901  0.8840  0.0455  0.2018
  532TMC3     C 7899   3.047   0.407  13.571 -0.1453 -0.8260 -0.1833
  532TMC3     O 7900   2.966   0.495  13.548 -0.3410 -0.2501 -0.3836
  532TMC3     H 7901   3.117   0.638  13.621 -1.6490  0.2951  0.3868
  532TMC3    H1 7902   3.232   0.245  13.654 -2.7026  0.1470  0.5049
  532TMC3    H2 7903   3.227   0.510  14.004 -0.6286  0.8468  0.4244
  532TMC3    C7 7904   3.322   0.293  13.925  0.1014  0.4464 -0.4094
  532TMC3    C8 7905   3.045   0.669  13.876  0.1282  0.1093  0.8930
  532TMC3    O1 7906   3.351   0.326  14.038 -0.5693 -0.3447 -0.2703
  532TMC3    O2 7907   3.060   0.730  13.979 -0.2381 -0.2991 -0.4921
  533TMC3    C1 7908   3.686   2.563  14.312  0.8922 -0.0625 -0.0728
  533TMC3    C2 7909   3.804   2.598  14.261  0.1139 -0.1744  0.2017
  533TMC3    C3 7910   3.886   2.683  14.336 -0.8383  0.1692  0.1778
  533TMC3    C4 7911   3.647   2.607  14.437 -0.7073 -0.2464 -0.9509
  533TMC3    C5 7912   3.724   2.698  14.506 -0.9768  0.6265  0.0994
  533TMC3    C6 7913   3.854   2.730  14.462  0.6074 -0.3903  0.0121
  533TMC3     C 7914   3.649   2.432  14.284  0.4063  0.6014 -0.2588
  533TMC3     O 7915   3.738   2.350  14.258 -0.0210 -0.1769  0.4286
  533TMC3     H 7916   3.839   2.563  14.164  1.5966 -1.7246  1.3039
  533TMC3    H1 7917   3.545   2.584  14.466 -0.5630  0.6037  0.2323
  533TMC3    H2 7918   3.918   2.809  14.498 -1.1839  0.6620  0.8923
  533TMC3    C7 7919   3.712   2.695  14.650  0.6579  0.0512  0.1940
  533TMC3    C8 7920   4.024   2.709  14.285  0.2800 -0.4356 -0.5681
  533TMC3    O1 7921   3.627   2.621  14.694  0.1208 -0.8423  0.1853
  533TMC3    O2 7922   4.106   2.728  14.372  0.3708 -0.4883  0.2270
  534MPD2     C 7923   0.686   3.389   2.275 -0.0471 -0.0905 -1.1630
  534MPD2    C1 7924   0.770   3.287   2.234  0.4862 -0.2121  0.5086
  534MPD2    C2 7925   0.728   3.191   2.153  0.3752  0.2026 -0.0263
  534MPD2    C3 7926   0.592   3.185   2.122 -0.1883 -0.6105 -0.5103
  534MPD2    C4 7927   0.509   3.277   2.162  0.9487  0.1425 -0.1429
  534MPD2    C5 7928   0.554   3.380   2.244 -0.2336  0.6030 -0.2474
  534MPD2     H 7929   0.810   3.123   2.131  0.6565  0.5930 -0.1860
  534MPD2    H1 7930   0.402   3.275   2.143  1.0346  2.1972 -0.8766
  534MPD2    H2 7931   0.711   3.484   2.320 -0.0765  0.3245 -2.0228
  534MPD2    H3 7932   0.491   3.463   2.274  0.5001  1.3257 -0.7010
  534MPD2     N 7933   0.544   3.093   2.018 -0.1459  0.6860 -0.2367
  534MPD2    H5 7934   0.444   3.098   2.000 -0.2348 -1.8018 -0.3954
  534MPD2    N1 7935   0.914   3.281   2.265 -0.0820  0.3492  0.3288
  534MPD2    H7 7936   0.972   3.220   2.209 -0.7703 -0.0962  0.1072
  535TMC3    C1 7937   0.542   2.968   1.827  0.5829 -1.0586  0.0362
  535TMC3    C2 7938   0.410   2.931   1.841  0.6431 -0.4182 -0.0967
  535TMC3    C3 7939   0.338   2.895   1.729 -0.2821 -0.3010  0.1786
  535TMC3    C4 7940   0.607   2.952   1.708 -0.4984 -0.1682  0.3190
  535TMC3    C5 7941   0.532   2.924   1.595  0.7128  0.2646  0.0422
  535TMC3    C6 7942   0.400   2.895   1.605 -0.1491  0.5355  0.1627
  535TMC3     C 7943   0.623   3.021   1.935 -0.3401 -0.4336  0.4271
  535TMC3     O 7944   0.744   3.006   1.923 -0.1347 -0.3617  0.4412
  535TMC3     H 7945   0.368   2.937   1.941 -0.8361  1.1834 -0.8174
  535TMC3    H1 7946   0.715   2.964   1.709 -0.5698  0.4042  0.8856
  535TMC3    H2 7947   0.342   2.873   1.515  0.9911 -0.2410 -0.3851
  535TMC3    C7 7948   0.603   2.939   1.467  0.0501 -0.6092  0.4335
  535TMC3    C8 7949   0.200   2.846   1.735 -0.0478 -0.0060 -0.6445
  535TMC3    O1 7950   0.726   2.935   1.470 -0.2256 -0.0680 -0.2449
  535TMC3    O2 7951   0.167   2.778   1.640 -0.5250  0.2399  0.0354
  536MPD2     C 7952   0.779   1.812  16.665 -0.3729  0.0969 -0.0733
  536MPD2    C1 7953   0.651   1.776  16.697 -0.3372  0.0860 -0.1539
  536MPD2    C2 7954   0.556   1.789  16.600 -0.4921 -0.2150  0.6264
  536MPD2    C3 7955   0.581   1.832  16.468 -0.5925  0.5698 -0.5890
  536MPD2    C4 7956   0.710   1.872  16.444  0.0956  1.0681 -0.0995
  536MPD2    C5 7957   0.805   1.865  16.541  0.3599 -0.3189  0.9008
  536MPD2     H 7958   0.454   1.771  16.633 -0.7971 -0.2080 -0.3357
  536MPD2    H1 7959   0.729   1.916  16.347 -2.2171  2.1969 -0.0439
  536MPD2    H2 7960   0.863   1.808  16.733 -0.8513 -1.2191  0.4568
  536MPD2    H3 7961   0.904   1.892  16.506 -0.9073 -0.9306 -3.1395
  536MPD2     N 7962   0.482   1.881  16.382  0.6640  0.6080 -0.3318
  536MPD2    H5 7963   0.514   1.946  16.311  0.9369  2.1185  1.1906
  536MPD2    N1 7964   0.634   1.715  16.825  0.5540  0.5418  0.0054
  536MPD2    H7 7965   0.722   1.700  16.874  0.3146 -0.6699  0.0705
  537TMC3    C1 7966   0.546   1.590  17.001  0.1005  0.3411  0.1386
  537TMC3    C2 7967   0.658   1.628  17.078  0.1119 -0.6464 -0.1922
  537TMC3    C3 7968   0.705   1.540  17.179  0.7248 -0.2408  0.2381
  537TMC3    C4 7969   0.489   1.465  17.025  0.3334  0.5431 -0.8180
  537TMC3    C5 7970   0.528   1.392  17.129 -0.0002 -0.3571 -0.6507
  537TMC3    C6 7971   0.636   1.418  17.207  0.2854 -0.0137  0.4929
  537TMC3     C 7972   0.520   1.652  16.870 -0.6325  0.1860 -0.6519
  537TMC3     O 7973   0.420   1.613  16.816  0.1652 -0.4670  0.8018
  537TMC3     H 7974   0.711   1.721  17.060 -1.0843  0.6211  2.9098
  537TMC3    H1 7975   0.408   1.428  16.964  0.3532 -1.8460  0.6102
  537TMC3    H2 7976   0.669   1.361  17.293 -0.0471  0.4905  0.9521
  537TMC3    C7 7977   0.449   1.272  17.154  0.3518 -0.5430  0.0438
  537TMC3    C8 7978   0.842   1.559  17.225 -1.2267  0.3737  0.7122
  537TMC3    O1 7979   0.336   1.256  17.115  0.3817 -0.3254  0.2321
  537TMC3    O2 7980   0.893   1.666  17.188  0.2227 -0.3097  0.3976
  538TMC3    C1 7981   1.542   4.178  11.038  0.8249  0.2396 -0.1728
  538TMC3    C2 7982   1.665   4.169  10.969 -0.4927 -0.2264  0.2928
  538TMC3    C3 7983   1.679   4.232  10.854  0.6432  0.5213  0.4812
  538TMC3    C4 7984   1.435   4.242  10.988  0.1921 -0.2253  1.0996
  538TMC3    C5 7985   1.456   4.297  10.865  0.3503  0.2942 -0.2518
  538TMC3    C6 7986   1.572   4.297  10.800 -0.0069 -0.1373  0.2507
  538TMC3     C 7987   1.545   4.156  11.179  0.0367  0.3136 -0.2086
  538TMC3     O 7988   1.441   4.174  11.238  0.1150  0.5970 -0.0371
  538TMC3     H 7989   1.753   4.116  11.005  0.7250  2.2866  1.0289
  538TMC3    H1 7990   1.345   4.261  11.046  0.5004 -2.3964  2.3049
  538TMC3    H2 7991   1.580   4.346  10.704  1.5836 -1.3939 -0.2470
  538TMC3    C7 7992   1.342   4.376  10.818 -0.1397  0.7543  0.2870
  538TMC3    C8 7993   1.795   4.208  10.775 -0.1214  0.1639 -0.0222
  538TMC3    O1 7994   1.248   4.375  10.897  0.1746 -0.5234  0.3032
  538TMC3    O2 7995   1.833   4.092  10.768 -0.0564  0.0079  0.6780
  539MPD2     C 7996   0.826   3.327  11.740 -0.1004 -0.2417 -0.2163
  539MPD2    C1 7997   0.901   3.415  11.666 -0.2314  0.4212  0.0336
  539MPD2    C2 7998   0.900   3.548  11.701 -1.1887  0.0856  0.5155
  539MPD2    C3 7999   0.814   3.589  11.802 -0.3436 -0.4796  0.1716
  539MPD2    C4 8000   0.748   3.492  11.873  0.4656  0.1022 -0.5035
  539MPD2    C5 8001   0.758   3.361  11.852 -0.3487  0.3964  0.4682
  539MPD2     H 8002   0.971   3.613  11.649 -0.4916 -2.2585 -1.4661
  539MPD2    H1 8003   0.692   3.534  11.956 -1.2789 -1.8438 -0.6992
  539MPD2    H2 8004   0.838   3.221  11.726  0.8199 -0.0295 -1.0400
  539MPD2    H3 8005   0.700   3.282  11.898  0.1187  0.9519  2.0085
  539MPD2     N 8006   0.805   3.721  11.846  0.1804  0.1896  0.8130
  539MPD2    H5 8007   0.751   3.739  11.930 -2.3376 -2.3337 -0.2780
  539MPD2    N1 8008   0.984   3.382  11.557 -0.0700  0.4550 -0.0711
  539MPD2    H7 8009   1.035   3.461  11.521 -0.4208  0.1623 -1.1878
  540TMC3    C1 8010   0.796   3.957  11.816  0.2799 -0.5280  0.1701
  540TMC3    C2 8011   0.787   4.048  11.711  0.7596  0.2758  0.3469
  540TMC3    C3 8012   0.788   4.179  11.741 -0.6859 -0.4241  0.0169
  540TMC3    C4 8013   0.801   3.990  11.948 -0.5613 -0.5964 -0.5752
  540TMC3    C5 8014   0.795   4.120  11.974  0.2969 -0.0038  0.9434
  540TMC3    C6 8015   0.785   4.216  11.874 -0.6309 -0.5383 -0.4933
  540TMC3     C 8016   0.849   3.826  11.771  0.1979  0.2077  0.2235
  540TMC3     O 8017   0.918   3.833  11.670  0.3116 -0.0018  0.5289
  540TMC3     H 8018   0.791   4.007  11.610 -1.6276  0.0978  0.3262
  540TMC3    H1 8019   0.808   3.912  12.023  1.9573  0.6183  0.4835
  540TMC3    H2 8020   0.825   4.315  11.892  1.9820 -1.6543 -0.0647
  540TMC3    C7 8021   0.803   4.173  12.115  0.1182  0.2201 -0.2776
  540TMC3    C8 8022   0.837   4.268  11.635 -0.0300 -0.6375 -0.7437
  540TMC3    O1 8023   0.849   4.099  12.199  0.1964 -0.0982 -0.1239
  540TMC3    O2 8024   0.894   4.369  11.667  0.4124 -0.4953  0.5382
  541MPD2     C 8025   4.372   0.659  13.258 -0.4665 -0.6650  0.3587
  541MPD2    C1 8026   4.238   0.685  13.230 -0.5786  0.7359 -0.0398
  541MPD2    C2 8027   4.199   0.770  13.130  0.0877  0.2668 -0.3387
  541MPD2    C3 8028   4.295   0.841  13.057 -0.0707 -0.3144 -0.4318
  541MPD2    C4 8029   4.429   0.830  13.096 -0.5768  0.6566  0.8822
  541MPD2    C5 8030   4.464   0.737  13.191  0.0580 -0.2465  0.4593
  541MPD2     H 8031   4.094   0.769  13.101  0.5397 -3.4123 -1.7772
  541MPD2    H1 8032   4.508   0.885  13.046  1.1226 -2.1936  0.4506
  541MPD2    H2 8033   4.404   0.593  13.337  0.8756  0.9681  1.1641
  541MPD2    H3 8034   4.568   0.718  13.215  0.1083 -1.1728 -0.5067
  541MPD2     N 8035   4.265   0.925  12.944  0.2036 -0.0222  0.6346
  541MPD2    H5 8036   4.341   0.970  12.894  0.4629  0.8913  1.8424
  541MPD2    N1 8037   4.139   0.616  13.306 -0.1253  0.1801  0.1982
  541MPD2    H7 8038   4.166   0.549  13.377 -0.0864  2.6238  2.4682
  542TMC3    C1 8039   4.155   1.014  12.763  0.5065 -0.9700 -0.2046
  542TMC3    C2 8040   4.269   1.006  12.684  0.7540  0.5861  0.5557
  542TMC3    C3 8041   4.274   1.074  12.564 -0.1920 -0.3227 -0.0821
  542TMC3    C4 8042   4.054   1.096  12.726 -0.1410 -0.1831  0.2400
  542TMC3    C5 8043   4.057   1.154  12.601  0.4886 -0.1342  0.1171
  542TMC3    C6 8044   4.170   1.149  12.522  0.3244 -0.0492  0.3438
  542TMC3     C 8045   4.145   0.937  12.884 -0.4758 -0.5366  0.7587
  542TMC3     O 8046   4.038   0.915  12.931 -0.2091 -0.2725  0.4719
  542TMC3     H 8047   4.336   0.923  12.702  1.4308  0.7339 -1.2646
  542TMC3    H1 8048   3.960   1.084  12.779 -1.1727  1.3921 -1.2324
  542TMC3    H2 8049   4.177   1.219  12.440  0.5029 -1.4336 -0.8258
  542TMC3    C7 8050   3.934   1.199  12.542  0.4863  0.3598  0.1577
  542TMC3    C8 8051   4.369   1.046  12.458 -0.1097  0.1053  0.3198
  542TMC3    O1 8052   3.848   1.228  12.624  0.3879  0.5151  0.6472
  542TMC3    O2 8053   4.338   1.074  12.345  0.2068  0.0644 -0.5128
  543TMC3    C1 8054   3.349   1.821  17.442  0.1605  0.2710 -0.2643
  543TMC3    C2 8055   3.373   1.696  17.495  0.0639  0.0336 -0.0004
  543TMC3    C3 8056   3.271   1.627  17.561 -0.6178 -0.0735  0.3457
  543TMC3    C4 8057   3.228   1.880  17.442 -0.3670  0.4552  0.0629
  543TMC3    C5 8058   3.136   1.812  17.518  0.1464 -0.3666  0.8229
  543TMC3    C6 8059   3.145   1.684  17.570  0.8702 -0.1602 -0.0293
  543TMC3     C 8060   3.452   1.864  17.347 -0.6126 -0.1302  0.1456
  543TMC3     O 8061   3.555   1.802  17.331  0.0822 -0.4322  0.1291
  543TMC3     H 8062   3.472   1.653  17.481  0.0845  0.9453 -2.5438
  543TMC3    H1 8063   3.204   1.979  17.405 -3.3710 -0.1287  0.4569
  543TMC3    H2 8064   3.072   1.625  17.625  0.3530  0.7360  0.2388
  543TMC3    C7 8065   3.010   1.882  17.531 -0.0503  0.6015 -0.3998
  543TMC3    C8 8066   3.284   1.482  17.578 -0.9926  0.4968 -0.0041
  543TMC3    O1 8067   3.016   2.003  17.553 -0.4881  0.2399 -0.0914
  543TMC3    O2 8068   3.170   1.429  17.566 -0.4672  0.2955 -0.4220
  544MPD2     C 8069   3.541   1.051   0.009  0.5845 -0.2617 -0.1510
  544MPD2    C1 8070   3.412   1.071  17.666 -0.4571  0.0003  0.5052
  544MPD2    C2 8071   3.369   1.198  17.642  0.0983 -0.0366  0.6318
  544MPD2    C3 8072   3.455   1.309  17.634  0.6618 -0.1088 -0.3978
  544MPD2    C4 8073   3.590   1.283  17.646  0.6707 -0.0094 -0.4152
  544MPD2    C5 8074   3.630   1.161   0.008 -0.7188 -0.2942 -0.9637
  544MPD2     H 8075   3.262   1.216  17.633  0.5498  1.3343 -1.9413
  544MPD2    H1 8076   3.664   1.362  17.636 -0.1211  0.8772  0.6621
  544MPD2    H2 8077   3.574   0.950   0.029 -0.5675 -0.0681  2.7765
  544MPD2    H3 8078   3.736   1.138   0.009 -0.3925  1.2036 -0.5325
  544MPD2     N 8079   3.414   1.441  17.601 -0.0147  0.1305 -0.0100
  544MPD2    H5 8080   3.488   1.508  17.583  0.2158 -0.1018  0.0773
  544MPD2    N1 8081   3.329   0.958  17.680 -0.2846 -0.1479  0.4310
  544MPD2    H7 8082   3.370   0.878   0.042 -2.0517 -0.0771  2.0965
  545TMC3    C1 8083   3.125   0.831  17.659 -0.1140  0.7071  0.0597
  545TMC3    C2 8084   3.004   0.827  17.592  0.2066  0.2457  0.2314
  545TMC3    C3 8085   2.928   0.713  17.603  0.5306 -0.3810 -0.0253
  545TMC3    C4 8086   3.164   0.736   0.063  0.6236  0.3186 -0.7902
  545TMC3    C5 8087   3.088   0.629   0.080  0.0453 -0.2151  0.2401
  545TMC3    C6 8088   2.970   0.613   0.004  0.0498  0.4503  0.5627
  545TMC3     C 8089   3.194   0.957  17.646  0.1964 -0.0720  0.0456
  545TMC3     O 8090   3.131   1.044  17.587  0.0622 -0.3829  0.4700
  545TMC3     H 8091   2.975   0.905  17.523 -0.2115  1.0360  1.3100
  545TMC3    H1 8092   3.247   0.758   0.130  0.6443 -1.8001 -0.1335
  545TMC3    H2 8093   2.911   0.521   0.005 -1.5489  1.4805  1.6343
  545TMC3    C7 8094   3.140   0.508   0.136  0.2597  0.0294  0.5917
  545TMC3    C8 8095   2.794   0.713  17.548 -0.2809  1.1744  0.1065
  545TMC3    O1 8096   3.071   0.404   0.135  0.5194 -0.2231 -0.1437
  545TMC3    O2 8097   2.732   0.617  17.579 -0.5360  0.9669  0.4247
  546MPD2     C 8098   0.676   1.671  17.547  0.6495 -0.2817  0.3411
  546MPD2    C1 8099   0.586   1.715  17.453  0.1953 -0.0896 -0.0140
  546MPD2    C2 8100   0.615   1.835  17.390  0.2462  0.1138 -0.2870
  546MPD2    C3 8101   0.715   1.920  17.441 -0.0139  0.8146 -0.5269
  546MPD2    C4 8102   0.794   1.877  17.551 -0.1215 -0.6099  0.4378
  546MPD2    C5 8103   0.780   1.750  17.596 -0.0960  0.2528  0.0219
  546MPD2     H 8104   0.562   1.864  17.300  1.3398  0.8970 -0.6887
  546MPD2    H1 8105   0.884   1.928  17.584 -1.2208  0.5459  1.6500
  546MPD2    H2 8106   0.669   1.574  17.593  0.4268 -0.8307 -0.8503
  546MPD2    H3 8107   0.843   1.710  17.674 -1.2484 -0.5385  0.5427
  546MPD2     N 8108   0.750   2.047  17.387 -0.4481  0.4407 -0.2179
  546MPD2    H5 8109   0.814   2.103  17.442  1.6400 -0.3195 -1.8568
  546MPD2    N1 8110   0.492   1.628  17.402 -0.2520  0.1890 -0.0661
  546MPD2    H7 8111   0.490   1.539  17.450 -0.5017  0.4955  0.4963
  547TMC3    C1 8112   0.277   1.575  17.325 -0.3416 -0.0987 -0.1255
  547TMC3    C2 8113   0.159   1.614  17.270 -0.0769 -1.0398 -0.0876
  547TMC3    C3 8114   0.041   1.552  17.316 -0.8132  0.1703 -0.1014
  547TMC3    C4 8115   0.280   1.463  17.412  0.1431 -0.2109  0.5991
  547TMC3    C5 8116   0.158   1.401  17.453  0.4506  0.1021  0.1097
  547TMC3    C6 8117   0.036   1.459  17.414 -0.0779  0.5327 -0.2499
  547TMC3     C 8118   0.387   1.665  17.317  0.1637  0.2584  0.4350
  547TMC3     O 8119   0.378   1.746  17.228  0.1966  0.1699  1.2157
  547TMC3     H 8120   0.152   1.699  17.204  0.1138 -1.4217 -0.6037
  547TMC3    H1 8121   0.372   1.432  17.459 -0.3039  0.5461  1.9559
  547TMC3    H2 8122   4.665   1.431  17.464 -0.2888 -2.0851 -2.0441
  547TMC3    C7 8123   0.155   1.321  17.572  0.0009  0.4191 -0.2131
  547TMC3    C8 8124   4.638   1.612  17.284 -0.5266 -0.1390  0.3194
  547TMC3    O1 8125   0.250   1.325  17.648 -0.4776 -0.1096  0.2544
  547TMC3    O2 8126   4.638   1.711  17.211  0.9358  0.4864 -0.4633
  548MPD2     C 8127   4.588   2.488  11.968  0.8872 -0.0910 -0.1512
  548MPD2    C1 8128   4.605   2.465  12.100 -0.5616 -0.4849 -0.2695
  548MPD2    C2 8129   4.718   2.396  12.148  0.6465 -0.0636 -0.5251
  548MPD2    C3 8130   0.093   2.354  12.059  0.2565  0.0193  0.6114
  548MPD2    C4 8131   0.079   2.382  11.927  0.2201 -0.6181  0.1385
  548MPD2    C5 8132   4.687   2.448  11.881  0.1358  0.7898 -0.7671
  548MPD2     H 8133   0.004   2.364  12.252  0.8006  0.3602 -0.4048
  548MPD2    H1 8134   0.155   2.354  11.854 -0.0959  1.2269 -0.9132
  548MPD2    H2 8135   4.495   2.530  11.932  1.0422 -0.3521 -0.8626
  548MPD2    H3 8136   4.668   2.449  11.774 -2.3662  1.2233 -0.3198
  548MPD2     N 8137   0.206   2.275  12.091 -0.1370 -0.3443  0.1233
  548MPD2    H5 8138   0.251   2.226  12.015 -0.8564  0.4142 -0.7813
  548MPD2    N1 8139   4.505   2.508  12.191  0.1956  0.8608 -0.4324
  548MPD2    H7 8140   4.412   2.532  12.158  0.0516  3.1150  1.6229
  549TMC3    C1 8141   4.404   2.554  12.404  0.6883  0.6460  0.1959
  549TMC3    C2 8142   4.332   2.660  12.347  0.1018 -0.6493  0.5171
  549TMC3    C3 8143   4.245   2.720  12.426  0.0047  0.0866 -0.4365
  549TMC3    C4 8144   4.378   2.509  12.532 -0.2291  0.8165  0.0962
  549TMC3    C5 8145   4.285   2.569  12.607  0.0884  0.0874  0.3401
  549TMC3    C6 8146   4.208   2.670  12.554  1.0140  0.1495 -0.4692
  549TMC3     C 8147   4.520   2.505  12.328 -0.4721 -0.1285 -0.2559
  549TMC3     O 8148   4.609   2.471  12.403  0.0734  0.3304 -0.4599
  549TMC3     H 8149   4.350   2.707  12.251 -0.2427  3.1533  2.2994
  549TMC3    H1 8150   4.434   2.428  12.579  0.7980  2.2503  1.3703
  549TMC3    H2 8151   4.132   2.713  12.619  1.3997 -1.0568  0.7555
  549TMC3    C7 8152   4.242   2.501  12.726 -0.2117  0.5168  0.4000
  549TMC3    C8 8153   4.156   2.817  12.371  0.2743  0.6519  0.6028
  549TMC3    O1 8154   4.193   2.569  12.814  0.1386 -0.1393  0.6866
  549TMC3    O2 8155   4.123   2.797  12.253  0.3802 -0.4446 -0.0248
  550TMC3    C1 8156   3.596   0.630  12.367 -1.2704 -0.2403  0.1291
  550TMC3    C2 8157   3.536   0.729  12.438  0.2237  0.1814 -0.0851
  550TMC3    C3 8158   3.401   0.752  12.417 -0.0237 -0.2169 -0.0220
  550TMC3    C4 8159   3.522   0.536  12.296 -0.6827  0.3273 -0.1415
  550TMC3    C5 8160   3.388   0.559  12.275 -0.5409 -0.4421  0.4777
  550TMC3    C6 8161   3.327   0.670  12.329  0.2614  0.7867 -1.1817
  550TMC3     C 8162   3.734   0.601  12.390 -0.1590  0.6157  0.6920
  550TMC3     O 8163   3.788   0.647  12.483  0.4216 -0.3670  0.1682
  550TMC3     H 8164   3.591   0.809  12.485  1.1277 -0.8547  0.6119
  550TMC3    H1 8165   3.565   0.453  12.241 -3.0011 -1.3171  0.5209
  550TMC3    H2 8166   3.220   0.685  12.317  0.2818  0.3347 -1.9750
  550TMC3    C7 8167   3.304   0.444  12.272 -0.7954  0.2111 -0.2448
  550TMC3    C8 8168   3.332   0.856  12.496 -0.6464  0.5410 -0.6502
  550TMC3    O1 8169   3.187   0.465  12.268 -0.1194 -0.2766 -0.4162
  550TMC3    O2 8170   3.248   0.919  12.431 -0.3087 -0.5178 -0.2624
  551TMC3    C1 8171   1.459   2.805  13.374  0.3774  0.2454 -0.4975
  551TMC3    C2 8172   1.574   2.825  13.295  0.1796 -0.2283  0.4822
  551TMC3    C3 8173   1.645   2.940  13.302  0.0838  0.9695 -0.4184
  551TMC3    C4 8174   1.415   2.904  13.457  0.5966  0.5629  0.4737
  551TMC3    C5 8175   1.487   3.022  13.464 -0.0904  0.0532  0.7543
  551TMC3    C6 8176   1.603   3.039  13.387 -0.2797  0.4740  0.1880
  551TMC3     C 8177   1.358   2.720  13.318 -0.5550 -0.2567 -0.2361
  551TMC3     O 8178   1.245   2.754  13.332 -0.4130  0.3334  0.4178
  551TMC3     H 8179   1.622   2.746  13.239 -1.8173 -0.2475 -1.1945
  551TMC3    H1 8180   1.321   2.893  13.510  0.7405 -1.7382  0.2548
  551TMC3    H2 8181   1.662   3.130  13.385 -1.0343  1.0303  2.8579
  551TMC3    C7 8182   1.455   3.113  13.573  0.6757 -0.7727 -0.5966
  551TMC3    C8 8183   1.725   2.973  13.187 -0.0472 -0.3366  0.4054
  551TMC3    O1 8184   1.368   3.067  13.644 -0.5173 -0.2368 -0.0230
  551TMC3    O2 8185   1.803   2.893  13.134  0.0763  0.0421 -0.2125
  552MPD2     C 8186   2.953   0.465  14.144 -0.5468 -0.5705  0.8185
  552MPD2    C1 8187   3.034   0.359  14.159  0.4120  0.0187 -0.0332
  552MPD2    C2 8188   3.131   0.352  14.256  0.8054  0.2592 -0.5286
  552MPD2    C3 8189   3.152   0.462  14.340  0.4259  0.0083  0.4197
  552MPD2    C4 8190   3.074   0.574  14.315  0.0907  0.1256 -0.3183
  552MPD2    C5 8191   2.979   0.575  14.220  0.4965 -0.3479  0.6457
  552MPD2     H 8192   3.201   0.269  14.253  2.9499  2.0405  0.3180
  552MPD2    H1 8193   3.082   0.663  14.377  0.1063 -0.4974  0.5756
  552MPD2    H2 8194   2.862   0.456  14.086  0.8745  1.1826 -1.6445
  552MPD2    H3 8195   2.911   0.659  14.212  0.3085 -0.4886  0.7539
  552MPD2     N 8196   3.240   0.465  14.450  0.7766  0.3338  0.4848
  552MPD2    H5 8197   3.245   0.555  14.496  3.6635  0.7835 -0.6689
  552MPD2    N1 8198   3.020   0.249  14.084 -0.4614  0.1167 -0.1990
  552MPD2    H7 8199   3.077   0.168  14.104  0.3228  1.1096  1.5325
  553TMC3    C1 8200   2.931   0.090  13.944 -0.7028 -0.0833  0.3114
  553TMC3    C2 8201   2.951   0.066  13.815  0.6640  0.1338 -0.5410
  553TMC3    C3 8202   3.015   4.669  13.782 -0.2749  1.0840 -0.2131
  553TMC3    C4 8203   2.983   0.007  14.042 -0.1195  0.0973  0.3043
  553TMC3    C5 8204   3.060   4.618  14.014  0.1700 -0.2591 -0.4406
  553TMC3    C6 8205   3.075   4.587  13.878  0.0200  0.0692 -0.4553
  553TMC3     C 8206   2.926   0.228  13.982  0.7150  0.4854  0.1278
  553TMC3     O 8207   2.858   0.305  13.914  0.2288  0.5751 -0.6541
  553TMC3     H 8208   2.900   0.124  13.738  1.1995 -1.1590 -1.8665
  553TMC3    H1 8209   2.962   0.028  14.146  1.9231 -3.2898  1.3840
  553TMC3    H2 8210   3.127   4.497  13.847  0.3205 -0.0068  0.2735
  553TMC3    C7 8211   3.182   4.616  14.096  0.6769 -0.4334 -0.4012
  553TMC3    C8 8212   3.082   4.671  13.648  0.3322 -0.2074  0.3903
  553TMC3    O1 8213   3.188   4.711  14.173  0.1386 -0.0949  0.5519
  553TMC3    O2 8214   3.175   0.031  13.638  0.2225  0.4813  0.4633
  554TMC3    C1 8215   4.478   3.961  11.489 -0.1321  0.2540  0.2889
  554TMC3    C2 8216   4.382   3.978  11.392 -0.4486  0.5273 -0.3405
  554TMC3    C3 8217   4.384   4.100  11.325 -0.2604 -0.2241 -0.1258
  554TMC3    C4 8218   4.574   4.057  11.517  0.2467 -1.0389 -0.2782
  554TMC3    C5 8219   4.577   4.175  11.441  0.1784  0.1975 -0.3947
  554TMC3    C6 8220   4.477   4.191  11.348  0.5629  0.5299  0.3941
  554TMC3     C 8221   4.470   3.842  11.574  0.7415  0.0170 -0.1819
  554TMC3     O 8222   4.387   3.759  11.543  0.0291  0.2089  0.2052
  554TMC3     H 8223   4.298   3.914  11.366 -0.7085  0.7309  0.0073
  554TMC3    H1 8224   4.665   4.032  11.571  1.6256 -0.1207 -2.1759
  554TMC3    H2 8225   4.493   4.281  11.289  0.0686  2.3941  3.0893
  554TMC3    C7 8226   4.709   4.209  11.387  0.3426  0.3452  0.1300
  554TMC3    C8 8227   4.348   4.092  11.185 -0.2544  0.2948  0.6302
  554TMC3    O1 8228   4.710   4.249  11.269  0.6722 -0.1036  0.2290
  554TMC3    O2 8229   4.428   4.147  11.111  0.3095 -0.0887  0.0434
  555TMC3    C1 8230   4.229   3.801  15.017 -0.4909 -0.7271  0.7715
  555TMC3    C2 8231   4.177   3.873  15.124 -0.5762 -0.7056  0.0870
  555TMC3    C3 8232   4.189   3.809  15.244 -0.1980 -0.7170  0.1763
  555TMC3    C4 8233   4.286   3.678  15.024 -0.4960 -0.2178 -0.5666
  555TMC3    C5 8234   4.299   3.627  15.152 -0.4758 -0.2624  0.2531
  555TMC3    C6 8235   4.254   3.690  15.264 -0.2823 -0.3210 -0.3893
  555TMC3     C 8236   4.259   3.868  14.893  0.5923  0.2082  0.3964
  555TMC3     O 8237   4.367   3.830  14.848  0.4064 -0.5429  0.2704
  555TMC3     H 8238   4.139   3.974  15.124  0.0498 -0.4762 -0.9907
  555TMC3    H1 8239   4.290   3.614  14.936  1.9780 -0.0111 -0.6137
  555TMC3    H2 8240   4.260   3.642  15.361  1.2357 -1.8075 -1.2317
  555TMC3    C7 8241   4.334   3.491  15.184 -0.0970 -0.3025 -0.2534
  555TMC3    C8 8242   4.160   3.891  15.363  0.7832  0.3707  0.1582
  555TMC3    O1 8243   4.314   3.453  15.298  0.3242 -0.2613  0.2122
  555TMC3    O2 8244   4.072   3.976  15.354  0.3928 -0.1076 -0.2042
  556MPD2     C 8245   1.548   0.652  10.543 -0.1531 -0.4442 -0.4352
  556MPD2    C1 8246   1.663   0.609  10.600  0.1999  0.6001 -0.3523
  556MPD2    C2 8247   1.756   0.545  10.524 -0.6816 -0.0917  0.1521
  556MPD2    C3 8248   1.730   0.518  10.389 -0.1782 -0.4728  0.0412
  556MPD2    C4 8249   1.611   0.561  10.331 -0.5723  0.1608 -0.3319
  556MPD2    C5 8250   1.523   0.631  10.406  0.0561  0.1124  0.1544
  556MPD2     H 8251   1.852   0.515  10.566 -1.0610  0.3333  1.3232
  556MPD2    H1 8252   1.588   0.533  10.229 -0.8567 -1.5653  0.2173
  556MPD2    H2 8253   1.479   0.717  10.595  1.6560  0.3905  0.9390
  556MPD2    H3 8254   1.435   0.680  10.365  1.3881  0.3111 -2.4758
  556MPD2     N 8255   1.822   0.446  10.307 -0.9172  0.0028  0.1866
  556MPD2    H5 8256   1.914   0.424  10.344 -0.3627  0.3478 -0.9978
  556MPD2    N1 8257   1.705   0.637  10.727 -0.1519  0.4047 -0.7460
  556MPD2    H7 8258   1.800   0.613  10.755 -0.8350 -0.1172  1.1821
  557TMC3    C1 8259   1.910   0.283  10.169 -0.1861  1.0202 -0.0377
  557TMC3    C2 8260   1.917   0.234  10.042 -0.0916  0.0561  0.2037
  557TMC3    C3 8261   1.938   0.102  10.014  0.2544 -0.4973 -0.3116
  557TMC3    C4 8262   1.924   0.195  10.274 -0.0242  0.5795 -0.2497
  557TMC3    C5 8263   1.950   0.057  10.246 -0.3820 -0.4785 -0.0617
  557TMC3    C6 8264   1.953   0.010  10.118  0.1143  0.7772 -0.9630
  557TMC3     C 8265   1.809   0.384  10.187  0.6265 -0.5329 -0.8952
  557TMC3     O 8266   1.704   0.376  10.125  0.0819 -0.5172  0.1420
  557TMC3     H 8267   1.878   0.299   9.964  1.9363 -0.1209 -0.9581
  557TMC3    H1 8268   1.901   0.239  10.370  0.8377  1.2894 -0.3687
  557TMC3    H2 8269   1.950   4.623  10.101 -1.6030  0.5098  0.9922
  557TMC3    C7 8270   1.937   4.695  10.363  0.1986 -0.1152 -0.4519
  557TMC3    C8 8271   1.895   0.055   9.885 -0.4482  0.4779  0.5045
  557TMC3    O1 8272   1.861   0.021  10.445  0.2524 -0.1704  0.0110
  557TMC3    O2 8273   1.892   0.143   9.797  0.1224  0.4322  0.4944
  558TMC3    C1 8274   4.062   3.002  10.160  0.1673  0.2330  0.9577
  558TMC3    C2 8275   3.997   2.933  10.261  0.3231  0.1724  0.6769
  558TMC3    C3 8276   3.911   2.830  10.223  0.3518  0.1318 -0.1290
  558TMC3    C4 8277   4.051   2.963  10.033  0.3883 -0.2099  0.3894
  558TMC3    C5 8278   3.970   2.853   9.998 -0.0833 -0.0161 -0.1589
  558TMC3    C6 8279   3.905   2.784  10.095 -0.0326  0.1926 -0.2812
  558TMC3     C 8280   4.145   3.117  10.199 -0.4286  0.6682  0.3599
  558TMC3     O 8281   4.232   3.103  10.287  0.2377 -0.1069 -0.4624
  558TMC3     H 8282   3.998   2.969  10.363 -0.0965  1.8419  0.1030
  558TMC3    H1 8283   4.103   3.014   9.953 -0.8025  0.5829  0.1194
  558TMC3    H2 8284   3.829   2.710  10.072 -0.3935  0.1811  0.9939
  558TMC3    C7 8285   3.921   2.845   9.859  0.5518  0.2381  0.9550
  558TMC3    C8 8286   3.850   2.735  10.319  0.8929 -0.0174  0.4130
  558TMC3    O1 8287   3.946   2.947   9.797 -0.3389  0.3013 -0.1674
  558TMC3    O2 8288   3.765   2.655  10.274  0.2020  1.5330 -0.2219
  559MPD2     C 8289   4.436   3.845  10.316 -0.2377 -0.6967  0.3773
  559MPD2    C1 8290   4.373   3.750  10.396  0.4284 -0.0323  0.1144
  559MPD2    C2 8291   4.446   3.689  10.495  0.0891  0.4671 -0.5862
  559MPD2    C3 8292   4.572   3.747  10.537 -0.0725  0.5446 -0.3215
  559MPD2    C4 8293   4.636   3.843  10.453 -0.4726  0.0493 -0.6801
  559MPD2    C5 8294   4.564   3.886  10.342 -0.1593  0.3739  0.2664
  559MPD2     H 8295   4.396   3.618  10.559  1.6186 -1.0974 -1.1224
  559MPD2    H1 8296   0.011   3.893  10.465 -0.5432 -0.0678  0.3537
  559MPD2    H2 8297   4.378   3.896  10.239  1.2486  0.6645  0.1579
  559MPD2    H3 8298   4.609   3.958  10.273  1.0447 -0.1284  0.5207
  559MPD2     N 8299   4.633   3.703  10.658 -0.1365  0.3497 -0.0076
  559MPD2    H5 8300   4.597   3.615  10.692  0.7092  0.0402  0.0856
  559MPD2    N1 8301   4.235   3.715  10.366  0.7325  0.6520 -0.1842
  559MPD2    H7 8302   4.183   3.766  10.295  2.0305  0.1902 -1.4655
  560TMC3    C1 8303   0.069   3.676  10.828  0.2567 -0.3019 -0.1042
  560TMC3    C2 8304   0.045   3.544  10.827  0.0091  0.0553  0.6205
  560TMC3    C3 8305   0.083   3.471  10.941  0.8279 -0.4583 -0.1818
  560TMC3    C4 8306   0.146   3.737  10.922 -0.4661  0.1222  0.1387
  560TMC3    C5 8307   0.188   3.668  11.033  0.6115 -0.2367 -0.6006
  560TMC3    C6 8308   0.149   3.535  11.043  0.7532 -0.0382  0.4709
  560TMC3     C 8309   0.016   3.757  10.727 -0.3139 -0.4278  0.1842
  560TMC3     O 8310   0.044   3.872  10.720  0.0658 -0.2470 -0.0074
  560TMC3     H 8311   4.705   3.488  10.757  0.2663 -0.7712  1.0498
  560TMC3    H1 8312   0.171   3.843  10.924  0.4833 -0.1156  1.2675
  560TMC3    H2 8313   0.197   3.475  11.119 -0.0090  2.0477  2.5943
  560TMC3    C7 8314   0.307   3.714  11.100  0.3808  0.3372  0.1691
  560TMC3    C8 8315   0.009   3.344  10.963  0.1232 -0.4471 -0.5379
  560TMC3    O1 8316   0.374   3.806  11.046 -0.0817  0.3576 -0.3488
  560TMC3    O2 8317   4.667   3.291  10.874  0.0892 -0.2962 -0.5345
  561TMC3    C1 8318   2.349   2.516  11.132  0.5610 -0.5124 -0.2681
  561TMC3    C2 8319   2.353   2.424  11.231  0.3305  0.0201 -0.5039
  561TMC3    C3 8320   2.389   2.465  11.357  0.0213  0.3027  0.1601
  561TMC3    C4 8321   2.367   2.652  11.159  0.6115  0.2208 -0.3654
  561TMC3    C5 8322   2.387   2.697  11.285 -1.1832  0.0813 -0.3331
  561TMC3    C6 8323   2.401   2.598  11.383  0.3012  0.1330  0.1759
  561TMC3     C 8324   2.236   2.500  11.043  0.6582 -1.3105  0.1071
  561TMC3     O 8325   2.149   2.423  11.089 -0.1238  0.1754  0.3469
  561TMC3     H 8326   2.329   2.325  11.194  1.5593  0.2734 -1.9763
  561TMC3    H1 8327   2.334   2.725  11.085 -1.1834 -1.6307 -1.3965
  561TMC3    H2 8328   2.407   2.633  11.485 -0.7237  1.9641 -0.4094
  561TMC3    C7 8329   2.422   2.827  11.322  0.1903 -0.5106  0.2593
  561TMC3    C8 8330   2.342   2.383  11.472 -0.2057  0.3864  0.0673
  561TMC3    O1 8331   2.445   2.868  11.437 -0.0363 -0.1778 -0.4045
  561TMC3    O2 8332   2.334   2.263  11.449  0.3731 -0.0693  0.5345
  562TMC3    C1 8333   4.116   4.151  16.485  0.0181 -0.9026 -0.4687
  562TMC3    C2 8334   4.039   4.257  16.450  0.1978 -0.4054 -1.0192
  562TMC3    C3 8335   3.974   4.253  16.330  0.4138 -0.2795 -0.3208
  562TMC3    C4 8336   4.145   4.045  16.394  0.2288  0.2556 -0.3947
  562TMC3    C5 8337   4.081   4.047  16.274 -0.4288 -0.0534 -0.4037
  562TMC3    C6 8338   3.994   4.148  16.245 -0.2894  0.0342 -0.0762
  562TMC3     C 8339   4.100   4.109  16.624 -0.5612  1.3170  0.0179
  562TMC3     O 8340   4.165   4.014  16.665  0.0418 -0.0089  0.4179
  562TMC3     H 8341   4.038   4.348  16.509  1.5157 -1.1155  0.0975
  562TMC3    H1 8342   4.196   3.956  16.427 -1.4481 -0.5276  0.0755
  562TMC3    H2 8343   3.954   4.164  16.146  2.2447  1.3260 -0.8849
  562TMC3    C7 8344   4.094   3.946  16.166  0.4477 -0.3340 -0.1307
  562TMC3    C8 8345   3.862   4.338  16.320  0.9411  0.0839  0.1722
  562TMC3    O1 8346   4.009   3.957  16.079  0.9712  0.6967 -0.1302
  562TMC3    O2 8347   3.819   4.379  16.426 -0.3143 -0.7114  0.2881
  563MPD2     C 8348   1.468   0.149  15.808 -0.2901 -0.3700  0.1887
  563MPD2    C1 8349   1.481   0.273  15.863 -0.1610 -0.1861  0.2601
  563MPD2    C2 8350   1.583   0.303  15.944 -0.2253  0.4019 -0.0102
  563MPD2    C3 8351   1.693   0.220  15.958 -0.1183  0.0561  0.2551
  563MPD2    C4 8352   1.682   0.101  15.892  0.7893  0.2049 -0.1765
  563MPD2    C5 8353   1.573   0.062  15.822  0.2893  0.1130 -0.0896
  563MPD2     H 8354   1.589   0.395  16.001  3.3065  0.6517 -0.7526
  563MPD2    H1 8355   1.759   0.030  15.921 -0.8093 -0.8284  1.5831
  563MPD2    H2 8356   1.379   0.107  15.763 -0.8489 -0.1620  1.0951
  563MPD2    H3 8357   1.554   4.681  15.790 -0.8899 -0.2702  1.8748
  563MPD2     N 8358   1.801   0.268  16.038 -0.0349 -0.4117 -0.8322
  563MPD2    H5 8359   1.789   0.352  16.094 -2.1156 -1.2552 -0.0246
  563MPD2    N1 8360   1.369   0.355  15.839  0.2508  0.3033  0.0006
  563MPD2    H7 8361   1.287   0.313  15.798  0.6094 -1.1293  0.7512
  564TMC3    C1 8362   1.250   0.494  15.982 -0.3585 -0.3912 -0.5255
  564TMC3    C2 8363   1.137   0.416  15.969 -1.0532  0.1269 -0.8423
  564TMC3    C3 8364   1.073   0.390  16.082 -0.4068  0.4552 -0.5492
  564TMC3    C4 8365   1.296   0.535  16.100  0.0845 -0.2457 -0.0232
  564TMC3    C5 8366   1.235   0.494  16.216 -0.0674 -0.7763 -0.0973
  564TMC3    C6 8367   1.116   0.422  16.202  0.3137  0.1604  0.2313
  564TMC3     C 8368   1.360   0.482  15.883 -0.9233 -0.1475  0.1685
  564TMC3     O 8369   1.444   0.572  15.877 -0.1148  0.6776 -0.2965
  564TMC3     H 8370   1.087   0.397  15.874 -0.7403  1.6357 -1.3177
  564TMC3    H1 8371   1.388   0.592  16.098 -0.9582  1.4644  0.7145
  564TMC3    H2 8372   1.057   0.409  16.292  0.3144 -0.6571  0.1188
  564TMC3    C7 8373   1.333   0.428  16.296 -0.4061 -0.7340  0.5568
  564TMC3    C8 8374   1.058   0.249  16.097  0.2525 -0.4629 -0.3024
  564TMC3    O1 8375   1.436   0.493  16.316  0.3049 -0.3292 -0.7021
  564TMC3    O2 8376   1.077   0.201  16.209  0.4635  0.1958 -0.3551
  565TMC3    C1 8377   1.137   2.112  10.337 -0.2634  0.0669  0.1593
  565TMC3    C2 8378   1.182   2.117  10.466 -0.1572 -0.6085 -0.4148
  565TMC3    C3 8379   1.134   2.031  10.564  0.4891 -0.0212  0.6452
  565TMC3    C4 8380   1.038   2.023  10.299  0.1135 -0.2622 -0.4207
  565TMC3    C5 8381   0.988   1.947  10.405 -0.0626 -0.1364 -0.6145
  565TMC3    C6 8382   1.025   1.958  10.536  0.3970 -0.1220  0.0500
  565TMC3     C 8383   1.196   2.210  10.248  0.9535 -0.1044 -0.1413
  565TMC3     O 8384   1.251   2.314  10.289  0.4045 -0.3098  0.3068
  565TMC3     H 8385   1.275   2.168  10.488 -0.6364  0.3708 -0.6737
  565TMC3    H1 8386   0.998   2.017  10.198 -0.2411  2.1927 -0.4197
  565TMC3    H2 8387   0.982   1.892  10.611 -0.1591  1.1262  0.8400
  565TMC3    C7 8388   0.941   1.812  10.360 -0.4058 -0.1757 -0.1591
  565TMC3    C8 8389   1.227   1.956  10.640 -0.2415 -0.2875  0.3960
  565TMC3    O1 8390   0.966   1.724  10.437  0.0413 -0.0470  0.5009
  565TMC3    O2 8391   1.315   2.023  10.694  0.6560 -0.2125  0.0377
  566MPD2     C 8392   2.963   3.695  13.994  0.0415  0.4184 -0.2026
  566MPD2    C1 8393   3.068   3.625  13.939 -0.1300 -0.2678 -0.4643
  566MPD2    C2 8394   3.051   3.542  13.828 -0.2837 -0.7113  0.1622
  566MPD2    C3 8395   2.926   3.538  13.765  0.1073  0.3281  0.2138
  566MPD2    C4 8396   2.826   3.615  13.826  0.0275 -0.3475 -0.3569
  566MPD2    C5 8397   2.845   3.690  13.932  0.8464  0.5744  0.2073
  566MPD2     H 8398   3.137   3.493  13.785 -1.2079 -1.6590 -0.6113
  566MPD2    H1 8399   2.725   3.621  13.789  0.3056 -0.4131 -1.1300
  566MPD2    H2 8400   2.988   3.766  14.072  2.0472 -0.8535  0.3046
  566MPD2    H3 8401   2.764   3.753  13.968 -0.8211 -2.4977  1.7608
  566MPD2     N 8402   2.913   3.499  13.629  0.1776  0.3108 -0.3021
  566MPD2    H5 8403   2.831   3.534  13.580 -1.2232 -1.0124  1.0847
  566MPD2    N1 8404   3.199   3.647  13.991 -0.1195 -0.1553 -0.6086
  566MPD2    H7 8405   3.214   3.715  14.064 -0.2981 -0.9086  0.1325
  567TMC3    C1 8406   3.439   3.659  14.004 -0.4288  0.5377 -0.7992
  567TMC3    C2 8407   3.526   3.712  13.912  0.2829  0.3968 -0.1202
  567TMC3    C3 8408   3.636   3.770  13.969 -0.1439  0.0854 -0.0602
  567TMC3    C4 8409   3.450   3.677  14.138 -1.0284 -0.7558 -0.4298
  567TMC3    C5 8410   3.568   3.728  14.178  0.4264 -0.3106 -0.4483
  567TMC3    C6 8411   3.661   3.777  14.099  0.4219  0.2450 -0.4265
  567TMC3     C 8412   3.318   3.598  13.944 -0.5920  0.7122 -0.5705
  567TMC3     O 8413   3.342   3.530  13.846  0.5933  0.1342 -0.7394
  567TMC3     H 8414   3.506   3.701  13.806  1.5529  2.3953 -0.5699
  567TMC3    H1 8415   3.373   3.642  14.204 -1.2193  0.0488 -0.2241
  567TMC3    H2 8416   3.749   3.833  14.126  1.3201 -0.2572 -2.3225
  567TMC3    C7 8417   3.590   3.724  14.320 -0.6751  0.1807 -0.1719
  567TMC3    C8 8418   3.722   3.839  13.872  0.4205 -0.1800 -0.3644
  567TMC3    O1 8419   3.488   3.700  14.384 -0.3085 -0.7607 -0.1164
  567TMC3    O2 8420   3.674   3.907  13.779  0.2400  0.1249 -0.2343
  568MPD2     C 8421   1.610   3.545  16.465 -0.1446  0.5225 -0.2791
  568MPD2    C1 8422   1.576   3.610  16.588 -0.2796  0.3301  0.4705
  568MPD2    C2 8423   1.499   3.724  16.584 -0.1509 -0.3037  0.4302
  568MPD2    C3 8424   1.448   3.764  16.461  0.2044 -0.1213  0.1368
  568MPD2    C4 8425   1.482   3.706  16.343 -0.2421  1.0919  0.0047
  568MPD2    C5 8426   1.574   3.598  16.346 -0.0040 -0.4892 -0.3116
  568MPD2     H 8427   1.473   3.772  16.678 -2.5536 -0.0534 -0.3455
  568MPD2    H1 8428   1.452   3.749  16.248 -3.9037  1.9592  1.5394
  568MPD2    H2 8429   1.681   3.463  16.461 -0.7263  0.0870 -1.7425
  568MPD2    H3 8430   1.604   3.549  16.253 -1.4663 -1.7543 -0.1283
  568MPD2     N 8431   1.373   3.883  16.471  0.2328  0.2001 -0.2368
  568MPD2    H5 8432   1.360   3.921  16.565  1.0785  1.4390 -0.6326
  568MPD2    N1 8433   1.632   3.568  16.708 -0.3049  0.1484 -0.6263
  568MPD2    H7 8434   1.688   3.483  16.704  1.8374  1.4911  1.0827
  569TMC3    C1 8435   1.283   4.089  16.397  0.1176  0.6428  0.4003
  569TMC3    C2 8436   1.346   4.165  16.497 -0.4039  0.2137 -0.4191
  569TMC3    C3 8437   1.317   4.301  16.493 -0.0009  0.1011  0.6146
  569TMC3    C4 8438   1.198   4.144  16.309  0.2354  0.7494  0.1934
  569TMC3    C5 8439   1.192   4.284  16.302  0.0308 -0.0792  0.6790
  569TMC3    C6 8440   1.247   4.364  16.394 -0.1666  0.2079  0.6715
  569TMC3     C 8441   1.325   3.958  16.365  0.1363  0.1736 -0.0448
  569TMC3     O 8442   1.314   3.916  16.249 -0.1442  0.2619  0.7066
  569TMC3     H 8443   1.425   4.131  16.564 -1.3502 -0.2179  0.4789
  569TMC3    H1 8444   1.160   4.085  16.227 -0.5757 -1.7780  2.3736
  569TMC3    H2 8445   1.249   4.470  16.373  2.0584 -0.1249 -0.7924
  569TMC3    C7 8446   1.131   4.332  16.179 -0.1126 -0.6385  0.4344
  569TMC3    C8 8447   1.393   4.376  16.589 -0.4383 -0.5222 -0.2056
  569TMC3    O1 8448   1.115   4.258  16.087  0.5478 -0.5856 -0.3007
  569TMC3    O2 8449   1.480   4.317  16.650 -0.0534  0.6490 -0.7551
  570TMC3    C1 8450   0.178   3.105  16.328 -0.5046  0.2028 -0.1595
  570TMC3    C2 8451   0.196   3.098  16.195  0.2608  0.2293  0.3416
  570TMC3    C3 8452   0.260   3.196  16.131 -1.1009  0.1763  0.5112
  570TMC3    C4 8453   0.214   3.211  16.400 -0.2246 -0.6834  0.4657
  570TMC3    C5 8454   0.272   3.312  16.332 -0.2363  0.1028  0.0967
  570TMC3    C6 8455   0.302   3.309  16.204 -0.5410  0.3410  0.1139
  570TMC3     C 8456   0.143   2.990  16.397 -0.2988  1.1224  0.4597
  570TMC3     O 8457   0.064   2.912  16.343 -1.0002  0.0093 -0.6109
  570TMC3     H 8458   0.171   3.013  16.133 -0.0394  0.5621  0.0024
  570TMC3    H1 8459   0.179   3.218  16.502  3.7309  0.1247  1.7784
  570TMC3    H2 8460   0.347   3.394  16.156  1.5485 -0.7130  0.2308
  570TMC3    C7 8461   0.352   3.401  16.399 -0.3137 -0.7348 -0.2579
  570TMC3    C8 8462   0.323   3.180  16.002 -0.3385 -0.2767 -0.6319
  570TMC3    O1 8463   0.465   3.420  16.356 -0.4849  0.2270 -0.0221
  570TMC3    O2 8464   0.420   3.252  15.989 -0.1915 -0.3444  0.1359
  571MPD2     C 8465   3.277   3.652   0.325  0.3549 -0.0540  0.1974
  571MPD2    C1 8466   3.266   3.782   0.285 -0.0497  0.4594  0.0063
  571MPD2    C2 8467   3.259   3.886   0.373 -0.3604 -0.1802  0.1598
  571MPD2    C3 8468   3.272   3.854   0.510 -0.3470 -0.3760  0.6006
  571MPD2    C4 8469   3.275   3.719   0.548 -0.5885 -0.4907  0.0537
  571MPD2    C5 8470   3.288   3.622   0.459 -0.3362  0.1767  0.1005
  571MPD2     H 8471   3.258   3.991   0.344  2.9825  0.1580  1.1860
  571MPD2    H1 8472   3.266   3.695   0.653 -0.4613  1.7282  0.5737
  571MPD2    H2 8473   3.282   3.570   0.254  0.7439  0.0217  0.1342
  571MPD2    H3 8474   3.297   3.519   0.491 -3.1540  0.4724  1.8413
  571MPD2     N 8475   3.254   3.947   0.612 -0.3780  0.7773  0.0524
  571MPD2    H5 8476   3.282   3.920   0.706 -0.2197  0.0924 -0.1903
  571MPD2    N1 8477   3.270   3.796   0.144  0.1670 -0.1377 -0.2988
  571MPD2    H7 8478   3.282   3.714   0.085 -0.6524 -1.4934  1.4101
  572TMC3    C1 8479   3.197   4.147   0.716 -0.2988 -0.4899  0.2621
  572TMC3    C2 8480   3.198   4.078   0.837  0.1147 -0.5294 -0.0217
  572TMC3    C3 8481   3.190   4.164   0.944  0.6178  0.1401 -0.1521
  572TMC3    C4 8482   3.207   4.281   0.710  0.0538  0.0788 -0.0273
  572TMC3    C5 8483   3.203   4.353   0.825  0.6813  0.1810 -0.1496
  572TMC3    C6 8484   3.193   4.294   0.942 -0.7882 -0.4985 -0.0149
  572TMC3     C 8485   3.211   4.077   0.589  0.2275  0.2439 -0.6175
  572TMC3     O 8486   3.172   4.146   0.497  0.1751  0.3070  0.2750
  572TMC3     H 8487   3.144   3.984   0.839  0.2664 -0.6300 -0.6271
  572TMC3    H1 8488   3.227   4.329   0.615 -1.4370 -1.1322 -0.9303
  572TMC3    H2 8489   3.195   4.357   1.030  2.0892  1.6782 -1.6406
  572TMC3    C7 8490   3.244   4.487   0.819  0.4750  0.6507 -0.4781
  572TMC3    C8 8491   3.189   4.101   1.071 -0.4264 -0.4914 -0.7099
  572TMC3    O1 8492   3.220   4.549   0.714 -0.3670  0.0648 -0.3627
  572TMC3    O2 8493   3.148   4.164   1.167 -0.1374  0.0344  0.3720
  573MPD2     C 8494   0.051   0.176   0.160  0.0850 -0.9905 -0.7772
  573MPD2    C1 8495   4.691   0.261   0.228  0.2536 -0.5078  0.2759
  573MPD2    C2 8496   4.559   0.275   0.187  0.4119  0.7006  0.1696
  573MPD2    C3 8497   4.502   0.194   0.095 -0.3532 -0.4775 -0.4776
  573MPD2    C4 8498   4.581   0.098   0.038  0.7473 -0.0082 -0.5385
  573MPD2    C5 8499   4.716   0.092   0.066 -0.1046 -0.5708 -0.0607
  573MPD2     H 8500   4.498   0.351   0.234 -1.4758  0.0144 -1.1704
  573MPD2    H1 8501   4.537   0.028  17.652 -0.5107 -1.0906  1.3159
  573MPD2    H2 8502   0.156   0.171   0.187 -0.1283 -0.3168  0.1696
  573MPD2    H3 8503   0.055   0.013   0.021  2.1181  0.9537  0.2334
  573MPD2     N 8504   4.362   0.198   0.062  0.2394 -0.0968  0.2086
  573MPD2    H5 8505   4.329   0.154  17.661  3.2663  3.7403 -2.9704
  573MPD2    N1 8506   0.034   0.335   0.323 -0.3827 -0.2524 -0.0711
  573MPD2    H7 8507   0.131   0.317   0.348  0.4730  0.7651 -2.7250
  574TMC3    C1 8508   4.129   0.219   0.089  0.1939 -0.7052 -0.2645
  574TMC3    C2 8509   4.027   0.197   0.182 -0.0590  0.5200 -0.2456
  574TMC3    C3 8510   3.903   0.201   0.134  0.3705 -0.0587 -0.0081
  574TMC3    C4 8511   4.100   0.251  17.644  0.3352 -0.3844  0.4044
  574TMC3    C5 8512   3.969   0.253  17.603  0.0962  1.0544 -0.0425
  574TMC3    C6 8513   3.863   0.224   0.004 -0.0320 -0.8329 -0.5477
  574TMC3     C 8514   4.262   0.244   0.143 -0.3441  0.5512  0.0719
  574TMC3     O 8515   4.271   0.281   0.259  0.2253 -0.0149 -0.5601
  574TMC3     H 8516   4.039   0.181   0.288 -1.9986  1.1827  0.0759
  574TMC3    H1 8517   4.175   0.274  17.569 -1.7210 -0.2195 -1.5928
  574TMC3    H2 8518   3.771   0.212  17.632  0.9027 -0.3440 -2.1659
  574TMC3    C7 8519   3.947   0.285  17.465  0.6641  0.6615 -0.1637
  574TMC3    C8 8520   3.798   0.204   0.232  0.0116 -0.3892 -0.3139
  574TMC3    O1 8521   4.044   0.272  17.391  0.2855 -0.4634 -0.5203
  574TMC3    O2 8522   3.805   0.125   0.325 -0.4537  0.6536  0.4837
  575TMC3    C1 8523   1.890   1.855  11.200 -0.4334 -0.6556  0.0962
  575TMC3    C2 8524   2.011   1.841  11.135 -0.6661  0.4971  1.2006
  575TMC3    C3 8525   2.011   1.800  11.004 -0.3981  0.8078 -0.2870
  575TMC3    C4 8526   1.771   1.829  11.134 -0.5728 -0.0903  0.5508
  575TMC3    C5 8527   1.775   1.780  11.011 -0.0762  0.3121 -0.0630
  575TMC3    C6 8528   1.893   1.772  10.937 -0.0818  1.3364  0.1945
  575TMC3     C 8529   1.872   1.856  11.344 -0.3701 -0.3040  0.5248
  575TMC3     O 8530   1.767   1.829  11.394 -1.0263  0.3965 -0.8396
  575TMC3     H 8531   2.107   1.858  11.181  0.6409 -0.2948 -1.2708
  575TMC3    H1 8532   1.679   1.852  11.188 -1.0331  1.2632 -0.8061
  575TMC3    H2 8533   1.884   1.736  10.835 -1.2041 -0.7598  1.0359
  575TMC3    C7 8534   1.654   1.780  10.938 -0.2016 -0.1449  0.1246
  575TMC3    C8 8535   2.139   1.795  10.933 -0.3379 -0.2693  0.3853
  575TMC3    O1 8536   1.564   1.859  10.971 -0.2315  0.0815 -0.9940
  575TMC3    O2 8537   2.212   1.886  10.962  0.0885  0.3787  0.1731
  576MPD2     C 8538   1.613   2.744  12.703  0.1050  0.7084  0.5898
  576MPD2    C1 8539   1.610   2.837  12.602  0.0094 -0.2705 -0.0431
  576MPD2    C2 8540   1.549   2.953  12.620 -0.0385 -0.0283 -0.0656
  576MPD2    C3 8541   1.498   2.986  12.741 -0.1573 -0.5373 -0.3903
  576MPD2    C4 8542   1.510   2.901  12.844  0.6044  0.1308  0.0911
  576MPD2    C5 8543   1.564   2.778  12.826  0.5269  0.0636  0.3280
  576MPD2     H 8544   1.548   3.025  12.539  2.2560  0.8916  0.7402
  576MPD2    H1 8545   1.488   2.918  12.949 -2.5544 -1.8633 -0.2490
  576MPD2    H2 8546   1.665   2.650  12.688 -0.5557  0.6084 -1.1575
  576MPD2    H3 8547   1.574   2.706  12.906 -2.1808  1.5364  1.9765
  576MPD2     N 8548   1.423   3.107  12.744  0.1435  0.0270 -0.5608
  576MPD2    H5 8549   1.406   3.145  12.651  0.8508 -0.0064 -0.7051
  576MPD2    N1 8550   1.679   2.825  12.480  0.0310  0.4015  0.2134
  576MPD2    H7 8551   1.668   2.897  12.409 -0.1861  0.1489 -0.0085
  577TMC3    C1 8552   1.803   2.735  12.305  0.3100 -0.0540 -0.1586
  577TMC3    C2 8553   1.837   2.620  12.242  0.2110  0.5863 -0.1652
  577TMC3    C3 8554   1.866   2.624  12.110 -0.5852 -0.0150 -0.7217
  577TMC3    C4 8555   1.800   2.862  12.246  0.1562 -0.1210 -1.1175
  577TMC3    C5 8556   1.840   2.861  12.109  0.7094 -0.4636  0.3495
  577TMC3    C6 8557   1.866   2.746  12.041 -0.1292 -0.2002 -0.6153
  577TMC3     C 8558   1.757   2.718  12.443 -0.2186 -0.0716 -1.3291
  577TMC3     O 8559   1.776   2.603  12.490  0.6121  0.2937 -0.1519
  577TMC3     H 8560   1.841   2.525  12.293  1.9855  0.3927 -0.6475
  577TMC3    H1 8561   1.799   2.956  12.301 -0.2978  0.6625 -2.4510
  577TMC3    H2 8562   1.888   2.756  11.935  1.4024 -1.2463 -0.4144
  577TMC3    C7 8563   1.872   2.979  12.040  0.2157 -1.2636 -0.6032
  577TMC3    C8 8564   1.922   2.506  12.048  0.4586  0.8563  0.2543
  577TMC3    O1 8565   1.954   3.046  12.105  0.2660 -0.3038  0.7329
  577TMC3    O2 8566   1.878   2.399  12.092 -0.3901 -0.0333 -0.3004
  578MPD2     C 8567   3.492   2.596   1.142 -0.2855 -0.0521 -0.7763
  578MPD2    C1 8568   3.582   2.688   1.087 -0.1365 -0.0247 -0.0965
  578MPD2    C2 8569   3.701   2.713   1.150 -0.1505 -0.2552 -0.1974
  578MPD2    C3 8570   3.730   2.638   1.262 -0.2212  0.2399 -0.3426
  578MPD2    C4 8571   3.638   2.559   1.331  0.0662 -0.1189  0.1124
  578MPD2    C5 8572   3.519   2.535   1.266 -0.3856  0.2187  0.0030
  578MPD2     H 8573   3.778   2.770   1.100 -0.2479  0.3846  0.3799
  578MPD2    H1 8574   3.658   2.503   1.421 -1.4952  0.5777  0.8916
  578MPD2    H2 8575   3.395   2.579   1.096 -0.4861  0.2544 -0.4623
  578MPD2    H3 8576   3.449   2.467   1.314  1.4351 -0.8590  1.1644
  578MPD2     N 8577   3.858   2.661   1.314  0.1546  0.7526  0.6534
  578MPD2    H5 8578   3.923   2.723   1.267 -2.0271  2.3136 -0.2726
  578MPD2    N1 8579   3.544   2.747   0.965  0.3692 -0.0476 -0.1816
  578MPD2    H7 8580   3.482   2.691   0.908 -1.4167  0.3604  1.3707
  579TMC3    C1 8581   4.058   2.617   1.431 -0.3567 -0.4285  0.4628
  579TMC3    C2 8582   4.105   2.643   1.559  0.3649 -0.0946  0.0891
  579TMC3    C3 8583   4.226   2.701   1.562  0.4113 -0.0140  0.4098
  579TMC3    C4 8584   4.130   2.634   1.308  0.2968  0.3725 -0.0396
  579TMC3    C5 8585   4.255   2.686   1.328 -0.5642 -0.3974  0.0878
  579TMC3    C6 8586   4.298   2.729   1.451  0.6440 -0.0491  0.3335
  579TMC3     C 8587   3.919   2.593   1.421 -0.0283  0.0539  0.6949
  579TMC3     O 8588   3.869   2.523   1.512 -0.1159  0.3313 -0.8686
  579TMC3     H 8589   4.034   2.649   1.641 -0.0161  1.7453 -0.3884
  579TMC3    H1 8590   4.086   2.611   1.211 -1.0496 -0.2413  0.7175
  579TMC3    H2 8591   4.398   2.770   1.452  0.5570  0.1881 -0.5504
  579TMC3    C7 8592   4.322   2.760   1.218 -0.0349  0.3666  0.2976
  579TMC3    C8 8593   4.279   2.741   1.689 -0.8225  0.5229 -0.3865
  579TMC3    O1 8594   4.360   2.870   1.249 -0.0522 -0.3501 -0.5329
  579TMC3    O2 8595   4.202   2.755   1.781  0.1346 -0.3083  0.1998
  580TMC3    C1 8596   3.641   1.929  11.890  0.3364 -0.0086  0.5972
  580TMC3    C2 8597   3.615   1.850  11.785 -0.2183  0.0034  0.6932
  580TMC3    C3 8598   3.660   1.726  11.763 -0.4644 -0.6688  0.6563
  580TMC3    C4 8599   3.734   1.877  11.978  0.1601 -0.1366  0.2979
  580TMC3    C5 8600   3.800   1.759  11.941  1.3899  1.0822 -0.0365
  580TMC3    C6 8601   3.756   1.679  11.842  0.1100  0.6020  0.5538
  580TMC3     C 8602   3.685   2.055  11.843 -0.7353 -0.2454 -0.8102
  580TMC3     O 8603   3.718   2.058  11.725 -0.1862  0.0774  0.0109
  580TMC3     H 8604   3.549   1.892  11.710 -0.1268 -0.7010  0.2124
  580TMC3    H1 8605   3.772   1.946  12.052  1.6582  0.0933 -0.6985
  580TMC3    H2 8606   3.797   1.579  11.830 -0.0965  0.7172 -1.1185
  580TMC3    C7 8607   3.896   1.714  12.038  0.2598 -0.3062 -0.2660
  580TMC3    C8 8608   3.653   1.682  11.626 -1.5336  0.1218 -0.3647
  580TMC3    O1 8609   3.897   1.773  12.143  0.2270  0.1298 -0.4938
  580TMC3    O2 8610   3.548   1.630  11.594 -0.5037  0.0616  0.3140
  581MPD2     C 8611   2.406   2.190  14.988  0.1146  0.7637 -1.0876
  581MPD2    C1 8612   2.362   2.222  15.112  0.0050  0.1062 -0.0567
  581MPD2    C2 8613   2.225   2.252  15.134 -0.1448  0.0968 -0.2061
  581MPD2    C3 8614   2.134   2.235  15.030 -0.4121  0.2899 -0.6023
  581MPD2    C4 8615   2.187   2.201  14.904 -0.9195 -0.2237 -0.1910
  581MPD2    C5 8616   2.323   2.180  14.886  0.1738 -0.5675 -0.7480
  581MPD2     H 8617   2.187   2.265  15.235 -1.1980 -1.9795 -0.3244
  581MPD2    H1 8618   2.126   2.207  14.815 -2.7910 -0.5079  1.0652
  581MPD2    H2 8619   2.512   2.174  14.971  0.3033  0.3382  0.5386
  581MPD2    H3 8620   2.353   2.150  14.786  0.5905  0.2717 -0.8741
  581MPD2     N 8621   1.997   2.264  15.046  0.2807  0.0459 -0.2144
  581MPD2    H5 8622   1.968   2.327  15.120 -0.6845 -0.6612  0.0030
  581MPD2    N1 8623   2.459   2.217  15.211 -0.0062 -0.2305 -0.4116
  581MPD2    H7 8624   2.549   2.181  15.181  1.9778  2.3849  2.3020
  582TMC3    C1 8625   2.570   2.221  15.417 -0.1191  0.3444  1.0395
  582TMC3    C2 8626   2.564   2.168  15.541 -0.2230 -0.1562 -0.4009
  582TMC3    C3 8627   2.676   2.111  15.596 -0.2820  0.6587 -0.2103
  582TMC3    C4 8628   2.677   2.194  15.338  0.0032  0.2042  0.6356
  582TMC3    C5 8629   2.786   2.137  15.392  0.1754  0.2087  0.9968
  582TMC3    C6 8630   2.793   2.094  15.523  0.3499 -0.3589  0.2033
  582TMC3     C 8631   2.442   2.240  15.347  0.1937  0.2417  0.3694
  582TMC3     O 8632   2.339   2.226  15.406 -0.4287 -0.1985  0.0441
  582TMC3     H 8633   2.481   2.193  15.607  0.0104  0.2108 -0.2463
  582TMC3    H1 8634   2.692   2.247  15.244  2.1716  0.9844  1.4087
  582TMC3    H2 8635   2.885   2.046  15.552  0.8313  0.1869 -0.4163
  582TMC3    C7 8636   2.898   2.083  15.307 -0.3392  0.5265  0.5394
  582TMC3    C8 8637   2.669   2.052  15.730  0.7202 -0.1253 -1.0732
  582TMC3    O1 8638   3.014   2.090  15.353 -0.3681 -0.4476 -0.8075
  582TMC3    O2 8639   2.600   2.109  15.813 -0.4663 -0.1662 -0.5053
  583MPD2     C 8640   2.388   3.433  16.781 -0.5658  0.2894 -0.2635
  583MPD2    C1 8641   2.406   3.570  16.756  0.6353  0.1506 -0.7318
  583MPD2    C2 8642   2.352   3.665  16.839 -0.4983 -0.1828  0.2998
  583MPD2    C3 8643   2.273   3.627  16.947  0.4303 -0.3088 -0.4159
  583MPD2    C4 8644   2.261   3.491  16.982 -0.1822 -0.0517  0.0491
  583MPD2    C5 8645   2.319   3.397  16.897  0.9238 -1.2251 -0.2148
  583MPD2     H 8646   2.360   3.771  16.819 -0.6068 -0.1175  0.6022
  583MPD2    H1 8647   2.205   3.452  17.067 -1.3935  1.5169 -0.0426
  583MPD2    H2 8648   2.421   3.356  16.712 -1.7775 -0.3383 -0.1524
  583MPD2    H3 8649   2.305   3.291  16.915 -0.6526 -1.3073 -1.9281
  583MPD2     N 8650   2.211   3.727  17.023  0.7040  0.0691 -0.1791
  583MPD2    H5 8651   2.242   3.824  17.019  1.6182 -0.2453 -0.6953
  583MPD2    N1 8652   2.482   3.627  16.652  0.3384 -0.2575  0.4601
  583MPD2    H7 8653   2.491   3.728  16.651 -1.4517 -0.1073 -0.3435
  584TMC3    C1 8654   2.064   3.826  17.184 -0.1136 -0.2651  0.2345
  584TMC3    C2 8655   2.060   3.940  17.109 -0.3677  0.1246 -0.3492
  584TMC3    C3 8656   2.045   4.059  17.169 -0.9484 -0.6535 -0.2684
  584TMC3    C4 8657   2.053   3.826  17.318 -0.2760  0.3173  0.1425
  584TMC3    C5 8658   2.032   3.949  17.373  0.0827 -0.4492 -0.6099
  584TMC3    C6 8659   2.027   4.068  17.304  0.2117  0.4439 -0.3730
  584TMC3     C 8660   2.112   3.705  17.116  0.1227 -0.0517  0.2541
  584TMC3     O 8661   2.082   3.598  17.162  0.7987  0.3318  0.1612
  584TMC3     H 8662   2.062   3.941  17.001  0.0552  1.1376 -0.3345
  584TMC3    H1 8663   2.051   3.734  17.376 -0.8679  0.0600 -0.2892
  584TMC3    H2 8664   2.021   4.162  17.356  0.3305  0.7328 -0.8855
  584TMC3    C7 8665   2.030   3.944  17.518  0.8579  0.3026 -0.7227
  584TMC3    C8 8666   2.075   4.172  17.085  0.0338 -0.6788 -1.0775
  584TMC3    O1 8667   2.081   3.849  17.574  0.1059  0.0306  0.0774
  584TMC3    O2 8668   2.040   4.157  16.970 -0.0776 -0.4650  0.7159
  585MPD2     C 8669   1.228   2.442   1.148 -0.0045 -0.0402 -0.4512
  585MPD2    C1 8670   1.239   2.469   1.014  0.0924  0.3231  0.1601
  585MPD2    C2 8671   1.362   2.449   0.953 -0.1511 -0.1608 -0.4479
  585MPD2    C3 8672   1.468   2.382   1.014 -0.2069 -0.3003  0.1796
  585MPD2    C4 8673   1.451   2.339   1.146 -0.5451  0.0403  0.2148
  585MPD2    C5 8674   1.330   2.367   1.210 -0.3564 -0.4005 -0.1826
  585MPD2     H 8675   1.368   2.475   0.848  1.8912  2.5422  0.3334
  585MPD2    H1 8676   1.522   2.276   1.197 -1.5430 -0.9969  0.3377
  585MPD2    H2 8677   1.140   2.477   1.200 -0.7889  1.6192 -2.8840
  585MPD2    H3 8678   1.328   2.336   1.314  1.1378 -1.7110 -0.5395
  585MPD2     N 8679   1.592   2.347   0.950  0.0525  1.1415 -0.0405
  585MPD2    H5 8680   1.661   2.295   1.003  0.7829  1.7610 -0.3965
  585MPD2    N1 8681   1.138   2.551   0.966  0.0755  0.5310  0.3858
  585MPD2    H7 8682   1.079   2.597   1.034  1.5822  1.1538  1.2681
  586TMC3    C1 8683   1.740   2.331   0.759  0.6266 -0.4949 -0.3545
  586TMC3    C2 8684   1.832   2.263   0.834  0.1152  0.2788 -0.2136
  586TMC3    C3 8685   1.941   2.197   0.780  0.5098  0.3480 -0.2183
  586TMC3    C4 8686   1.754   2.314   0.623 -0.2865  0.0652  0.4663
  586TMC3    C5 8687   1.863   2.250   0.568  0.6292 -0.2065 -0.0585
  586TMC3    C6 8688   1.959   2.180   0.649  0.2004  0.3563  0.8263
  586TMC3     C 8689   1.614   2.379   0.817  0.1060  0.4204  0.0600
  586TMC3     O 8690   1.543   2.428   0.733  0.1067 -0.3299  0.1271
  586TMC3     H 8691   1.829   2.283   0.940 -1.1421 -0.7394 -0.0611
  586TMC3    H1 8692   1.683   2.364   0.559 -0.0470 -0.2199 -0.0259
  586TMC3    H2 8693   2.051   2.138   0.610  0.5281  1.5424  0.3160
  586TMC3    C7 8694   1.871   2.233   0.427  0.3429 -1.3057  0.3755
  586TMC3    C8 8695   2.012   2.119   0.875  0.0356 -0.7487  0.0034
  586TMC3    O1 8696   1.789   2.301   0.364 -0.8099 -0.4169 -0.2942
  586TMC3    O2 8697   2.041   2.159   0.984 -0.0377  0.0248 -0.6813
  587TMC3    C1 8698   4.288   1.562  16.372  0.7324  0.1264 -0.5496
  587TMC3    C2 8699   4.213   1.679  16.354  0.0809 -0.6464  0.4399
  587TMC3    C3 8700   4.260   1.775  16.267 -0.3784 -0.1574 -0.3110
  587TMC3    C4 8701   4.394   1.535  16.291  0.2510  0.4728  0.4587
  587TMC3    C5 8702   4.442   1.640  16.212 -0.4876  0.5296 -0.4712
  587TMC3    C6 8703   4.379   1.762  16.201 -0.4494  0.0305 -0.0131
  587TMC3     C 8704   4.249   1.464  16.475 -0.8271  0.3536  0.0466
  587TMC3     O 8705   4.327   1.377  16.505 -0.2398 -0.1463 -0.1284
  587TMC3     H 8706   4.109   1.684  16.383  0.4761  2.4587  1.3496
  587TMC3    H1 8707   4.452   1.445  16.306  0.6508  0.3087 -2.0824
  587TMC3    H2 8708   4.406   1.839  16.129 -0.0086 -1.2553 -1.2381
  587TMC3    C7 8709   4.463   1.577  16.082 -0.3666  0.6799 -0.3808
  587TMC3    C8 8710   4.182   1.891  16.227 -0.1275 -0.0695 -0.1796
  587TMC3    O1 8711   4.428   1.462  16.064  0.1150 -0.4059 -0.3621
  587TMC3    O2 8712   4.194   1.951  16.120  0.2657  0.4634 -0.3300
  588TMC3    C1 8713   0.864   4.209   9.863 -0.0948 -0.9919  0.8999
  588TMC3    C2 8714   0.783   4.103   9.823  0.3361 -0.4107  0.1671
  588TMC3    C3 8715   0.829   3.984   9.867  0.6744 -0.2690 -0.0379
  588TMC3    C4 8716   0.983   4.199   9.939 -0.3736  0.0242 -0.2104
  588TMC3    C5 8717   1.025   4.072   9.973  0.5795 -0.3084  0.2432
  588TMC3    C6 8718   0.946   3.967   9.939  0.3239  0.4205  0.8036
  588TMC3     C 8719   0.825   4.346   9.825 -0.9762  0.6243  0.3772
  588TMC3     O 8720   0.715   4.355   9.770 -0.5107 -1.1398 -0.4988
  588TMC3     H 8721   0.685   4.121   9.781  0.5666 -1.2278 -0.7168
  588TMC3    H1 8722   1.015   4.287   9.994  0.7110  0.7210 -1.9376
  588TMC3    H2 8723   0.978   3.870   9.974  0.9846  1.3356  2.7416
  588TMC3    C7 8724   1.162   4.052  10.023  0.2845 -0.0953 -0.0547
  588TMC3    C8 8725   0.731   3.880   9.854 -0.0722 -0.0663 -0.1242
  588TMC3    O1 8726   1.207   3.940  10.044 -0.1407 -0.1631 -0.1553
  588TMC3    O2 8727   0.634   3.896   9.782  0.0518 -0.4525  0.0181
  589TMC3    C1 8728   0.103   1.860   1.449  0.4058 -0.6737  0.0120
  589TMC3    C2 8729   0.149   1.838   1.572 -0.0102  0.3357 -0.1210
  589TMC3    C3 8730   0.283   1.815   1.579 -0.2988 -0.0082  0.6413
  589TMC3    C4 8731   0.176   1.843   1.332 -0.1620 -0.2622 -0.4822
  589TMC3    C5 8732   0.310   1.817   1.348  0.0148  0.0634 -0.4275
  589TMC3    C6 8733   0.360   1.793   1.472  0.7867 -0.2503 -0.4660
  589TMC3     C 8734   4.684   1.894   1.427  0.3553 -0.1277 -0.5198
  589TMC3     O 8735   4.633   1.845   1.324 -0.0255  0.0212  0.1921
  589TMC3     H 8736   0.094   1.832   1.665  2.6109  0.3670  1.4360
  589TMC3    H1 8737   0.131   1.871   1.238  1.5603 -1.0248 -1.5233
  589TMC3    H2 8738   0.467   1.774   1.476  0.6160 -1.5323 -2.1297
  589TMC3    C7 8739   0.390   1.772   1.232 -0.1188 -0.4641 -0.1546
  589TMC3    C8 8740   0.336   1.787   1.706 -0.4139 -1.1872 -0.1097
  589TMC3    O1 8741   0.502   1.744   1.263  0.5994  0.0322 -0.1048
  589TMC3    O2 8742   0.267   1.824   1.803 -0.0111  0.1411 -0.9389
  590MPD2     C 8743   0.250   4.346  16.426 -0.6445 -0.6635  1.1247
  590MPD2    C1 8744   0.159   4.406  16.349  0.1918  0.2186 -0.0791
  590MPD2    C2 8745   0.187   4.531  16.305 -0.4286  0.7129 -0.0873
  590MPD2    C3 8746   0.303   4.594  16.328 -0.2276 -0.1747 -0.3098
  590MPD2    C4 8747   0.401   4.531  16.400  0.6597  0.3409 -0.0314
  590MPD2    C5 8748   0.370   4.409  16.449  0.2960 -0.4597  0.1920
  590MPD2     H 8749   0.112   4.577  16.242 -1.4145 -0.5656  0.1609
  590MPD2    H1 8750   0.497   4.571  16.431  0.4607 -0.0979  1.1523
  590MPD2    H2 8751   0.234   4.248  16.471 -1.6658 -0.3640  1.4075
  590MPD2    H3 8752   0.438   4.360  16.518 -0.3598 -2.4968 -0.6159
  590MPD2     N 8753   0.313   0.007  16.285 -0.2456 -0.2615  0.5962
  590MPD2    H5 8754   0.238   0.021  16.217 -0.0318 -1.0009  0.2092
  590MPD2    N1 8755   0.030   4.358  16.322 -0.4639  0.2428  0.2613
  590MPD2    H7 8756   4.691   4.429  16.279  0.8999  0.6095 -0.9940
  591TMC3    C1 8757   0.413   0.205  16.203  0.3855 -0.3153 -0.2754
  591TMC3    C2 8758   0.379   0.162  16.075 -0.0083  0.4830 -0.1023
  591TMC3    C3 8759   0.371   0.262  15.974  0.5618 -0.2273  0.2794
  591TMC3    C4 8760   0.421   0.336  16.234  0.1303 -0.1354 -0.3835
  591TMC3    C5 8761   0.415   0.426  16.133 -0.4866  0.9585  0.8737
  591TMC3    C6 8762   0.399   0.395  16.001  0.4187 -0.0510  0.1983
  591TMC3     C 8763   0.408   0.106  16.311 -0.3481 -0.5175  1.0397
  591TMC3     O 8764   0.492   0.105  16.396  0.0454 -0.2366 -0.0969
  591TMC3     H 8765   0.358   0.057  16.059  1.3558  0.1411  0.4103
  591TMC3    H1 8766   0.440   0.366  16.336 -1.7728  2.9739 -0.9406
  591TMC3    H2 8767   0.379   0.473  15.929  3.0341  0.0643 -0.3904
  591TMC3    C7 8768   0.392   0.560  16.181  0.3533 -0.1085 -0.0096
  591TMC3    C8 8769   0.398   0.213  15.844 -0.9688  0.3038 -0.1770
  591TMC3    O1 8770   0.317   0.565  16.277 -0.0682 -0.5228 -0.1600
  591TMC3    O2 8771   0.393   0.088  15.836 -0.3054 -0.0590  0.0199
  592MPD2     C 8772   0.237   1.769  11.236  0.3838  0.2130  0.0962
  592MPD2    C1 8773   0.230   1.789  11.371  1.1307  0.1395 -0.1387
  592MPD2    C2 8774   0.167   1.697  11.449 -0.5259  0.2379  0.5381
  592MPD2    C3 8775   0.114   1.581  11.395  0.4952  0.2643  0.1086
  592MPD2    C4 8776   0.132   1.553  11.260  0.3444  0.4540 -0.4697
  592MPD2    C5 8777   0.199   1.646  11.181 -0.2982 -0.7138 -0.3072
  592MPD2     H 8778   0.151   1.715  11.555 -0.0799  1.0847  0.4591
  592MPD2    H1 8779   0.091   1.461  11.220  1.5743 -0.5551  0.6252
  592MPD2    H2 8780   0.288   1.844  11.176  1.4398  0.0397  0.7580
  592MPD2    H3 8781   0.208   1.639  11.073  3.2979 -0.9228 -0.0107
  592MPD2     N 8782   0.056   1.490  11.484  0.9972  0.6360  0.2670
  592MPD2    H5 8783   0.063   1.494  11.585  0.3466 -1.5595  0.3941
  592MPD2    N1 8784   0.280   1.917  11.412  0.3179  0.1382  0.5050
  592MPD2    H7 8785   0.291   1.989  11.341  0.0485  1.1592  1.4961
  593TMC3    C1 8786   0.389   2.076  11.563  0.3421 -0.8245 -0.0060
  593TMC3    C2 8787   0.441   2.086  11.696 -0.7613 -0.2092 -0.6022
  593TMC3    C3 8788   0.522   2.195  11.720  1.6857 -0.3189 -0.3025
  593TMC3    C4 8789   0.417   2.159  11.463 -0.9615 -0.2787  0.3044
  593TMC3    C5 8790   0.498   2.266  11.499  0.2421  0.7235  0.7706
  593TMC3    C6 8791   0.557   2.281  11.625  0.0982  0.2698 -0.0380
  593TMC3     C 8792   0.297   1.960  11.541  0.4344 -0.1410  0.4635
  593TMC3     O 8793   0.281   1.898  11.645  0.4835  0.6489  0.3134
  593TMC3     H 8794   0.416   2.027  11.783 -1.4002  0.8516 -0.0685
  593TMC3    H1 8795   0.362   2.149  11.370  1.4551 -0.2243 -1.1312
  593TMC3    H2 8796   0.616   2.371  11.636 -0.8179  1.0644 -1.6363
  593TMC3    C7 8797   0.479   2.387  11.424  0.2349 -0.2727  0.2469
  593TMC3    C8 8798   0.518   2.245  11.856 -0.0955 -0.4532  0.8348
  593TMC3    O1 8799   0.482   2.495  11.483 -0.4665  0.3103  0.0650
  593TMC3    O2 8800   0.417   2.209  11.915 -0.0265 -0.3907 -0.7648
  594MPD2     C 8801   3.820   0.581  14.275  0.2542  0.3859 -0.4694
  594MPD2    C1 8802   3.819   0.634  14.399 -0.7175  0.1595 -0.6246
  594MPD2    C2 8803   3.926   0.716  14.441  0.1438  0.3148 -0.3264
  594MPD2    C3 8804   4.042   0.723  14.366 -0.1043 -0.5124 -0.2122
  594MPD2    C4 8805   4.043   0.666  14.235  0.8314 -0.3841 -0.2653
  594MPD2    C5 8806   3.933   0.590  14.201 -0.1186  0.1763  0.3334
  594MPD2     H 8807   3.931   0.764  14.538  0.8058  0.0442 -0.2293
  594MPD2    H1 8808   4.122   0.679  14.162  1.6490 -1.4445  0.4271
  594MPD2    H2 8809   3.738   0.517  14.246 -0.2587  0.1421  1.5098
  594MPD2    H3 8810   3.936   0.536  14.107 -1.2395  0.7493 -0.0331
  594MPD2     N 8811   4.139   0.810  14.418 -0.4054  0.3402 -0.3590
  594MPD2    H5 8812   4.116   0.856  14.506 -2.9454 -0.7331 -0.4418
  594MPD2    N1 8813   3.716   0.602  14.485  0.1963  0.0419 -0.0073
  594MPD2    H7 8814   3.643   0.552  14.435 -1.9781  4.4148 -1.2239
  595TMC3    C1 8815   4.560   1.002  14.446  1.0562  0.4404 -0.3351
  595TMC3    C2 8816   4.484   0.899  14.400  0.6600 -0.9166  0.2366
  595TMC3    C3 8817   4.348   0.924  14.419  0.7745  0.6273  0.5895
  595TMC3    C4 8818   4.508   1.120  14.495 -0.1385  1.0003  0.1785
  595TMC3    C5 8819   4.373   1.138  14.494 -0.4657  0.2632  0.3121
  595TMC3    C6 8820   4.289   1.040  14.452  0.4881  0.1588 -0.5333
  595TMC3     C 8821   4.692   0.975  14.485  0.3813  0.0811  0.6366
  595TMC3     O 8822   0.009   1.013  14.595  0.5195 -0.0034  0.5191
  595TMC3     H 8823   4.532   0.816  14.349  2.3648 -0.2401  0.7489
  595TMC3    H1 8824   4.580   1.189  14.537 -0.5518  1.5968 -0.0870
  595TMC3    H2 8825   4.181   1.049  14.444  0.4463 -1.0797 -1.3250
  595TMC3    C7 8826   4.312   1.266  14.520  0.4292 -0.7614  0.2880
  595TMC3    C8 8827   4.263   0.824  14.358 -0.3523 -0.3567 -0.0160
  595TMC3    O1 8828   4.186   1.270  14.528 -0.1967  0.4285  0.4074
  595TMC3    O2 8829   4.314   0.752  14.273 -0.4239  0.1924 -0.0087
  596MPD2     C 8830   3.020   3.071  16.673 -0.5256 -0.7297  0.8208
  596MPD2    C1 8831   3.127   3.154  16.653 -0.4089  0.5081 -0.0192
  596MPD2    C2 8832   3.183   3.176  16.525 -0.3810 -0.7425  0.8734
  596MPD2    C3 8833   3.123   3.119  16.413 -0.5608 -0.3617 -0.5777
  596MPD2    C4 8834   3.019   3.023  16.434  0.3603 -0.3846  0.0102
  596MPD2    C5 8835   2.969   3.011  16.563  0.0291  0.2831  0.5491
  596MPD2     H 8836   3.265   3.246  16.523 -1.7478  0.7667 -1.9522
  596MPD2    H1 8837   2.968   2.978  16.350 -2.2931 -0.1567  1.5173
  596MPD2    H2 8838   2.972   3.045  16.767  1.9135 -2.4502  1.5660
  596MPD2    H3 8839   2.892   2.937  16.581 -1.2725  1.5247  0.0377
  596MPD2     N 8840   3.170   3.149  16.286 -0.1453  0.5497 -0.2197
  596MPD2    H5 8841   3.130   3.096  16.210 -0.2263 -1.5900  1.3091
  596MPD2    N1 8842   3.174   3.239  16.755  0.1698  0.2175  0.6942
  596MPD2    H7 8843   3.237   3.307  16.716 -0.5609 -0.1564 -1.1165
  597TMC3    C1 8844   3.147   3.380  16.951 -0.5660  0.0806  0.2266
  597TMC3    C2 8845   3.220   3.475  16.888  0.0052  0.3848 -0.3436
  597TMC3    C3 8846   3.236   3.598  16.948 -0.2355  0.3510  0.1236
  597TMC3    C4 8847   3.092   3.405  17.069 -0.0240 -0.0522  0.9333
  597TMC3    C5 8848   3.107   3.528  17.127 -0.3521 -0.9313  0.3966
  597TMC3    C6 8849   3.174   3.632  17.066  0.0152  0.0286  0.3701
  597TMC3     C 8850   3.106   3.262  16.878 -0.1883  0.7642  0.3516
  597TMC3     O 8851   3.022   3.192  16.928  0.2529  0.3095  0.3803
  597TMC3     H 8852   3.272   3.443  16.798  0.4168  0.0509  0.0153
  597TMC3    H1 8853   3.034   3.331  17.124 -2.1490 -0.2753 -1.6222
  597TMC3    H2 8854   3.190   3.731  17.110 -0.1035 -0.2792  1.1146
  597TMC3    C7 8855   3.025   3.551  17.246  0.2825 -0.1339  0.1322
  597TMC3    C8 8856   3.330   3.698  16.895  0.0748  0.5633 -0.5711
  597TMC3    O1 8857   2.981   3.459  17.312  0.3231  0.0035 -0.7959
  597TMC3    O2 8858   3.336   3.797  16.962  0.0660  0.0109  0.2709
  598TMC3    C1 8859   1.786   0.573  15.282 -0.3532 -0.1039 -0.2840
  598TMC3    C2 8860   1.701   0.477  15.329 -0.1862  0.1937  0.3901
  598TMC3    C3 8861   1.576   0.469  15.281  0.3640  0.1554 -0.3437
  598TMC3    C4 8862   1.757   0.653  15.171  0.0409  0.2272 -0.4662
  598TMC3    C5 8863   1.632   0.629  15.121 -0.8425 -1.0639 -0.1985
  598TMC3    C6 8864   1.539   0.549  15.174 -0.4750 -0.1101  0.6777
  598TMC3     C 8865   1.920   0.579  15.329  0.1925  0.3349 -0.3442
  598TMC3     O 8866   1.988   0.678  15.307 -0.5541 -0.4865 -0.2904
  598TMC3     H 8867   1.730   0.429  15.422  3.2600  1.8401  0.1761
  598TMC3    H1 8868   1.839   0.698  15.116  0.3850  0.2216  0.0294
  598TMC3    H2 8869   1.439   0.541  15.135  0.0739  0.1057 -0.7480
  598TMC3    C7 8870   1.603   0.693  14.990 -0.1353  0.3879  0.0943
  598TMC3    C8 8871   1.499   0.349  15.298  0.8390  0.1779 -0.8926
  598TMC3    O1 8872   1.507   0.657  14.923 -1.2184 -0.1537  0.0310
  598TMC3    O2 8873   1.394   0.338  15.240  0.0992  0.0090 -0.3509
  599MPD2     C 8874   1.996   2.403  16.438  0.0077  0.2145  0.3316
  599MPD2    C1 8875   1.910   2.337  16.351 -0.1826 -0.7253  0.3736
  599MPD2    C2 8876   1.773   2.357  16.357 -0.2294 -0.0191  0.3848
  599MPD2    C3 8877   1.730   2.440  16.460  0.2768 -0.0424 -0.6258
  599MPD2    C4 8878   1.815   2.513  16.541  0.3743  0.2153 -0.1289
  599MPD2    C5 8879   1.948   2.491  16.526  0.0628 -0.2024 -0.2921
  599MPD2     H 8880   1.714   2.320  16.274 -0.4473  1.8010 -0.2822
  599MPD2    H1 8881   1.788   2.583  16.619 -0.9089 -0.8225  0.3666
  599MPD2    H2 8882   2.103   2.400  16.421 -0.1625 -1.9998 -0.3664
  599MPD2    H3 8883   2.023   2.536  16.589 -2.5143  2.4016  0.8958
  599MPD2     N 8884   1.600   2.483  16.466  0.0147 -0.1605  0.4379
  599MPD2    H5 8885   1.573   2.546  16.541 -0.1136 -0.5574  0.7246
  599MPD2    N1 8886   1.968   2.248  16.252 -0.3394 -0.2622  0.3380
  599MPD2    H7 8887   2.068   2.240  16.261 -0.1598  0.2902 -1.2003
  600TMC3    C1 8888   1.362   2.487  16.431  0.7423  1.1236 -0.4266
  600TMC3    C2 8889   1.251   2.404  16.417  0.1808 -0.8094 -0.2183
  600TMC3    C3 8890   1.131   2.458  16.448 -0.2490 -0.3647  0.7499
  600TMC3    C4 8891   1.345   2.624  16.468 -0.0815 -0.5662 -0.2907
  600TMC3    C5 8892   1.221   2.671  16.483  0.0398 -0.0825 -0.0243
  600TMC3    C6 8893   1.112   2.590  16.479  0.0002 -0.1929 -1.0091
  600TMC3     C 8894   1.492   2.428  16.394  0.3363 -0.1265 -0.3972
  600TMC3     O 8895   1.489   2.343  16.311 -0.0772 -0.0167 -0.2212
  600TMC3     H 8896   1.264   2.299  16.395  0.8761 -1.0465  1.3442
  600TMC3    H1 8897   1.430   2.689  16.451 -0.6983  1.1827  3.4454
  600TMC3    H2 8898   1.014   2.628  16.503  0.7191  0.3506  1.0672
  600TMC3    C7 8899   1.196   2.816  16.490  0.7336 -0.0892  0.3696
  600TMC3    C8 8900   1.020   2.364  16.453 -0.0760  0.4905 -0.3081
  600TMC3    O1 8901   1.106   2.857  16.559 -0.0540 -0.1731  0.3634
  600TMC3    O2 8902   1.058   2.251  16.478 -0.5025  0.5460 -0.2428
  601MPD2     C 8903   3.476   0.195   0.983  0.1804  0.3105 -0.1967
  601MPD2    C1 8904   3.387   0.176   0.883  0.0808 -0.2189  0.3380
  601MPD2    C2 8905   3.334   0.047   0.859 -0.1252  0.6715 -0.1934
  601MPD2    C3 8906   3.370   4.664   0.939 -0.5320 -0.9086  0.3401
  601MPD2    C4 8907   3.452   4.691   1.046  0.1461 -0.0599  0.4267
  601MPD2    C5 8908   3.497   0.098   1.073  0.3185 -0.2918 -0.5591
  601MPD2     H 8909   3.257   0.029   0.785  1.7469 -1.8111 -1.5247
  601MPD2    H1 8910   3.469   4.608   1.114  0.1284 -0.5772 -0.1980
  601MPD2    H2 8911   3.509   0.296   1.003 -0.5144  0.7376 -1.2141
  601MPD2    H3 8912   3.566   0.118   1.154  1.5163 -1.2357 -1.3517
  601MPD2     N 8913   3.317   4.534   0.927 -0.2389  0.3220  0.5214
  601MPD2    H5 8914   3.347   4.468   0.998  1.4518 -1.9373 -2.2840
  601MPD2    N1 8915   3.337   0.277   0.800  0.0608  0.2073 -0.0468
  601MPD2    H7 8916   3.279   0.246   0.722 -0.3251  1.2842 -0.1858
  602TMC3    C1 8917   3.311   0.487   0.698  0.2177 -0.0555 -0.6036
  602TMC3    C2 8918   3.384   0.582   0.640  0.8139 -0.4081 -0.5564
  602TMC3    C3 8919   3.337   0.637   0.527 -0.3129  0.3876 -0.3940
  602TMC3    C4 8920   3.198   0.432   0.640 -0.4803 -0.0254  0.1978
  602TMC3    C5 8921   3.146   0.497   0.526  0.2417 -0.4771  0.0081
  602TMC3    C6 8922   3.214   0.603   0.468 -0.3227 -0.9728  0.2082
  602TMC3     C 8923   3.383   0.407   0.795  0.5801  0.0017  0.1081
  602TMC3     O 8924   3.473   0.467   0.854  0.0824  0.7501  0.2874
  602TMC3     H 8925   3.481   0.611   0.679  1.8129 -5.0601  0.4033
  602TMC3    H1 8926   3.130   0.366   0.692  1.0242 -0.8680  1.1074
  602TMC3    H2 8927   3.180   0.652   0.378 -0.3193 -1.2594  0.0489
  602TMC3    C7 8928   3.019   0.469   0.472 -0.8162  0.4740  0.4916
  602TMC3    C8 8929   3.391   0.766   0.493  1.1040  0.0278 -0.5506
  602TMC3    O1 8930   2.962   0.362   0.483  0.3002 -0.2379 -0.0189
  602TMC3    O2 8931   3.503   0.801   0.526 -0.2062  0.2941 -0.2760
  603TMC3    C1 8932   1.483   1.391  11.017 -0.0871 -0.6054 -0.6121
  603TMC3    C2 8933   1.539   1.383  11.140  0.0266  0.5727  0.7790
  603TMC3    C3 8934   1.490   1.478  11.225 -0.9745  0.2423  0.1826
  603TMC3    C4 8935   1.401   1.492  10.969 -0.0883 -0.1408 -0.3779
  603TMC3    C5 8936   1.363   1.591  11.056 -0.9175 -0.0053  0.2552
  603TMC3    C6 8937   1.411   1.586  11.186  0.2380  0.4343 -0.5976
  603TMC3     C 8938   1.527   1.285  10.930  0.4030 -0.3876  0.4739
  603TMC3     O 8939   1.634   1.235  10.959  0.3805  0.0257  0.0316
  603TMC3     H 8940   1.591   1.292  11.168 -2.0205 -1.2479 -1.3348
  603TMC3    H1 8941   1.383   1.494  10.862  0.1991 -2.0868 -0.4581
  603TMC3    H2 8942   1.371   1.660  11.254 -1.4771 -0.9586 -0.0777
  603TMC3    C7 8943   1.252   1.682  11.028  0.1925 -0.2095  0.3596
  603TMC3    C8 8944   1.531   1.460  11.367  0.5961 -0.3155 -0.4723
  603TMC3    O1 8945   1.244   1.781  11.103 -0.1505  0.4089 -0.1552
  603TMC3    O2 8946   1.566   1.350  11.397 -0.7549  0.4410 -0.4520
  604MPD2     C 8947   2.597   0.206  16.437  0.3325 -0.4989  0.3135
  604MPD2    C1 8948   2.480   0.151  16.385  0.2661 -1.0513 -0.0523
  604MPD2    C2 8949   2.483   0.086  16.264 -0.5792 -0.0527  0.9806
  604MPD2    C3 8950   2.605   0.074  16.191  0.5169  0.0611  0.1665
  604MPD2    C4 8951   2.712   0.151  16.241 -0.1767  0.1792 -0.2585
  604MPD2    C5 8952   2.711   0.208  16.363 -0.1791  0.5552  0.7678
  604MPD2     H 8953   2.392   0.037  16.231  0.3779 -2.4755  1.9730
  604MPD2    H1 8954   2.808   0.160  16.192  0.0503 -1.3436 -0.0737
  604MPD2    H2 8955   2.588   0.266  16.526  2.2422  0.6698 -0.2722
  604MPD2    H3 8956   2.800   0.257  16.400  0.1806  1.4293 -1.2111
  604MPD2     N 8957   2.610   4.710  16.074  0.1771 -0.5391 -0.2424
  604MPD2    H5 8958   2.524   4.675  16.034 -0.1529 -0.0635  0.0632
  604MPD2    N1 8959   2.363   0.167  16.457 -0.0491  0.7084  0.6376
  604MPD2    H7 8960   2.381   0.231  16.533 -0.2514  0.4682  0.8917
  605TMC3    C1 8961   2.143   0.139  16.539  1.4078 -1.0689  0.4310
  605TMC3    C2 8962   2.189   0.180  16.660 -0.7352  0.3097 -0.4215
  605TMC3    C3 8963   2.094   0.213  16.755 -0.8208  0.9111 -0.4353
  605TMC3    C4 8964   2.010   0.145  16.504  0.0098 -0.4549 -0.7343
  605TMC3    C5 8965   1.917   0.176  16.599  0.1493  0.1951  0.1187
  605TMC3    C6 8966   1.956   0.217  16.728  0.3155  0.7204 -0.3472
  605TMC3     C 8967   2.240   0.109  16.438  0.4058 -0.1779 -0.2906
  605TMC3     O 8968   2.197   0.050  16.339 -0.4168  0.7186 -0.2170
  605TMC3     H 8969   2.294   0.166  16.684 -0.8355 -1.5289 -1.0638
  605TMC3    H1 8970   1.985   0.118  16.402  3.1465  1.2268 -1.9580
  605TMC3    H2 8971   1.875   0.237  16.797  1.8134  2.8114  0.7918
  605TMC3    C7 8972   1.781   0.200  16.551 -0.4517 -0.4904  0.6557
  605TMC3    C8 8973   2.128   0.250  16.885 -1.0020  0.6095  0.2902
  605TMC3    O1 8974   1.718   0.287  16.601  0.1796 -0.9501  0.5339
  605TMC3    O2 8975   2.046   0.242  16.976 -0.2474  0.7048 -0.4037
  606TMC3    C1 8976   3.452   2.951  16.629  0.1527 -0.5197 -0.9509
  606TMC3    C2 8977   3.509   3.016  16.738  0.8980 -0.0108  0.0333
  606TMC3    C3 8978   3.455   2.975  16.858  0.1939 -0.3341 -0.2480
  606TMC3    C4 8979   3.358   2.856  16.637 -0.3419 -0.2517  0.2447
  606TMC3    C5 8980   3.305   2.826  16.753  0.5594  0.7364  0.2578
  606TMC3    C6 8981   3.348   2.881  16.868  0.4648  0.0880  0.5173
  606TMC3     C 8982   3.501   3.001  16.499 -0.1704  0.0139 -0.4294
  606TMC3     O 8983   3.604   3.072  16.506 -0.3594  0.2607 -0.2484
  606TMC3     H 8984   3.590   3.087  16.728 -0.3700  1.5384  0.6982
  606TMC3    H1 8985   3.315   2.810  16.548  0.4918  2.1669 -1.4345
  606TMC3    H2 8986   3.306   2.857  16.964  0.9556 -0.6148  0.5581
  606TMC3    C7 8987   3.219   2.704  16.758  0.2527 -0.5242 -0.2850
  606TMC3    C8 8988   3.485   3.052  16.973  0.1941  0.1722  0.1420
  606TMC3    O1 8989   3.180   2.664  16.652  0.1124  0.4153 -0.5591
  606TMC3    O2 8990   3.600   3.093  16.993  0.1818 -0.2799 -0.0603
  607MPD2     C 8991   0.384   1.351  11.553 -0.0012  0.7331 -0.6499
  607MPD2    C1 8992   0.436   1.449  11.634 -0.3098  0.2739  0.1431
  607MPD2    C2 8993   0.444   1.417  11.769  0.4211  0.8809 -0.0739
  607MPD2    C3 8994   0.408   1.302  11.825 -0.3871 -0.1926 -0.4750
  607MPD2    C4 8995   0.375   1.198  11.743 -0.1990 -0.1531 -0.5159
  607MPD2    C5 8996   0.352   1.226  11.611 -0.0253 -0.5848  0.3348
  607MPD2     H 8997   0.493   1.487  11.835 -0.5712 -1.2811  2.9302
  607MPD2    H1 8998   0.365   1.095  11.778  1.1378  0.3361  1.3239
  607MPD2    H2 8999   0.386   1.365  11.445  2.8694  3.4984 -0.2313
  607MPD2    H3 9000   0.324   1.146  11.544 -0.8006  1.2214 -1.5277
  607MPD2     N 9001   0.448   1.295  11.959  0.7087  0.5311 -0.7259
  607MPD2    H5 9002   0.456   1.383  12.009 -0.0455 -0.4650  1.1502
  607MPD2    N1 9003   0.491   1.569  11.590 -0.0077 -0.6466  0.1465
  607MPD2    H7 9004   0.510   1.629  11.670  0.4392 -0.5421 -0.0376
  608TMC3    C1 9005   0.630   1.712  11.469  0.6039 -0.4688 -0.0575
  608TMC3    C2 9006   0.684   1.763  11.583 -0.6405 -0.4984 -0.0180
  608TMC3    C3 9007   0.735   1.891  11.586  0.1520  0.2473  0.4458
  608TMC3    C4 9008   0.641   1.787  11.352  0.3603 -0.5240  0.4241
  608TMC3    C5 9009   0.695   1.910  11.356  0.9672  0.1567  0.1977
  608TMC3    C6 9010   0.749   1.967  11.467 -0.1685  0.5049 -0.1741
  608TMC3     C 9011   0.547   1.592  11.467  0.7108 -0.2125 -0.4935
  608TMC3     O 9012   0.530   1.530  11.366  0.4077  0.1881  0.5655
  608TMC3     H 9013   0.686   1.700  11.672 -1.0858 -1.4830 -0.6953
  608TMC3    H1 9014   0.614   1.750  11.254 -0.2145  1.1207 -0.0309
  608TMC3    H2 9015   0.778   2.071  11.478 -0.6558  0.7829 -1.4743
  608TMC3    C7 9016   0.687   1.988  11.236 -0.3655  0.1792 -0.2822
  608TMC3    C8 9017   0.782   1.946  11.713 -0.3988 -0.3560  0.3553
  608TMC3    O1 9018   0.617   1.939  11.148  0.5631  0.0544  0.2364
  608TMC3    O2 9019   0.853   2.047  11.717 -0.0580 -0.1861 -0.4625
  609TMC3    C1 9020   3.932   0.334   8.915 -0.4057 -0.0065  0.5117
  609TMC3    C2 9021   3.968   0.430   8.823  0.2649 -0.0327  0.1326
  609TMC3    C3 9022   4.100   0.433   8.773  0.6964 -0.3260 -0.2927
  609TMC3    C4 9023   4.022   0.244   8.965  0.2615 -0.3005  0.0715
  609TMC3    C5 9024   4.147   0.253   8.915  0.0667 -0.5455 -0.5195
  609TMC3    C6 9025   4.190   0.347   8.824 -0.1071 -0.7667  0.2264
  609TMC3     C 9026   3.804   0.348   8.978  0.5570  0.1269  0.0275
  609TMC3     O 9027   3.728   0.251   8.984 -0.7593  0.6232  0.3099
  609TMC3     H 9028   3.896   0.495   8.773  1.1485  1.9824  1.4583
  609TMC3    H1 9029   4.007   0.179   9.050 -1.1367 -1.7720 -1.2897
  609TMC3    H2 9030   4.292   0.336   8.790 -0.4647 -0.1064 -1.0696
  609TMC3    C7 9031   4.245   0.155   8.972 -0.3416  0.0271 -0.6596
  609TMC3    C8 9032   4.117   0.507   8.643  0.5037  0.3835 -0.0371
  609TMC3    O1 9033   4.357   0.190   9.008 -0.3907 -0.2228 -0.7806
  609TMC3    O2 9034   4.012   0.566   8.603 -0.3599  0.0397 -0.0391
  610TMC3    C1 9035   0.989   1.402  12.554 -0.1996 -0.1844  0.3062
  610TMC3    C2 9036   1.008   1.491  12.452 -0.4271 -0.3372 -0.3382
  610TMC3    C3 9037   1.132   1.498  12.401  0.6215  0.3034  0.6174
  610TMC3    C4 9038   1.089   1.319  12.597 -0.1280  0.2401 -0.0299
  610TMC3    C5 9039   1.217   1.331  12.540 -0.3524 -0.2294 -0.4811
  610TMC3    C6 9040   1.240   1.423  12.435  0.4711  0.3692 -0.1350
  610TMC3     C 9041   0.857   1.373  12.600  0.3398 -0.6803 -0.2720
  610TMC3     O 9042   0.832   1.257  12.622 -0.3107  0.1974  0.6659
  610TMC3     H 9043   0.932   1.565  12.434  1.7997  2.2341  0.7239
  610TMC3    H1 9044   1.068   1.249  12.678 -0.3613 -0.1260 -0.4089
  610TMC3    H2 9045   1.334   1.415  12.381  0.0148 -1.9252 -0.6079
  610TMC3    C7 9046   1.325   1.268  12.613 -0.4485  0.4163  0.3409
  610TMC3    C8 9047   1.145   1.599  12.301  0.6233  0.0146  0.0126
  610TMC3    O1 9048   1.288   1.177  12.687  0.1265  0.0391 -0.5981
  610TMC3    O2 9049   1.047   1.669  12.269  0.1919 -0.2835 -0.3235
  611MPD2     C 9050   0.107   0.974  10.783 -0.2645  0.8016 -0.0875
  611MPD2    C1 9051   0.127   0.972  10.652 -0.5331 -0.5072 -0.2931
  611MPD2    C2 9052   0.206   1.076  10.600  0.0564  0.4496  0.0755
  611MPD2    C3 9053   0.281   1.161  10.679 -0.3002 -0.2682  0.9146
  611MPD2    C4 9054   0.259   1.158  10.818  0.3029 -0.3094 -0.3909
  611MPD2    C5 9055   0.168   1.065  10.865  0.2964 -0.1718  0.4604
  611MPD2     H 9056   0.208   1.090  10.492  0.3922 -1.1084 -0.1121
  611MPD2    H1 9057   0.315   1.224  10.883  0.6200 -0.2728 -0.6993
  611MPD2    H2 9058   0.036   0.916  10.841  0.1995  0.7273  0.4103
  611MPD2    H3 9059   0.149   1.063  10.971  2.2400 -1.7800  0.7777
  611MPD2     N 9060   0.369   1.263  10.625  0.3001  1.0011 -0.3044
  611MPD2    H5 9061   0.406   1.336  10.685  2.9455  0.5825 -1.4293
  611MPD2    N1 9062   0.059   0.878  10.573  0.2693 -0.3588 -0.8295
  611MPD2    H7 9063   0.008   0.813  10.631 -0.2675  0.4941 -0.3440
  612TMC3    C1 9064   0.467   1.398  10.451  0.4494 -0.4592  0.1977
  612TMC3    C2 9065   0.523   1.477  10.550  0.2897 -0.0213 -0.2672
  612TMC3    C3 9066   0.564   1.604  10.521  0.3111 -0.8495  0.7561
  612TMC3    C4 9067   0.452   1.442  10.322  0.7522  0.4206 -0.1167
  612TMC3    C5 9068   0.496   1.569  10.300  0.1441  0.2640  0.4548
  612TMC3    C6 9069   0.551   1.652  10.391 -1.0351  0.3273 -0.3200
  612TMC3     C 9070   0.389   1.280  10.490  0.0116  0.2891  0.8586
  612TMC3     O 9071   0.364   1.209  10.393 -0.2393  0.1241  0.1015
  612TMC3     H 9072   0.546   1.445  10.652 -0.5483 -2.0373 -0.7030
  612TMC3    H1 9073   0.437   1.366  10.247 -0.3634 -0.5752  1.1144
  612TMC3    H2 9074   0.600   1.745  10.362  2.0355 -0.3053  2.8049
  612TMC3    C7 9075   0.475   1.613  10.158 -0.5138 -0.3233  0.1532
  612TMC3    C8 9076   0.634   1.692  10.613  0.3865  0.0874  0.2288
  612TMC3    O1 9077   0.459   1.532  10.066 -0.6040 -0.2759 -0.1670
  612TMC3    O2 9078   0.618   1.815  10.590  0.0233 -0.0153 -0.2788
  613MPD2     C 9079   4.612   3.680  16.760 -0.2250 -0.0144  0.0742
  613MPD2    C1 9080   4.519   3.689  16.653  0.9122  0.4674 -0.7729
  613MPD2    C2 9081   4.422   3.590  16.641 -0.8246 -0.6268 -0.1886
  613MPD2    C3 9082   4.435   3.476  16.724  0.6079  0.6721 -0.3683
  613MPD2    C4 9083   4.518   3.472  16.833 -0.1356 -0.1334  0.1334
  613MPD2    C5 9084   4.602   3.578  16.854 -0.2419 -0.2877 -0.9756
  613MPD2     H 9085   4.360   3.599  16.552 -0.7016  1.6188 -0.0604
  613MPD2    H1 9086   4.520   3.394  16.909  1.0121  0.2352  0.4947
  613MPD2    H2 9087   4.691   3.754  16.768 -0.1752 -0.1245  0.5881
  613MPD2    H3 9088   4.671   3.570  16.938 -3.3258  0.3619  1.6182
  613MPD2     N 9089   4.369   3.354  16.687  0.1482 -0.1375 -0.7367
  613MPD2    H5 9090   4.392   3.269  16.737  3.1426  1.0552 -0.1388
  613MPD2    N1 9091   4.551   3.788  16.562 -0.0509 -0.1990 -0.5421
  613MPD2    H7 9092   4.641   3.834  16.571 -0.7286  0.9484  0.4504
  614TMC3    C1 9093   4.571   3.884  16.351  0.1089 -0.3504 -0.2375
  614TMC3    C2 9094   4.674   3.800  16.312 -0.8325  0.2720 -0.7170
  614TMC3    C3 9095   4.664   3.747  16.184  0.6039  0.5331  0.1428
  614TMC3    C4 9096   4.503   3.954  16.255 -0.6749 -0.1490  0.6590
  614TMC3    C5 9097   4.523   3.919  16.126 -0.5817 -0.4609 -0.0502
  614TMC3    C6 9098   4.590   3.806  16.082 -0.1289  0.7573 -1.0755
  614TMC3     C 9099   4.479   3.821  16.453 -0.1225 -0.1972  0.7320
  614TMC3     O 9100   4.370   3.796  16.409  0.4353  0.0445  0.0190
  614TMC3     H 9101   0.019   3.753  16.384 -0.3660 -0.7809 -1.8180
  614TMC3    H1 9102   4.425   4.023  16.284 -2.5062 -2.4457  1.2675
  614TMC3    H2 9103   4.580   3.758  15.986 -2.3759 -0.6091 -0.1703
  614TMC3    C7 9104   4.440   3.981  16.027 -0.7167 -0.3173 -0.1566
  614TMC3    C8 9105   0.006   3.615  16.166  0.7566  0.1185  0.2357
  614TMC3    O1 9106   4.400   4.093  16.060  0.0934  0.2974  0.1982
  614TMC3    O2 9107   0.040   3.558  16.268 -0.3277 -0.0096  0.2018
  615MPD2     C 9108   4.086   0.168  16.519 -0.3887  0.5477  0.2092
  615MPD2    C1 9109   3.981   0.249  16.494 -0.2801 -0.3079 -0.4212
  615MPD2    C2 9110   3.891   0.213  16.388  0.3484  0.4477  1.0130
  615MPD2    C3 9111   3.908   0.093  16.311 -0.2999 -0.6570 -0.0518
  615MPD2    C4 9112   4.012   0.010  16.350 -0.1769  0.1743  0.4706
  615MPD2    C5 9113   4.092   0.046  16.456  0.9291 -0.8782 -0.5566
  615MPD2     H 9114   3.815   0.287  16.369  1.2666  0.7262 -1.5917
  615MPD2    H1 9115   4.027   4.639  16.294  1.0653  0.9845 -0.5241
  615MPD2    H2 9116   4.169   0.183  16.587 -1.2964 -0.0627  1.4484
  615MPD2    H3 9117   4.171   4.696  16.480  0.6542 -2.0288 -3.0060
  615MPD2     N 9118   3.825   0.065  16.199  0.4326 -0.1144 -0.1281
  615MPD2    H5 9119   3.851   4.715  16.131 -0.3429 -1.2772  0.7784
  615MPD2    N1 9120   3.966   0.382  16.543  0.9938  0.1051  0.1752
  615MPD2    H7 9121   3.884   0.428  16.504  0.3783 -0.4444  0.8413
  616TMC3    C1 9122   3.991   0.572  16.678 -0.0575 -0.2733  0.4071
  616TMC3    C2 9123   4.077   0.649  16.748 -0.1183 -0.2440  0.0031
  616TMC3    C3 9124   4.025   0.746  16.838 -0.0963  0.1802 -0.1916
  616TMC3    C4 9125   3.857   0.589  16.675  0.0452 -0.5914 -0.8655
  616TMC3    C5 9126   3.810   0.704  16.739 -0.0980  0.2433 -0.3473
  616TMC3    C6 9127   3.887   0.777  16.826 -0.0135  0.1051 -0.8006
  616TMC3     C 9128   4.037   0.440  16.645  0.0275  0.9677 -0.0418
  616TMC3     O 9129   4.126   0.399  16.715  0.2381  0.2246 -0.0680
  616TMC3     H 9130   4.181   0.620  16.742 -0.5138 -1.6992  0.3062
  616TMC3    H1 9131   3.780   0.522  16.639  1.0615 -1.9031 -0.6334
  616TMC3    H2 9132   3.839   0.864  16.869  0.8474  0.0863  0.2121
  616TMC3    C7 9133   3.676   0.745  16.705  0.0471 -0.5389  0.2456
  616TMC3    C8 9134   4.114   0.852  16.885 -0.2287  0.0265 -0.7250
  616TMC3    O1 9135   3.626   0.833  16.775  0.3660  0.7210  0.6774
  616TMC3    O2 9136   4.069   0.924  16.971 -0.1205  0.6234  0.2296
  617MPD2     C 9137   1.924   2.995  13.605 -0.3134  0.5066  0.1022
  617MPD2    C1 9138   1.925   3.076  13.708  0.3191  0.5514  0.0808
  617MPD2    C2 9139   1.814   3.064  13.799  0.4965 -0.4766  0.4166
  617MPD2    C3 9140   1.720   2.963  13.778 -0.1436 -0.2043 -0.2170
  617MPD2    C4 9141   1.721   2.888  13.669  0.3461  0.5144  0.2754
  617MPD2    C5 9142   1.823   2.906  13.583  0.6948  0.6660  0.2742
  617MPD2     H 9143   1.808   3.131  13.884 -0.3424  1.6844 -1.3685
  617MPD2    H1 9144   1.645   2.813  13.654  0.2118  0.0582  3.1379
  617MPD2    H2 9145   2.000   3.008  13.528  1.1040  1.4311  1.6368
  617MPD2    H3 9146   1.833   2.848  13.492  1.4470 -0.7951  1.2859
  617MPD2     N 9147   1.610   2.942  13.865  0.2514 -0.0044 -0.6137
  617MPD2    H5 9148   1.543   2.876  13.830  0.3195  0.8801 -2.3859
  617MPD2    N1 9149   2.019   3.181  13.712 -0.0937  0.1684  0.2228
  617MPD2    H7 9150   2.079   3.184  13.630 -1.4400  0.8018 -0.7484
  618TMC3    C1 9151   2.162   3.344  13.777  0.3489  1.1495  0.3477
  618TMC3    C2 9152   2.264   3.363  13.866  0.0291 -0.7373  0.1451
  618TMC3    C3 9153   2.381   3.417  13.827  0.1790  0.1953  0.5175
  618TMC3    C4 9154   2.185   3.360  13.643 -0.9253  0.2705 -0.1017
  618TMC3    C5 9155   2.304   3.416  13.611 -0.7058 -0.1100 -0.2001
  618TMC3    C6 9156   2.406   3.446  13.697 -0.3253  0.5391 -0.3321
  618TMC3     C 9157   2.047   3.265  13.818 -0.2220  0.3194  0.7145
  618TMC3     O 9158   2.003   3.257  13.932  0.1302  0.2820 -0.3877
  618TMC3     H 9159   2.247   3.353  13.973 -1.6565 -2.3208 -0.2736
  618TMC3    H1 9160   2.107   3.366  13.569 -1.6056  1.2675  0.6929
  618TMC3    H2 9161   2.498   3.491  13.660 -0.2614  1.2763  0.7111
  618TMC3    C7 9162   2.349   3.395  13.473  0.9080 -0.4363 -0.1343
  618TMC3    C8 9163   2.491   3.393  13.915  0.2014  0.5048 -0.1836
  618TMC3    O1 9164   2.432   3.472  13.428 -0.0628  0.0213 -0.0766
  618TMC3    O2 9165   2.471   3.389  14.038  0.6546  0.0181 -0.3696
  619MPD2     C 9166   3.537   3.927  13.478 -0.2718  1.0116  0.1757
  619MPD2    C1 9167   3.491   4.056  13.459  0.9019  0.1248 -0.7765
  619MPD2    C2 9168   3.352   4.078  13.472  0.2851 -0.0404 -0.6020
  619MPD2    C3 9169   3.261   3.974  13.483  0.0876 -0.2975  0.2939
  619MPD2    C4 9170   3.313   3.848  13.492  0.5173  0.8602  0.7943
  619MPD2    C5 9171   3.448   3.826  13.496 -0.6633 -0.2363  0.9411
  619MPD2     H 9172   3.323   4.182  13.459  1.8543  0.2727 -1.6309
  619MPD2    H1 9173   3.243   3.765  13.499  0.4169  0.9472  0.8275
  619MPD2    H2 9174   3.643   3.906  13.493  0.3337  3.6559 -0.3429
  619MPD2    H3 9175   3.484   3.724  13.504 -0.7652 -0.5177 -2.0665
  619MPD2     N 9176   3.121   3.994  13.484 -0.0266 -0.3723 -0.4128
  619MPD2    H5 9177   3.053   3.919  13.479 -1.0882  0.5955 -0.2218
  619MPD2    N1 9178   3.572   4.169  13.433  0.4686 -0.5064  0.4904
  619MPD2    H7 9179   3.528   4.259  13.416 -0.7356 -0.8548  1.6890
  620TMC3    C1 9180   3.749   4.304  13.410 -0.0362 -0.5662  0.7258
  620TMC3    C2 9181   3.673   4.377  13.325  0.0769 -0.5047  0.2676
  620TMC3    C3 9182   3.664   4.517  13.353  0.3791  0.7126 -0.5773
  620TMC3    C4 9183   3.808   4.363  13.519  0.2379 -0.4002 -0.0827
  620TMC3    C5 9184   3.800   4.499  13.536 -0.6148  0.0921  0.6526
  620TMC3    C6 9185   3.733   4.581  13.449 -0.2728  0.3100  0.2859
  620TMC3     C 9186   3.708   4.169  13.433 -0.6433  0.1803  0.4099
  620TMC3     O 9187   3.791   4.077  13.435  0.3752  0.2436  0.2327
  620TMC3     H 9188   3.623   4.332  13.240 -0.9616  2.8886 -0.9394
  620TMC3    H1 9189   3.880   4.317  13.585  1.2209  0.2684 -0.6769
  620TMC3    H2 9190   3.734   4.689  13.462 -0.9445  0.4669 -0.9860
  620TMC3    C7 9191   3.784   4.531  13.674  0.0119 -0.3777 -0.2160
  620TMC3    C8 9192   3.526   4.569  13.354  0.2671 -0.1517  0.2271
  620TMC3    O1 9193   3.861   4.479  13.753 -0.2008  0.1817  0.2839
  620TMC3    O2 9194   3.501   4.666  13.427  0.3722 -0.4078 -0.4939
  621MPD2     C 9195   3.483   3.811  10.328 -1.2236 -0.3925  0.1567
  621MPD2    C1 9196   3.481   3.801  10.191  0.1188  0.0013  0.3413
  621MPD2    C2 9197   3.488   3.920  10.124 -0.4387 -0.1535 -0.1594
  621MPD2    C3 9198   3.497   4.043  10.190  0.3388 -0.2441 -0.3227
  621MPD2    C4 9199   3.502   4.046  10.330  0.5131  0.5155  0.1808
  621MPD2    C5 9200   3.486   3.930  10.402  0.0667  0.0482 -0.2723
  621MPD2     H 9201   3.490   3.932  10.017 -0.8015  1.9306  0.0792
  621MPD2    H1 9202   3.501   4.136  10.390 -1.0475  0.4203  0.2957
  621MPD2    H2 9203   3.488   3.722  10.390  0.0106  1.5367  2.8613
  621MPD2    H3 9204   3.485   3.937  10.510  0.5517  2.9600 -0.4316
  621MPD2     N 9205   3.492   4.161  10.110 -0.4049  0.2742 -0.2183
  621MPD2    H5 9206   3.489   4.145  10.010  0.5454 -1.0684 -0.0261
  621MPD2    N1 9207   3.488   3.681  10.116 -0.6186 -0.3179  0.1198
  621MPD2    H7 9208   3.487   3.693  10.015  4.5137 -1.9194 -0.1346
  622TMC3    C1 9209   3.451   3.443  10.080 -0.1790  0.7431 -0.7967
  622TMC3    C2 9210   3.435   3.329  10.156 -0.1225 -0.1487  0.2441
  622TMC3    C3 9211   3.366   3.222  10.102  0.0682 -0.0424  0.1240
  622TMC3    C4 9212   3.408   3.465   9.947 -0.8511  0.7632 -0.5938
  622TMC3    C5 9213   3.356   3.347   9.890  0.1186 -0.4341  0.4031
  622TMC3    C6 9214   3.336   3.237   9.969  0.1108  0.7082 -0.1334
  622TMC3     C 9215   3.486   3.555  10.171 -0.1039 -0.3805  0.1747
  622TMC3     O 9216   3.489   3.523  10.289 -0.6741 -0.0239  0.3749
  622TMC3     H 9217   3.487   3.310  10.249 -0.1938  2.2274  0.7658
  622TMC3    H1 9218   3.430   3.554   9.889 -0.0733  1.9525  1.5358
  622TMC3    H2 9219   3.272   3.163   9.923  2.4040 -1.0759 -0.4469
  622TMC3    C7 9220   3.327   3.331   9.747 -0.0891  0.5020 -0.0905
  622TMC3    C8 9221   3.237   3.199  10.172 -0.4449 -0.3232  0.1940
  622TMC3    O1 9222   3.291   3.219   9.708 -0.2299 -0.2924 -0.6278
  622TMC3    O2 9223   3.165   3.109  10.131  0.1621  0.4056  0.8458
  623MPD2     C 9224   2.579   0.596  16.124 -0.0312 -0.3916 -0.2204
  623MPD2    C1 9225   2.531   0.539  16.238  0.2097  0.6260 -0.0783
  623MPD2    C2 9226   2.595   0.556  16.359 -0.2544  0.4331 -0.1239
  623MPD2    C3 9227   2.708   0.633  16.371 -0.0250  0.5213  0.6860
  623MPD2    C4 9228   2.752   0.703  16.260  0.6154  0.3199 -0.1037
  623MPD2    C5 9229   2.687   0.684  16.139  0.8351 -0.2936  0.1826
  623MPD2     H 9230   2.567   0.503  16.449 -1.0260 -1.2197 -1.3274
  623MPD2    H1 9231   2.833   0.775  16.253 -0.7649  2.0604  1.8118
  623MPD2    H2 9232   2.542   0.586  16.023 -1.3498  0.4035  0.1703
  623MPD2    H3 9233   2.723   0.733  16.049 -0.6139 -0.5841 -0.5705
  623MPD2     N 9234   2.769   0.638  16.495  0.2119 -0.5392 -0.0207
  623MPD2    H5 9235   2.735   0.575  16.567  0.3269 -0.8388 -0.2279
  623MPD2    N1 9236   2.411   0.457  16.240 -0.3141  0.0961 -0.4179
  623MPD2    H7 9237   2.369   0.436  16.330 -0.2479  2.7867  0.2482
  624TMC3    C1 9238   3.067   0.528  16.795  0.0498 -0.4700 -0.5035
  624TMC3    C2 9239   2.970   0.512  16.891  0.3156 -0.7262 -0.0271
  624TMC3    C3 9240   2.844   0.569  16.868  0.2422  0.2007  0.3334
  624TMC3    C4 9241   3.046   0.600  16.679  0.1845 -0.5071 -0.1689
  624TMC3    C5 9242   2.918   0.656  16.666  0.0707 -0.2571 -0.5859
  624TMC3    C6 9243   2.821   0.649  16.763  0.1773 -0.1853 -0.0223
  624TMC3     C 9244   3.187   0.445  16.808  0.1453  0.4150  0.2228
  624TMC3     O 9245   3.190   0.386  16.917  0.3667  0.1808 -0.5800
  624TMC3     H 9246   2.978   0.443  16.975  1.2236  0.0876  0.5410
  624TMC3    H1 9247   3.117   0.625  16.601  0.8670 -1.3182  0.1934
  624TMC3    H2 9248   2.726   0.700  16.754  0.1554  0.0174  1.3480
  624TMC3    C7 9249   2.881   0.708  16.535 -0.3372  1.1620 -0.1537
  624TMC3    C8 9250   2.731   0.477  16.885 -0.4426  0.5835 -1.0370
  624TMC3    O1 9251   2.950   0.794  16.476 -0.4713 -0.4424  0.2100
  624TMC3    O2 9252   2.705   0.398  16.795  0.3509 -0.6547 -0.0309
  625MPD2     C 9253   2.391   0.869   1.032  0.1031 -0.1555 -0.5806
  625MPD2    C1 9254   2.495   0.951   1.023  0.6392 -0.3336  0.1634
  625MPD2    C2 9255   2.591   0.924   1.115 -0.9455 -0.0642 -0.2691
  625MPD2    C3 9256   2.589   0.817   1.205 -0.6350 -0.4660 -0.7125
  625MPD2    C4 9257   2.487   0.722   1.201 -0.5401 -0.3982  0.1621
  625MPD2    C5 9258   2.393   0.755   1.104  0.3265  0.0215 -0.0595
  625MPD2     H 9259   2.682   0.982   1.116  0.1104 -1.7478  1.4654
  625MPD2    H1 9260   2.481   0.638   1.269 -0.1862  0.0801  0.7831
  625MPD2    H2 9261   2.305   0.882   0.967  0.2226  1.7257 -0.3570
  625MPD2    H3 9262   2.308   0.688   1.091 -0.8190  1.6827 -1.2234
  625MPD2     N 9263   2.701   0.817   1.294 -0.1637 -0.6359  0.1928
  625MPD2    H5 9264   2.754   0.903   1.299 -0.9123 -0.2649  1.6569
  625MPD2    N1 9265   2.515   1.069   0.945  0.0201 -0.1325 -0.5557
  625MPD2    H7 9266   2.600   1.123   0.962  0.1211 -0.2709 -0.6245
  626TMC3    C1 9267   2.478   1.222   0.779 -0.2995  0.4107 -0.0714
  626TMC3    C2 9268   2.467   1.220   0.645 -0.1991 -0.0953  0.0778
  626TMC3    C3 9269   2.512   1.338   0.586 -0.0000 -1.4142  0.7204
  626TMC3    C4 9270   2.528   1.322   0.861 -0.1788 -0.7162 -0.2335
  626TMC3    C5 9271   2.563   1.435   0.798 -0.0258 -0.1315 -0.0109
  626TMC3    C6 9272   2.558   1.444   0.659  0.2342 -0.2655 -0.7528
  626TMC3     C 9273   2.433   1.098   0.842  0.2782 -0.1786 -0.2084
  626TMC3     O 9274   2.358   1.022   0.775 -0.0227  0.1838 -0.8934
  626TMC3     H 9275   2.419   1.140   0.590 -0.0027  0.4080 -0.8247
  626TMC3    H1 9276   2.533   1.311   0.969 -0.5817  1.1875 -0.0249
  626TMC3    H2 9277   2.590   1.535   0.610  2.7063 -0.9958 -0.5110
  626TMC3    C7 9278   2.631   1.525   0.876  0.5388  0.3528  0.1195
  626TMC3    C8 9279   2.508   1.352   0.449  0.4167 -0.5833 -0.4327
  626TMC3    O1 9280   2.596   1.535   0.994 -0.2332  0.6207  0.2051
  626TMC3    O2 9281   2.567   1.448   0.404  0.2970  0.0408 -1.4091
  627MPD2     C 9282   1.278   2.059  14.618 -0.5359  0.0588 -0.5131
  627MPD2    C1 9283   1.346   2.024  14.732  0.4017 -0.9179  0.0288
  627MPD2    C2 9284   1.329   1.898  14.788 -0.1345 -0.2002  0.1623
  627MPD2    C3 9285   1.227   1.818  14.745  1.0204  0.1257  0.4183
  627MPD2    C4 9286   1.141   1.875  14.647 -0.6162 -0.9539  0.3096
  627MPD2    C5 9287   1.164   1.990  14.584 -0.2997  0.2005  0.1705
  627MPD2     H 9288   1.384   1.865  14.875  0.3231 -0.3492 -0.1798
  627MPD2    H1 9289   1.047   1.830  14.619 -1.3402  0.9334 -0.2515
  627MPD2    H2 9290   1.300   2.156  14.573  1.5436 -0.7579 -1.2646
  627MPD2    H3 9291   1.099   2.022  14.504 -1.5996 -2.0461  0.3088
  627MPD2     N 9292   1.197   1.700  14.818  0.4535 -0.7158  0.5320
  627MPD2    H5 9293   1.261   1.677  14.893  0.0904 -0.1459  1.0202
  627MPD2    N1 9294   1.449   2.099  14.789  0.1296 -0.1613  0.2626
  627MPD2    H7 9295   1.507   2.053  14.859 -0.2263  1.2301  1.4951
  628TMC3    C1 9296   1.568   2.290  14.850  0.8168  0.0320 -0.1171
  628TMC3    C2 9297   1.670   2.209  14.886 -0.4278 -0.2293 -0.2296
  628TMC3    C3 9298   1.776   2.269  14.955 -0.1531 -0.0019  0.3279
  628TMC3    C4 9299   1.567   2.424  14.874 -0.8081 -0.0457  0.2637
  628TMC3    C5 9300   1.661   2.478  14.954  0.2691  0.0131 -0.3218
  628TMC3    C6 9301   1.761   2.401  14.995  0.0365 -0.0159 -0.7863
  628TMC3     C 9302   1.464   2.237  14.767 -0.0814 -0.2577  0.1265
  628TMC3     O 9303   1.407   2.318  14.694  0.0570  0.6574 -0.1266
  628TMC3     H 9304   1.672   2.102  14.870 -1.4605 -0.5789  1.8910
  628TMC3    H1 9305   1.485   2.487  14.842 -2.5319 -2.0697  0.7427
  628TMC3    H2 9306   1.844   2.446  15.048 -0.8874  1.8256 -0.9365
  628TMC3    C7 9307   1.713   2.604  14.899  0.2460 -0.7287 -0.0338
  628TMC3    C8 9308   1.904   2.202  14.960  0.8963  0.0496 -0.3698
  628TMC3    O1 9309   1.808   2.658  14.951  0.4990 -0.1680 -0.5957
  628TMC3    O2 9310   1.915   2.100  14.893 -0.0412 -0.5779  0.9922
  629MPD2     C 9311   4.557   1.114  16.863 -0.1508  0.0599  0.5676
  629MPD2    C1 9312   4.568   1.001  16.791  0.4336 -0.6166  0.4866
  629MPD2    C2 9313   4.455   0.929  16.768  0.1601 -0.7664  0.4798
  629MPD2    C3 9314   4.340   0.953  16.845 -0.2564 -0.0094  0.5068
  629MPD2    C4 9315   4.339   1.058  16.938  0.2092 -0.9484  0.1493
  629MPD2    C5 9316   4.445   1.140  16.941  0.0592 -0.5075  0.1382
  629MPD2     H 9317   4.455   0.841  16.706 -0.2778  0.8445 -1.8045
  629MPD2    H1 9318   4.264   1.049  17.016 -1.2935  1.5282 -1.0201
  629MPD2    H2 9319   4.638   1.185  16.868  0.3920 -0.5464  0.2837
  629MPD2    H3 9320   4.445   1.226  17.006  0.6069 -2.7642  3.0900
  629MPD2     N 9321   4.235   0.861  16.818 -0.1466  0.6660  0.5531
  629MPD2    H5 9322   4.259   0.793  16.747 -0.8530  0.8308  0.1604
  629MPD2    N1 9323   4.693   0.954  16.748  0.5821 -0.4450 -0.3441
  629MPD2    H7 9324   0.057   1.009  16.762 -0.6280  2.1038 -2.8928
  630TMC3    C1 9325   0.132   0.801  16.672  0.4817 -0.1530 -0.4003
  630TMC3    C2 9326   0.209   0.909  16.625  0.2492 -0.3121  0.5098
  630TMC3    C3 9327   0.335   0.878  16.583 -0.5875  0.3244  1.0900
  630TMC3    C4 9328   0.168   0.669  16.668  0.0270  0.0380  0.1001
  630TMC3    C5 9329   0.298   0.650  16.630  0.7209  0.1588 -0.0812
  630TMC3    C6 9330   0.382   0.745  16.575  0.4599 -0.1554 -0.1636
  630TMC3     C 9331   4.713   0.818  16.715  0.0284  0.1194  0.7715
  630TMC3     O 9332   4.636   0.719  16.713  0.5301  0.0686  0.6272
  630TMC3     H 9333   0.182   1.014  16.616  1.2414 -0.2422 -1.7892
  630TMC3    H1 9334   0.118   0.591  16.724  1.3685 -0.7573  0.1953
  630TMC3    H2 9335   0.483   0.725  16.542  0.6345 -1.9421  1.4315
  630TMC3    C7 9336   0.370   0.526  16.650  0.0537 -0.8674 -0.2430
  630TMC3    C8 9337   0.440   0.972  16.603  0.8416 -1.1042 -0.1544
  630TMC3    O1 9338   0.491   0.539  16.665  0.2860 -0.4856 -0.0377
  630TMC3    O2 9339   0.552   0.929  16.621 -0.0491  0.0804 -0.1553
  631MPD2     C 9340   2.893   0.420  15.825 -0.3133 -0.1361 -0.0683
  631MPD2    C1 9341   2.997   0.448  15.740  0.2978 -0.1130 -0.2812
  631MPD2    C2 9342   3.108   0.371  15.749  0.2998  0.1344  0.0635
  631MPD2    C3 9343   3.125   0.277  15.845 -0.0668 -0.3947 -0.6664
  631MPD2    C4 9344   3.031   0.267  15.949  0.0149 -0.2808  1.2784
  631MPD2    C5 9345   2.915   0.338  15.935  0.0431 -0.3045  0.0227
  631MPD2     H 9346   3.177   0.382  15.667 -0.6737 -2.0258 -1.0476
  631MPD2    H1 9347   3.034   0.210  16.041 -0.0090 -2.5838 -0.1180
  631MPD2    H2 9348   2.801   0.475  15.819 -0.2292  0.0161  0.0401
  631MPD2    H3 9349   2.834   0.336  16.007 -0.6634  2.6800 -0.6892
  631MPD2     N 9350   3.252   0.210  15.850  0.3413 -0.0928 -0.6625
  631MPD2    H5 9351   3.323   0.228  15.780  0.9311 -0.4923 -0.1691
  631MPD2    N1 9352   2.964   0.553  15.650 -0.8318 -0.3154  0.0459
  631MPD2    H7 9353   2.873   0.597  15.656 -1.2550 -1.0840 -0.6418
  632TMC3    C1 9354   3.029   0.726  15.495  1.1254 -0.1187 -0.5647
  632TMC3    C2 9355   2.961   0.815  15.572  0.3174  0.3028  0.4996
  632TMC3    C3 9356   2.913   0.933  15.520 -0.3800 -0.7352  0.8973
  632TMC3    C4 9357   3.065   0.765  15.365  0.0439  0.5541 -0.0466
  632TMC3    C5 9358   3.017   0.886  15.313  0.1159  0.0338  0.4358
  632TMC3    C6 9359   2.941   0.974  15.386  0.5023 -0.4148 -0.4161
  632TMC3     C 9360   3.055   0.601  15.555  0.7118  0.5482  1.3905
  632TMC3     O 9361   3.144   0.541  15.498  0.0799  0.2706 -0.6292
  632TMC3     H 9362   2.950   0.813  15.680  2.7764 -4.3312  0.6504
  632TMC3    H1 9363   3.125   0.695  15.308 -0.0704 -0.6600  1.3139
  632TMC3    H2 9364   2.913   1.068  15.340  0.4496 -0.4467 -0.4506
  632TMC3    C7 9365   3.068   0.942  15.186 -0.2043  0.2606  0.1486
  632TMC3    C8 9366   2.847   1.021  15.611 -0.2337  0.0193 -0.0300
  632TMC3    O1 9367   2.990   1.007  15.114  0.4924  0.4555  0.5321
  632TMC3    O2 9368   2.878   1.014  15.729 -0.0665  0.3931  0.6411
  633MPD2     C 9369   2.902   3.034  17.314 -0.0933  0.0626  0.3287
  633MPD2    C1 9370   2.812   2.972  17.224  0.5493  1.2614  0.8518
  633MPD2    C2 9371   2.799   2.836  17.236 -0.5771 -0.2163 -0.5790
  633MPD2    C3 9372   2.892   2.766  17.315 -0.5357 -0.7304 -0.0455
  633MPD2    C4 9373   2.990   2.828  17.392 -0.3386 -0.9246  0.1098
  633MPD2    C5 9374   2.988   2.966  17.396 -0.8620  0.4317 -0.1022
  633MPD2     H 9375   2.736   2.786  17.163 -0.2308 -0.8051 -0.4735
  633MPD2    H1 9376   3.062   2.781  17.456  1.0896  1.1591  0.0283
  633MPD2    H2 9377   2.913   3.141  17.307  1.3109  0.1184  3.3526
  633MPD2    H3 9378   3.048   3.024  17.465 -1.3934 -2.1333  2.5275
  633MPD2     N 9379   2.881   2.627  17.329 -0.0513  0.2525 -0.9214
  633MPD2    H5 9380   2.964   2.588  17.373  0.7019  1.6956 -1.0536
  633MPD2    N1 9381   2.731   3.041  17.133 -0.1133 -0.1762 -0.2856
  633MPD2    H7 9382   2.702   2.988  17.051 -0.8843 -1.3102  0.7232
  634TMC3    C1 9383   2.671   3.232  17.014 -0.3703  0.0455 -0.4090
  634TMC3    C2 9384   2.629   3.150  16.916  0.1671 -0.2110  0.3028
  634TMC3    C3 9385   2.658   3.187  16.786 -0.1407  0.7635  0.5602
  634TMC3    C4 9386   2.714   3.358  17.001 -0.9611  1.0063 -0.0622
  634TMC3    C5 9387   2.742   3.393  16.871 -0.1111  0.2443  0.1534
  634TMC3    C6 9388   2.724   3.303  16.769 -0.3176 -0.0405 -0.3855
  634TMC3     C 9389   2.704   3.178  17.142  0.4713  0.1902  0.2187
  634TMC3     O 9390   2.722   3.254  17.234  0.2036  0.1486 -0.1901
  634TMC3     H 9391   2.577   3.057  16.937 -0.6498  0.3240  0.6758
  634TMC3    H1 9392   2.755   3.414  17.084 -0.9760 -2.1942  2.0872
  634TMC3    H2 9393   2.755   3.335  16.670 -1.2928 -1.8728 -1.3003
  634TMC3    C7 9394   2.790   3.524  16.836 -0.0324  0.3587  0.1659
  634TMC3    C8 9395   2.647   3.087  16.684  0.4224  0.2884 -0.0222
  634TMC3    O1 9396   2.840   3.548  16.724 -0.1185  0.2247  0.0225
  634TMC3    O2 9397   2.647   2.970  16.716  0.4934  0.6404  0.5123
  635TMC3    C1 9398   3.281   3.903  17.621  0.4029 -0.9348  0.3823
  635TMC3    C2 9399   3.360   3.801  17.571  0.0807  0.0234 -0.1232
  635TMC3    C3 9400   3.370   3.801  17.432  1.2925  0.5946 -0.4204
  635TMC3    C4 9401   3.216   3.995  17.545 -0.4797 -0.2975  0.3735
  635TMC3    C5 9402   3.236   3.989  17.411 -0.9288 -0.0414 -0.0696
  635TMC3    C6 9403   3.309   3.889  17.349 -0.2433  0.6738  0.1004
  635TMC3     C 9404   3.264   3.915   0.076 -0.0872  0.0775 -0.0973
  635TMC3     O 9405   3.251   4.034   0.117  0.0846 -0.3352  0.2705
  635TMC3     H 9406   3.419   3.732  17.629 -1.3208  1.4184  2.9309
  635TMC3    H1 9407   3.175   4.083  17.592  1.1253  0.9434 -0.5562
  635TMC3    H2 9408   3.315   3.893  17.241 -0.6707  0.9365  0.0862
  635TMC3    C7 9409   3.164   4.087  17.326 -0.0122  0.1146 -0.5872
  635TMC3    C8 9410   3.484   3.718  17.377  0.5745 -0.2404  0.2864
  635TMC3    O1 9411   3.185   4.079  17.206 -0.0520  0.0965  0.5221
  635TMC3    O2 9412   3.513   3.610  17.430  0.2140 -0.5284  0.0216
  636MPD2     C 9413   4.102   3.698  16.009  0.0099 -0.4057  0.5129
  636MPD2    C1 9414   4.158   3.711  16.133  0.5712 -0.2754  0.2938
  636MPD2    C2 9415   4.189   3.596  16.197  0.0721  0.7435 -0.2010
  636MPD2    C3 9416   4.171   3.471  16.144  0.1225 -0.0626 -0.1424
  636MPD2    C4 9417   4.126   3.456  16.017  0.0313 -0.4686  0.8970
  636MPD2    C5 9418   4.100   3.573  15.948 -0.8472  0.1260  0.0910
  636MPD2     H 9419   4.232   3.596  16.296 -2.1152  0.4341  0.7337
  636MPD2    H1 9420   4.120   3.364  15.960  0.1191  0.1880 -0.1732
  636MPD2    H2 9421   4.073   3.781  15.945 -0.7922 -1.2586 -0.2449
  636MPD2    H3 9422   4.073   3.562  15.844  2.8014  3.0269 -1.1556
  636MPD2     N 9423   4.200   3.359  16.229 -0.3921 -0.4309  0.1904
  636MPD2    H5 9424   4.205   3.375  16.329  0.3325  2.0594 -0.2508
  636MPD2    N1 9425   4.159   3.834  16.206 -0.2396 -0.1168 -0.7373
  636MPD2    H7 9426   4.216   3.832  16.290 -1.7768  0.2083  0.3115
  637TMC3    C1 9427   4.220   3.143  16.307 -0.5511 -0.6551  1.0123
  637TMC3    C2 9428   4.188   3.207  16.421  0.0526  0.6699  1.0677
  637TMC3    C3 9429   4.279   3.205  16.525 -0.0170 -0.2091  0.0023
  637TMC3    C4 9430   4.331   3.063  16.287 -0.0804 -0.1224  0.0293
  637TMC3    C5 9431   4.428   3.087  16.383  0.6168  0.2778 -0.2911
  637TMC3    C6 9432   4.403   3.148  16.499 -0.0740 -0.4834  0.4680
  637TMC3     C 9433   4.197   3.224  16.191  0.6539  0.2649 -0.4877
  637TMC3     O 9434   4.207   3.170  16.080  0.1731 -0.5148 -0.3788
  637TMC3     H 9435   4.089   3.249  16.438 -0.5801 -1.4764  2.7129
  637TMC3    H1 9436   4.346   3.011  16.193  1.0012 -0.5878  0.4571
  637TMC3    H2 9437   4.482   3.153  16.572 -1.0896  1.8481  1.4276
  637TMC3    C7 9438   4.554   3.145  16.325 -0.3884 -0.3990 -0.4624
  637TMC3    C8 9439   4.291   3.340  16.572 -0.1118 -0.2925  0.1304
  637TMC3    O1 9440   4.609   3.227  16.395 -0.0588  0.3587 -0.2919
  637TMC3    O2 9441   4.232   3.430  16.503  0.0067 -0.9271 -0.1104
  638MPD2     C 9442   3.970   2.793  14.888  0.2091 -0.4937  0.5045
  638MPD2    C1 9443   3.864   2.714  14.842 -0.6356  0.2817 -0.5465
  638MPD2    C2 9444   3.814   2.609  14.919 -0.0433 -0.0126 -0.3138
  638MPD2    C3 9445   3.874   2.583  15.043  0.8708  0.0094 -0.2218
  638MPD2    C4 9446   3.976   2.666  15.091 -0.2471 -0.1092 -0.1582
  638MPD2    C5 9447   4.018   2.770  15.015 -0.3074  0.3664 -0.3527
  638MPD2     H 9448   3.735   2.543  14.883 -0.6180 -0.4750  1.8251
  638MPD2    H1 9449   4.018   2.648  15.189  1.4029  2.2390 -0.4307
  638MPD2    H2 9450   3.997   2.880  14.829 -0.5667 -0.4659  0.1934
  638MPD2    H3 9451   4.092   2.827  15.069  0.5407 -1.3966  0.3403
  638MPD2     N 9452   3.824   2.470  15.115  0.3899  0.5477  0.9011
  638MPD2    H5 9453   3.729   2.443  15.090  0.9466 -2.1561  1.7717
  638MPD2    N1 9454   3.819   2.742  14.711  0.3139  0.6779  0.3538
  638MPD2    H7 9455   3.873   2.814  14.663  1.0489  0.0047  0.1612
  639TMC3    C1 9456   3.826   2.294  15.272  0.7038 -0.5372 -0.3945
  639TMC3    C2 9457   3.729   2.242  15.197  0.0173 -0.8236  0.4426
  639TMC3    C3 9458   3.677   2.127  15.255  0.3720 -0.1544  0.2525
  639TMC3    C4 9459   3.886   2.233  15.378  0.2022 -0.3242  0.5591
  639TMC3    C5 9460   3.845   2.109  15.413 -0.2734  1.0297  0.1753
  639TMC3    C6 9461   3.729   2.058  15.363 -0.3617 -0.1347 -0.2230
  639TMC3     C 9462   3.887   2.415  15.226 -0.3641 -0.2715  0.9872
  639TMC3     O 9463   3.998   2.428  15.267  0.1152 -0.5502  0.2162
  639TMC3     H 9464   3.681   2.289  15.112 -1.4035 -2.2369  0.4486
  639TMC3    H1 9465   3.973   2.267  15.432 -0.0711  2.2958 -0.6286
  639TMC3    H2 9466   3.696   1.958  15.388 -1.2059 -0.1619 -1.4428
  639TMC3    C7 9467   3.944   2.010  15.444  0.2425 -0.7110  0.2000
  639TMC3    C8 9468   3.582   2.064  15.165  0.6285 -0.1478  0.6902
  639TMC3    O1 9469   3.904   1.899  15.491  0.1569 -0.0657  0.0596
  639TMC3    O2 9470   3.591   2.093  15.045  0.0541 -0.7810  0.3036
  640MPD2     C 9471   4.009   0.619  10.325 -0.0356 -0.2747 -0.4918
  640MPD2    C1 9472   3.967   0.669  10.204  0.3186  0.0598 -0.4471
  640MPD2    C2 9473   3.873   0.776  10.200 -0.4363  0.1732  0.1979
  640MPD2    C3 9474   3.829   0.840  10.318  0.4663  0.3255  0.1243
  640MPD2    C4 9475   3.885   0.798  10.435  0.5994 -0.5157 -0.2030
  640MPD2    C5 9476   3.966   0.680  10.436 -0.7836  0.5771  0.0098
  640MPD2     H 9477   3.835   0.802  10.102  2.4765  3.2062 -0.1269
  640MPD2    H1 9478   3.858   0.840  10.531 -0.6640  0.7174 -1.0982
  640MPD2    H2 9479   4.076   0.534  10.337 -0.8984 -0.9124 -0.2520
  640MPD2    H3 9480   4.012   0.644  10.527 -1.7817 -0.8690 -0.0646
  640MPD2     N 9481   3.730   0.941  10.328  0.0971  0.1850 -0.2887
  640MPD2    H5 9482   3.685   0.973  10.413  1.5028 -0.7541  0.7973
  640MPD2    N1 9483   4.002   0.585  10.095 -0.1209 -0.0867  0.2397
  640MPD2    H7 9484   4.076   0.516  10.105 -0.2188 -0.1094  0.8626
  641TMC3    C1 9485   4.001   0.502   9.876  0.2980  0.3746  0.1482
  641TMC3    C2 9486   4.095   0.406   9.906  0.2494 -0.2546 -0.0884
  641TMC3    C3 9487   4.130   0.319   9.807 -0.1739  1.1911  0.3406
  641TMC3    C4 9488   3.966   0.519   9.748 -0.9111 -0.8287  0.3827
  641TMC3    C5 9489   4.006   0.431   9.653  0.0683 -0.4877 -0.1913
  641TMC3    C6 9490   4.088   0.328   9.680 -1.1700  0.1386  0.3153
  641TMC3     C 9491   3.953   0.604   9.968 -0.1305  0.1645 -0.3068
  641TMC3     O 9492   3.898   0.701   9.922  1.0037 -0.0988 -0.0384
  641TMC3     H 9493   4.127   0.377  10.005 -0.9961 -0.4799  0.2476
  641TMC3    H1 9494   3.909   0.606   9.717 -0.8999 -0.9849 -0.0887
  641TMC3    H2 9495   4.121   0.264   9.600 -0.6090  0.1387  0.5509
  641TMC3    C7 9496   3.998   0.480   9.519 -0.4678 -0.1382 -0.2517
  641TMC3    C8 9497   4.238   0.219   9.826 -0.0876  0.2045 -0.1767
  641TMC3    O1 9498   3.912   0.562   9.491  0.2165  0.4764  0.0215
  641TMC3    O2 9499   4.258   0.155   9.721 -0.4646  0.4869 -0.0053
  642TMC3    C1 9500   0.337   2.136  12.235 -0.1871  0.3061  0.5294
  642TMC3    C2 9501   0.386   2.118  12.362  0.4443  0.2708  0.3151
  642TMC3    C3 9502   0.434   1.992  12.397  0.1716  0.0326  0.1024
  642TMC3    C4 9503   0.307   2.031  12.157 -0.3523  0.6709 -1.0015
  642TMC3    C5 9504   0.345   1.906  12.199 -0.8502 -0.1686 -0.0491
  642TMC3    C6 9505   0.414   1.884  12.315  0.5931  0.0273  0.5045
  642TMC3     C 9506   0.245   2.250  12.219 -0.0064 -0.4757  0.3513
  642TMC3     O 9507   0.222   2.309  12.326 -0.5272 -0.3316 -0.1583
  642TMC3     H 9508   0.398   2.201  12.431  2.4857 -0.8374  1.2840
  642TMC3    H1 9509   0.252   2.037  12.063 -0.1851  1.1983 -1.0647
  642TMC3    H2 9510   0.444   1.785  12.348  0.8095 -0.6554 -1.6954
  642TMC3    C7 9511   0.273   1.791  12.139 -0.1363 -0.4772  0.8259
  642TMC3    C8 9512   0.506   1.964  12.518 -0.4742 -0.5551  0.2391
  642TMC3    O1 9513   0.241   1.799  12.023 -0.2185 -0.4092 -0.1399
  642TMC3    O2 9514   0.580   1.867  12.519  0.4757  0.2973  0.4863
  643TMC3    C1 9515   0.146   1.626   0.233  0.8038 -0.6863  0.2384
  643TMC3    C2 9516   0.063   1.651   0.130 -0.2743  0.3443  0.6397
  643TMC3    C3 9517   4.666   1.575   0.129 -0.0708  0.1043 -0.4820
  643TMC3    C4 9518   0.134   1.527   0.326 -0.1830 -0.7703  0.5297
  643TMC3    C5 9519   0.020   1.448   0.310 -0.1430 -0.0596 -0.1679
  643TMC3    C6 9520   4.643   1.471   0.215  0.0180 -0.0238  0.5704
  643TMC3     C 9521   0.278   1.671   0.215 -0.6634 -0.3501 -0.5297
  643TMC3     O 9522   0.319   1.697   0.104  0.3887 -0.1313  0.2329
  643TMC3     H 9523   0.080   1.724   0.052  0.8360 -0.5893 -0.0074
  643TMC3    H1 9524   0.195   1.508   0.414 -0.5710 -1.5698  0.6197
  643TMC3    H2 9525   4.549   1.418   0.210 -0.9079  1.6361  0.3438
  643TMC3    C7 9526   0.018   1.329   0.401  0.4706 -0.2509 -0.5439
  643TMC3    C8 9527   4.547   1.634   0.066  0.1400  0.7579 -0.2646
  643TMC3    O1 9528   0.040   1.352   0.519 -0.5714  0.4212  0.4155
  643TMC3    O2 9529   4.472   1.555   0.011  0.2383 -0.2808 -0.1847
  644MPD2     C 9530   3.631   0.767   9.552 -0.2893  0.2564  0.7676
  644MPD2    C1 9531   3.703   0.850   9.469 -0.2238 -0.4045 -0.5043
  644MPD2    C2 9532   3.629   0.958   9.419  0.8570  0.1660  0.8433
  644MPD2    C3 9533   3.499   0.987   9.461 -0.4259  0.1497  0.2431
  644MPD2    C4 9534   3.442   0.903   9.558 -0.6298  0.0690  0.0023
  644MPD2    C5 9535   3.508   0.793   9.602  0.4315 -0.8090  0.7531
  644MPD2     H 9536   3.677   1.038   9.364 -0.6005  0.7424  0.3977
  644MPD2    H1 9537   3.345   0.928   9.601  0.1426  2.1341  0.5260
  644MPD2    H2 9538   3.687   0.680   9.585 -2.6653 -0.5817  2.5808
  644MPD2    H3 9539   3.475   0.722   9.676 -1.6307  1.4166  1.9846
  644MPD2     N 9540   3.426   1.091   9.405  0.0786  0.0356  0.0698
  644MPD2    H5 9541   3.473   1.149   9.336 -1.3419  1.2434  0.1265
  644MPD2    N1 9542   3.840   0.827   9.445  0.1388  0.0572 -0.2464
  644MPD2    H7 9543   3.877   0.740   9.482 -0.9892  0.6869  2.3779
  645TMC3    C1 9544   3.278   1.258   9.401 -0.7896 -0.3055 -0.5519
  645TMC3    C2 9545   3.384   1.348   9.388 -0.4447 -0.4498 -0.5428
  645TMC3    C3 9546   3.344   1.480   9.384 -0.2479 -0.7621  0.6644
  645TMC3    C4 9547   3.144   1.296   9.400 -0.5755  0.2624  0.1329
  645TMC3    C5 9548   3.121   1.428   9.405 -0.4327  0.2029  0.0053
  645TMC3    C6 9549   3.219   1.525   9.400 -0.0791  0.1332  0.6356
  645TMC3     C 9550   3.299   1.127   9.443 -0.6308 -0.3605  0.1054
  645TMC3     O 9551   3.214   1.072   9.514  0.5867 -0.1002 -0.2235
  645TMC3     H 9552   3.490   1.329   9.391 -0.6228 -1.7446 -2.4242
  645TMC3    H1 9553   3.071   1.224   9.432  0.3201 -0.3790  0.7307
  645TMC3    H2 9554   3.203   1.623   9.443  0.8878  0.2364  0.7618
  645TMC3    C7 9555   2.984   1.475   9.388 -0.0627 -0.4155  0.0611
  645TMC3    C8 9556   3.450   1.583   9.357  0.5403 -0.0880  0.3034
  645TMC3    O1 9557   2.976   1.597   9.404 -0.3996  0.2100  0.0700
  645TMC3    O2 9558   3.564   1.543   9.362 -0.0778 -0.5110  0.7244
  646MPD2     C 9559   3.932   1.298  14.897  0.1838  0.0944 -0.3438
  646MPD2    C1 9560   3.825   1.319  14.976  0.0061 -0.4378 -0.1683
  646MPD2    C2 9561   3.707   1.370  14.924 -0.3170  0.2998 -0.0680
  646MPD2    C3 9562   3.699   1.403  14.788 -0.9780  0.1718 -0.2357
  646MPD2    C4 9563   3.812   1.381  14.711 -0.0005 -0.6985  0.0237
  646MPD2    C5 9564   3.927   1.324  14.759 -0.6295  0.0110  0.7994
  646MPD2     H 9565   3.620   1.378  14.988 -1.2949  2.1474 -1.6252
  646MPD2    H1 9566   3.821   1.404  14.605 -1.0283 -1.6447 -0.2607
  646MPD2    H2 9567   4.022   1.250  14.933 -0.2272 -0.1347  0.3706
  646MPD2    H3 9568   4.014   1.305  14.697 -1.5850 -1.5751 -0.0458
  646MPD2     N 9569   3.590   1.473  14.739 -0.2745  0.0340 -0.2184
  646MPD2    H5 9570   3.521   1.495  14.811 -1.2178 -1.1550 -0.7531
  646MPD2    N1 9571   3.835   1.265  15.107 -0.1777 -0.2217  0.4319
  646MPD2    H7 9572   3.927   1.234  15.137  0.2582  0.6193 -0.0421
  647TMC3    C1 9573   3.785   1.245  15.339  0.2083  0.0926  0.2983
  647TMC3    C2 9574   3.715   1.173  15.428  0.3420  0.4282 -0.0062
  647TMC3    C3 9575   3.783   1.140  15.547  0.5879 -0.1793 -0.3016
  647TMC3    C4 9576   3.912   1.284  15.365  0.4700 -0.2981 -0.2327
  647TMC3    C5 9577   3.976   1.247  15.481  0.2579 -0.1069  0.4681
  647TMC3    C6 9578   3.913   1.178  15.572  0.0545  0.0577  0.7768
  647TMC3     C 9579   3.733   1.256  15.199 -1.3258  0.1021 -0.2275
  647TMC3     O 9580   3.607   1.273  15.193 -1.1200 -0.3703  0.1561
  647TMC3     H 9581   3.615   1.134  15.411  0.0140 -0.0582  2.9703
  647TMC3    H1 9582   3.963   1.341  15.289  0.7723  0.0628  0.2419
  647TMC3    H2 9583   3.965   1.167  15.667 -1.9065 -1.0732  1.7087
  647TMC3    C7 9584   4.118   1.244  15.483 -0.5697 -0.8487 -0.7047
  647TMC3    C8 9585   3.735   1.019  15.617 -0.0952 -0.3390  0.2652
  647TMC3    O1 9586   4.169   1.167  15.562 -0.3355 -0.0534  0.3676
  647TMC3    O2 9587   3.671   0.936  15.554  0.0273 -0.2244 -0.2211
  648TMC3    C1 9588   3.253   3.275  16.116 -0.1417 -0.1225 -0.0691
  648TMC3    C2 9589   3.240   3.171  16.028  0.1412 -0.3069  0.1645
  648TMC3    C3 9590   3.265   3.182  15.896  0.1430  0.7880  0.1976
  648TMC3    C4 9591   3.279   3.399  16.068 -0.0317  0.2292  0.3466
  648TMC3    C5 9592   3.311   3.414  15.931  0.0888 -0.4673  0.8628
  648TMC3    C6 9593   3.307   3.302  15.847  0.7371 -0.0322 -0.2167
  648TMC3     C 9594   3.234   3.263  16.257  0.3916  0.0410 -0.4740
  648TMC3     O 9595   3.274   3.353  16.328  0.0760  0.2601  0.1902
  648TMC3     H 9596   3.245   3.066  16.058 -3.0894 -0.5099  0.0474
  648TMC3    H1 9597   3.298   3.480  16.138  2.2328  0.1718 -0.2000
  648TMC3    H2 9598   3.337   3.310  15.743 -0.2166  1.4814 -0.3783
  648TMC3    C7 9599   3.286   3.542  15.869  0.1161  0.3756  0.2695
  648TMC3    C8 9600   3.259   3.060  15.812  0.0552  0.3821 -0.0304
  648TMC3    O1 9601   3.300   3.539  15.743  0.7016  0.4802  0.2502
  648TMC3    O2 9602   3.169   2.984  15.834 -0.4590  0.0447 -0.4683
  649TMC3    C1 9603   1.638   4.195  13.227  0.1672 -0.4073 -0.5315
  649TMC3    C2 9604   1.744   4.282  13.206 -0.3726 -0.5355 -0.0040
  649TMC3    C3 9605   1.856   4.262  13.283  0.3837 -0.0173 -0.2499
  649TMC3    C4 9606   1.637   4.081  13.309  0.0070 -0.2073 -0.1005
  649TMC3    C5 9607   1.756   4.064  13.374  0.7155  0.3604  0.5420
  649TMC3    C6 9608   1.861   4.146  13.367 -0.1506  0.0020  0.5513
  649TMC3     C 9609   1.509   4.244  13.174 -0.0698 -0.8009  0.0600
  649TMC3     O 9610   1.501   4.359  13.135  0.7189 -0.2760 -0.2719
  649TMC3     H 9611   1.720   4.381  13.170  0.8371 -0.6653 -1.1549
  649TMC3    H1 9612   1.545   4.038  13.347  0.0682 -0.0027  0.2838
  649TMC3    H2 9613   1.950   4.120  13.423 -1.5338 -1.6086  1.9901
  649TMC3    C7 9614   1.749   3.982  13.492 -0.6390  0.4419  0.3445
  649TMC3    C8 9615   1.965   4.365  13.295 -0.6623 -0.3110 -0.1138
  649TMC3    O1 9616   1.709   3.865  13.503 -0.3078  0.5267  0.4021
  649TMC3    O2 9617   2.056   4.350  13.375 -0.3838 -0.4396 -0.4785
  650TMC3    C1 9618   4.440   1.558  12.825  0.1889  0.1826  0.3348
  650TMC3    C2 9619   4.372   1.667  12.859 -0.0808  0.0712  0.3346
  650TMC3    C3 9620   4.272   1.707  12.782  0.9950 -0.2427  0.1930
  650TMC3    C4 9621   4.412   1.495  12.704  0.0922  0.7701 -0.0909
  650TMC3    C5 9622   4.316   1.542  12.627 -0.3050  0.3201 -0.2622
  650TMC3    C6 9623   4.237   1.644  12.667  0.1505 -0.2694 -0.5976
  650TMC3     C 9624   4.566   1.531  12.897 -0.4524 -0.3830 -0.2138
  650TMC3     O 9625   4.648   1.615  12.929 -0.2504 -0.1714 -0.3590
  650TMC3     H 9626   4.394   1.716  12.954 -0.9887 -0.4211  0.8004
  650TMC3    H1 9627   4.465   1.405  12.673 -0.2156  0.8785 -0.9405
  650TMC3    H2 9628   4.158   1.687  12.606  0.5319 -2.0134 -2.2940
  650TMC3    C7 9629   4.311   1.496  12.490  0.3220  0.1455  0.7683
  650TMC3    C8 9630   4.266   1.853  12.769  0.9340  0.4707 -0.0424
  650TMC3    O1 9631   4.395   1.415  12.454 -0.0360  0.2435 -0.1154
  650TMC3    O2 9632   4.284   1.897  12.654 -0.0324 -0.0859  0.1804
  651MPD2     C 9633   3.354   3.049  10.468 -1.2770 -0.6210 -0.2172
  651MPD2    C1 9634   3.338   3.168  10.531  0.6459 -0.8977 -0.0402
  651MPD2    C2 9635   3.444   3.252  10.540 -0.0175  0.6324 -0.0924
  651MPD2    C3 9636   3.565   3.222  10.479  0.0687 -0.6132  0.3973
  651MPD2    C4 9637   3.578   3.110  10.404 -0.2203  0.5931 -0.6445
  651MPD2    C5 9638   3.477   3.021  10.411 -0.4048  0.1091  0.5116
  651MPD2     H 9639   3.439   3.352  10.581  1.2711  1.5913 -2.3029
  651MPD2    H1 9640   3.677   3.092  10.363  0.2647  1.0170  0.3334
  651MPD2    H2 9641   3.273   2.979  10.450 -1.6592 -0.4570  0.8944
  651MPD2    H3 9642   3.490   2.923  10.366  2.4318  0.9853 -0.6091
  651MPD2     N 9643   3.665   3.323  10.476 -0.8142 -0.7627 -0.3173
  651MPD2    H5 9644   3.632   3.392  10.543 -1.6855 -2.2936  0.8252
  651MPD2    N1 9645   3.207   3.215  10.570 -0.6741 -0.0916  0.3361
  651MPD2    H7 9646   3.200   3.306  10.615 -0.1127  0.2605 -0.2814
  652TMC3    C1 9647   4.030   3.601  10.398  0.2577  0.0686  0.2057
  652TMC3    C2 9648   3.971   3.481  10.378 -0.1622 -0.4747 -0.1526
  652TMC3    C3 9649   3.842   3.467  10.411 -0.5232 -0.2291 -0.0069
  652TMC3    C4 9650   3.959   3.708  10.440  0.1520  0.4829 -0.4774
  652TMC3    C5 9651   3.828   3.690  10.462 -0.6790 -0.0627  0.3716
  652TMC3    C6 9652   3.763   3.577  10.441 -0.2609  0.2185 -0.1009
  652TMC3     C 9653   4.170   3.606  10.425 -0.1396  0.1887  0.9086
  652TMC3     O 9654   4.211   3.504  10.477  0.1959  0.3222  0.2298
  652TMC3     H 9655   4.024   3.394  10.341  0.9255 -0.0559  0.4227
  652TMC3    H1 9656   4.006   3.798  10.479  0.2015  0.7328 -1.1090
  652TMC3    H2 9657   3.656   3.570  10.456  0.0040 -0.4762  1.4044
  652TMC3    C7 9658   3.769   3.774  10.565 -0.6085 -0.1987  0.3402
  652TMC3    C8 9659   3.777   3.334  10.401 -0.1453  1.1732  0.4128
  652TMC3    O1 9660   3.677   3.719  10.623 -0.5942 -0.4931 -0.0667
  652TMC3    O2 9661   3.818   3.267  10.307  0.3606 -0.1776 -0.0573
  653MPD2     C 9662   3.020   3.052   0.232 -0.3612  0.8528 -0.3260
  653MPD2    C1 9663   2.928   3.140   0.188 -0.0597  0.7661  0.1751
  653MPD2    C2 9664   2.828   3.092   0.104 -0.0445  0.0375 -0.2270
  653MPD2    C3 9665   2.830   2.962   0.062 -0.3722 -0.8638  0.4912
  653MPD2    C4 9666   2.940   2.887   0.087  0.2139  0.1487 -0.6379
  653MPD2    C5 9667   3.033   2.933   0.168 -0.1733 -0.5643 -0.5288
  653MPD2     H 9668   2.741   3.150   0.077  0.3697  0.6941 -0.1467
  653MPD2    H1 9669   2.954   2.794   0.032 -1.7121 -0.7178  0.3545
  653MPD2    H2 9670   3.091   3.074   0.311  1.2631 -0.4977 -1.3949
  653MPD2    H3 9671   3.120   2.873   0.192 -0.0366 -0.1436  0.0486
  653MPD2     N 9672   2.729   2.929  17.658 -0.2837 -0.2035 -0.3860
  653MPD2    H5 9673   2.663   3.002  17.633 -0.0757 -0.2285 -1.0046
  653MPD2    N1 9674   2.919   3.275   0.236  0.0649  0.3124 -0.4575
  653MPD2    H7 9675   2.857   3.337   0.184 -1.3705 -0.0967  0.7492
  654TMC3    C1 9676   2.587   2.804  17.536  0.3391 -0.0659  0.8520
  654TMC3    C2 9677   2.535   2.916  17.483  0.4169  0.3625  0.7811
  654TMC3    C3 9678   2.423   2.904  17.403 -0.7428  0.1237  0.0486
  654TMC3    C4 9679   2.524   2.686  17.506  0.5469  0.4483  0.8252
  654TMC3    C5 9680   2.409   2.681  17.424  0.1800 -0.4764 -0.3909
  654TMC3    C6 9681   2.361   2.789  17.368  0.2102  0.7379  0.1732
  654TMC3     C 9682   2.705   2.806  17.615  0.2075 -0.3615  0.3187
  654TMC3     O 9683   2.756   2.696  17.632 -0.1177 -0.3969 -0.1840
  654TMC3     H 9684   2.600   3.003  17.477 -1.4433  1.7297  0.3759
  654TMC3    H1 9685   2.563   2.598  17.555 -1.2665 -2.1153 -2.3503
  654TMC3    H2 9686   2.263   2.790  17.322 -0.2104 -0.6570  1.0643
  654TMC3    C7 9687   2.311   2.569  17.423  0.9263  0.4782 -0.4204
  654TMC3    C8 9688   2.394   3.009  17.311  0.6361  0.3224  0.3677
  654TMC3    O1 9689   2.195   2.602  17.402 -0.3197 -0.3640  0.1000
  654TMC3    O2 9690   2.391   3.124  17.349  0.3885  0.6113  0.3105
  655MPD2     C 9691   3.898   3.686  15.615 -0.5375  0.2787  0.2116
  655MPD2    C1 9692   3.805   3.784  15.643 -0.3998 -0.9524 -0.0442
  655MPD2    C2 9693   3.723   3.834  15.538 -0.1939  0.6991  0.8759
  655MPD2    C3 9694   3.736   3.788  15.413  0.2198  0.5276  0.5599
  655MPD2    C4 9695   3.822   3.684  15.385 -0.1995 -0.1192 -0.0952
  655MPD2    C5 9696   3.909   3.644  15.484  0.0333  0.5864  0.1157
  655MPD2     H 9697   3.645   3.905  15.564 -1.2733 -0.4682  0.8296
  655MPD2    H1 9698   3.833   3.630  15.292  2.6442 -0.6488  0.5559
  655MPD2    H2 9699   3.960   3.639  15.690 -0.2045  0.6963  0.2018
  655MPD2    H3 9700   3.969   3.559  15.455  0.2210  1.1029 -1.0235
  655MPD2     N 9701   3.660   3.833  15.308  0.1399  0.2703  0.5051
  655MPD2    H5 9702   3.683   3.778  15.226 -1.2583  1.4282 -0.6529
  655MPD2    N1 9703   3.780   3.831  15.779  0.4849  0.3439  0.2129
  655MPD2    H7 9704   3.706   3.901  15.779 -0.2411 -0.4409 -1.1344
  656TMC3    C1 9705   3.740   3.841  16.010 -1.2049 -0.6136 -0.4121
  656TMC3    C2 9706   3.642   3.774  16.076 -0.0626 -0.1967  0.0409
  656TMC3    C3 9707   3.523   3.837  16.104  0.6022  0.2616  0.2025
  656TMC3    C4 9708   3.712   3.971  15.969  0.0334 -0.8264  0.2947
  656TMC3    C5 9709   3.595   4.032  15.994  0.3068  1.1052  0.5453
  656TMC3    C6 9710   3.500   3.962  16.063 -0.4912 -0.3340  0.2141
  656TMC3     C 9711   3.799   3.769  15.900 -0.1555 -0.7379 -0.1746
  656TMC3     O 9712   3.828   3.652  15.923 -0.3629 -0.2506  0.3620
  656TMC3     H 9713   3.643   3.666  16.087  1.7203 -0.2159 -0.2329
  656TMC3    H1 9714   3.783   4.032  15.915  1.1946 -2.6961 -0.2865
  656TMC3    H2 9715   3.395   3.989  16.063 -1.0204 -2.4274  4.1563
  656TMC3    C7 9716   3.546   4.096  15.877 -0.0243 -0.4403  0.5190
  656TMC3    C8 9717   3.439   3.776  16.201 -0.1545  0.3605  0.1151
  656TMC3    O1 9718   3.618   4.079  15.779  0.6927  0.5426  0.4541
  656TMC3    O2 9719   3.437   3.655  16.197 -0.8347 -0.4901 -1.2352
  657TMC3    C1 9720   2.404   3.234  15.177  0.9510 -0.1334 -0.8057
  657TMC3    C2 9721   2.408   3.118  15.248 -0.2744 -0.1584  0.0106
  657TMC3    C3 9722   2.293   3.054  15.283 -0.1222  0.0564 -0.5400
  657TMC3    C4 9723   2.283   3.293  15.153 -0.4359 -0.0061 -0.1620
  657TMC3    C5 9724   2.168   3.238  15.208 -0.9353 -0.4525 -0.5396
  657TMC3    C6 9725   2.170   3.118  15.269 -0.7415 -0.4884 -0.7231
  657TMC3     C 9726   2.525   3.297  15.126 -0.1207  0.3781 -0.1110
  657TMC3     O 9727   2.517   3.404  15.071 -0.6603  0.2325  0.4343
  657TMC3     H 9728   2.501   3.076  15.284  0.2502  0.6631 -0.3819
  657TMC3    H1 9729   2.280   3.390  15.106  0.1224  0.9730  1.7971
  657TMC3    H2 9730   2.080   3.070  15.307  0.4048 -0.8117  1.6044
  657TMC3    C7 9731   2.042   3.295  15.167  0.4838 -0.3916  0.0641
  657TMC3    C8 9732   2.307   2.922  15.339  0.2852  0.2984 -0.1388
  657TMC3    O1 9733   2.034   3.375  15.071 -0.6519 -0.0841  0.0182
  657TMC3    O2 9734   2.414   2.883  15.381 -0.2533  0.3713 -0.0291
  658MPD2     C 9735   3.853   3.718  14.755 -0.1752 -0.4676  0.0382
  658MPD2    C1 9736   3.720   3.751  14.732 -0.2254  0.5348 -0.1632
  658MPD2    C2 9737   3.676   3.757  14.601  0.1859  0.1231 -0.3087
  658MPD2    C3 9738   3.763   3.734  14.492  0.2693  0.6146  0.3347
  658MPD2    C4 9739   3.894   3.702  14.520 -0.0275 -0.1743  0.0437
  658MPD2    C5 9740   3.933   3.687  14.652  0.3017  0.2890 -0.0999
  658MPD2     H 9741   3.575   3.787  14.575  0.6824  1.2056 -1.0403
  658MPD2    H1 9742   3.971   3.680  14.446  0.1986 -1.0736  0.5384
  658MPD2    H2 9743   3.896   3.717  14.855 -3.0698  1.2057  1.3140
  658MPD2    H3 9744   4.037   3.663  14.668 -0.3843 -2.0876  0.7605
  658MPD2     N 9745   3.723   3.730  14.356  0.3248 -0.2756 -0.2645
  658MPD2    H5 9746   3.794   3.722  14.283 -0.1794 -1.6649 -0.6068
  658MPD2    N1 9747   3.649   3.795  14.845  0.1016  0.1665 -0.1401
  658MPD2    H7 9748   3.696   3.777  14.933  2.2770 -0.8443 -1.5129
  659TMC3    C1 9749   3.450   3.831  14.975 -0.1968 -0.2458 -0.0563
  659TMC3    C2 9750   3.528   3.869  15.079 -0.4095  0.4394 -0.4734
  659TMC3    C3 9751   3.467   3.906  15.195  0.5003 -0.0562  0.2860
  659TMC3    C4 9752   3.309   3.837  14.984 -0.4445  0.7626  0.7146
  659TMC3    C5 9753   3.260   3.853  15.107 -0.2080  0.5890 -0.3981
  659TMC3    C6 9754   3.333   3.902  15.206 -0.9916  0.2073 -0.6455
  659TMC3     C 9755   3.513   3.823  14.842  0.3105 -0.9023  0.3733
  659TMC3     O 9756   3.435   3.806  14.748 -0.0514 -0.1920 -0.2430
  659TMC3     H 9757   3.634   3.891  15.071 -0.1069 -0.7821  0.1477
  659TMC3    H1 9758   3.252   3.843  14.891  2.1690  1.6275 -0.8278
  659TMC3    H2 9759   3.297   3.917  15.307 -2.0569  1.3020 -1.1832
  659TMC3    C7 9760   3.120   3.890  15.123 -0.1105  0.1974  0.5947
  659TMC3    C8 9761   3.549   3.914  15.311  0.1714  0.6061 -0.4381
  659TMC3    O1 9762   3.084   3.945  15.228 -0.2618  0.1762 -0.2194
  659TMC3    O2 9763   3.499   3.970  15.404  0.4669  0.5334  0.4085
  660MPD2     C 9764   1.715   2.059  12.753 -0.0634 -0.2095 -0.2972
  660MPD2    C1 9765   1.578   2.072  12.764  0.4244  0.8987 -0.1772
  660MPD2    C2 9766   1.521   2.004  12.874 -0.1740 -0.2166  0.0319
  660MPD2    C3 9767   1.594   1.926  12.961  0.2600  0.6858 -0.4617
  660MPD2    C4 9768   1.732   1.916  12.942 -0.1720  0.1414 -0.2538
  660MPD2    C5 9769   1.790   1.982  12.841  0.3642 -0.3638 -0.6474
  660MPD2     H 9770   1.414   2.010  12.888 -0.7183 -1.2307 -3.6885
  660MPD2    H1 9771   1.799   1.847  12.991  0.8588  1.8282  0.7238
  660MPD2    H2 9772   1.772   2.094  12.668  0.7126 -0.9639 -0.0987
  660MPD2    H3 9773   1.897   1.990  12.826  0.4035  1.3533  0.5355
  660MPD2     N 9774   1.539   1.844  13.065 -0.0155 -0.1336 -0.1329
  660MPD2    H5 9775   1.613   1.809  13.125 -1.8357 -0.7436  1.7437
  660MPD2    N1 9776   1.508   2.149  12.670  0.1849  0.5815 -0.0642
  660MPD2    H7 9777   1.564   2.184  12.592 -0.6078 -2.4123 -1.9883
  661TMC3    C1 9778   1.331   2.209  12.531  0.0990 -0.4585  0.0571
  661TMC3    C2 9779   1.416   2.229  12.423  0.6997 -0.0825 -0.0674
  661TMC3    C3 9780   1.365   2.291  12.309 -0.5061  0.3059  0.1133
  661TMC3    C4 9781   1.199   2.242  12.515 -0.4082  0.1210  0.0171
  661TMC3    C5 9782   1.148   2.300  12.401  0.0922  0.0818  0.1261
  661TMC3    C6 9783   1.232   2.330  12.294  0.7665 -0.3627  0.5828
  661TMC3     C 9784   1.372   2.159  12.658 -0.2772 -0.1527 -0.6216
  661TMC3     O 9785   1.285   2.126  12.738 -0.0173 -0.2789 -0.3319
  661TMC3     H 9786   1.521   2.204  12.433  0.5579 -0.5483  0.2347
  661TMC3    H1 9787   1.134   2.230  12.601 -0.8539  1.8011 -0.0890
  661TMC3    H2 9788   1.186   2.380  12.210 -0.0002 -1.3181  0.4352
  661TMC3    C7 9789   1.001   2.287  12.386 -1.1175 -0.0935  0.4192
  661TMC3    C8 9790   1.451   2.332  12.194 -0.1526  0.1624 -0.0777
  661TMC3    O1 9791   0.931   2.253  12.481 -0.2501  0.3919 -0.1559
  661TMC3    O2 9792   1.553   2.270  12.168  0.0528  0.1603  0.7464
  662MPD2     C 9793   2.177   1.639   0.958 -0.1176 -0.1597  0.0853
  662MPD2    C1 9794   2.054   1.628   0.889 -0.5360  0.0128 -0.6071
  662MPD2    C2 9795   1.982   1.743   0.862 -0.1089  0.5223 -0.4790
  662MPD2    C3 9796   2.023   1.872   0.902  0.4760 -0.4763  0.5173
  662MPD2    C4 9797   2.137   1.874   0.981  0.1742 -0.4252  0.0512
  662MPD2    C5 9798   2.213   1.761   1.003 -0.2895 -0.2078 -0.0416
  662MPD2     H 9799   1.894   1.738   0.799 -0.9781 -2.2843  0.9560
  662MPD2    H1 9800   2.179   1.969   1.011  0.0642 -0.5509  0.5988
  662MPD2    H2 9801   2.246   1.557   0.977 -1.6730 -0.9977  2.1855
  662MPD2    H3 9802   2.307   1.769   1.056  0.1350  1.3185 -1.0399
  662MPD2     N 9803   1.966   1.992   0.850  0.3812 -0.3913 -0.9485
  662MPD2    H5 9804   1.890   1.982   0.784  0.8345  0.7709 -1.6369
  662MPD2    N1 9805   2.010   1.502   0.840 -0.0417  0.0405 -0.3771
  662MPD2    H7 9806   1.930   1.509   0.778 -0.6473 -0.0490  0.3844
  663TMC3    C1 9807   2.006   1.279   0.762 -0.0669 -0.2821 -0.0948
  663TMC3    C2 9808   1.873   1.295   0.749 -0.5388 -0.4139  0.0474
  663TMC3    C3 9809   1.801   1.201   0.674  0.2740  0.1137 -0.6509
  663TMC3    C4 9810   2.081   1.179   0.707  0.1675  0.1166 -0.2823
  663TMC3    C5 9811   2.013   1.101   0.618  0.0910 -0.0636 -0.2864
  663TMC3    C6 9812   1.877   1.104   0.608 -0.5162  0.0736 -0.4080
  663TMC3     C 9813   2.077   1.381   0.839 -0.5455 -0.2652  0.9237
  663TMC3     O 9814   2.186   1.346   0.882 -0.3498  0.0702 -0.6061
  663TMC3     H 9815   1.819   1.358   0.819  0.6489 -1.4268  1.8596
  663TMC3    H1 9816   2.189   1.180   0.710  0.1602 -1.4700  0.3811
  663TMC3    H2 9817   1.839   1.062   0.516 -1.1126 -0.0852 -0.0876
  663TMC3    C7 9818   2.093   1.058   0.510 -0.5638 -0.2682 -0.1495
  663TMC3    C8 9819   1.701   1.261   0.581 -0.5301 -0.7400  0.5591
  663TMC3    O1 9820   2.195   1.124   0.480 -0.0613 -0.3811 -0.1221
  663TMC3    O2 9821   1.697   1.224   0.464  0.0734  0.3383 -0.0592
  664MPD2     C 9822   0.703   0.142   0.140 -0.1986  0.0873  0.2902
  664MPD2    C1 9823   0.741   0.263   0.103 -0.2064 -0.4170  0.8034
  664MPD2    C2 9824   0.782   0.355   0.196 -0.5288  0.3552 -0.2091
  664MPD2    C3 9825   0.791   0.330   0.329 -0.0438 -0.2072  0.2799
  664MPD2    C4 9826   0.751   0.203   0.374 -0.4599 -0.4564 -0.2237
  664MPD2    C5 9827   0.710   0.114   0.273 -0.1640  0.1235  0.3504
  664MPD2     H 9828   0.808   0.457   0.169  0.5764 -0.1170 -0.9197
  664MPD2    H1 9829   0.761   0.169   0.476  0.6670  1.1058  0.1887
  664MPD2    H2 9830   0.686   0.067   0.064  0.6409  1.6437 -1.4331
  664MPD2    H3 9831   0.691   0.013   0.305  1.3661  0.1330  1.2816
  664MPD2     N 9832   0.839   0.429   0.416  0.0034 -0.1446 -0.2571
  664MPD2    H5 9833   0.850   0.520   0.372 -2.7444  0.5970  0.5690
  664MPD2    N1 9834   0.738   0.307  17.651  0.0657 -0.6677 -0.5678
  664MPD2    H7 9835   0.787   0.393  17.631  0.9396 -1.3092 -1.1844
  665TMC3    C1 9836   0.905   0.540   0.616  0.6992  0.3682  0.5922
  665TMC3    C2 9837   0.995   0.540   0.717 -0.4182 -0.1336 -0.2354
  665TMC3    C3 9838   1.024   0.664   0.773  0.2173  0.0025  0.1454
  665TMC3    C4 9839   0.851   0.652   0.561 -0.0422 -0.1132 -0.3825
  665TMC3    C5 9840   0.883   0.769   0.622  0.1649  0.6125  0.3413
  665TMC3    C6 9841   0.967   0.780   0.728 -0.2414 -0.0065  0.0267
  665TMC3     C 9842   0.871   0.414   0.548  0.2927 -0.1886  0.4374
  665TMC3     O 9843   0.903   0.313   0.601 -0.3536  0.0633 -0.1393
  665TMC3     H 9844   1.032   0.443   0.750 -0.9612  0.5754  2.4068
  665TMC3    H1 9845   0.775   0.650   0.483 -0.1445  0.5539 -0.2996
  665TMC3    H2 9846   0.984   0.876   0.775 -0.3062 -0.6560  1.3844
  665TMC3    C7 9847   0.776   0.864   0.609 -0.4437  0.3242  0.0412
  665TMC3    C8 9848   1.143   0.665   0.858 -0.1835  0.3074 -0.2272
  665TMC3    O1 9849   0.710   0.867   0.506  0.0881  0.1835  0.1683
  665TMC3    O2 9850   1.168   0.556   0.909  0.5165  0.1216 -0.3639
  666TMC3    C1 9851   3.475   4.381  10.041  0.7835  0.5666 -0.1185
  666TMC3    C2 9852   3.568   4.340   9.945  0.1780  0.2440  0.1124
  666TMC3    C3 9853   3.584   4.437   9.848  0.1575 -0.5809 -0.3883
  666TMC3    C4 9854   3.402   4.499  10.042  0.0597 -0.2331  0.0401
  666TMC3    C5 9855   3.420   4.588   9.937 -0.1491 -0.3566 -1.2168
  666TMC3    C6 9856   3.507   4.556   9.839  0.0779 -0.0765  0.5481
  666TMC3     C 9857   3.467   4.290  10.157  0.0722 -0.5768  0.5459
  666TMC3     O 9858   3.436   4.337  10.265  0.6353 -0.3238  0.3781
  666TMC3     H 9859   3.622   4.247   9.935 -0.6454 -0.1305 -0.9332
  666TMC3    H1 9860   3.336   4.536  10.119 -1.2685  1.2963 -1.8170
  666TMC3    H2 9861   3.534   4.614   9.751  0.3295  0.1004  0.7390
  666TMC3    C7 9862   3.412   0.013   9.969 -0.2193 -0.3147 -0.1043
  666TMC3    C8 9863   3.671   4.411   9.733  0.5053 -0.4663  0.8802
  666TMC3    O1 9864   3.402   0.041  10.089  0.2093  0.7814 -0.0342
  666TMC3    O2 9865   3.665   4.306   9.674 -0.5124  0.0392  0.1616
  667MPD2     C 9866   0.786   4.628  14.787 -0.1654  0.0835 -0.2145
  667MPD2    C1 9867   0.691   4.652  14.878 -0.5241  0.5593  0.3772
  667MPD2    C2 9868   0.591   4.559  14.895  0.0251  0.8965  0.5679
  667MPD2    C3 9869   0.594   4.438  14.827 -0.2466  0.8053 -0.1129
  667MPD2    C4 9870   0.696   4.412  14.745  1.0891  0.4447  0.3197
  667MPD2    C5 9871   0.793   4.504  14.728 -0.1377 -0.0117  0.0169
  667MPD2     H 9872   0.509   4.584  14.961 -0.0445 -1.1685  1.2614
  667MPD2    H1 9873   0.720   4.314  14.705 -3.2862 -1.1522  1.6377
  667MPD2    H2 9874   0.865   4.701  14.778 -1.3052  0.9982 -2.9704
  667MPD2    H3 9875   0.881   4.466  14.678 -0.7883 -1.1075 -0.3029
  667MPD2     N 9876   0.494   4.343  14.845  0.2220 -0.3124  0.1762
  667MPD2    H5 9877   0.513   4.260  14.790  0.9561  1.3364 -2.0670
  667MPD2    N1 9878   0.680   0.058  14.948  0.1748 -1.0431  0.5350
  667MPD2    H7 9879   0.594   0.079  14.998  0.0436  0.4688 -0.3365
  668TMC3    C1 9880   0.770   0.257  15.044  0.2459 -0.4010  0.6652
  668TMC3    C2 9881   0.884   0.308  15.110  0.4088 -0.3425 -1.0289
  668TMC3    C3 9882   0.871   0.436  15.153 -0.5195 -0.0620 -0.8733
  668TMC3    C4 9883   0.659   0.328  15.014  0.2427  1.1926 -1.0121
  668TMC3    C5 9884   0.665   0.455  15.047  0.1068 -0.8077 -0.7005
  668TMC3    C6 9885   0.767   0.515  15.122  0.0897 -0.4289  0.1057
  668TMC3     C 9886   0.793   0.125  14.984 -0.3812  0.7519  0.4907
  668TMC3     O 9887   0.908   0.075  14.997 -0.4080 -0.0281 -0.0433
  668TMC3     H 9888   0.965   0.244  15.144 -0.1003 -0.9801 -1.0199
  668TMC3    H1 9889   0.582   0.278  14.957 -0.3859 -0.5700  1.3690
  668TMC3    H2 9890   0.775   0.621  15.144 -0.4696 -0.0881 -1.3223
  668TMC3    C7 9891   0.563   0.542  14.994  0.0846  0.4971 -0.3538
  668TMC3    C8 9892   0.984   0.496  15.215  0.1252  0.1548  0.4075
  668TMC3    O1 9893   0.567   0.656  15.045 -0.0537  0.6819  0.1875
  668TMC3    O2 9894   1.053   0.424  15.289 -0.0740 -0.2483 -0.3017
  669TMC3    C1 9895   3.548   0.337  14.763  0.2712 -0.0931  0.1189
  669TMC3    C2 9896   3.438   0.308  14.690 -0.2166  0.0948 -0.5524
  669TMC3    C3 9897   3.408   0.398  14.592 -0.7503  1.2120  0.6146
  669TMC3    C4 9898   3.618   0.457  14.749  1.1697 -0.6478 -0.5907
  669TMC3    C5 9899   3.582   0.545  14.653  0.3179  0.8179 -0.1463
  669TMC3    C6 9900   3.480   0.512  14.568  0.4000 -0.1566 -0.1755
  669TMC3     C 9901   3.568   0.259  14.889  0.4747  0.3246 -0.2949
  669TMC3     O 9902   3.472   0.210  14.946  0.0882  0.4736 -0.0297
  669TMC3     H 9903   3.394   0.210  14.700  0.4920 -0.0605  1.0174
  669TMC3    H1 9904   3.700   0.484  14.815 -0.8111  2.9468  0.3798
  669TMC3    H2 9905   3.461   0.581  14.487 -2.0223 -2.1841 -1.3248
  669TMC3    C7 9906   3.689   0.636  14.616 -0.6387 -0.4790 -0.0962
  669TMC3    C8 9907   3.307   0.359  14.502 -0.3630 -0.4709 -0.3553
  669TMC3    O1 9908   3.766   0.684  14.700 -0.7414  0.1379 -0.3543
  669TMC3    O2 9909   3.305   0.239  14.467  0.2888  0.0893  0.0703
  670MPD2     C 9910   1.611   2.517  13.503  0.0595  0.0103  0.0243
  670MPD2    C1 9911   1.741   2.546  13.542 -0.6755  0.0653  0.4472
  670MPD2    C2 9912   1.766   2.570  13.679 -0.1080 -0.6712  0.1954
  670MPD2    C3 9913   1.668   2.565  13.773 -0.0979 -0.4288  0.3213
  670MPD2    C4 9914   1.535   2.547  13.736  0.4223 -0.1218  0.5169
  670MPD2    C5 9915   1.517   2.522  13.599 -0.1543 -0.2537 -0.1121
  670MPD2     H 9916   1.864   2.587  13.723  0.7539  0.3335 -2.1364
  670MPD2    H1 9917   1.453   2.540  13.806  0.5570 -0.7231  0.6192
  670MPD2    H2 9918   1.579   2.498  13.401 -0.0130 -1.6721  0.3675
  670MPD2    H3 9919   1.415   2.496  13.573 -0.1342 -0.7780  0.3385
  670MPD2     N 9920   1.711   2.594  13.902  0.2556 -0.2832 -0.0764
  670MPD2    H5 9921   1.808   2.624  13.904  0.3067 -0.4733  0.3801
  670MPD2    N1 9922   1.845   2.548  13.445 -0.4484 -0.0204 -0.0522
  670MPD2    H7 9923   1.939   2.560  13.482 -0.3495 -2.0054  0.3831
  671TMC3    C1 9924   1.685   2.641  14.133 -0.6461 -0.6167  0.5574
  671TMC3    C2 9925   1.822   2.650  14.147  0.6871 -0.3654  0.1670
  671TMC3    C3 9926   1.878   2.646  14.273 -0.7817  0.2334 -0.3014
  671TMC3    C4 9927   1.608   2.612  14.246 -0.3106  0.4780 -0.7271
  671TMC3    C5 9928   1.670   2.599  14.369  0.1589 -0.8673  0.3515
  671TMC3    C6 9929   1.801   2.627  14.383 -0.1309  0.0134 -0.7604
  671TMC3     C 9930   1.628   2.587  14.016  0.5019 -0.4072 -0.7722
  671TMC3     O 9931   1.514   2.542  14.025  0.3572  0.2418  0.3771
  671TMC3     H 9932   1.879   2.689  14.064 -1.2352  0.0918 -0.9382
  671TMC3    H1 9933   1.500   2.616  14.239 -0.3667 -0.3635 -0.3694
  671TMC3    H2 9934   1.840   2.617  14.483 -1.4731 -0.0729 -0.2467
  671TMC3    C7 9935   1.633   2.480  14.441 -0.1650 -0.1286  0.2482
  671TMC3    C8 9936   2.017   2.592  14.280  0.0152 -0.4511 -0.6957
  671TMC3    O1 9937   1.704   2.436  14.533 -0.5734 -0.2102 -0.1743
  671TMC3    O2 9938   2.076   2.574  14.176 -0.0124 -0.9175  0.1375
  672MPD2     C 9939   2.340   2.748   0.863 -0.1150 -0.1089  0.9515
  672MPD2    C1 9940   2.453   2.673   0.851 -0.1345  0.6441 -0.2460
  672MPD2    C2 9941   2.530   2.652   0.960  0.1937 -0.0481 -0.0967
  672MPD2    C3 9942   2.490   2.696   1.084 -0.5980 -0.0271 -0.1847
  672MPD2    C4 9943   2.376   2.767   1.098  0.3718  0.5190  0.4077
  672MPD2    C5 9944   2.303   2.794   0.985 -0.1020 -0.1016 -0.1203
  672MPD2     H 9945   2.632   2.617   0.949 -0.3130 -1.6380  0.1561
  672MPD2    H1 9946   2.336   2.805   1.191 -1.5392  0.5951 -0.4400
  672MPD2    H2 9947   2.273   2.772   0.781 -0.5823  0.3305  1.4648
  672MPD2    H3 9948   2.208   2.847   0.987 -0.0857 -0.1052  1.0553
  672MPD2     N 9949   2.574   2.680   1.202 -0.0585  0.1252 -0.1521
  672MPD2    H5 9950   2.545   2.726   1.288 -0.2536  0.2476 -0.2815
  672MPD2    N1 9951   2.497   2.621   0.725 -0.4345  0.1717  0.7544
  672MPD2    H7 9952   2.595   2.593   0.721 -0.9293 -1.5778  0.9286
  673TMC3    C1 9953   2.495   2.611   0.482  0.0621 -0.3657  0.9341
  673TMC3    C2 9954   2.563   2.490   0.457 -0.5576 -0.4528 -0.1690
  673TMC3    C3 9955   2.599   2.469   0.329 -0.1372  0.7557  0.1366
  673TMC3    C4 9956   2.479   2.706   0.392  0.1285 -0.4351  0.1680
  673TMC3    C5 9957   2.523   2.684   0.267  0.3228 -0.3886 -0.6973
  673TMC3    C6 9958   2.583   2.565   0.235 -0.8431  0.5464  0.3181
  673TMC3     C 9959   2.436   2.646   0.606 -0.3388 -0.6366 -0.2923
  673TMC3     O 9960   2.321   2.682   0.584 -0.0975  0.1130  0.2540
  673TMC3     H 9961   2.571   2.419   0.539 -0.5098  1.1359  1.1963
  673TMC3    H1 9962   2.425   2.795   0.423 -0.4011 -0.6920 -0.0169
  673TMC3    H2 9963   2.619   2.552   0.133 -2.2805  0.1337 -0.1341
  673TMC3    C7 9964   2.442   2.752   0.170  0.0994 -0.5426  0.4393
  673TMC3    C8 9965   2.663   2.352   0.291 -0.2262 -0.3107  0.4101
  673TMC3    O1 9966   2.371   2.687   0.098  0.2496  0.1889  0.2438
  673TMC3    O2 9967   2.670   2.325   0.174 -0.3711  0.0137  0.1121
  674MPD2     C 9968   1.762   2.866   0.458 -0.6489  0.1732  0.0323
  674MPD2    C1 9969   1.747   2.801   0.577 -0.3418  0.0824 -0.7667
  674MPD2    C2 9970   1.620   2.813   0.635  0.0255 -0.4775 -0.7526
  674MPD2    C3 9971   1.524   2.890   0.584  0.1155 -0.0349  0.3500
  674MPD2    C4 9972   1.547   2.964   0.470 -0.3537  0.0047  0.1698
  674MPD2    C5 9973   1.672   2.954   0.409  1.1527  0.1931  0.0475
  674MPD2     H 9974   1.592   2.760   0.726  0.6614  2.6266  1.2704
  674MPD2    H1 9975   1.473   3.028   0.423 -0.4822  0.7810  1.4374
  674MPD2    H2 9976   1.856   2.860   0.403 -0.1016 -2.9324  1.3391
  674MPD2    H3 9977   1.684   3.011   0.318 -3.2864  3.3126  1.4485
  674MPD2     N 9978   1.400   2.883   0.645 -0.6259  0.5096  0.4834
  674MPD2    H5 9979   1.387   2.816   0.720  4.3481 -2.6957 -1.5728
  674MPD2    N1 9980   1.853   2.733   0.644  0.8739  0.3662  0.0559
  674MPD2    H7 9981   1.938   2.721   0.589 -0.0186 -0.5179 -1.1450
  675TMC3    C1 9982   1.966   2.605   0.809 -0.6683  0.1548 -0.1473
  675TMC3    C2 9983   1.997   2.593   0.943 -0.5626  0.6458  0.2673
  675TMC3    C3 9984   2.110   2.530   0.981  0.0060 -0.0836 -0.3637
  675TMC3    C4 9985   2.033   2.533   0.714 -1.0124 -0.6497 -0.3270
  675TMC3    C5 9986   2.144   2.470   0.754  0.1650  0.4746  0.0969
  675TMC3    C6 9987   2.186   2.463   0.887 -0.6339  0.7379 -0.0452
  675TMC3     C 9988   1.848   2.687   0.774 -0.1297  0.7925 -0.3592
  675TMC3     O 9989   1.759   2.686   0.856 -0.5251 -0.1939  0.5942
  675TMC3     H 9990   1.949   2.655   1.018 -2.4358 -1.3053  0.6868
  675TMC3    H1 9991   2.000   2.514   0.613 -1.6933  1.5174 -0.5047
  675TMC3    H2 9992   2.283   2.419   0.908 -1.2721  0.1128  1.5938
  675TMC3    C7 9993   2.210   2.370   0.668  0.1935 -0.2667  0.0418
  675TMC3    C8 9994   2.123   2.524   1.125 -1.3138  0.0824  0.0377
  675TMC3    O1 9995   2.254   2.271   0.721 -0.3547 -0.2146  0.4026
  675TMC3    O2 9996   2.034   2.562   1.199 -0.2019 -0.4998 -0.1198
  676MPD2     C 9997   4.134   1.175  10.941 -0.4163 -0.6400  0.3091
  676MPD2    C1 9998   4.100   1.120  11.057  0.2939  0.0935 -0.3333
  676MPD2    C2 9999   4.131   0.987  11.075  1.2032  0.1423  0.3390
  676MPD2    C310000   4.222   0.921  10.990 -0.5241 -0.0218  0.2394
  676MPD2    C410001   4.259   0.989  10.869 -0.3183  0.1071 -0.8937
  676MPD2    C510002   4.223   1.117  10.849 -0.2425 -1.1565 -0.0596
  676MPD2     H10003   4.115   0.952  11.176  0.8387 -0.4980  0.0546
  676MPD2    H110004   4.327   0.942  10.798 -0.2450 -0.9562 -0.1112
  676MPD2    H210005   4.098   1.275  10.918 -2.2823 -1.5356 -0.6754
  676MPD2    H310006   4.253   1.178  10.765  0.1946  1.0359  1.6700
  676MPD2     N10007   4.286   0.801  11.024  0.0524 -0.1404  0.4989
  676MPD2    H510008   4.358   0.772  10.960  0.1502  0.5245  0.3069
  676MPD2    N110009   4.026   1.182  11.160  0.4645  0.5215 -0.4357
  676MPD2    H710010   4.001   1.124  11.239  1.9691 -0.0517 -0.3940
  677TMC3    C110011   3.944   1.335  11.295  0.2849  0.3122 -0.2642
  677TMC3    C210012   3.861   1.243  11.346  0.1712  0.2044 -0.0259
  677TMC3    C310013   3.846   1.241  11.481  0.0298  0.2617  0.0465
  677TMC3    C410014   3.993   1.437  11.369  0.7912  0.6992  0.1536
  677TMC3    C510015   3.970   1.440  11.506 -0.5532 -0.2224  1.1388
  677TMC3    C610016   3.885   1.346  11.564 -0.1315  0.5360  0.7355
  677TMC3     C10017   4.004   1.316  11.167 -0.1409 -0.0163  0.0361
  677TMC3     O10018   4.054   1.406  11.105  0.2574  0.6189  0.5652
  677TMC3     H10019   3.826   1.156  11.292  1.4180 -1.0382  1.1504
  677TMC3    H110020   4.057   1.512  11.323  0.9526 -1.0797 -2.5178
  677TMC3    H210021   3.871   1.344  11.672  1.7686  1.5405  0.9818
  677TMC3    C710022   4.043   1.531  11.597  0.1230  0.4222 -0.1939
  677TMC3    C810023   3.758   1.132  11.534 -0.5088 -0.1958 -0.2664
  677TMC3    O110024   4.005   1.547  11.714 -0.5711 -0.4632  0.2934
  677TMC3    O210025   3.654   1.118  11.470  0.6794  0.0315  0.0725
  678MPD2     C10026   0.694   1.676   2.058 -0.5157 -0.2712  0.3313
  678MPD2    C110027   0.747   1.658   1.932 -0.3040  0.1092  0.0482
  678MPD2    C210028   0.665   1.675   1.821  0.0774 -0.1031  0.0038
  678MPD2    C310029   0.530   1.703   1.833 -0.7591 -0.7515 -0.4149
  678MPD2    C410030   0.481   1.713   1.962  0.0781 -0.1881  0.3267
  678MPD2    C510031   0.562   1.688   2.070  0.1996 -0.0070  0.5125
  678MPD2     H10032   0.707   1.658   1.722  2.3576 -0.9428  1.1170
  678MPD2    H110033   0.380   1.746   1.984 -0.4185 -0.7211 -1.1589
  678MPD2    H210034   0.756   1.691   2.145  1.2706  0.5438 -1.0756
  678MPD2    H310035   0.518   1.702   2.167 -0.7817  1.9442 -0.2101
  678MPD2     N10036   0.457   1.723   1.714 -0.3200  0.3491  0.1888
  678MPD2    H510037   0.502   1.703   1.625 -1.8802 -1.5167 -0.1905
  678MPD2    N110038   0.885   1.643   1.910  0.2874  0.2920 -0.3060
  678MPD2    H710039   0.925   1.666   1.819  1.8868 -1.1579  0.0302
  679TMC3    C110040   1.328   1.535   1.919 -0.3411  0.3602 -0.4810
  679TMC3    C210041   1.212   1.539   1.987  0.2151 -0.6305  0.0062
  679TMC3    C310042   1.112   1.625   1.954 -0.0653  0.1790  0.9514
  679TMC3    C410043   1.350   1.625   1.823 -0.2762 -0.0052 -0.3084
  679TMC3    C510044   1.251   1.720   1.797 -0.4623 -0.3034  0.0203
  679TMC3    C610045   1.130   1.720   1.860 -1.1406  0.3357 -0.9197
  679TMC3     C10046   1.415   1.417   1.937 -0.4047  1.3018  0.1252
  679TMC3     O10047   1.368   1.318   1.993  0.0862 -0.4792 -0.5639
  679TMC3     H10048   1.195   1.451   2.048 -3.6638 -0.0313 -0.1887
  679TMC3    H110049   1.443   1.613   1.768  0.2025 -1.5516  0.8561
  679TMC3    H210050   1.067   1.804   1.834 -2.4433 -0.5204 -0.5076
  679TMC3    C710051   1.291   1.830   1.718  0.2170 -0.6512 -0.1041
  679TMC3    C810052   0.979   1.597   2.002  0.5281  0.1406 -0.0456
  679TMC3    O110053   1.206   1.903   1.666 -1.1126  0.4205 -0.1034
  679TMC3    O210054   0.958   1.554   2.115  0.1774  0.2707 -0.0557
  680MPD2     C10055   1.428   0.145  14.085 -0.6713  0.3885 -0.1521
  680MPD2    C110056   1.546   0.130  14.151  1.3172 -0.0339 -0.1447
  680MPD2    C210057   1.629   0.238  14.167  0.5248 -0.0886 -0.0786
  680MPD2    C310058   1.588   0.367  14.120  1.1362 -0.6820 -0.5455
  680MPD2    C410059   1.454   0.380  14.078 -0.0967 -0.8971 -0.2196
  680MPD2    C510060   1.377   0.267  14.047  0.8957  0.0498 -0.1499
  680MPD2     H10061   1.731   0.219  14.201  0.3917 -3.3115 -1.4979
  680MPD2    H110062   1.417   0.478  14.050  0.9649 -0.7473 -1.0946
  680MPD2    H210063   1.373   0.057  14.053  0.9789  0.0688 -2.0745
  680MPD2    H310064   1.280   0.276  13.998 -0.6246  1.4104  3.0898
  680MPD2     N10065   1.673   0.478  14.101  0.7537 -0.2423  0.6164
  680MPD2    H510066   1.637   0.561  14.055 -0.1236 -0.3372  1.1183
  680MPD2    N110067   1.594   0.004  14.206  0.2429 -0.0901  0.6308
  680MPD2    H710068   1.687   4.715  14.246  1.0003 -0.3927 -1.1919
  681TMC3    C110069   1.604   4.508  14.262 -0.0675  0.3790  0.0596
  681TMC3    C210070   1.643   4.532  14.384  0.3049 -0.0059  0.3114
  681TMC3    C310071   1.721   4.449  14.449  0.0520 -0.6419  0.1630
  681TMC3    C410072   1.660   4.409  14.189  0.5028 -0.2336  0.4610
  681TMC3    C510073   1.746   4.324  14.259  0.0645  0.4908  1.0893
  681TMC3    C610074   1.782   4.344  14.387  0.0866 -0.1082 -0.0851
  681TMC3     C10075   1.533   4.607  14.188  0.0047  0.6182 -0.2565
  681TMC3     O10076   1.455   4.577  14.100 -0.5651 -0.6373  0.1362
  681TMC3     H10077   1.602   4.616  14.439 -1.1561  1.4029 -2.9506
  681TMC3    H110078   1.623   4.392  14.089  1.1136 -0.6193  0.3010
  681TMC3    H210079   1.849   4.272  14.433 -0.0017 -0.6399 -0.7935
  681TMC3    C710080   1.786   4.203  14.193 -0.5948 -0.8376  0.2846
  681TMC3    C810081   1.760   4.490  14.584 -0.1582  0.0277  1.0319
  681TMC3    O110082   1.820   4.109  14.266  0.7972  0.1374 -0.0856
  681TMC3    O210083   1.667   4.516  14.659 -0.0830  0.2946 -0.4142
  682MPD2     C10084   3.426   0.894  10.721  0.3029  0.6890 -0.2399
  682MPD2    C110085   3.465   0.774  10.768 -0.0800 -0.4894 -0.0235
  682MPD2    C210086   3.463   0.750  10.904 -0.2735 -0.3544 -0.7287
  682MPD2    C310087   3.403   0.828  10.997  1.1113  0.5826  0.2349
  682MPD2    C410088   3.346   0.950  10.952  0.1091  0.3657  0.3651
  682MPD2    C510089   3.363   0.974  10.818  0.1650  0.8000 -0.4214
  682MPD2     H10090   3.527   0.671  10.940 -0.0047 -0.1343 -0.7206
  682MPD2    H110091   3.289   1.015  11.018 -2.2736 -0.4041 -0.9435
  682MPD2    H210092   3.428   0.923  10.617  0.9597  0.8163 -0.1953
  682MPD2    H310093   3.307   1.058  10.777  2.7903  2.8794  0.2474
  682MPD2     N10094   3.377   0.794  11.133  0.1119  0.2567  0.1702
  682MPD2    H510095   3.339   0.866  11.194 -1.0908 -1.6925  1.7070
  682MPD2    N110096   3.521   0.671  10.686  0.3893  0.5675 -0.2502
  682MPD2    H710097   3.544   0.584  10.732 -2.3224 -1.0163 -1.8403
  683TMC3    C110098   3.339   0.776  11.546 -0.0691 -0.4886 -0.1893
  683TMC3    C210099   3.373   0.659  11.602  0.1115  0.6174 -1.2320
  683TMC3    C310100   3.421   0.547  11.533 -1.0886 -0.6063  0.0176
  683TMC3    C410101   3.356   0.788  11.409  0.1929 -0.2753 -0.1630
  683TMC3    C510102   3.399   0.676  11.337  0.2551  0.6553  0.8812
  683TMC3    C610103   3.436   0.561  11.397 -0.3891 -0.4146 -0.4958
  683TMC3     C10104   3.284   0.888  11.626 -0.2121 -0.3888 -0.5119
  683TMC3     O10105   3.270   0.997  11.578  0.4229 -1.1402  0.0106
  683TMC3     H10106   3.367   0.645  11.710  1.3480  2.0666 -0.9611
  683TMC3    H110107   3.326   0.887  11.375  1.5231  0.3354  0.4514
  683TMC3    H210108   3.471   0.477  11.339 -0.9343  1.5399 -3.6394
  683TMC3    C710109   3.420   0.673  11.198 -0.2476  0.1818  0.3562
  683TMC3    C810110   3.397   0.414  11.581 -0.1712 -0.3482 -0.2904
  683TMC3    O110111   3.458   0.572  11.141 -0.0017 -0.2664  0.1453
  683TMC3    O210112   3.304   0.392  11.655  0.4779  0.1614 -0.0972
  684MPD2     C10113   1.663   0.663  16.523 -0.2911  0.1253 -0.2941
  684MPD2    C110114   1.798   0.647  16.509 -0.0245 -0.0500 -0.0736
  684MPD2    C210115   1.880   0.737  16.571 -0.8713 -0.2106  0.1143
  684MPD2    C310116   1.835   0.841  16.648  0.3978  0.5364  0.8572
  684MPD2    C410117   1.697   0.855  16.670 -0.3477  0.1073 -0.6655
  684MPD2    C510118   1.618   0.761  16.607 -0.1880  1.1402 -0.4687
  684MPD2     H10119   1.988   0.731  16.561 -1.0267 -0.8272 -1.1869
  684MPD2    H110120   1.656   0.926  16.741 -1.0737  0.2486 -1.2291
  684MPD2    H210121   1.594   0.591  16.481  1.7695 -1.4956 -0.9066
  684MPD2    H310122   1.510   0.766  16.614 -0.3661 -0.8364 -1.8696
  684MPD2     N10123   1.921   0.942  16.697 -0.0046 -0.3823  0.3922
  684MPD2    H510124   1.887   1.031  16.733  2.4499  2.0778 -3.2544
  684MPD2    N110125   1.847   0.559  16.419 -0.2131  0.6205  0.2430
  684MPD2    H710126   1.781   0.523  16.350 -0.0996 -0.6596  0.7945
  685TMC3    C110127   2.024   0.434  16.315  0.0488 -0.2154 -0.2299
  685TMC3    C210128   1.938   0.355  16.238  0.8478  0.0881 -0.9447
  685TMC3    C310129   2.002   0.285  16.136 -0.1092 -0.1136 -0.0432
  685TMC3    C410130   2.158   0.430  16.293 -0.3294  0.3373  0.1663
  685TMC3    C510131   2.214   0.358  16.184  0.2695 -0.1808 -0.1315
  685TMC3    C610132   2.133   0.296  16.094 -0.5766  0.1794 -0.0702
  685TMC3     C10133   1.974   0.512  16.422  0.4334  0.3863 -0.5010
  685TMC3     O10134   2.055   0.528  16.510 -0.0865 -0.1489  0.1050
  685TMC3     H10135   1.839   0.337  16.278 -0.6214  1.1334 -4.1103
  685TMC3    H110136   2.209   0.505  16.352 -1.0378  0.9987 -0.0551
  685TMC3    H210137   2.162   0.238  16.007 -0.6895 -1.9525  1.3184
  685TMC3    C710138   2.342   0.413  16.134 -0.4648  0.1002  0.5997
  685TMC3    C810139   1.928   0.215  16.047 -0.2224  0.1241  0.8661
  685TMC3    O110140   2.358   0.423  16.014 -0.0016  0.2539  0.3680
  685TMC3    O210141   1.974   0.138  15.966  0.0439 -0.3500 -0.1348
  686MPD2     C10142   3.436   0.499  15.551 -0.0401 -0.1160  0.0055
  686MPD2    C110143   3.470   0.465  15.675 -0.0995  0.4132 -0.1617
  686MPD2    C210144   3.554   0.357  15.690  0.7158 -0.4119  0.9373
  686MPD2    C310145   3.593   0.286  15.577 -0.3547  0.1370 -0.5714
  686MPD2    C410146   3.566   0.328  15.453  0.7061  0.0752  0.0269
  686MPD2    C510147   3.477   0.433  15.440 -0.7854 -0.2201 -0.3549
  686MPD2     H10148   3.581   0.323  15.789 -4.3340 -1.3303  1.9739
  686MPD2    H110149   3.597   0.276  15.363 -3.1896 -0.7087 -0.8417
  686MPD2    H210150   3.377   0.588  15.533 -1.4668 -1.3208 -1.2363
  686MPD2    H310151   3.447   0.468  15.342 -0.5120 -0.2699 -0.4559
  686MPD2     N10152   3.664   0.162  15.583 -0.2380 -0.5179 -0.0256
  686MPD2    H510153   3.678   0.120  15.492 -0.2431  0.4109 -0.4558
  686MPD2    N110154   3.408   0.531  15.784 -0.3499 -0.1892  0.3888
  686MPD2    H710155   3.350   0.612  15.767  0.8644  0.8745  1.3940
  687TMC3    C110156   3.630   0.105  15.822  0.1480 -0.1676  0.9755
  687TMC3    C210157   3.495   0.097  15.818  0.0982  0.2203 -0.0751
  687TMC3    C310158   3.430   0.093  15.941  0.2671  0.2620 -0.4033
  687TMC3    C410159   3.704   0.073  15.932 -0.5213  0.4968  0.0047
  687TMC3    C510160   3.636   0.078  16.051  0.0979 -0.0141  0.7357
  687TMC3    C610161   3.499   0.083  16.058 -0.0071  0.8976  0.4835
  687TMC3     C10162   3.700   0.088  15.695 -0.0991  0.3483 -0.2789
  687TMC3     O10163   3.778   4.716  15.690 -0.1282 -0.3171  0.2500
  687TMC3     H10164   3.441   0.095  15.724 -2.1827  0.0014  1.2383
  687TMC3    H110165   3.811   0.083  15.923 -0.4740  0.8845  0.9734
  687TMC3    H210166   3.458   0.067  16.157 -0.6269  1.9731  0.4030
  687TMC3    C710167   3.702   0.125  16.173 -0.4477 -0.5876  0.3931
  687TMC3    C810168   3.292   0.137  15.958 -0.6139  0.4406  0.0640
  687TMC3    O110169   3.630   0.185  16.253 -0.0726  0.1606  0.4505
  687TMC3    O210170   3.253   0.133  16.072  0.3379  0.5471 -0.2140
  688MPD2     C10171   2.847   3.891  17.583 -0.0609  0.4602 -0.0336
  688MPD2    C110172   2.903   3.765  17.604 -0.6411  0.5122 -0.3514
  688MPD2    C210173   2.955   3.705  17.495 -0.8119 -0.3363 -0.0225
  688MPD2    C310174   2.927   3.742  17.366 -0.0262 -0.0603  0.3084
  688MPD2    C410175   2.863   3.854  17.345  0.6533  0.3167  0.0832
  688MPD2    C510176   2.831   3.933  17.454 -0.0827  0.8951 -0.2135
  688MPD2     H10177   3.009   3.613  17.516 -2.8973 -1.6763 -0.4454
  688MPD2    H110178   2.839   3.887  17.245 -0.4158 -0.5607  0.0522
  688MPD2    H210179   2.825   3.968  17.656 -0.6480  2.3278 -2.1628
  688MPD2    H310180   2.773   4.021  17.429  1.2707  1.7277 -0.4132
  688MPD2     N10181   2.992   3.686  17.254  0.3842  0.2870 -0.4565
  688MPD2    H510182   2.992   3.744  17.171  0.2800  3.0943  1.4972
  688MPD2    N110183   2.923   3.712   0.052  0.6701  0.6741 -0.5794
  688MPD2    H710184   2.978   3.627   0.054  0.0833  0.2819 -1.4160
  689TMC3    C110185   2.891   3.674   0.283 -0.0880 -0.6650 -1.0073
  689TMC3    C210186   2.882   3.732   0.404 -0.0519 -0.3561  0.0149
  689TMC3    C310187   2.912   3.650   0.513 -0.1739 -1.1774  0.6523
  689TMC3    C410188   2.915   3.538   0.264 -0.1933  0.3630 -0.5819
  689TMC3    C510189   2.936   3.461   0.370 -0.8550  0.6449  0.5363
  689TMC3    C610190   2.935   3.514   0.494 -0.6835 -0.3891 -0.1322
  689TMC3     C10191   2.860   3.752   0.170 -0.6685  0.1944 -0.5812
  689TMC3     O10192   2.796   3.855   0.195  0.6601 -0.2156  0.1102
  689TMC3     H10193   2.875   3.840   0.410 -1.2941 -0.5482  1.8879
  689TMC3    H110194   2.930   3.500   0.163  0.6958 -0.9226  0.0361
  689TMC3    H210195   2.968   3.453   0.577  0.0415  2.0930  1.4040
  689TMC3    C710196   2.972   3.320   0.358 -0.0878 -0.3167  0.2492
  689TMC3    C810197   2.896   3.695   0.652  0.4287 -0.1878  0.7086
  689TMC3    O110198   3.021   3.263   0.448 -0.1647  0.5170  0.5932
  689TMC3    O210199   2.904   3.613   0.742  0.2270 -0.2292 -0.1435
  690MPD2     C10200   0.192   1.534  16.170 -0.4894  0.3397 -0.4627
  690MPD2    C110201   0.156   1.496  16.041 -1.1218 -0.5789 -0.2756
  690MPD2    C210202   0.224   1.559  15.936  0.3190 -0.2707  0.0626
  690MPD2    C310203   0.324   1.651  15.958  0.6907 -0.1477 -0.2138
  690MPD2    C410204   0.358   1.676  16.087 -0.0696  0.2528  0.1736
  690MPD2    C510205   0.297   1.614  16.189  0.5163  0.0861 -0.3862
  690MPD2     H10206   0.213   1.532  15.831  1.7149  1.8688 -0.6274
  690MPD2    H110207   0.433   1.748  16.118  1.0647 -0.5915 -0.6336
  690MPD2    H210208   0.144   1.495  16.260  2.4482 -0.8827  0.5591
  690MPD2    H310209   0.325   1.637  16.291 -1.9442  2.4774 -0.2505
  690MPD2     N10210   0.391   1.695  15.845  0.0245  0.0908 -0.6644
  690MPD2    H510211   0.358   1.667  15.753 -0.7085 -1.2357 -0.0150
  690MPD2    N110212   0.064   1.396  16.013  0.0123  0.5294 -0.0028
  690MPD2    H710213   0.049   1.382  15.913  0.8234  2.7946 -0.4503
  691TMC3    C110214   4.629   1.227  16.052 -0.4157 -0.3976 -0.3773
  691TMC3    C210215   4.552   1.162  16.141 -0.2026  0.0470 -0.1547
  691TMC3    C310216   4.455   1.080  16.100  0.2926  1.0898  0.0734
  691TMC3    C410217   4.646   1.177  15.928 -0.4912 -0.1443 -0.1248
  691TMC3    C510218   4.550   1.082  15.892  0.0803 -0.3809  0.6146
  691TMC3    C610219   4.459   1.033  15.980 -0.4224  0.0101  0.8114
  691TMC3     C10220   0.019   1.305  16.102 -0.8393 -0.1761 -0.2591
  691TMC3     O10221   0.050   1.290  16.220 -0.6523  0.4470  0.5544
  691TMC3     H10222   4.552   1.183  16.248 -0.8238 -1.0851  0.0690
  691TMC3    H110223   4.699   1.233  15.852  0.6134 -0.3088  0.5246
  691TMC3    H210224   4.374   0.974  15.951 -0.0836  0.6939 -1.6295
  691TMC3    C710225   4.547   1.035  15.757  0.4616  0.8029 -0.1034
  691TMC3    C810226   4.327   1.104  16.163 -0.2296 -0.0374  0.0698
  691TMC3    O110227   4.588   1.118  15.679  0.1422  0.6309  0.8942
  691TMC3    O210228   4.260   1.002  16.161 -0.3803 -0.2552  0.3667
  692TMC3    C110229   1.984   2.056  16.122  0.2063  0.0321 -0.3794
  692TMC3    C210230   2.119   2.082  16.103 -0.5233  0.1073  0.0089
  692TMC3    C310231   2.194   2.018  15.999  0.8501 -0.4666  0.0076
  692TMC3    C410232   1.928   1.935  16.088 -0.3686 -0.2925  0.3748
  692TMC3    C510233   2.002   1.867  15.993  0.0477  0.2346 -0.3865
  692TMC3    C610234   2.122   1.916  15.936 -0.5357 -0.0852 -0.4420
  692TMC3     C10235   1.900   2.148  16.191  0.0636 -0.2041 -0.2600
  692TMC3     O10236   1.780   2.132  16.178 -0.0116 -0.1217 -0.0345
  692TMC3     H10237   2.168   2.174  16.135  0.8737 -1.0146  1.0955
  692TMC3    H110238   1.838   1.893  16.132 -1.2893  1.0255 -0.2407
  692TMC3    H210239   2.180   1.839  15.887  0.7445  2.0615 -2.2987
  692TMC3    C710240   1.997   1.723  15.989  0.4607 -0.4663  0.8381
  692TMC3    C810241   2.316   1.959  16.050 -0.2576  0.2111 -0.1447
  692TMC3    O110242   1.992   1.674  15.877  0.1558 -0.7669 -0.5610
  692TMC3    O210243   2.374   1.891  15.969 -0.3352  0.2352 -0.3399
  693MPD2     C10244   1.039   0.002  10.611  0.0021  0.8211  0.3135
  693MPD2    C110245   1.009   4.602  10.666  0.3122 -0.1482  0.5677
  693MPD2    C210246   1.115   4.506  10.688 -0.3941  0.2965  0.5588
  693MPD2    C310247   1.250   4.543  10.665  0.7821 -0.0145 -0.7759
  693MPD2    C410248   1.281   4.667  10.608  0.0354 -1.4187 -0.0797
  693MPD2    C510249   1.174   0.036  10.591 -0.0702 -0.1201 -0.0418
  693MPD2     H10250   1.095   4.410  10.734 -0.4878  0.2383  0.3948
  693MPD2    H110251   1.382   4.704  10.591  0.1571 -2.8764 -2.5552
  693MPD2    H210252   0.963   0.077  10.598  1.6440  2.8346  2.3280
  693MPD2    H310253   1.187   0.136  10.552 -0.2123  0.0454  0.3332
  693MPD2     N10254   1.359   4.462  10.711 -0.2152 -0.3762 -0.4052
  693MPD2    H510255   1.453   4.483  10.679 -0.9810 -1.2939 -3.2485
  693MPD2    N110256   0.873   4.585  10.706 -0.1282  0.3954 -0.2982
  693MPD2    H710257   0.806   4.658  10.684  0.7693  1.0677 -0.7780
  694TMC3    C110258   0.683   4.467  10.791  0.2045  0.7690 -0.4510
  694TMC3    C210259   0.588   4.440  10.696  0.3296 -0.6137 -0.2054
  694TMC3    C310260   0.473   4.378  10.750 -0.1732 -0.3908  0.5990
  694TMC3    C410261   0.672   4.442  10.926 -0.0273 -0.1871 -0.0122
  694TMC3    C510262   0.551   4.398  10.970  0.3761 -0.3384 -0.1662
  694TMC3    C610263   0.452   4.355  10.881  0.2200 -0.5474  0.5178
  694TMC3     C10264   0.821   4.461  10.757  0.3155  0.7542  0.4862
  694TMC3     O10265   0.879   4.356  10.792  0.1557  0.3984  0.0473
  694TMC3     H10266   0.600   4.423  10.589  0.2560 -2.4184  0.0748
  694TMC3    H110267   0.755   4.465  10.993  1.0587 -1.0002 -1.0755
  694TMC3    H210268   0.359   4.313  10.918 -0.1211  0.2587  0.5837
  694TMC3    C710269   0.533   4.395  11.114 -0.6010 -0.2289 -0.6189
  694TMC3    C810270   0.355   4.375  10.662  0.4984  0.0961  0.0546
  694TMC3    O110271   0.582   4.493  11.172 -0.0076  0.3573  0.3202
  694TMC3    O210272   0.268   4.287  10.692  0.0777  0.0119 -0.0379
  695MPD2     C10273   2.104   1.748  13.600 -0.0531  0.4966 -0.0693
  695MPD2    C110274   2.071   1.816  13.713 -0.6075  0.3544 -0.1526
  695MPD2    C210275   1.936   1.823  13.755 -0.7440  0.4314 -0.2250
  695MPD2    C310276   1.837   1.777  13.664  0.3347  0.1259 -0.2213
  695MPD2    C410277   1.869   1.699  13.557 -0.6989  0.3932 -0.0181
  695MPD2    C510278   2.003   1.686  13.531  0.7871 -0.5603 -0.3764
  695MPD2     H10279   1.914   1.869  13.851  2.7073 -2.7231  2.1022
  695MPD2    H110280   1.796   1.638  13.506  2.4282 -2.3875 -1.1884
  695MPD2    H210281   2.206   1.728  13.569 -0.7671 -2.7138 -0.3145
  695MPD2    H310282   2.043   1.627  13.449  1.5343 -1.6104  0.7255
  695MPD2     N10283   1.706   1.804  13.697  0.0906  0.3493 -0.4681
  695MPD2    H510284   1.692   1.862  13.780  1.3205 -0.7891  0.5295
  695MPD2    N110285   2.168   1.860  13.807 -0.4569  0.1572 -0.5893
  695MPD2    H710286   2.129   1.922  13.878  0.7068 -0.9506  1.0119
  696TMC3    C110287   1.472   1.826  13.700  0.3595 -0.0912 -0.2966
  696TMC3    C210288   1.467   1.809  13.834 -0.3692 -0.3893 -0.6733
  696TMC3    C310289   1.401   1.904  13.904  0.5947  0.0043  0.8204
  696TMC3    C410290   1.401   1.923  13.632 -0.3138  0.4713 -0.4339
  696TMC3    C510291   1.319   2.002  13.711  0.2141 -0.1194 -0.4202
  696TMC3    C610292   1.328   2.005  13.846 -0.3362  1.3462  0.3334
  696TMC3     C10293   1.590   1.784  13.623  0.1202  0.0756 -0.2508
  696TMC3     O10294   1.588   1.764  13.501  0.2402  0.4642 -0.6883
  696TMC3     H10295   1.536   1.733  13.869  0.2187  0.3168 -0.3045
  696TMC3    H110296   1.410   1.931  13.524 -1.1842 -0.6563 -0.5912
  696TMC3    H210297   1.275   2.079  13.905 -2.2631 -0.5266  0.9323
  696TMC3    C710298   1.262   2.119  13.647  0.3754  0.7674 -0.3682
  696TMC3    C810299   1.429   1.902  14.044 -0.7911 -0.2225  0.6193
  696TMC3    O110300   1.259   2.126  13.521 -0.6056 -0.2424  0.0027
  696TMC3    O210301   1.473   1.802  14.095  0.3501 -0.8976  0.0526
  697MPD2     C10302   0.823   4.081  15.575  0.5129 -0.7734  0.6462
  697MPD2    C110303   0.888   4.003  15.484 -0.3632  0.2329 -0.8714
  697MPD2    C210304   0.986   4.064  15.399  0.6851  0.3367  0.8309
  697MPD2    C310305   1.004   4.201  15.402  0.3491  0.5721  0.2901
  697MPD2    C410306   0.924   4.277  15.483 -0.2909  0.4447 -0.3984
  697MPD2    C510307   0.839   4.218  15.575 -0.3381  0.6530 -0.2211
  697MPD2     H10308   1.049   4.009  15.329 -2.4995 -1.1994 -0.8709
  697MPD2    H110309   0.928   4.385  15.492  0.8023  0.1075  3.0360
  697MPD2    H210310   0.751   4.039  15.645 -0.6468 -0.6709 -0.4792
  697MPD2    H310311   0.786   4.277  15.649 -0.3731  1.2228 -0.7072
  697MPD2     N10312   1.104   4.258  15.324  0.4946 -0.0651  0.0782
  697MPD2    H510313   1.149   4.197  15.256 -0.0353 -0.3405 -0.0281
  697MPD2    N110314   0.866   3.867  15.469 -0.7612 -0.2598  0.2306
  697MPD2    H710315   0.902   3.830  15.381  1.0931 -2.1232  1.7740
  698TMC3    C110316   1.278   4.401  15.271  0.0359 -0.3628 -0.2087
  698TMC3    C210317   1.319   4.528  15.237  0.3112  0.0364 -0.5002
  698TMC3    C310318   1.441   4.549  15.192 -0.5523  1.1648  0.2201
  698TMC3    C410319   1.360   4.288  15.247  0.5291  0.2801 -0.0092
  698TMC3    C510320   1.488   4.313  15.208  0.0147  0.1028 -0.6118
  698TMC3    C610321   1.527   4.442  15.183 -0.7144 -0.8316  0.0708
  698TMC3     C10322   1.151   4.385  15.340 -0.2561  0.5050  0.7897
  698TMC3     O10323   1.124   4.473  15.421 -0.3162 -0.0425  0.1769
  698TMC3     H10324   1.254   4.613  15.249  1.5737  0.6500  1.8316
  698TMC3    H110325   1.337   4.183  15.261  0.8109  0.3386  0.8633
  698TMC3    H210326   1.614   4.462  15.122 -1.0571 -1.4277 -0.6173
  698TMC3    C710327   1.533   4.233  15.097 -0.2250  0.3820 -0.7007
  698TMC3    C810328   1.444   4.649  15.097  0.2846  0.1439  0.2710
  698TMC3    O110329   1.446   4.188  15.022  0.0636  0.0183  0.3480
  698TMC3    O210330   1.336   4.662  15.035  0.0841 -0.5357  0.0941
  699TMC3    C110331   1.371   1.761  13.216 -0.3151  0.2645 -0.7145
  699TMC3    C210332   1.459   1.664  13.255 -0.1167  0.1371  1.1498
  699TMC3    C310333   1.406   1.551  13.306  0.5315  0.0419 -0.5297
  699TMC3    C410334   1.236   1.745  13.229  0.4952  0.0081  0.2286
  699TMC3    C510335   1.187   1.630  13.280 -0.2413  0.4373 -0.0655
  699TMC3    C610336   1.272   1.530  13.310 -0.4493 -0.2382  0.0288
  699TMC3     C10337   1.403   1.842  13.097 -0.4273  0.2655  0.0996
  699TMC3     O10338   1.305   1.899  13.044  0.0596 -0.3269  0.1728
  699TMC3     H10339   1.566   1.669  13.237 -0.0706 -1.9075  0.8506
  699TMC3    H110340   1.169   1.827  13.209  0.5275  0.9133  3.7452
  699TMC3    H210341   1.228   1.435  13.339 -0.6645 -0.1733 -0.0873
  699TMC3    C710342   1.089   1.659  13.381  0.4662 -0.4451  0.6051
  699TMC3    C810343   1.493   1.461  13.384 -0.4433 -0.3491  0.3137
  699TMC3    O110344   1.003   1.740  13.350  0.4756  0.4973  0.1222
  699TMC3    O210345   1.434   1.382  13.459 -1.1277 -0.1796  0.2059
  700TMC3    C110346   0.930   4.126  17.406 -0.5298  0.2609 -0.3884
  700TMC3    C210347   1.010   4.015  17.395  0.3575  0.8286  0.0899
  700TMC3    C310348   1.103   3.992  17.491  0.6430 -0.1429  0.0805
  700TMC3    C410349   0.978   4.230  17.485  0.5564  0.4289 -0.8379
  700TMC3    C510350   1.073   4.210  17.579  0.2496 -0.0369 -0.0079
  700TMC3    C610351   1.141   4.093  17.586  0.5049 -0.0731 -0.4113
  700TMC3     C10352   0.857   4.154  17.282  0.6232  0.2438  0.5077
  700TMC3     O10353   0.782   4.073  17.237  0.1581 -0.2570  0.2509
  700TMC3     H10354   0.973   3.936  17.332  0.8453 -0.0336  0.8816
  700TMC3    H110355   0.920   4.321  17.498  0.2881  0.1054  0.2373
  700TMC3    H210356   1.224   4.073  17.654  0.5727 -4.2890 -1.7200
  700TMC3    C710357   1.142   4.323  17.620  0.7284 -0.0109 -0.6392
  700TMC3    C810358   1.197   3.893  17.455 -0.5792  0.1355  0.6944
  700TMC3    O110359   1.190   4.321   0.045  0.6121  0.6533 -0.0987
  700TMC3    O210360   1.196   3.855  17.338 -0.1598 -0.5777  0.3441
  701TMC3    C110361   0.552   3.291  15.041 -0.5393 -0.7864 -0.3404
  701TMC3    C210362   0.538   3.280  14.904  0.2758 -0.0117  0.2776
  701TMC3    C310363   0.564   3.392  14.831  0.3005  0.1071  0.1516
  701TMC3    C410364   0.588   3.412  15.094 -0.5350 -0.4124 -0.1141
  701TMC3    C510365   0.627   3.514  15.008  0.6839  0.1006  0.1598
  701TMC3    C610366   0.620   3.507  14.875 -0.9627  0.5867  0.7934
  701TMC3     C10367   0.535   3.186  15.139  0.1624  0.0338  0.3533
  701TMC3     O10368   0.570   3.212  15.254 -0.1672 -0.0571 -0.4116
  701TMC3     H10369   0.516   3.188  14.852 -0.8185  0.5575 -0.2658
  701TMC3    H110370   0.599   3.428  15.201  0.4362 -0.5127 -0.1981
  701TMC3    H210371   0.651   3.587  14.807 -2.8112  2.7896  2.5379
  701TMC3    C710372   0.640   3.649  15.062 -0.2960  0.1424  0.0395
  701TMC3    C810373   0.489   3.405  14.703 -0.4748 -0.0194  0.2317
  701TMC3    O110374   0.727   3.714  15.016 -0.5168  0.6553  0.2115
  701TMC3    O210375   0.502   3.512  14.642 -0.2541  0.5296 -0.1892
  702MPD2     C10376   0.204   0.730  11.026  1.0990  0.0561 -0.3520
  702MPD2    C110377   0.103   0.648  10.999  0.5323 -0.3051 -0.2273
  702MPD2    C210378   0.087   0.586  10.876 -0.4606 -0.2652 -0.1921
  702MPD2    C310379   0.177   0.616  10.779 -0.0979  0.5919 -0.3989
  702MPD2    C410380   0.285   0.697  10.804  0.2984  0.1376  0.3256
  702MPD2    C510381   0.307   0.745  10.931  0.0895  0.1178  0.4413
  702MPD2     H10382   0.000   0.522  10.862  0.5470 -1.5853 -0.3655
  702MPD2    H110383   0.357   0.722  10.726 -1.1672  1.7400 -0.4965
  702MPD2    H210384   0.225   0.770  11.125  0.0946  0.6584 -0.3940
  702MPD2    H310385   0.394   0.805  10.957 -0.1507  0.1099  1.2570
  702MPD2     N10386   0.174   0.571  10.642 -0.0364 -0.3766 -0.4910
  702MPD2    H510387   0.231   0.619  10.573  0.7044 -2.2473 -1.1661
  702MPD2    N110388   0.005   0.614  11.092  0.0560  0.3529  0.7472
  702MPD2    H710389   4.647   0.559  11.057 -0.8242  0.7842  2.0330
  703TMC3    C110390   0.046   0.523  10.451  0.3918  0.3285  0.3576
  703TMC3    C210391   4.632   0.507  10.434  0.0812 -0.3598  0.1453
  703TMC3    C310392   4.542   0.620  10.442  0.4582 -0.7265 -0.0636
  703TMC3    C410393   0.094   0.644  10.419  0.0536  0.4171 -0.7625
  703TMC3    C510394   0.010   0.749  10.405 -0.0646 -0.4097 -0.0220
  703TMC3    C610395   4.596   0.743  10.440 -0.4477  0.0726 -0.0715
  703TMC3     C10396   0.074   0.492  10.594  0.2656 -0.5266 -0.4877
  703TMC3     O10397   4.710   0.422  10.649 -0.2535  0.1611 -0.0294
  703TMC3     H10398   4.582   0.414  10.461 -1.6224  0.7316  0.7618
  703TMC3    H110399   0.196   0.661  10.385  0.5422  1.0658  1.0218
  703TMC3    H210400   4.530   0.829  10.437  0.7905  0.9896 -0.8846
  703TMC3    C710401   0.068   0.868  10.441 -0.5166  0.8518  0.3223
  703TMC3    C810402   4.428   0.610  10.537  0.1444  1.1063 -0.0334
  703TMC3    O110403   0.149   0.911  10.360 -0.1080  0.6718 -0.3560
  703TMC3    O210404   4.424   0.706  10.613 -0.1589  0.3023  0.5435
  704TMC3    C110405   2.036   3.812  12.357  0.3384 -0.6048  0.0663
  704TMC3    C210406   2.165   3.840  12.396  0.1225 -0.4758  0.6160
  704TMC3    C310407   2.233   3.745  12.459  0.9264  0.3147 -0.1783
  704TMC3    C410408   1.971   3.696  12.401  0.0936  0.8941  0.7777
  704TMC3    C510409   2.055   3.606  12.465  0.2124  0.1689 -0.4419
  704TMC3    C610410   2.183   3.624  12.493 -0.3467 -0.3065 -0.1866
  704TMC3     C10411   2.009   3.856  12.221 -1.0833 -0.6868  0.4381
  704TMC3     O10412   1.893   3.843  12.179 -0.4205  0.2207 -0.3823
  704TMC3     H10413   2.214   3.925  12.351 -0.4348  0.1842  1.2776
  704TMC3    H110414   1.870   3.671  12.370  0.7990 -0.8155 -0.1106
  704TMC3    H210415   2.241   3.555  12.554  1.2161  1.3935  0.2359
  704TMC3    C710416   2.000   3.478  12.512 -0.4513 -0.2880 -0.4748
  704TMC3    C810417   2.365   3.734  12.402  0.4115  0.5616 -1.2511
  704TMC3    O110418   1.898   3.479  12.582 -0.2702 -0.2885 -1.0294
  704TMC3    O210419   2.376   3.784  12.288 -0.1657  0.2615 -0.3624
  705MPD2     C10420   2.469   1.586  16.999  0.4665  0.4692 -0.2393
  705MPD2    C110421   2.412   1.707  16.962 -0.3034 -0.9540 -0.2032
  705MPD2    C210422   2.289   1.754  17.004  0.7562 -0.0303 -0.1005
  705MPD2    C310423   2.197   1.666  17.070  0.0115 -0.4335 -0.2926
  705MPD2    C410424   2.256   1.545  17.115 -0.0590 -0.3600  0.6209
  705MPD2    C510425   2.387   1.509  17.082 -0.5939 -0.1126 -0.2405
  705MPD2     H10426   2.251   1.849  16.970  1.1990  1.0154  2.3555
  705MPD2    H110427   2.202   1.466  17.167  0.4916 -1.7725 -0.9771
  705MPD2    H210428   2.565   1.545  16.972  0.9791  2.2110 -1.0876
  705MPD2    H310429   2.416   1.407  17.106  2.4480  0.8923  0.3793
  705MPD2     N10430   2.054   1.688  17.084 -0.1049 -0.1213 -0.4738
  705MPD2    H510431   2.020   1.784  17.084 -0.9364 -0.4112 -0.2404
  705MPD2    N110432   2.482   1.788  16.869 -0.6570 -0.0516 -0.5592
  705MPD2    H710433   2.451   1.884  16.857  0.3836  0.5293  1.3722
  706TMC3    C110434   2.708   1.879  16.458 -0.0129 -0.3005  0.1653
  706TMC3    C210435   2.650   2.005  16.450  0.3294  0.2093  0.2785
  706TMC3    C310436   2.573   2.042  16.550 -0.2786  0.9325 -0.6456
  706TMC3    C410437   2.691   1.794  16.563 -0.0618  0.0252  0.2937
  706TMC3    C510438   2.604   1.833  16.663  0.0342 -0.0869 -0.0444
  706TMC3    C610439   2.544   1.959  16.659  0.3473  0.7865 -0.0340
  706TMC3     C10440   2.790   1.839  16.350 -0.1177  0.3540 -0.0319
  706TMC3     O10441   2.878   1.756  16.369 -0.2632 -0.4553 -0.2054
  706TMC3     H10442   2.654   2.072  16.364  0.2120  1.6702  1.4100
  706TMC3    H110443   2.726   1.691  16.553 -2.4048 -0.8567  1.1315
  706TMC3    H210444   2.489   2.002  16.743  0.0288  0.3021  0.0028
  706TMC3    C710445   2.570   1.739  16.775  0.0982 -0.1844 -1.0692
  706TMC3    C810446   2.502   2.166  16.523  0.1586 -0.2215  0.4856
  706TMC3    O110447   2.638   1.632  16.763 -0.1173  0.2487 -0.2897
  706TMC3    O210448   2.477   2.204  16.405 -0.1751 -0.2001  0.2494
  707TMC3    C110449   0.820   4.636   0.737 -0.4717 -0.6565  0.1415
  707TMC3    C210450   0.918   4.614   0.833 -0.2953  0.4821 -0.0339
  707TMC3    C310451   0.989   4.494   0.827 -0.0706  0.0915 -0.7036
  707TMC3    C410452   0.793   4.538   0.645  0.0297  0.3367  0.2262
  707TMC3    C510453   0.858   4.417   0.650 -0.3136  0.9320 -0.2926
  707TMC3    C610454   0.956   4.386   0.744  0.2965  0.1530 -0.1105
  707TMC3     C10455   0.741   0.040   0.735  0.3867 -0.3326 -0.0933
  707TMC3     O10456   0.639   0.040   0.667 -0.6033  0.2618 -0.1470
  707TMC3     H10457   0.933   4.687   0.913 -0.3714  1.1636 -0.6378
  707TMC3    H110458   0.714   4.551   0.571  0.5192  1.8182 -0.0268
  707TMC3    H210459   1.028   4.306   0.731  2.0489  2.0334 -2.0960
  707TMC3    C710460   0.856   4.324   0.534  0.1810  0.1004 -0.1002
  707TMC3    C810461   1.075   4.466   0.939 -0.0214  0.1171 -0.9655
  707TMC3    O110462   0.823   4.374   0.427  0.1530 -0.2473  0.6153
  707TMC3    O210463   1.099   4.350   0.963  0.1903  0.0230 -0.3166
  708MPD2     C10464   0.705   0.474  13.879 -0.2684  0.0437  0.0633
  708MPD2    C110465   0.588   0.444  13.939 -0.5984 -0.2401 -0.1565
  708MPD2    C210466   0.584   0.343  14.035  0.2118  0.0913  0.5645
  708MPD2    C310467   0.698   0.275  14.072 -0.5230 -0.1074 -0.6743
  708MPD2    C410468   0.818   0.311  14.015  0.1332 -0.0781  0.4366
  708MPD2    C510469   0.813   0.411  13.923  0.0731  0.7944  0.3310
  708MPD2     H10470   0.491   0.317  14.084 -0.5344  1.4942 -0.0797
  708MPD2    H110471   0.917   0.271  14.029 -0.3274 -1.2035  0.4898
  708MPD2    H210472   0.716   0.561  13.815  1.2972 -0.2956 -0.1307
  708MPD2    H310473   0.907   0.455  13.890  0.4493  1.0289  1.6973
  708MPD2     N10474   0.694   0.177  14.173 -0.4157  0.0659  0.0886
  708MPD2    H510475   0.780   0.149  14.219  0.4561  1.5671 -0.5961
  708MPD2    N110476   0.470   0.507  13.901 -0.0914 -0.5353  0.0250
  708MPD2    H710477   0.476   0.571  13.823  3.1479 -0.0173  0.7012
  709TMC3    C110478   0.250   0.567  13.900 -0.0956 -0.7331 -0.2016
  709TMC3    C210479   0.234   0.503  13.779 -0.3096  0.3216 -0.4027
  709TMC3    C310480   0.105   0.465  13.745  0.7151 -0.3296 -0.2011
  709TMC3    C410481   0.142   0.581  13.987 -0.7697  0.5286 -0.9288
  709TMC3    C510482   0.017   0.545  13.946  0.2900  0.4858  0.8262
  709TMC3    C610483   4.716   0.483  13.832  1.1565 -0.5770 -0.7313
  709TMC3     C10484   0.361   0.529  13.979 -0.7074 -0.2395  0.4460
  709TMC3     O10485   0.335   0.483  14.089 -0.2491 -0.1139 -0.2473
  709TMC3     H10486   0.315   0.470  13.716 -0.7877  2.1184 -1.9702
  709TMC3    H110487   0.148   0.644  14.074 -2.0891 -2.3896  1.2792
  709TMC3    H210488   4.615   0.454  13.804  1.0381 -0.5525 -0.3365
  709TMC3    C710489   4.666   0.482  14.060  0.6589  0.8008  0.4261
  709TMC3    C810490   0.086   0.419  13.604 -0.1342  0.1554 -0.3938
  709TMC3    O110491   4.547   0.461  14.049  0.0932  0.6359 -0.4326
  709TMC3    O210492   0.175   0.457  13.525  0.5694  0.4289  0.7816
  710TMC3    C110493   1.195   2.060   0.923 -0.6413  0.5869 -0.0443
  710TMC3    C210494   1.275   1.985   0.844  0.6930  0.4890  0.2466
  710TMC3    C310495   1.391   1.928   0.896 -0.2223 -0.3609  0.0545
  710TMC3    C410496   1.240   2.087   1.049 -0.3500  0.0830  0.1987
  710TMC3    C510497   1.354   2.034   1.099 -0.2483 -0.5551  0.0255
  710TMC3    C610498   1.434   1.956   1.024  0.5283 -0.0600 -0.3065
  710TMC3     C10499   1.065   2.097   0.875  0.1563  1.2189 -0.8011
  710TMC3     O10500   1.037   2.047   0.766 -0.7129 -0.1618  0.0501
  710TMC3     H10501   1.239   1.953   0.747  0.5731  3.6778 -0.7596
  710TMC3    H110502   1.184   2.152   1.116 -0.3035  0.7167 -0.3753
  710TMC3    H210503   1.514   1.895   1.064  1.8329  2.0555  0.2677
  710TMC3    C710504   1.361   2.012   1.240 -0.4035 -0.4157  0.9326
  710TMC3    C810505   1.463   1.828   0.833 -0.6538 -0.0280  0.1509
  710TMC3    O110506   1.255   1.990   1.296  0.0196  0.1087  0.2618
  710TMC3    O210507   1.556   1.778   0.886  0.4377 -0.0673 -0.1484
  711TMC3    C110508   1.237   2.687  15.425  0.1405 -0.1933 -0.1983
  711TMC3    C210509   1.266   2.702  15.557 -0.1043 -0.1196  0.0043
  711TMC3    C310510   1.389   2.643  15.596  0.0976  0.4934 -0.3362
  711TMC3    C410511   1.316   2.625  15.330 -0.1631 -0.0905  0.0937
  711TMC3    C510512   1.440   2.589  15.377 -0.0937 -0.0034  0.3802
  711TMC3    C610513   1.479   2.600  15.505 -0.5438  0.6559 -0.7257
  711TMC3     C10514   1.133   2.776  15.380 -0.1946 -0.6778 -0.1266
  711TMC3     O10515   1.100   2.881  15.436 -0.2129  0.0276 -0.1031
  711TMC3     H10516   1.205   2.748  15.634 -0.7747 -0.3437 -0.4047
  711TMC3    H110517   1.295   2.623  15.224 -1.5573 -0.7994  0.3913
  711TMC3    H210518   1.571   2.554  15.537 -0.5063  0.4390 -1.1580
  711TMC3    C710519   1.515   2.495  15.302 -0.1298 -0.1041 -0.3977
  711TMC3    C810520   1.411   2.636  15.740 -0.5001  0.0014 -0.3544
  711TMC3    O110521   1.637   2.485  15.323  0.1091 -0.3362  0.4385
  711TMC3    O210522   1.315   2.611  15.815 -0.4371  0.5285  0.2127
  712MPD2     C10523   2.519   3.596  13.039 -0.5403 -1.1177  0.1790
  712MPD2    C110524   2.454   3.670  13.131  0.0515  0.1075  0.1244
  712MPD2    C210525   2.524   3.766  13.197  1.2926  0.1817  1.0352
  712MPD2    C310526   2.657   3.791  13.180 -0.6016 -0.1561 -0.0166
  712MPD2    C410527   2.727   3.713  13.095 -0.2054 -0.2472  0.6306
  712MPD2    C510528   2.656   3.625  13.015  0.0980  0.6853  0.5380
  712MPD2     H10529   2.465   3.832  13.260 -1.5710 -2.9042  1.5435
  712MPD2    H110530   2.832   3.728  13.073 -0.1056 -1.6843  0.1668
  712MPD2    H210531   2.470   3.518  12.982 -1.9007  0.7834 -1.3078
  712MPD2    H310532   2.716   3.567  12.946 -0.8889  0.9136 -0.5127
  712MPD2     N10533   2.717   3.898  13.245  0.2117 -0.1160  0.3468
  712MPD2    H510534   2.818   3.903  13.243  0.2716 -1.0150  1.1242
  712MPD2    N110535   2.317   3.656  13.164  0.2209 -0.0669  0.0185
  712MPD2    H710536   2.279   3.703  13.245  2.0703 -1.4595  1.7319
  713TMC3    C110537   2.730   4.098  13.371  0.3839 -0.1062  0.4840
  713TMC3    C210538   2.863   4.055  13.403 -0.5885  0.0149 -0.6335
  713TMC3    C310539   2.938   4.135  13.478 -0.5500  0.5035  0.5882
  713TMC3    C410540   2.673   4.206  13.428  0.0493  0.0468 -0.1899
  713TMC3    C510541   2.747   4.283  13.512  0.7927 -0.0483  1.1082
  713TMC3    C610542   2.875   4.250  13.530 -0.4434 -0.6903  0.5019
  713TMC3     C10543   2.648   4.005  13.295 -0.6152 -0.3442 -0.3952
  713TMC3     O10544   2.528   4.042  13.296  0.5380  0.0171  0.3878
  713TMC3     H10545   2.909   3.965  13.367  2.5379  1.1005  0.6742
  713TMC3    H110546   2.575   4.232  13.390  0.8167 -0.3843 -2.4537
  713TMC3    H210547   2.936   4.326  13.579 -1.9874 -0.5527  2.1895
  713TMC3    C710548   2.698   4.409  13.566  0.3337  0.0668  0.4345
  713TMC3    C810549   3.072   4.118  13.506 -0.1108 -0.3708  0.1163
  713TMC3    O110550   2.784   4.478  13.613  0.2361  0.0715  0.1298
  713TMC3    O210551   3.126   4.213  13.564 -0.2085  0.2260  0.0231
  714MPD2     C10552   3.916   2.229   1.349  0.1577  0.0047 -0.4699
  714MPD2    C110553   4.011   2.284   1.263  0.9058  0.0738  0.1802
  714MPD2    C210554   3.971   2.323   1.136  0.0442 -0.6391  0.8421
  714MPD2    C310555   3.837   2.315   1.097 -0.5212 -0.3912 -0.4661
  714MPD2    C410556   3.745   2.262   1.185 -0.1527 -0.3762 -0.6659
  714MPD2    C510557   3.786   2.232   1.308  0.1103 -0.2928 -0.1628
  714MPD2     H10558   4.049   2.348   1.066  0.9857  0.9397  2.4583
  714MPD2    H110559   3.643   2.246   1.152 -0.5367  0.3418  0.1656
  714MPD2    H210560   3.940   2.188   1.447  0.9291 -0.0917 -0.6960
  714MPD2    H310561   3.708   2.203   1.378  0.3102 -0.3962  0.0164
  714MPD2     N10562   3.815   2.330   0.962 -0.0995 -0.6179 -0.2390
  714MPD2    H510563   3.891   2.377   0.914  0.4606 -1.9947 -0.6693
  714MPD2    N110564   4.144   2.285   1.311 -0.2432  0.4177  0.3974
  714MPD2    H710565   4.153   2.257   1.408 -0.5747 -0.0850  0.2860
  715TMC3    C110566   4.378   2.325   1.337  0.0643  0.0112 -0.0357
  715TMC3    C210567   4.504   2.287   1.286  0.4375  0.0979 -0.4399
  715TMC3    C310568   4.600   2.269   1.381 -0.5732 -0.6609  0.3599
  715TMC3    C410569   4.351   2.348   1.471  0.4659 -0.2529 -0.1617
  715TMC3    C510570   4.458   2.337   1.555  0.5294  0.3356  0.6106
  715TMC3    C610571   4.580   2.302   1.512 -0.3212 -0.2666  1.1253
  715TMC3     C10572   4.260   2.332   1.251  0.1404  0.0687 -0.1457
  715TMC3     O10573   4.285   2.374   1.140 -0.9010  0.0244  0.3992
  715TMC3     H10574   4.527   2.270   1.182  0.2962  0.0971 -0.4715
  715TMC3    H110575   4.266   2.410   1.498  2.5093  2.2331  0.5505
  715TMC3    H210576   4.655   2.285   1.588  0.5956  1.2155  0.5568
  715TMC3    C710577   4.452   2.385   1.692 -0.5479  0.3676 -0.2323
  715TMC3    C810578   0.016   2.246   1.330 -0.0645  0.4692  0.1202
  715TMC3    O110579   4.557   2.399   1.759 -0.4434  0.0695  0.0131
  715TMC3    O210580   0.029   2.196   1.220  0.3701  0.1408  0.1477
  716MPD2     C10581   4.548   0.247  10.026 -0.4133  1.3469 -0.9925
  716MPD2    C110582   4.458   0.197   9.930 -0.1161 -0.4267  0.3369
  716MPD2    C210583   4.508   0.093   9.849 -0.8710 -0.6254 -0.2541
  716MPD2    C310584   4.642   0.058   9.846  0.3171  0.4265  0.3128
  716MPD2    C410585   0.009   0.128   9.926  0.1173 -0.0110 -0.1885
  716MPD2    C510586   4.684   0.216  10.017  0.1218 -0.3967 -0.1379
  716MPD2     H10587   4.449   0.045   9.772  0.6075 -0.9727 -1.1568
  716MPD2    H110588   0.116   0.108   9.923  0.4864  2.4118 -3.5435
  716MPD2    H210589   4.517   0.316  10.104 -2.0212 -0.0254 -0.3968
  716MPD2    H310590   0.033   0.255  10.090 -2.0799  0.5297  1.4883
  716MPD2     N10591   4.683   4.692   9.744  0.0959 -0.5107  0.1008
  716MPD2    H510592   4.605   4.647   9.697 -0.6203  0.4527  0.3804
  716MPD2    N110593   4.322   0.237   9.930 -0.2797 -0.3728  0.6034
  716MPD2    H710594   4.292   0.295  10.007  0.0480  1.5767 -0.7420
  717TMC3    C110595   0.105   4.612   9.567  0.7722 -0.5049 -0.1276
  717TMC3    C210596   4.719   4.621   9.490  0.5320 -0.1056  0.2516
  717TMC3    C310597   4.714   4.564   9.367 -0.5464  0.4833 -0.6601
  717TMC3    C410598   0.225   4.560   9.520 -0.3477  1.1583  0.2269
  717TMC3    C510599   0.211   4.499   9.400 -0.6038 -0.4224  0.3617
  717TMC3    C610600   0.096   4.494   9.325 -0.2133 -0.1748 -0.1433
  717TMC3     C10601   0.093   4.678   9.697  0.7493  0.6509  0.4234
  717TMC3     O10602   0.201   4.718   9.745  0.7885 -0.0913  0.0271
  717TMC3     H10603   4.627   4.670   9.522 -1.0112 -1.7704 -1.6800
  717TMC3    H110604   0.309   4.546   9.588  0.4044  3.2100 -0.3087
  717TMC3    H210605   0.095   4.460   9.222  0.4241 -0.3594 -0.0903
  717TMC3    C710606   0.310   4.400   9.375  0.4243  0.4670  0.4884
  717TMC3    C810607   4.616   4.616   9.273  0.2562  0.2317  0.6239
  717TMC3    O110608   0.422   4.432   9.415  0.0760 -0.4447  0.5696
  717TMC3    O210609   4.562   0.006   9.304 -0.3035  0.7960 -0.3421
  718MPD2     C10610   3.745   4.145  12.581  0.3101 -0.2360 -0.3591
  718MPD2    C110611   3.707   4.178  12.453  0.2727  0.1338  0.4758
  718MPD2    C210612   3.569   4.203  12.423 -0.0554 -0.5188 -0.1091
  718MPD2    C310613   3.475   4.183  12.523 -0.2783 -0.1497 -0.9517
  718MPD2    C410614   3.514   4.146  12.651  0.7546  0.4492 -0.0992
  718MPD2    C510615   3.649   4.130  12.677  0.7715  0.7158 -0.5263
  718MPD2     H10616   3.545   4.252  12.330 -1.5381  1.0908  1.1363
  718MPD2    H110617   3.449   4.131  12.736 -2.8139 -0.2885 -2.9960
  718MPD2    H210618   3.847   4.132  12.614  0.7595  0.5092 -1.4649
  718MPD2    H310619   3.683   4.099  12.775 -0.2744  0.8624 -0.1164
  718MPD2     N10620   3.346   4.201  12.494 -0.1339 -0.7055 -1.0806
  718MPD2    H510621   3.315   4.207  12.398 -1.2110  1.4183 -0.6252
  718MPD2    N110622   3.817   4.204  12.366  0.1726  0.5567  0.0492
  718MPD2    H710623   3.910   4.209  12.407  0.5931  0.6088 -0.8970
  719TMC3    C110624   3.895   4.347  12.199 -0.2467 -0.2122  0.1471
  719TMC3    C210625   3.851   4.431  12.098  0.0857 -0.3107 -0.0231
  719TMC3    C310626   3.878   4.569  12.108  0.0291 -0.0781 -0.3447
  719TMC3    C410627   3.983   4.391  12.292 -0.1186  0.0753  0.2154
  719TMC3    C510628   4.010   4.525  12.292 -0.6505 -0.1060 -0.0841
  719TMC3    C610629   3.946   4.617  12.219  0.6779  0.1185  0.9412
  719TMC3     C10630   3.796   4.256  12.238 -0.5037 -0.0622 -0.2726
  719TMC3     O10631   3.695   4.266  12.167  0.5744  0.3078 -0.1430
  719TMC3     H10632   3.795   4.385  12.017 -0.0432 -2.4684  1.2967
  719TMC3    H110633   4.035   4.327  12.362  0.4727  0.2747 -0.0494
  719TMC3    H210634   3.945   0.004  12.234 -1.2328 -0.0147  1.6739
  719TMC3    C710635   4.119   4.569  12.375 -0.3388  0.0744 -0.0782
  719TMC3    C810636   3.766   4.659  12.075 -0.5031 -0.1911  0.2360
  719TMC3    O110637   4.210   4.487  12.393 -0.2139  1.0764  0.2930
  719TMC3    O210638   3.779   0.060  12.086 -0.2918  0.3016  0.2302
  720MPD2     C10639   2.597   1.131  14.025 -0.1009 -0.3242  0.8717
  720MPD2    C110640   2.692   1.083  13.936  0.4239  0.2504  0.4162
  720MPD2    C210641   2.803   1.021  13.990 -0.0104  0.9997  0.4899
  720MPD2    C310642   2.828   1.008  14.125 -0.1962  0.1382 -0.2465
  720MPD2    C410643   2.731   1.065  14.207 -0.7584  0.3309 -0.1962
  720MPD2    C510644   2.619   1.126  14.160 -0.8679  0.0579 -0.6465
  720MPD2     H10645   2.874   0.985  13.916  0.0159  0.7414  0.6397
  720MPD2    H110646   2.744   1.068  14.314  0.5266  1.8558 -0.4026
  720MPD2    H210647   2.503   1.172  13.988  0.3121 -1.8542 -1.9178
  720MPD2    H310648   2.540   1.154  14.229 -0.5390  0.0807 -0.2788
  720MPD2     N10649   2.942   0.944  14.179 -0.4646  0.4420 -0.1324
  720MPD2    H510650   3.008   0.900  14.117  0.5856  2.4566 -0.4405
  720MPD2    N110651   2.680   1.099  13.794 -0.2334  0.2479 -0.5726
  720MPD2    H710652   2.767   1.075  13.748  0.4691  1.0888  0.2980
  721TMC3    C110653   3.118   0.904  14.321 -0.3598  0.4121  0.8354
  721TMC3    C210654   3.167   0.892  14.449  0.0917  0.4821 -0.2989
  721TMC3    C310655   3.291   0.837  14.475 -0.2916  0.5316 -0.9948
  721TMC3    C410656   3.200   0.874  14.215  0.5959  0.1646 -0.7974
  721TMC3    C510657   3.324   0.819  14.236  0.2303  0.4082  0.6424
  721TMC3    C610658   3.376   0.813  14.368 -0.1459  0.0260  0.0791
  721TMC3     C10659   2.981   0.938  14.314 -0.4863  0.3797 -0.1155
  721TMC3     O10660   2.931   0.977  14.416 -0.0545  0.0518 -0.4150
  721TMC3     H10661   3.103   0.922  14.532 -1.4394  1.0506 -1.6931
  721TMC3    H110662   3.173   0.906  14.115  0.3889  1.5674 -0.2875
  721TMC3    H210663   3.469   0.761  14.389 -0.8798 -0.0793  3.0806
  721TMC3    C710664   3.425   0.840  14.133  0.4353  0.1305  0.4428
  721TMC3    C810665   3.359   0.880  14.598 -0.0042 -0.5072  0.1175
  721TMC3    O110666   3.544   0.836  14.169  0.1709 -0.3620  0.0327
  721TMC3    O210667   3.480   0.890  14.578 -0.1651 -0.7796 -0.1718
  722MPD2     C10668   1.488   4.190  13.603  0.2703 -0.8312  0.0435
  722MPD2    C110669   1.453   4.300  13.533 -0.8839 -0.3226 -0.7689
  722MPD2    C210670   1.324   4.304  13.474 -0.6357  0.0399  0.5700
  722MPD2    C310671   1.240   4.192  13.472 -0.3612  0.3398 -0.2692
  722MPD2    C410672   1.280   4.083  13.545  0.4126  0.0550  0.5482
  722MPD2    C510673   1.395   4.090  13.617 -0.4663  0.2240 -0.1338
  722MPD2     H10674   1.284   4.394  13.427  0.9776 -0.9744 -2.7956
  722MPD2    H110675   1.209   4.002  13.551  1.0269 -0.6352 -1.6528
  722MPD2    H210676   1.572   4.172  13.670 -1.2318 -2.9029  1.3941
  722MPD2    H310677   1.418   3.997  13.669 -0.6960 -0.4530 -1.2315
  722MPD2     N10678   1.113   4.201  13.409 -0.2395  0.5829 -0.8602
  722MPD2    H510679   1.098   4.279  13.345 -1.8096 -1.0442 -2.4823
  722MPD2    N110680   1.537   4.410  13.515  0.1211 -0.0021  0.1344
  722MPD2    H710681   1.496   4.490  13.468 -1.0118 -1.4978 -1.3953
  723TMC3    C110682   0.896   4.154  13.345  0.4138 -0.4801  0.6538
  723TMC3    C210683   0.799   4.062  13.304 -0.9925  0.0662  1.1277
  723TMC3    C310684   0.691   4.108  13.235  0.8229 -0.5180 -0.2656
  723TMC3    C410685   0.891   4.278  13.306  0.1747  0.3050  0.7391
  723TMC3    C510686   0.793   4.313  13.212 -0.2096 -0.1621  1.2613
  723TMC3    C610687   0.695   4.230  13.172  0.2302 -0.2750  0.2855
  723TMC3     C10688   1.017   4.103  13.404  0.2126 -0.4071 -0.7524
  723TMC3     O10689   1.019   3.989  13.450  0.1169  0.4799 -0.0379
  723TMC3     H10690   0.822   3.962  13.339 -0.8662 -0.4302 -0.3476
  723TMC3    H110691   0.943   4.361  13.352  0.4303 -0.3008  1.5559
  723TMC3    H210692   0.610   4.271  13.120  0.2401 -0.5083  0.0837
  723TMC3    C710693   0.773   4.450  13.179 -0.5810  0.5895 -0.3442
  723TMC3    C810694   0.575   4.019  13.210  0.0357  0.7128  0.4823
  723TMC3    O110695   0.848   4.530  13.230  0.0314 -0.0724 -0.5124
  723TMC3    O210696   0.465   4.077  13.205 -0.3899 -0.0744  0.7312
  724TMC3    C110697   1.021   2.603  10.379  0.0617 -0.3131 -0.1585
  724TMC3    C210698   0.989   2.683  10.272  0.1961 -0.4735 -0.1235
  724TMC3    C310699   1.080   2.782  10.257 -0.1197  0.7490  0.3830
  724TMC3    C410700   1.114   2.631  10.475 -0.3978  0.0275 -0.0578
  724TMC3    C510701   1.194   2.741  10.450  0.8601  0.4182 -0.0466
  724TMC3    C610702   1.184   2.812  10.341 -0.7553  0.3109  0.2955
  724TMC3     C10703   0.955   2.474  10.397 -0.0153 -0.3065 -0.0143
  724TMC3     O10704   0.949   2.435  10.514  0.1021  0.0425  0.4644
  724TMC3     H10705   0.910   2.664  10.200  0.5790 -1.9754 -0.1327
  724TMC3    H110706   1.139   2.552  10.545  1.0855  0.0434 -0.5679
  724TMC3    H210707   1.257   2.891  10.320 -0.1550 -0.1243  0.7448
  724TMC3    C710708   1.307   2.774  10.533  0.4655  0.0214 -0.0705
  724TMC3    C810709   1.063   2.866  10.136 -0.2650 -0.7231  0.1760
  724TMC3    O110710   1.388   2.853  10.489 -0.0666 -0.7928 -0.7055
  724TMC3    O210711   0.960   2.840  10.070  0.0529  0.5300  0.3727
  725TMC3    C110712   2.908   1.446  12.617 -0.1495 -0.1372 -0.1813
  725TMC3    C210713   2.893   1.431  12.483 -0.0850  0.0910  0.9901
  725TMC3    C310714   2.838   1.315  12.440  0.0332 -0.0912  1.2356
  725TMC3    C410715   2.880   1.346  12.707  0.1671 -0.3452 -0.1447
  725TMC3    C510716   2.838   1.224  12.655 -0.1344 -0.3826 -0.3713
  725TMC3    C610717   2.802   1.214  12.524 -0.0093  0.2242 -0.9027
  725TMC3     C10718   3.030   1.509  12.661  0.1728 -0.6031  0.0795
  725TMC3     O10719   3.011   1.614  12.722  0.7021  0.0278  0.5845
  725TMC3     H10720   2.954   1.495  12.420  0.7987 -0.8873  0.8497
  725TMC3    H110721   2.920   1.361  12.806  0.2338  1.7051 -0.4693
  725TMC3    H210722   2.774   1.117  12.485 -0.5852 -0.7609  1.9191
  725TMC3    C710723   2.905   1.106  12.706 -0.0010  0.2584  0.4112
  725TMC3    C810724   2.800   1.295  12.304  0.1786  0.5195 -0.8295
  725TMC3    O110725   2.895   1.011  12.631 -0.3145 -0.0517  0.1675
  725TMC3    O210726   2.708   1.213  12.286 -0.3151  0.6481  0.5565
  726MPD2     C10727   0.333   3.016  10.050  0.1308  0.1016  0.2818
  726MPD2    C110728   0.317   2.973  10.185 -0.4692 -0.1635  0.2229
  726MPD2    C210729   0.252   2.852  10.212  0.0644 -0.2815  0.2289
  726MPD2    C310730   0.197   2.772  10.109  0.3495  0.5716 -0.0556
  726MPD2    C410731   0.206   2.820   9.982 -0.1517 -0.2266 -0.1414
  726MPD2    C510732   0.266   2.945   9.956  0.7744  0.5549  0.4454
  726MPD2     H10733   0.265   2.811  10.311 -1.4537 -0.8980  0.1760
  726MPD2    H110734   0.164   2.765   9.899  0.3170 -0.2441 -0.3688
  726MPD2    H210735   0.378   3.109  10.019 -1.6835  1.3368  1.3464
  726MPD2    H310736   0.277   2.977   9.853  0.8254 -3.5441 -0.8001
  726MPD2     N10737   0.149   2.636  10.125  0.0748 -0.3056  0.2794
  726MPD2    H510738   0.129   2.584  10.040 -0.5502 -1.6639  1.2452
  726MPD2    N110739   0.376   3.045  10.298 -0.1289  0.1648  0.3141
  726MPD2    H710740   0.348   3.022  10.393 -1.8715  2.5258  0.3727
  727TMC3    C110741   0.490   3.199  10.410  0.0470 -0.6052  0.0845
  727TMC3    C210742   0.484   3.114  10.524  0.4199  0.4262  0.1646
  727TMC3    C310743   0.555   3.148  10.634 -0.0861 -0.0406  1.1518
  727TMC3    C410744   0.554   3.318  10.398 -0.6048  0.2259  0.4657
  727TMC3    C510745   0.629   3.344  10.508  0.2664  0.3527 -0.6365
  727TMC3    C610746   0.629   3.268  10.622  0.3246  0.1405 -0.5764
  727TMC3     C10747   0.472   3.139  10.279 -0.0141  0.2347 -0.1463
  727TMC3     O10748   0.548   3.172  10.188  0.4651 -0.2004  0.3253
  727TMC3     H10749   0.431   3.021  10.514 -0.3509  0.9464 -0.5298
  727TMC3    H110750   0.568   3.362  10.300 -0.1575 -1.8630 -0.4099
  727TMC3    H210751   0.690   3.295  10.708 -0.4802 -2.8693  0.9612
  727TMC3    C710752   0.740   3.437  10.503  0.3524 -0.4615 -0.4699
  727TMC3    C810753   0.583   3.035  10.723  0.1880  0.6226 -0.3312
  727TMC3    O110754   0.822   3.446  10.595  0.0017 -0.1002  0.2015
  727TMC3    O210755   0.533   2.927  10.689 -0.2796 -0.2058  0.5618
  728TMC3    C110756   0.544   1.796  15.711  0.2792 -0.2382 -0.9088
  728TMC3    C210757   0.677   1.797  15.687 -0.3608 -0.5559  0.1414
  728TMC3    C310758   0.730   1.790  15.561 -0.8248 -0.0104  0.5626
  728TMC3    C410759   0.455   1.807  15.608  0.3641  0.6982  0.3296
  728TMC3    C510760   0.509   1.803  15.483 -0.1836  0.3415  0.5720
  728TMC3    C610761   0.646   1.781  15.455  0.2128  0.8476  0.1113
  728TMC3     C10762   0.507   1.766  15.846 -0.7889  0.0590  0.5873
  728TMC3     O10763   0.588   1.783  15.941  0.0847 -0.0137  0.5737
  728TMC3     H10764   0.746   1.786  15.770 -1.3722 -1.8619  0.7877
  728TMC3    H110765   0.351   1.816  15.637  0.5297  1.4569  0.7105
  728TMC3    H210766   0.687   1.756  15.358 -0.9766 -0.3019 -0.0836
  728TMC3    C710767   0.415   1.801  15.365  0.7446 -0.1166  0.0971
  728TMC3    C810768   0.861   1.732  15.541 -0.2947  0.3880  0.0938
  728TMC3    O110769   0.296   1.782  15.388  0.4789  0.5348  0.3216
  728TMC3    O210770   0.883   1.666  15.442  0.3631 -0.0703 -0.5378
  729MPD2     C10771   2.945   2.019  16.637 -0.1524  0.0685 -0.4779
  729MPD2    C110772   2.884   2.139  16.670  0.0540 -0.0804 -0.3922
  729MPD2    C210773   2.820   2.151  16.790  1.0385  0.4970  0.4832
  729MPD2    C310774   2.822   2.056  16.884 -0.3212 -0.8054 -0.2497
  729MPD2    C410775   2.895   1.941  16.858  1.4883 -0.4915 -0.9711
  729MPD2    C510776   2.951   1.919  16.733  0.3466 -0.0579  0.2208
  729MPD2     H10777   2.776   2.246  16.815 -0.3297 -0.0911  0.2994
  729MPD2    H110778   2.908   1.869  16.938  0.0305 -0.4786 -0.7336
  729MPD2    H210779   3.000   2.011  16.544  0.1804  1.0467 -0.3614
  729MPD2    H310780   2.992   1.822  16.705  1.0151  0.6136 -1.1246
  729MPD2     N10781   2.776   2.080  17.009  0.1946  0.2637  0.0892
  729MPD2    H510782   2.793   2.006  17.076 -1.9077  0.0797  0.4408
  729MPD2    N110783   2.893   2.235  16.565  0.5633  0.0655  0.6833
  729MPD2    H710784   2.939   2.209  16.479 -0.6257 -1.4065  0.4927
  730TMC3    C110785   2.737   2.203  17.215 -0.1129 -0.1564  0.7011
  730TMC3    C210786   2.857   2.145  17.265 -0.5137  0.0460 -0.0799
  730TMC3    C310787   2.939   2.231  17.334 -0.1324  0.1999 -0.0721
  730TMC3    C410788   2.697   2.324  17.256  0.0779  1.0225  0.3954
  730TMC3    C510789   2.789   2.405  17.315  0.9913  0.3907 -0.0896
  730TMC3    C610790   2.907   2.357  17.354 -0.2966 -0.1994 -0.6786
  730TMC3     C10791   2.726   2.197  17.064 -0.0842 -0.5781 -0.4912
  730TMC3     O10792   2.690   2.305  17.015  0.3196  0.4353  0.8003
  730TMC3     H10793   2.887   2.042  17.246  0.6283  0.3790 -0.0583
  730TMC3    H110794   2.601   2.365  17.224  0.9436  1.5007 -1.5859
  730TMC3    H210795   2.971   2.417  17.419  0.5007 -0.9143 -0.7996
  730TMC3    C710796   2.768   2.548  17.297 -0.1018  0.2842 -0.8647
  730TMC3    C810797   3.078   2.222  17.283  0.0205  0.0475  0.1724
  730TMC3    O110798   2.655   2.592  17.261  0.3259 -0.0355  0.6079
  730TMC3    O210799   3.118   2.112  17.248 -0.1559 -0.1804  0.1833
  731MPD2     C10800   2.234   0.409  12.650 -0.0196 -0.1263  0.0787
  731MPD2    C110801   2.306   0.314  12.720 -0.9481  0.4016 -0.3797
  731MPD2    C210802   2.319   0.321  12.855 -0.4538  0.0683  0.3182
  731MPD2    C310803   2.263   0.426  12.924 -0.0350  0.8161 -0.0243
  731MPD2    C410804   2.178   0.519  12.857  0.4916  0.1525  0.7626
  731MPD2    C510805   2.166   0.505  12.722  0.7845 -0.3251 -0.5874
  731MPD2     H10806   2.385   0.261  12.917 -0.2262  2.0661  2.0474
  731MPD2    H110807   2.116   0.598  12.896 -0.6964 -0.5815  0.3618
  731MPD2    H210808   2.228   0.406  12.542  0.3025 -0.7588  0.0832
  731MPD2    H310809   2.122   0.585  12.664  0.0267 -1.8404 -2.0972
  731MPD2     N10810   2.283   0.432  13.064 -0.3467 -0.5809 -0.0770
  731MPD2    H510811   2.329   0.353  13.108  1.5106 -0.4439 -1.7838
  731MPD2    N110812   2.370   0.225  12.634  0.2587 -0.1314  0.0777
  731MPD2    H710813   2.341   0.237  12.538 -1.6814  1.8723  0.9111
  732TMC3    C110814   2.524   0.054  12.562 -0.1915 -0.0381  0.3080
  732TMC3    C210815   2.485   0.070  12.435  0.5170  0.0570 -0.6386
  732TMC3    C310816   2.579   0.042  12.340  0.2601  0.3194 -0.0627
  732TMC3    C410817   2.662   0.026  12.593 -0.0142 -0.6655  0.7614
  732TMC3    C510818   2.751   0.016  12.493 -0.1718 -0.1042  0.3329
  732TMC3    C610819   2.707   0.019  12.363 -0.2726  0.1711 -0.2011
  732TMC3     C10820   2.471   0.133  12.672 -0.0339 -0.3176 -0.5021
  732TMC3     O10821   2.527   0.131  12.777  0.3041  0.0936 -0.7153
  732TMC3     H10822   2.384   0.089  12.401  0.2593  0.3142  0.2835
  732TMC3    H110823   2.702   0.001  12.691 -0.9161 -2.1926  0.7465
  732TMC3    H210824   2.779   4.716  12.285 -0.6440  1.6756 -1.0129
  732TMC3    C710825   2.887   0.007  12.532  0.0223 -0.0348 -0.1477
  732TMC3    C810826   2.546   0.054  12.196  0.2564 -0.3106  0.7568
  732TMC3    O110827   2.918   4.656  12.629  0.6429  0.4859 -0.1418
  732TMC3    O210828   2.633   0.017  12.124 -0.0260  0.0752 -0.2085
  733TMC3    C110829   2.907   4.331  12.516 -0.4974  0.6565  0.0001
  733TMC3    C210830   3.008   4.267  12.571 -0.4532  0.8730  0.5237
  733TMC3    C310831   3.130   4.277  12.517  0.1838  0.6884 -0.1502
  733TMC3    C410832   2.929   4.407  12.407 -0.8609 -0.3135 -0.6305
  733TMC3    C510833   3.059   4.430  12.364  0.2251  1.2633 -0.4270
  733TMC3    C610834   3.166   4.384  12.436  0.1011  0.3337 -0.8580
  733TMC3     C10835   2.786   4.364  12.594  0.4862  0.9019 -0.3214
  733TMC3     O10836   2.679   4.384  12.534  0.3019 -0.2791  0.5845
  733TMC3     H10837   3.001   4.190  12.647  1.3949 -2.1329 -2.3328
  733TMC3    H110838   2.851   4.469  12.365 -0.8658 -1.4233 -2.2803
  733TMC3    H210839   3.264   4.419  12.405 -0.0057 -0.9231 -2.6112
  733TMC3    C710840   3.079   4.506  12.238 -0.1772  0.0381 -0.1779
  733TMC3    C810841   3.248   4.226  12.583  0.1483 -0.4894  0.5993
  733TMC3    O110842   2.983   4.561  12.184 -0.0605  0.0866 -0.1713
  733TMC3    O210843   3.250   4.241  12.701 -0.4138  0.6063 -0.0986
  734MPD2     C10844   0.785   1.871  12.228 -0.2229  0.9239 -0.3128
  734MPD2    C110845   0.731   1.761  12.166 -0.0529  0.4240  0.1870
  734MPD2    C210846   0.710   1.774  12.029  0.4456  0.1483  0.2173
  734MPD2    C310847   0.748   1.880  11.954 -0.0312 -1.0000  0.4231
  734MPD2    C410848   0.823   1.974  12.018 -0.0312  1.0358 -0.1432
  734MPD2    C510849   0.834   1.976  12.150 -0.2398  0.3214  0.0482
  734MPD2     H10850   0.665   1.696  11.969 -1.6907  2.0498 -0.6323
  734MPD2    H110851   0.869   2.060  11.971 -0.5452  1.5407  0.2809
  734MPD2    H210852   0.802   1.869  12.335  3.0075  0.5739 -0.8488
  734MPD2    H310853   0.874   2.063  12.201  1.3298  0.5102 -1.4912
  734MPD2     N10854   0.735   1.867  11.817  0.2958  0.1240 -0.7254
  734MPD2    H510855   0.676   1.788  11.792  0.4297 -0.3331  0.4077
  734MPD2    N110856   0.685   1.647  12.243 -0.1309  0.2347 -0.4136
  734MPD2    H710857   0.707   1.629  12.341  0.2198 -0.6540 -0.6542
  735TMC3    C110858   0.577   1.426  12.250 -0.0375 -0.0161  0.3376
  735TMC3    C210859   0.477   1.357  12.195  0.0467  0.5812 -0.0312
  735TMC3    C310860   0.480   1.220  12.177 -0.0204  0.2136 -0.7971
  735TMC3    C410861   0.681   1.368  12.315  0.5029  0.6900  0.1897
  735TMC3    C510862   0.675   1.232  12.315 -0.2775  0.2315 -0.0404
  735TMC3    C610863   0.584   1.155  12.238 -0.8051  0.8649 -0.4517
  735TMC3     C10864   0.605   1.554  12.185  0.6085  0.7056  0.4280
  735TMC3     O10865   0.527   1.573  12.088  0.3551  0.0104  0.7098
  735TMC3     H10866   0.389   1.409  12.158  1.1574  0.4492 -2.8040
  735TMC3    H110867   0.775   1.412  12.347 -0.6468  2.3682  1.2714
  735TMC3    H210868   0.580   1.047  12.239  0.9790  0.7793 -2.0681
  735TMC3    C710869   0.804   1.167  12.319 -0.5479 -0.5266 -0.4876
  735TMC3    C810870   0.450   1.182  12.036 -0.5263 -0.4686 -0.5638
  735TMC3    O110871   0.898   1.216  12.257  0.5957 -0.5682 -0.9035
  735TMC3    O210872   0.413   1.069  12.003  0.4282 -0.1798 -0.3516
  736MPD2     C10873   0.928   0.858  12.490  0.1286 -0.4800  0.0787
  736MPD2    C110874   0.927   0.979  12.423 -1.0425 -0.5036  0.3064
  736MPD2    C210875   1.054   1.028  12.379  0.1941 -0.6010 -0.4665
  736MPD2    C310876   1.167   0.962  12.404 -0.6246 -0.0882 -0.1169
  736MPD2    C410877   1.157   0.848  12.479 -0.3488  0.5431  0.4795
  736MPD2    C510878   1.036   0.796  12.525  0.5667  0.0463  0.5007
  736MPD2     H10879   1.063   1.106  12.304  0.1601 -0.8653 -0.7431
  736MPD2    H110880   1.247   0.790  12.494  0.4966  1.3155 -1.4990
  736MPD2    H210881   0.842   0.809  12.534  0.8272  0.0533  2.0103
  736MPD2    H310882   1.037   0.701  12.577  2.3556 -0.1963 -0.0039
  736MPD2     N10883   1.295   0.991  12.357 -0.3060  0.0710  0.2146
  736MPD2    H510884   1.372   0.931  12.383 -1.2845 -2.0243 -1.7299
  736MPD2    N110885   0.802   1.047  12.390 -0.3686 -0.2731  0.6826
  736MPD2    H710886   0.712   1.014  12.425  0.6036 -3.3490  0.2923
  737TMC3    C110887   1.466   1.107  12.249 -0.0809 -0.4302  0.5575
  737TMC3    C210888   1.511   1.230  12.194 -0.1402 -0.3358  0.5611
  737TMC3    C310889   1.567   1.225  12.070  1.0610 -0.2509 -0.0432
  737TMC3    C410890   1.500   0.991  12.186  0.0372 -0.2391 -0.0305
  737TMC3    C510891   1.559   0.993  12.062  0.2190 -0.4941  0.0771
  737TMC3    C610892   1.588   1.110  12.004 -0.8036  0.6043  0.5030
  737TMC3     C10893   1.326   1.102  12.285  0.6500  0.0566  0.7520
  737TMC3     O10894   1.256   1.180  12.221 -0.5702  0.1576  0.2097
  737TMC3     H10895   1.461   1.319  12.231  1.4938  0.8572 -0.1412
  737TMC3    H110896   1.462   0.898  12.226 -1.0507 -1.0318 -2.9274
  737TMC3    H210897   1.663   1.114  11.925  0.9305 -1.7178  2.0568
  737TMC3    C710898   1.558   0.868  11.988  0.1149  0.0960  0.0818
  737TMC3    C810899   1.590   1.353  12.008 -0.3008  1.0652 -0.5898
  737TMC3    O110900   1.539   0.768  12.059 -1.1568 -0.2881 -0.3911
  737TMC3    O210901   1.626   1.443  12.087 -0.6409 -0.4885  0.5408
  738MPD2     C10902   1.499   0.187  14.952 -0.1744  0.2704  0.4795
  738MPD2    C110903   1.594   0.115  15.021 -0.0564 -0.3001 -0.7809
  738MPD2    C210904   1.725   0.155  15.020  0.4897  0.1819 -0.2107
  738MPD2    C310905   1.766   0.271  14.956 -0.2529 -0.6446  0.5647
  738MPD2    C410906   1.670   0.349  14.897  0.3082  0.2516  0.2002
  738MPD2    C510907   1.537   0.307  14.898 -0.3157 -0.4636 -0.2058
  738MPD2     H10908   1.795   0.087  15.066 -1.4128 -0.8683  1.1509
  738MPD2    H110909   1.696   0.442  14.850 -0.8140 -0.4716 -1.8477
  738MPD2    H210910   1.396   0.155  14.959 -0.1821  0.3694  0.8464
  738MPD2    H310911   1.461   0.364  14.846  1.5485  0.2645 -2.1392
  738MPD2     N10912   1.897   0.321  14.962 -0.2694 -0.5884  0.1046
  738MPD2    H510913   1.919   0.406  14.910  0.1005 -1.7898 -1.6814
  738MPD2    N110914   1.564   4.710  15.087  0.0622 -0.2750  0.4163
  738MPD2    H710915   1.637   4.684  15.152 -0.7864  1.9939  2.2844
  739TMC3    C110916   2.121   0.331  15.004 -0.1418  0.0390  0.2418
  739TMC3    C210917   2.140   0.409  14.891  0.2112  0.2558 -0.2125
  739TMC3    C310918   2.247   0.490  14.882  0.3816 -0.2785 -0.2825
  739TMC3    C410919   2.220   0.330  15.091  0.8120  0.4449  0.0566
  739TMC3    C510920   2.333   0.412  15.079  0.2593  0.5155  0.3494
  739TMC3    C610921   2.345   0.496  14.974  0.5154 -0.1502 -0.9992
  739TMC3     C10922   1.998   0.256  15.027 -0.1585 -0.6002  0.0618
  739TMC3     O10923   1.995   0.185  15.126 -0.3205  0.5631 -0.3889
  739TMC3     H10924   2.066   0.414  14.811 -2.3416  1.3079  2.2372
  739TMC3    H110925   2.220   0.252  15.166 -0.8168 -0.3049 -0.7131
  739TMC3    H210926   2.443   0.536  14.948  0.4346  1.3534  1.0430
  739TMC3    C710927   2.454   0.386  15.152  0.6604  0.2409  0.0580
  739TMC3    C810928   2.271   0.532  14.743 -0.4396  0.3820  0.0575
  739TMC3    O110929   2.543   0.468  15.149 -0.5203  0.1479 -0.2981
  739TMC3    O210930   2.206   0.474  14.657 -0.3261 -0.4587 -0.4004
  740TMC3    C110931   2.735   1.493  14.071  1.0382  0.0230  0.9475
  740TMC3    C210932   2.790   1.458  14.187 -0.3573 -0.1310  0.2971
  740TMC3    C310933   2.907   1.387  14.185 -0.4659  0.4238  0.0487
  740TMC3    C410934   2.787   1.457  13.953  0.2736  0.0037  0.4987
  740TMC3    C510935   2.901   1.390  13.954  0.0253  0.1774 -0.3769
  740TMC3    C610936   2.962   1.347  14.065  0.0106  0.2710  0.5701
  740TMC3     C10937   2.605   1.556  14.061 -0.2710 -0.1388 -0.1841
  740TMC3     O10938   2.571   1.579  13.944 -0.2464  0.8039 -0.0263
  740TMC3     H10939   2.745   1.485  14.281  0.2377  1.7277  0.0541
  740TMC3    H110940   2.724   1.452  13.864 -1.4200  1.5098  1.6157
  740TMC3    H210941   3.042   1.274  14.063 -2.3275 -2.3194  0.9066
  740TMC3    C710942   2.951   1.331  13.833  0.1722 -0.0563 -0.2478
  740TMC3    C810943   2.964   1.351  14.314  0.3043 -0.2304  0.4061
  740TMC3    O110944   3.018   1.229  13.838  0.0472  0.2654  0.1480
  740TMC3    O210945   2.903   1.381  14.412  0.2279  0.4575 -1.0174
  741TMC3    C110946   2.057   0.956  14.551 -0.0682  0.4895  0.0305
  741TMC3    C210947   1.977   0.862  14.489 -0.5951  0.2034  0.4564
  741TMC3    C310948   1.954   0.755  14.570  0.5864  0.1850  0.3019
  741TMC3    C410949   2.113   0.942  14.675  0.3311 -1.2511 -0.1084
  741TMC3    C510950   2.082   0.833  14.746  0.1354 -0.5029  0.7561
  741TMC3    C610951   2.003   0.737  14.696  0.3796 -0.2393 -0.0655
  741TMC3     C10952   2.117   1.063  14.472  0.5398  0.9473 -0.1446
  741TMC3     O10953   2.208   1.122  14.529 -0.5708  0.4404 -0.2073
  741TMC3     H10954   1.944   0.864  14.386 -1.5715  0.2458  0.7722
  741TMC3    H110955   2.177   1.016  14.722  0.0856 -1.6920  0.9399
  741TMC3    H210956   1.977   0.650  14.755  3.2120 -2.5839 -2.2670
  741TMC3    C710957   2.076   0.847  14.894  0.7826  0.8417  0.1733
  741TMC3    C810958   1.875   0.644  14.523 -0.1358 -0.1312 -0.1051
  741TMC3    O110959   2.034   0.747  14.955  0.2811 -0.2967 -0.1715
  741TMC3    O210960   1.786   0.672  14.447 -0.8507 -0.1889  0.2476
  742TMC3    C110961   1.562   3.905  15.303  0.7981 -0.1301 -0.0779
  742TMC3    C210962   1.522   3.908  15.168  0.3395 -0.0103  0.3547
  742TMC3    C310963   1.601   3.835  15.085 -0.2757 -0.1017 -0.0504
  742TMC3    C410964   1.664   3.826  15.351  0.2410 -1.0187  0.6630
  742TMC3    C510965   1.742   3.765  15.256  0.2429  0.3194  0.0463
  742TMC3    C610966   1.711   3.770  15.126  0.2196 -0.8188  0.2895
  742TMC3     C10967   1.467   3.959  15.404  0.3816  0.2999  0.0914
  742TMC3     O10968   1.351   3.973  15.366  1.3820  0.2872  0.1122
  742TMC3     H10969   1.418   3.933  15.148 -0.3051 -1.8630  1.4077
  742TMC3    H110970   1.685   3.818  15.457  1.7384 -1.1196  0.3554
  742TMC3    H210971   1.767   3.720  15.048  3.5805  1.0049  1.5458
  742TMC3    C710972   1.847   3.671  15.300  0.1713  0.5063 -0.6725
  742TMC3    C810973   1.540   3.802  14.956  0.2802 -0.3874 -0.2805
  742TMC3    O110974   1.936   3.643  15.223 -0.2170 -0.1321  0.0704
  742TMC3    O210975   1.584   3.703  14.897 -0.1224 -0.7722 -0.1008
  743MPD2     C10976   1.405   0.427   1.928 -0.0772 -0.2236  0.0044
  743MPD2    C110977   1.420   0.513   1.819 -0.2864 -0.0780 -0.3690
  743MPD2    C210978   1.340   0.626   1.813  0.4295  0.3534 -0.0124
  743MPD2    C310979   1.245   0.641   1.908  0.3194  0.0943  0.2751
  743MPD2    C410980   1.239   0.565   2.020  0.1343 -1.0052 -0.3399
  743MPD2    C510981   1.319   0.456   2.031 -0.6091  0.4721 -0.0308
  743MPD2     H10982   1.344   0.698   1.732 -2.5476  0.2018 -0.2773
  743MPD2    H110983   1.160   0.579   2.094 -0.0969  0.0143 -0.7849
  743MPD2    H210984   1.468   0.342   1.949 -1.9468 -1.4247  0.6521
  743MPD2    H310985   1.304   0.391   2.116 -1.1068  1.6466  0.7875
  743MPD2     N10986   1.147   0.743   1.889  0.1395  0.1337 -0.1341
  743MPD2    H510987   1.159   0.794   1.803 -1.8424 -0.9609 -1.0833
  743MPD2    N110988   1.492   0.466   1.709 -0.3041 -0.1860  0.5689
  743MPD2    H710989   1.545   0.380   1.715  0.3981  0.1242 -1.0740
  744TMC3    C110990   1.587   0.460   1.487  0.2468  0.0345  0.0159
  744TMC3    C210991   1.568   0.321   1.487 -0.8252 -0.2354 -0.0339
  744TMC3    C310992   1.576   0.258   1.364 -0.9935 -0.1466 -0.1016
  744TMC3    C410993   1.604   0.525   1.370  0.0761 -0.3474 -0.2218
  744TMC3    C510994   1.628   0.452   1.256 -0.2489  0.2525 -1.1344
  744TMC3    C610995   1.606   0.318   1.250 -0.0957 -0.1580  0.7658
  744TMC3     C10996   1.510   0.536   1.588 -0.4377 -0.5250 -0.1357
  744TMC3     O10997   1.463   0.643   1.546 -0.1786 -0.0472  0.0507
  744TMC3     H10998   1.542   0.266   1.577 -1.9166  0.2526 -0.0532
  744TMC3    H110999   1.626   0.630   1.382  0.6665 -0.3156 -1.6754
  744TMC3    H211000   1.626   0.254   1.165  0.7506  0.7055  0.3078
  744TMC3    C711001   1.568   0.513   1.140 -0.0455  0.3857 -0.1127
  744TMC3    C811002   1.550   0.118   1.366 -0.4739 -0.7940 -0.4889
  744TMC3    O111003   1.500   0.438   1.070 -0.0391 -0.4273  0.3133
  744TMC3    O211004   1.567   0.055   1.469  0.4743  0.0947 -0.6850
  745TMC3    C111005   2.098   3.593  13.162  0.0384  0.5103  0.2712
  745TMC3    C211006   2.100   3.585  13.297 -0.0347  0.1453  0.6604
  745TMC3    C311007   1.979   3.587  13.357 -0.9605 -0.4426  0.0768
  745TMC3    C411008   1.982   3.613  13.086  0.1334  0.7808 -0.4239
  745TMC3    C511009   1.863   3.622  13.155  0.5021 -0.1174 -0.3023
  745TMC3    C611010   1.865   3.606  13.288 -0.6592  0.4514  0.8235
  745TMC3     C11011   2.226   3.586  13.090  0.2072 -0.1308  0.5506
  745TMC3     O11012   2.229   3.563  12.972  0.3315  0.5543  0.0307
  745TMC3     H11013   2.194   3.568  13.348 -0.6990  0.7649  2.0902
  745TMC3    H111014   1.980   3.628  12.979 -1.1173  2.7557 -0.1189
  745TMC3    H211015   1.767   3.613  13.334 -0.0004 -2.7394  2.6912
  745TMC3    C711016   1.768   3.727  13.098 -0.5512  0.4054 -0.3504
  745TMC3    C811017   1.969   3.590  13.500  0.0438 -0.5492 -0.1567
  745TMC3    O111018   1.653   3.725  13.140 -0.4073 -0.0277  0.9035
  745TMC3    O211019   1.883   3.520  13.551  0.0185 -0.5876  0.0786
  746TMC3    C111020   4.350   0.627  11.170 -0.2775  0.2823 -1.0678
  746TMC3    C211021   4.477   0.673  11.166 -0.6681 -0.9505  0.7277
  746TMC3    C311022   4.566   0.627  11.251  0.2809 -0.3704 -1.2448
  746TMC3    C411023   4.310   0.528  11.257  0.4940 -0.2718 -0.2527
  746TMC3    C511024   4.412   0.466  11.327  0.9076  0.2709  0.2090
  746TMC3    C611025   4.536   0.517  11.325 -0.1734  0.2176  0.5711
  746TMC3     C11026   4.250   0.721  11.126  0.0442  0.7263  0.2872
  746TMC3     O11027   4.135   0.709  11.166 -0.2059  0.1895  0.1601
  746TMC3     H11028   4.501   0.769  11.120 -1.2674 -2.2492 -2.2651
  746TMC3    H111029   4.206   0.497  11.258  0.0084  1.3968  0.4461
  746TMC3    H211030   4.616   0.464  11.375  0.5024 -1.4940 -2.3387
  746TMC3    C711031   4.378   0.332  11.392  0.5181  0.5596  0.4367
  746TMC3    C811032   4.700   0.661  11.219 -0.8403 -0.2498 -0.3188
  746TMC3    O111033   4.464   0.300  11.472 -0.2737 -0.1080 -0.3242
  746TMC3    O211034   0.025   0.757  11.273  0.2439 -0.6604  0.1402
  747TMC3    C111035   1.696   0.718  10.945 -0.6526  0.3088 -0.7966
  747TMC3    C211036   1.641   0.677  11.067 -0.0121  0.5259 -0.0903
  747TMC3    C311037   1.719   0.685  11.184 -0.0843  0.8748  0.5165
  747TMC3    C411038   1.829   0.749  10.940  0.7846 -0.8525 -0.2254
  747TMC3    C511039   1.901   0.751  11.059  0.7364  0.0938  0.2741
  747TMC3    C611040   1.844   0.728  11.178 -0.1025 -0.6444 -0.4383
  747TMC3     C11041   1.627   0.694  10.823 -0.0084 -0.6961  0.1728
  747TMC3     O11042   1.505   0.701  10.816  0.1627 -0.8916 -0.3187
  747TMC3     H11043   1.541   0.641  11.082 -0.2130  1.5695  1.0135
  747TMC3    H111044   1.877   0.763  10.844  1.5387  0.7513  0.3824
  747TMC3    H211045   1.900   0.728  11.272  0.7216 -0.7751 -0.9273
  747TMC3    C711046   2.039   0.797  11.055  0.0870 -0.0525 -0.2870
  747TMC3    C811047   1.668   0.625  11.305  0.7094  0.8960  0.1592
  747TMC3    O111048   2.086   0.817  11.165  0.2556  0.0460  0.0237
  747TMC3    O211049   1.588   0.536  11.297  0.9695  0.0517  0.2470
  748MPD2     C11050   3.558   1.796   1.719  0.3852 -0.8898  0.3791
  748MPD2    C111051   3.583   1.662   1.704 -0.4150 -0.8813  0.4690
  748MPD2    C211052   3.687   1.626   1.616  0.2113 -1.1567  0.7725
  748MPD2    C311053   3.751   1.712   1.527  0.4072  0.0866 -0.0867
  748MPD2    C411054   3.730   1.849   1.551 -0.2162  0.7003 -0.6960
  748MPD2    C511055   3.640   1.889   1.656  0.1808 -0.2780 -0.5236
  748MPD2     H11056   3.704   1.519   1.608  2.6269 -0.6400 -1.2216
  748MPD2    H111057   3.784   1.926   1.498  1.3612 -0.2466 -0.4499
  748MPD2    H211058   3.488   1.825   1.797  0.8935 -0.0398  0.5136
  748MPD2    H311059   3.617   1.992   1.678 -2.1258 -0.6431 -1.2529
  748MPD2     N11060   3.833   1.654   1.426 -0.0196 -0.6946  0.4948
  748MPD2    H511061   3.864   1.558   1.430  1.4135 -0.2305  0.4695
  748MPD2    N111062   3.501   1.575   1.767 -0.7192 -0.2250 -0.0934
  748MPD2    H711063   3.440   1.610   1.841  1.9519  2.3622  0.8972
  749TMC3    C111064   4.029   1.690   1.305 -0.4511  0.7891  0.5279
  749TMC3    C211065   4.104   1.633   1.399 -0.7118  0.0266  0.1268
  749TMC3    C311066   4.240   1.618   1.366  0.2317  0.3640  0.4659
  749TMC3    C411067   4.074   1.714   1.183  0.4083  0.3869 -0.5028
  749TMC3    C511068   4.202   1.692   1.152 -0.6742 -0.5846  0.8047
  749TMC3    C611069   4.294   1.650   1.244 -0.6034 -0.1477  0.1056
  749TMC3     C11070   3.892   1.738   1.335 -0.1166  0.5654 -0.1073
  749TMC3     O11071   3.844   1.841   1.285  0.5609  0.3263 -0.1039
  749TMC3     H11072   4.069   1.626   1.501  1.5101 -0.2217  0.8660
  749TMC3    H111073   4.011   1.765   1.111 -0.2422 -0.1826 -0.3412
  749TMC3    H211074   4.397   1.639   1.211 -0.4677  0.1383  0.4263
  749TMC3    C711075   4.250   1.731   1.023  0.0187  0.1764 -1.0234
  749TMC3    C811076   4.328   1.590   1.478 -0.1887  1.1652 -0.2124
  749TMC3    O111077   4.181   1.807   0.960  0.3352  0.1551 -0.2732
  749TMC3    O211078   4.283   1.564   1.589 -0.3099 -0.0097 -0.1686
  750MPD2     C11079   4.418   2.309  11.079 -0.1293 -0.0939 -0.0670
  750MPD2    C111080   4.282   2.331  11.086 -0.6576  0.6064  0.8827
  750MPD2    C211081   4.197   2.258  10.999  0.2859  0.4713  0.3235
  750MPD2    C311082   4.254   2.155  10.932  0.4015 -0.2446  0.6085
  750MPD2    C411083   4.390   2.128  10.935 -0.1256  0.1613  0.5426
  750MPD2    C511084   4.470   2.217  10.993  0.4661  0.1411  0.7415
  750MPD2     H11085   4.094   2.291  10.999 -0.0616 -0.6259 -3.7657
  750MPD2    H111086   4.430   2.050  10.872 -2.6337 -0.1724 -0.6297
  750MPD2    H211087   4.491   2.379  11.118 -0.0441 -1.0921  1.5453
  750MPD2    H311088   4.575   2.196  11.011  0.2361 -2.1843 -0.6603
  750MPD2     N11089   4.180   2.062  10.858  0.1921  0.1608  0.7960
  750MPD2    H511090   4.237   1.986  10.823  1.3768  0.5174  1.9260
  750MPD2    N111091   4.243   2.442  11.169 -0.2053  0.1874 -0.0690
  750MPD2    H711092   4.313   2.507  11.202  1.0039 -0.2104 -1.8376
  751TMC3    C111093   3.997   1.949  10.761 -0.9167 -0.1468  0.1631
  751TMC3    C211094   3.865   1.920  10.771 -0.5362 -0.3986  0.2968
  751TMC3    C311095   3.824   1.792  10.736 -0.5307  0.4421  0.0784
  751TMC3    C411096   4.083   1.857  10.705 -0.8348 -0.2454  0.0038
  751TMC3    C511097   4.037   1.739  10.660  0.2796  1.1015  0.1001
  751TMC3    C611098   3.903   1.699  10.680 -0.4853  0.2408  0.1071
  751TMC3     C11099   4.042   2.060  10.847  0.1039  0.4665 -0.3311
  751TMC3     O11100   3.954   2.117  10.905 -1.0296 -0.7413  0.4004
  751TMC3     H11101   3.796   1.997  10.802 -2.2837 -1.5555 -0.7399
  751TMC3    H111102   4.182   1.882  10.667  0.3560 -0.0107  3.2168
  751TMC3    H211103   3.854   1.613  10.634 -2.0078  0.8826  0.5223
  751TMC3    C711104   4.132   1.646  10.599  0.6623 -1.2067  0.0640
  751TMC3    C811105   3.703   1.739  10.794 -0.0291 -0.5133 -0.2077
  751TMC3    O111106   4.231   1.685  10.535 -0.5810  0.4112  0.4721
  751TMC3    O211107   3.612   1.825  10.807  0.0882 -0.6126  0.4389
  752TMC3    C111108   3.731   2.582  16.932 -0.4033  0.2636 -0.0055
  752TMC3    C211109   3.605   2.581  16.990  0.4020 -0.2363  0.1947
  752TMC3    C311110   3.598   2.563  17.128  0.5613  0.0223  0.8115
  752TMC3    C411111   3.846   2.567  17.000  0.7040  0.3644 -0.5133
  752TMC3    C511112   3.835   2.527  17.128 -0.4197  0.2873 -0.3639
  752TMC3    C611113   3.714   2.541  17.197 -0.4173  0.0411  0.4291
  752TMC3     C11114   3.736   2.577  16.786 -0.3977  0.7256 -0.5779
  752TMC3     O11115   3.845   2.584  16.729 -0.4032 -0.3785 -0.0726
  752TMC3     H11116   3.508   2.598  16.944  0.6117 -1.5468 -0.7445
  752TMC3    H111117   3.942   2.552  16.951  1.5606  1.1046  0.9278
  752TMC3    H211118   3.716   2.536  17.305  0.7791  0.4460  0.4173
  752TMC3    C711119   3.953   2.482  17.205 -0.3085 -0.5041 -0.2869
  752TMC3    C811120   3.502   2.653  17.188 -0.3382 -0.5214 -0.1619
  752TMC3    O111121   3.936   2.419  17.312  0.6105 -0.2180  0.4894
  752TMC3    O211122   3.447   2.734  17.118  0.0835 -0.0731 -0.1323
  753TMC3    C111123   0.651   3.879  13.593  1.0304 -0.3279 -0.3720
  753TMC3    C211124   0.775   3.831  13.626 -0.6638 -0.1572 -0.3469
  753TMC3    C311125   0.810   3.700  13.610  0.4569  0.2743  0.1423
  753TMC3    C411126   0.561   3.800  13.519 -0.5213  0.5622 -0.0763
  753TMC3    C511127   0.606   3.670  13.501  0.0946  0.0483  0.6643
  753TMC3    C611128   0.728   3.615  13.543  0.1452  0.0469  1.0487
  753TMC3     C11129   0.612   4.018  13.605 -0.3833 -0.9649 -0.0443
  753TMC3     O11130   0.512   4.053  13.550  0.2500 -0.3673  0.3680
  753TMC3     H11131   0.859   3.895  13.650 -2.3542  2.3333 -1.0046
  753TMC3    H111132   0.457   3.818  13.494 -0.8570  2.5864  2.8152
  753TMC3    H211133   0.752   3.510  13.537 -0.3766 -0.0522  0.5910
  753TMC3    C711134   0.515   3.581  13.440  0.5768 -0.1857  0.7662
  753TMC3    C811135   0.941   3.650  13.651 -0.5433  1.0446  0.7350
  753TMC3    O111136   0.397   3.592  13.481 -0.3441 -0.0349  0.5284
  753TMC3    O211137   0.970   3.534  13.623  0.6688  0.2736  0.1959
  754MPD2     C11138   4.252   1.641  13.213  1.4351 -0.2978 -0.8340
  754MPD2    C111139   4.223   1.768  13.272 -0.2886 -0.9052 -0.5602
  754MPD2    C211140   4.102   1.832  13.240  0.2935 -0.3121 -0.4348
  754MPD2    C311141   4.013   1.769  13.149 -0.7679 -0.6390 -0.0945
  754MPD2    C411142   4.047   1.651  13.091  0.6994 -0.8727 -0.1122
  754MPD2    C511143   4.167   1.586  13.119  0.3530 -0.1244  0.6311
  754MPD2     H11144   4.066   1.918  13.295  1.7031 -1.3226  2.0786
  754MPD2    H111145   3.991   1.603  13.012  0.0862  0.9737 -0.7967
  754MPD2    H211146   4.343   1.589  13.244  0.0417 -1.2164  1.7351
  754MPD2    H311147   4.194   1.491  13.075  1.3406  0.3630  0.1884
  754MPD2     N11148   3.878   1.812  13.126  0.3633 -0.5622  0.0150
  754MPD2    H511149   3.824   1.762  13.056  1.6967 -0.3898 -1.1304
  754MPD2    N111150   4.314   1.819  13.365  0.1055  0.2096  0.5390
  754MPD2    H711151   4.397   1.767  13.393  0.5965  0.8366  0.2424
  755MPD2     C11152   3.119   2.600  13.071 -0.1145 -0.4984  0.1639
  755MPD2    C111153   3.216   2.586  13.162 -0.5183 -0.1836  0.2158
  755MPD2    C211154   3.301   2.475  13.153  0.1605  0.2364  0.3354
  755MPD2    C311155   3.282   2.387  13.048 -0.4039 -0.6727  0.2353
  755MPD2    C411156   3.189   2.406  12.950  0.1373  0.0195  0.1068
  755MPD2    C511157   3.100   2.509  12.964  0.2329  0.4553  0.2595
  755MPD2     H11158   3.384   2.460  13.221 -0.3707 -0.4215  0.8453
  755MPD2    H111159   3.175   2.345  12.862  1.9138 -0.0905 -0.0991
  755MPD2    H211160   3.038   2.672  13.080 -0.3234 -0.6016 -0.9332
  755MPD2    H311161   3.016   2.515  12.897 -0.8572  1.9799  1.7639
  755MPD2     N11162   3.367   2.273  13.033  0.5413 -0.5854  0.2921
  755MPD2    H511163   3.362   2.224  12.944 -0.2196 -0.2485  0.1485
  755MPD2    N111164   3.216   2.671  13.276 -0.1565  0.5887  1.0320
  755MPD2    H711165   3.281   2.645  13.349  2.7196  1.6616 -1.1259
  756MPD2     C11166   3.778   2.779   9.610  0.1555 -0.4613 -0.5023
  756MPD2    C111167   3.814   2.686   9.706  0.0375 -0.0405 -0.1485
  756MPD2    C211168   3.766   2.558   9.700 -0.6876 -0.2285  0.9289
  756MPD2    C311169   3.685   2.523   9.600 -0.4012  0.0193 -0.3052
  756MPD2    C411170   3.649   2.612   9.506 -0.1923  0.1632 -0.2478
  756MPD2    C511171   3.695   2.738   9.513  0.2859  0.5855 -0.2507
  756MPD2     H11172   3.785   2.489   9.781 -1.4751 -0.7200  0.7013
  756MPD2    H111173   3.593   2.585   9.417  0.3590 -2.3436  0.1735
  756MPD2    H211174   3.810   2.883   9.608 -1.6196  0.0673 -1.7460
  756MPD2    H311175   3.675   2.811   9.435  0.2251  0.1007 -0.6893
  756MPD2     N11176   3.657   2.385   9.587 -0.4220 -0.2776  1.2288
  756MPD2    H511177   3.708   2.320   9.646  0.3024 -1.1339 -0.3193
  756MPD2    N111178   3.884   2.719   9.829  0.5613 -0.8024 -0.2118
  756MPD2    H711179   3.887   2.648   9.901 -0.3005 -1.1198 -0.4830
  757MPD2     C11180   3.144   1.478   9.762  0.1691 -0.0953  0.7197
  757MPD2    C111181   3.276   1.461   9.736  0.4969  0.8673 -0.1440
  757MPD2    C211182   3.354   1.571   9.718  0.6632  0.4791 -0.7330
  757MPD2    C311183   3.301   1.693   9.709  0.4152  0.6948  0.5394
  757MPD2    C411184   3.166   1.715   9.710  0.5662 -0.5151  0.3423
  757MPD2    C511185   3.087   1.603   9.744  0.3569  0.2285  0.2810
  757MPD2     H11186   3.462   1.569   9.726  0.6501  1.1829 -0.4214
  757MPD2    H111187   3.115   1.810   9.695  1.4895 -0.1725 -0.5806
  757MPD2    H211188   3.076   1.397   9.783  0.5545 -0.3628  0.9268
  757MPD2    H311189   2.982   1.612   9.769  0.3656  0.7257  0.1417
  757MPD2     N11190   3.394   1.790   9.662 -0.0754 -0.1970  0.8628
  757MPD2    H511191   3.489   1.756   9.648 -0.8250 -1.7902 -0.3967
  757MPD2    N111192   3.332   1.334   9.762  0.1705  0.6474  0.1793
  757MPD2    H711193   3.266   1.267   9.800 -0.2972  1.4116  0.7113
  758MPD2     C11194   4.370   2.159  16.323 -0.4392  0.0707 -0.1668
  758MPD2    C111195   4.471   2.139  16.421 -0.3413 -0.5468 -0.6531
  758MPD2    C211196   4.448   2.163  16.559 -0.2355  0.3359  0.7914
  758MPD2    C311197   4.326   2.211  16.596 -0.5553 -0.2194 -0.3051
  758MPD2    C411198   4.229   2.240  16.500  0.2005  0.4840  0.5675
  758MPD2    C511199   4.256   2.213  16.364 -0.2969  0.2133 -0.2129
  758MPD2     H11200   4.529   2.160  16.632  0.5257 -1.9194 -0.1414
  758MPD2    H111201   4.130   2.277  16.526  0.7006  0.5351  2.3864
  758MPD2    H211202   4.378   2.131  16.218  0.8712 -0.7108  0.1370
  758MPD2    H311203   4.171   2.222  16.298 -1.1509  0.9942  0.9985
  758MPD2     N11204   4.286   2.243  16.725 -0.6103 -0.5167  0.3646
  758MPD2    H511205   4.194   2.284  16.739 -0.6785 -1.5969  3.1900
  758MPD2    N111206   4.599   2.096  16.386  0.0802 -0.4388  0.3415
  758MPD2    H711207   4.666   2.086  16.462  1.1457 -0.4970 -0.6171
  759MPD2     C11208   3.297   4.280   9.702  0.0165 -0.2432 -0.1559
  759MPD2    C111209   3.187   4.328   9.775  0.0071 -0.3129 -0.1333
  759MPD2    C211210   3.149   4.463   9.745  0.2210  1.1224 -0.1798
  759MPD2    C311211   3.215   4.545   9.663 -0.0195 -0.5069  0.6135
  759MPD2    C411212   3.317   4.488   9.591 -0.2415 -0.7127 -0.4164
  759MPD2    C511213   3.347   4.353   9.597 -0.1456 -0.7532 -0.2888
  759MPD2     H11214   3.064   4.504   9.799  1.6160  2.6860  0.8161
  759MPD2    H111215   3.372   4.542   9.515 -1.6784  1.2326 -0.0641
  759MPD2    H211216   3.331   4.178   9.717  2.5063  0.5876 -0.2558
  759MPD2    H311217   3.420   4.297   9.539 -0.3003 -1.6136  0.3532
  759MPD2     N11218   3.167   4.676   9.644  0.3679 -0.5816  0.6797
  759MPD2    H511219   3.068   4.688   9.665  0.4766 -0.2664  1.0105
  759MPD2    N111220   3.121   4.250   9.870  0.0497 -0.3144 -0.6289
  759MPD2    H711221   3.045   4.295   9.920  2.2780  3.1640 -0.2901
  760MPD2     C11222   2.574   2.378  11.753  0.5396  0.1014  0.4220
  760MPD2    C111223   2.688   2.403  11.676 -0.1279  0.1860 -0.2882
  760MPD2    C211224   2.764   2.289  11.640  0.6320 -0.2341  0.5746
  760MPD2    C311225   2.732   2.160  11.690 -0.1649  0.1755 -0.2177
  760MPD2    C411226   2.631   2.145  11.777 -0.8121 -0.4554 -0.0647
  760MPD2    C511227   2.549   2.252  11.805  0.4030  0.4303 -0.4623
  760MPD2     H11228   2.843   2.308  11.569 -0.3636 -1.9199 -1.0108
  760MPD2    H111229   2.613   2.052  11.831 -1.1007  0.1625  0.9085
  760MPD2    H211230   2.496   2.449  11.778  0.6055  0.1355  0.5294
  760MPD2    H311231   2.458   2.242  11.862  0.5810 -4.3719 -1.0128
  760MPD2     N11232   2.807   2.045  11.653 -0.1061  0.6532  0.1065
  760MPD2    H511233   2.789   1.959  11.704  1.4675  1.4978  2.1196
  760MPD2    N111234   2.719   2.535  11.629  0.1078 -0.3311  0.1674
  760MPD2    H711235   2.794   2.540  11.561  0.2133 -3.4197  0.0546
  761MPD2     C11236   3.467   1.354  11.051  0.1051  1.0698 -0.5792
  761MPD2    C111237   3.578   1.301  10.986 -0.1662  0.2468  0.0756
  761MPD2    C211238   3.659   1.395  10.924 -0.5925  0.5950 -0.2814
  761MPD2    C311239   3.617   1.527  10.902  0.0807  0.0685  0.6664
  761MPD2    C411240   3.496   1.570  10.941  0.4750 -0.7781 -0.1525
  761MPD2    C511241   3.426   1.481  11.032 -0.5180  0.0939  0.8645
  761MPD2     H11242   3.753   1.362  10.882 -1.1528 -1.0758 -0.2160
  761MPD2    H111243   3.466   1.673  10.922  1.3773  0.0699  2.9592
  761MPD2    H211244   3.395   1.297  11.110  0.3322 -0.3430 -1.6787
  761MPD2    H311245   3.334   1.518  11.075  0.0398  1.0161  1.2905
  761MPD2     N11246   3.712   1.605  10.832  0.1870 -0.2275 -0.0501
  761MPD2    H511247   3.806   1.569  10.819  0.8308  1.5981 -0.4416
  761MPD2    N111248   3.608   1.163  11.000  0.1427 -0.8785  0.3601
  761MPD2    H711249   3.564   1.104  11.069  0.0448 -0.9498  0.2373
  762MPD2     C11250   4.021   0.377  10.739 -0.1327  0.7645 -0.0340
  762MPD2    C111251   4.062   0.508  10.756  0.4386 -0.5618 -0.6422
  762MPD2    C211252   4.178   0.543  10.689  0.0220 -0.0557 -0.3590
  762MPD2    C311253   4.242   0.452  10.601 -0.4987 -0.5647 -0.3276
  762MPD2    C411254   4.189   0.325  10.585  0.4497  0.0071 -0.6086
  762MPD2    C511255   4.082   0.287  10.656 -0.4066  0.4924  0.5133
  762MPD2     H11256   4.209   0.647  10.697  1.2047 -0.4546  0.2416
  762MPD2    H111257   4.248   0.256  10.526 -2.4190 -0.2647 -3.0924
  762MPD2    H211258   3.925   0.356  10.785 -0.4351  0.4014 -0.8258
  762MPD2    H311259   4.041   0.187  10.652  1.0032  0.0395 -2.2595
  762MPD2     N11260   4.356   0.487  10.528 -0.3952  0.2293  0.0428
  762MPD2    H511261   4.395   0.413  10.471 -1.3901  0.0526 -0.4076
  762MPD2    N111262   3.979   0.590  10.832 -0.0803 -0.7172 -0.3176
  762MPD2    H711263   3.904   0.538  10.877 -2.5187 -0.0778 -3.6123
  763MPD2     C11264   1.722   1.238  16.292  0.2499  0.3017  0.1870
  763MPD2    C111265   1.711   1.373  16.263 -0.8508  0.0206 -0.5607
  763MPD2    C211266   1.739   1.467  16.360  0.5616  0.3224 -0.4928
  763MPD2    C311267   1.775   1.423  16.489  0.7770 -0.4031 -0.2307
  763MPD2    C411268   1.785   1.286  16.519  0.1550 -0.6209 -0.7962
  763MPD2    C511269   1.764   1.202  16.415 -0.8557 -0.6132  0.5661
  763MPD2     H11270   1.745   1.574  16.340  1.0667  0.5943  1.0782
  763MPD2    H111271   1.812   1.244  16.615  3.2109  1.0615 -0.9168
  763MPD2    H211272   1.706   1.157  16.222 -2.6443  2.1026 -1.2148
  763MPD2    H311273   1.767   1.095  16.435 -1.4851 -1.0169 -1.5690
  763MPD2     N11274   1.819   1.514  16.591  0.1877  0.0834 -0.3659
  763MPD2    H511275   1.852   1.479  16.680 -1.3224  1.1501  0.6114
  763MPD2    N111276   1.679   1.421  16.137 -0.2346  0.2318 -0.3122
  763MPD2    H711277   1.663   1.520  16.125 -0.2992  0.3368  0.6640
  764MPD2     C11278   4.499   3.522  17.484 -0.3503 -0.3768  0.6924
  764MPD2    C111279   4.383   3.582  17.433 -0.1675  0.6617  0.6450
  764MPD2    C211280   4.268   3.539  17.488  0.2578  0.2007  0.9302
  764MPD2    C311281   4.265   3.442  17.588 -0.0426  0.7627  0.3471
  764MPD2    C411282   4.373   3.386  17.642 -0.1067 -0.2837 -0.1213
  764MPD2    C511283   4.494   3.429  17.586  0.2179 -0.2603  0.1098
  764MPD2     H11284   4.183   3.585  17.440 -0.5908 -0.8570  1.4219
  764MPD2    H111285   4.370   3.312   0.037  1.3962  1.0852  1.2174
  764MPD2    H211286   4.600   3.554  17.459 -0.8279 -0.2269 -1.0706
  764MPD2    H311287   4.586   3.382  17.618  0.5674  1.1376  1.1124
  764MPD2     N11288   4.131   3.411  17.624  0.4915 -0.6591 -0.7711
  764MPD2    H511289   4.062   3.449  17.560  1.6629  1.4820 -0.7778
  764MPD2    N111290   4.392   3.669  17.321  0.7614 -0.0808 -0.2270
  764MPD2    H711291   4.305   3.697  17.277  0.5444  1.9650  1.5045
  765MPD2     C11292   3.900   1.363  16.249  0.2655 -0.8523 -0.0523
  765MPD2    C111293   3.979   1.432  16.157  0.4857  0.4232 -0.6646
  765MPD2    C211294   4.110   1.389  16.125 -0.2116  1.1679  0.2973
  765MPD2    C311295   4.151   1.263  16.176  0.2337  0.2767 -0.4428
  765MPD2    C411296   4.069   1.190  16.259 -0.0945 -0.0021  0.9139
  765MPD2    C511297   3.946   1.237  16.292  0.0967 -1.0880 -0.8080
  765MPD2     H11298   4.169   1.448  16.056  0.4818 -1.5962 -1.4597
  765MPD2    H111299   4.110   1.103  16.309  2.7856  0.7618 -0.1006
  765MPD2    H211300   3.805   1.392  16.293 -0.2723 -1.4451 -0.8163
  765MPD2    H311301   3.890   1.168  16.354  1.1788 -1.1548  0.0981
  765MPD2     N11302   4.284   1.231  16.152  0.9850 -0.2268  0.5793
  765MPD2    H511303   4.341   1.301  16.104  0.0873 -0.9119 -1.4857
  765MPD2    N111304   3.923   1.550  16.100  0.1824 -0.3111 -0.3220
  765MPD2    H711305   3.825   1.569  16.119  0.6130  1.1893  0.3828
  766MPD2     C11306   3.497   1.623  15.472 -0.1478  0.2958  0.0680
  766MPD2    C111307   3.627   1.677  15.462  0.5279  0.0882 -0.5024
  766MPD2    C211308   3.691   1.673  15.339 -0.6753  0.1769  0.0774
  766MPD2    C311309   3.613   1.636  15.229  0.3019  0.2346  0.2890
  766MPD2    C411310   3.489   1.588  15.239 -0.4104  0.1725 -0.3177
  766MPD2    C511311   3.432   1.580  15.358  0.4430 -0.1046  0.5033
  766MPD2     H11312   3.796   1.698  15.331 -0.8813  1.2985  0.9953
  766MPD2    H111313   3.431   1.574  15.148  0.7344 -0.5232 -0.9336
  766MPD2    H211314   3.453   1.617  15.570  0.7328  1.1839  0.5162
  766MPD2    H311315   3.334   1.535  15.371  0.5903  0.0549  2.1074
  766MPD2     N11316   3.654   1.653  15.094  0.4059 -0.2198  0.1602
  766MPD2    H511317   3.583   1.622  15.030  1.6486 -1.2918 -0.6974
  766MPD2    N111318   3.690   1.735  15.572 -0.2483  0.7524  0.0136
  766MPD2    H711319   3.767   1.800  15.561  0.4892 -0.1814 -0.3641
  767MPD2     C11320   3.281   1.855  15.257 -0.8283  0.0720  0.2692
  767MPD2    C111321   3.381   1.917  15.177  0.7757 -0.1154 -0.0266
  767MPD2    C211322   3.364   1.897  15.039 -0.5456 -0.0337 -0.3260
  767MPD2    C311323   3.254   1.835  14.987 -0.2612 -0.2760  0.3252
  767MPD2    C411324   3.153   1.795  15.068 -0.0439  0.4792 -0.0564
  767MPD2    C511325   3.174   1.800  15.203  0.0077 -0.2394  0.6502
  767MPD2     H11326   3.430   1.931  14.960  1.2378 -0.6694  0.8769
  767MPD2    H111327   3.060   1.751  15.034  1.1813 -1.2970 -1.0725
  767MPD2    H211328   3.278   1.855  15.365  0.9394 -2.2930  0.3133
  767MPD2    H311329   3.098   1.751  15.262  0.8628 -1.2594  0.9052
  767MPD2     N11330   3.265   1.801  14.853 -0.9536  0.3074 -0.3438
  767MPD2    H511331   3.348   1.832  14.804  0.7358 -2.1987  0.9609
  767MPD2    N111332   3.494   1.988  15.234  0.1455 -0.4620  0.0874
  767MPD2    H711333   3.496   2.001  15.335 -2.1643  0.2948  0.0322
  768MPD2     C11334   4.624   4.497  10.727  0.6182  0.9617  0.4255
  768MPD2    C111335   4.588   4.456  10.857 -0.7336 -1.3353  0.1206
  768MPD2    C211336   4.690   4.465  10.949 -0.0920 -0.7116 -0.3630
  768MPD2    C311337   0.087   4.531  10.928 -0.5471 -0.1405 -0.1895
  768MPD2    C411338   0.118   4.568  10.802 -0.0657 -0.2521  0.1531
  768MPD2    C511339   0.030   4.553  10.707  0.0301  0.3805  0.5124
  768MPD2     H11340   4.669   4.416  11.044 -0.2158 -1.3808 -0.7313
  768MPD2    H111341   0.213   4.612  10.774  0.4722 -0.9955  0.8265
  768MPD2    H211342   4.568   4.481  10.635  1.9162  1.2427 -0.4133
  768MPD2    H311343   0.066   4.584  10.610 -0.3120  0.0727  0.2912
  768MPD2     N11344   0.177   4.565  11.027  0.4449 -0.3282 -0.3691
  768MPD2    H511345   0.270   4.599  11.004 -0.0491 -0.1762 -2.1596
  768MPD2    N111346   4.464   4.409  10.906 -0.3216 -0.2551 -0.2961
  768MPD2    H711347   4.451   4.381  11.003 -1.4855  0.8530 -0.1350
  769MPD2     C11348   0.125   3.257  14.382  0.0526  0.1519  0.1884
  769MPD2    C111349   0.200   3.149  14.418 -0.1959  0.3724 -0.6079
  769MPD2    C211350   0.304   3.160  14.508 -0.5879 -0.3889 -0.5026
  769MPD2    C311351   0.328   3.281  14.565  0.4155 -0.1187  0.5186
  769MPD2    C411352   0.260   3.396  14.525  0.3281 -0.0912 -0.3571
  769MPD2    C511353   0.155   3.381  14.430  0.2430 -0.9930  0.1501
  769MPD2     H11354   0.361   3.073  14.537  0.1486  1.2098  2.9225
  769MPD2    H111355   0.279   3.495  14.564  1.1024 -0.9226  1.3848
  769MPD2    H211356   0.041   3.246  14.314 -1.1594 -0.0891  1.7505
  769MPD2    H311357   0.106   3.468  14.389 -0.8237 -0.0011  3.5135
  769MPD2     N11358   0.430   3.289  14.660  0.1377  0.4300  0.6243
  769MPD2    H511359   0.441   3.201  14.709  1.1355  0.2603  0.0897
  769MPD2    N111360   0.172   3.030  14.348  0.2681  0.1645 -0.1061
  769MPD2    H711361   0.105   3.028  14.272 -0.7235  3.4106  0.6911
  770MPD2     C11362   4.641   2.094  14.670  0.3354  0.2629 -0.7062
  770MPD2    C111363   0.005   2.193  14.727 -0.7374  0.9430 -0.0569
  770MPD2    C211364   0.031   2.311  14.651  0.4106 -0.0262  0.0149
  770MPD2    C311365   4.720   2.319  14.517  0.1694 -0.0458  0.4847
  770MPD2    C411366   4.650   2.213  14.462 -0.1710  0.0833 -0.7500
  770MPD2    C511367   4.607   2.108  14.537 -0.2268  0.5123  1.0056
  770MPD2     H11368   0.083   2.400  14.686  4.2607 -1.4967 -1.9432
  770MPD2    H111369   4.626   2.209  14.356 -2.6178  3.2277 -0.3206
  770MPD2    H211370   4.620   2.006  14.730  2.6327  0.6851  0.7135
  770MPD2    H311371   4.553   2.025  14.492  1.0130 -0.5166  1.4286
  770MPD2     N11372   0.043   2.437  14.457 -0.2992 -0.9238  0.5632
  770MPD2    H511373   0.060   2.523  14.508 -1.8929 -0.9672  1.1530
  770MPD2    N111374   0.040   2.180  14.868  0.2827 -0.6889  0.2429
  770MPD2    H711375   0.006   2.092  14.904 -1.0394 -1.5280 -3.0649
  771MPD2     C11376   1.358   0.540  13.797 -0.0223  0.1114  0.4896
  771MPD2    C111377   1.301   0.663  13.765  0.1495 -0.3745  0.0807
  771MPD2    C211378   1.187   0.671  13.688 -0.0305 -0.3065 -0.3732
  771MPD2    C311379   1.131   0.561  13.621 -0.6506 -0.2931 -0.0909
  771MPD2    C411380   1.187   0.440  13.658 -0.0203 -0.9693  0.3246
  771MPD2    C511381   1.296   0.433  13.746  0.4036  0.2967 -0.2969
  771MPD2     H11382   1.139   0.768  13.675  1.9582  0.9252  1.3885
  771MPD2    H111383   1.166   0.347  13.606  0.2319 -0.5696 -0.4842
  771MPD2    H211384   1.453   0.530  13.849 -0.5559 -2.5293  0.9468
  771MPD2    H311385   1.353   0.341  13.759  0.8559  0.4357 -1.2902
  771MPD2     N11386   1.040   0.576  13.518 -0.2600 -0.0546 -0.2539
  771MPD2    H511387   1.022   0.671  13.486 -0.4104 -0.3375 -1.0112
  771MPD2    N111388   1.353   0.781  13.820 -0.6473 -0.5615  0.6140
  771MPD2    H711389   1.318   0.873  13.792 -2.2390 -1.8812 -1.7878
  772MPD2     C11390   1.182   1.402  14.152  0.6763  0.0271 -0.3409
  772MPD2    C111391   1.164   1.282  14.083 -0.1965  0.6114 -0.0144
  772MPD2    C211392   1.040   1.239  14.057 -0.6204 -0.0191  0.4885
  772MPD2    C311393   0.931   1.311  14.089 -0.3610 -0.3729  0.3709
  772MPD2    C411394   0.943   1.434  14.146 -0.2917 -0.0673 -0.1628
  772MPD2    C511395   1.071   1.481  14.176  0.8860 -0.7997 -0.5805
  772MPD2     H11396   1.034   1.143  14.005 -1.8679  0.7100 -0.7237
  772MPD2    H111397   0.858   1.499  14.160 -1.2976 -1.6645  1.0258
  772MPD2    H211398   1.279   1.446  14.171  0.4482 -0.0502  0.9971
  772MPD2    H311399   1.078   1.568  14.239  1.7226 -0.2234 -1.4658
  772MPD2     N11400   0.797   1.268  14.064  0.1962 -0.3305 -0.1704
  772MPD2    H511401   0.723   1.327  14.100 -1.3167 -1.7868 -0.8803
  772MPD2    N111402   1.271   1.201  14.040  0.1921 -0.3452  0.6088
  772MPD2    H711403   1.242   1.108  14.011  0.0657 -0.5034  1.2508
  773MPD2     C11404   0.039   2.803  17.519  0.3568 -0.4145 -0.1620
  773MPD2    C111405   0.022   2.697  17.604  0.0585  0.4032  0.8425
  773MPD2    C211406   0.122   2.666  17.682  0.6516 -0.1516  0.2939
  773MPD2    C311407   0.242   2.730  17.670  0.0279 -0.0606 -0.5790
  773MPD2    C411408   0.256   2.841  17.593  0.5694  0.1287  1.2565
  773MPD2    C511409   0.150   2.883  17.511 -0.5192 -0.2193 -0.0665
  773MPD2     H11410   0.095   2.594   0.074 -0.7433  0.8077  0.7067
  773MPD2    H111411   0.346   2.897  17.576  1.1915 -1.6471 -1.3387
  773MPD2    H211412   4.687   2.830  17.444 -0.3642 -0.6788  0.4421
  773MPD2    H311413   0.160   2.966  17.443 -1.1718  0.3823  0.5681
  773MPD2     N11414   0.347   2.678   0.066  0.3752  0.1207 -0.2284
  773MPD2    H511415   0.324   2.601   0.129 -0.8643  1.8701  1.4537
  773MPD2    N111416   4.620   2.627  17.609  0.2040 -0.2316  0.6810
  773MPD2    H711417   4.619   2.553  17.679  0.7321 -2.9249 -2.1189
  774MPD2     C11418   3.893   1.509  13.918  0.2467 -0.2340  0.5579
  774MPD2    C111419   4.018   1.466  13.890  0.0452 -0.4055 -0.0487
  774MPD2    C211420   4.124   1.557  13.881  0.7191  0.5199  0.3615
  774MPD2    C311421   4.093   1.693  13.875  0.2288 -0.2961 -0.6225
  774MPD2    C411422   3.966   1.741  13.884 -0.3019 -0.0677  0.1093
  774MPD2    C511423   3.870   1.648  13.904 -0.2127 -0.6208  0.0709
  774MPD2     H11424   4.227   1.529  13.863  0.3044 -0.7450 -0.0375
  774MPD2    H111425   3.935   1.844  13.869  4.2157  1.3727  0.6000
  774MPD2    H211426   3.805   1.445  13.923  0.0707  0.1040  1.7400
  774MPD2    H311427   3.767   1.683  13.909 -0.7954 -2.3895  0.6807
  774MPD2     N11428   4.207   1.775  13.847 -0.2576 -1.0810  0.5344
  774MPD2    H511429   4.298   1.731  13.844  1.5412  2.9317 -3.9961
  774MPD2    N111430   4.044   1.325  13.869 -0.1681 -0.6210 -0.5535
  774MPD2    H711431   3.961   1.267  13.880  0.7069 -1.7969 -0.1995
  775MPD2     C11432   0.175   3.073  15.669 -0.2706 -0.6263  0.1392
  775MPD2    C111433   0.269   3.118  15.761  0.6083  0.4298 -0.0553
  775MPD2    C211434   0.385   3.167  15.712 -0.0974  0.4491 -0.5441
  775MPD2    C311435   0.406   3.187  15.578 -0.0386  0.2055  0.3249
  775MPD2    C411436   0.322   3.139  15.482 -0.5928 -0.6840 -0.6210
  775MPD2    C511437   0.204   3.078  15.533  1.2176 -0.1929 -1.1461
  775MPD2     H11438   0.468   3.196  15.775  2.1643 -1.8105 -2.4840
  775MPD2    H111439   0.339   3.143  15.376  2.0108 -1.4225 -0.2225
  775MPD2    H211440   0.079   3.029  15.697  0.2303 -1.8369 -0.0481
  775MPD2    H311441   0.124   3.046  15.467 -0.9310 -1.7721  2.2098
  775MPD2     N11442   0.510   3.267  15.527  0.2246 -0.1749  0.0227
  775MPD2    H511443   0.529   3.263  15.427 -2.9749 -2.6013 -0.4711
  775MPD2    N111444   0.243   3.113  15.904  0.9607 -0.3217 -0.2851
  775MPD2    H711445   0.158   3.072  15.940  1.2739 -2.1905 -1.7426
  776MPD2     C11446   4.391   3.077  11.700 -1.2797  0.2015  0.5347
  776MPD2    C111447   4.379   3.057  11.563 -0.4524  0.0519  0.5777
  776MPD2    C211448   4.411   3.159  11.480  1.2672  0.0250  0.6750
  776MPD2    C311449   4.461   3.277  11.534 -0.4140  0.9027 -0.1451
  776MPD2    C411450   4.489   3.292  11.669 -0.4167 -0.3766  0.6037
  776MPD2    C511451   4.447   3.189  11.750  1.0411  0.1158  0.4804
  776MPD2     H11452   4.390   3.153  11.373 -0.6276  0.9771  0.9973
  776MPD2    H111453   4.539   3.382  11.703  0.7493 -0.9143  0.3183
  776MPD2    H211454   4.371   2.996  11.768 -0.0758 -0.3653  0.2246
  776MPD2    H311455   4.452   3.203  11.858 -1.5439 -0.9493  0.7423
  776MPD2     N11456   4.508   3.380  11.454 -0.3428 -0.5706 -0.1253
  776MPD2    H511457   4.584   3.432  11.496  0.5842 -1.3984 -0.7688
  776MPD2    N111458   4.329   2.925  11.530  0.3417  0.1687 -0.1233
  776MPD2    H711459   4.301   2.861  11.603  1.6167 -0.2474 -0.0098
  777MPD2     C11460   0.463   1.224   0.804  0.4718 -0.3088 -0.2371
  777MPD2    C111461   0.528   1.161   0.908 -0.4696 -0.1933  0.0390
  777MPD2    C211462   0.623   1.062   0.882  0.1234 -0.4710 -0.1390
  777MPD2    C311463   0.659   1.026   0.756  0.1744  0.5668 -0.8705
  777MPD2    C411464   0.588   1.080   0.653  0.2624 -0.5233 -0.0461
  777MPD2    C511465   0.497   1.184   0.676 -0.4702  0.5006  0.1763
  777MPD2     H11466   0.664   1.008   0.966 -1.5203  2.1928  2.3967
  777MPD2    H111467   0.601   1.056   0.548 -2.1232 -2.3521  0.0821
  777MPD2    H211468   0.393   1.307   0.813 -0.8242 -1.4799  0.5201
  777MPD2    H311469   0.451   1.235   0.592 -0.9061 -0.0064  0.1049
  777MPD2     N11470   0.755   0.924   0.729  0.0139  0.1920 -0.2337
  777MPD2    H511471   0.798   0.892   0.816  0.9662  0.0348 -0.7605
  777MPD2    N111472   0.505   1.223   1.032 -0.7090 -0.4775  0.0479
  777MPD2    H711473   0.420   1.277   1.039 -0.6660 -0.4964  0.7748
  778MPD2     C11474   1.204   0.668  15.308  0.6670  0.3897 -0.0009
  778MPD2    C111475   1.137   0.682  15.189 -0.3346 -0.2031  0.1149
  778MPD2    C211476   1.176   0.782  15.102  0.3675  0.2820  0.1585
  778MPD2    C311477   1.286   0.858  15.123  0.1294 -0.0305 -0.2145
  778MPD2    C411478   1.361   0.840  15.234  0.0296  0.3275  0.1866
  778MPD2    C511479   1.321   0.744  15.319 -0.2897 -0.4797  0.7048
  778MPD2     H11480   1.116   0.796  15.013  0.7304  2.6736  0.2868
  778MPD2    H111481   1.451   0.892  15.263 -0.7312  1.4329  0.5496
  778MPD2    H211482   1.174   0.598  15.385  1.9253 -0.7776 -0.5671
  778MPD2    H311483   1.389   0.727  15.401  1.3808 -4.1249 -1.4341
  778MPD2     N11484   1.319   0.948  15.021  0.1571  0.5036 -0.3666
  778MPD2    H511485   1.256   0.959  14.943  1.2438  3.4505 -0.8402
  778MPD2    N111486   1.016   0.616  15.158 -0.7712  0.1853  0.2889
  778MPD2    H711487   0.963   0.660  15.084  0.5393 -1.3378 -1.5466
  779MPD2     C11488   1.077   4.378  14.111 -0.1791 -0.2796  0.9144
  779MPD2    C111489   1.184   4.380  14.198  0.0433 -0.0937 -0.6069
  779MPD2    C211490   1.219   4.496  14.257  0.5948 -0.4576 -0.7671
  779MPD2    C311491   1.155   4.613  14.222 -0.2390  0.5981  0.1409
  779MPD2    C411492   1.058   4.612  14.118 -0.4683 -0.4816  0.1259
  779MPD2    C511493   1.031   4.496  14.054 -0.0302 -0.3663 -0.0953
  779MPD2     H11494   1.303   4.503  14.325  0.3860  1.4761 -0.7193
  779MPD2    H111495   1.015   4.703  14.078 -0.0722 -0.2083  0.3137
  779MPD2    H211496   1.043   4.283  14.071  1.5517 -0.5499  0.0814
  779MPD2    H311497   0.966   4.502  13.967  0.6013  1.5974 -0.4279
  779MPD2     N11498   1.184   0.016  14.288 -0.2048 -0.4164 -0.3235
  779MPD2    H511499   1.264   0.018  14.351  0.4689  4.2915 -1.3183
  779MPD2    N111500   1.242   4.258  14.230 -0.2287 -0.2742 -0.0062
  779MPD2    H711501   1.198   4.177  14.187 -0.5401  0.0311 -0.2633
  780MPD2     C11502   4.276   4.016  17.344  0.3833 -0.7220  1.2014
  780MPD2    C111503   4.364   3.997  17.450  0.0078 -0.0960  0.5771
  780MPD2    C211504   4.494   4.041  17.433  0.0721  0.0621 -0.2453
  780MPD2    C311505   4.533   4.103  17.317 -0.1947 -0.8610  0.0913
  780MPD2    C411506   4.445   4.126  17.210 -0.0355 -0.2559  0.3237
  780MPD2    C511507   4.315   4.086  17.230 -0.5772  0.6043 -0.0563
  780MPD2     H11508   4.571   4.030  17.509  0.2082  2.1583 -0.0577
  780MPD2    H111509   4.471   4.173  17.115  2.3408 -0.2353  0.9800
  780MPD2    H211510   4.178   3.971  17.354  0.3357 -0.4115  2.1576
  780MPD2    H311511   4.243   4.097  17.150 -0.5228 -0.5750 -0.2717
  780MPD2     N11512   4.669   4.146  17.310  0.6072 -0.4269 -0.8027
  780MPD2    H511513   0.006   4.125  17.391  0.6248  3.3728  0.1788
  780MPD2    N111514   4.314   3.918  17.562 -0.0884  0.2970 -0.5822
  780MPD2    H711515   4.227   3.868  17.551  1.8155 -2.8696 -1.0810
  781MPD2     C11516   2.372   1.539  11.707  0.8148 -0.5239 -0.2529
  781MPD2    C111517   2.454   1.446  11.770 -0.1969 -0.0819 -0.0175
  781MPD2    C211518   2.522   1.357  11.686  0.0649  0.1947 -0.3436
  781MPD2    C311519   2.508   1.362  11.549  0.1076 -0.2147  0.0294
  781MPD2    C411520   2.429   1.450  11.488  0.7017  0.8679  0.1147
  781MPD2    C511521   2.368   1.540  11.572  0.6406 -0.2426 -0.6947
  781MPD2     H11522   2.583   1.280  11.732 -1.0760  0.7543  2.0857
  781MPD2    H111523   2.425   1.450  11.380  1.8715 -1.1461  0.0601
  781MPD2    H211524   2.320   1.613  11.767  1.4980 -0.8963  0.8012
  781MPD2    H311525   2.316   1.618  11.518 -0.6286 -2.2248 -2.3604
  781MPD2     N11526   2.571   1.270  11.458 -0.2740 -0.0230  0.7220
  781MPD2    H511527   2.567   1.283  11.358  0.3369 -0.8632  0.5917
  781MPD2    N111528   2.451   1.428  11.910  0.5601 -0.0112 -0.5780
  781MPD2    H711529   2.518   1.368  11.956 -0.1881 -0.1806  0.2922
  782MPD2     C11530   4.649   1.724   9.762  0.7607 -0.2884 -0.4778
  782MPD2    C111531   4.695   1.695   9.884  0.3098  0.1481  0.0422
  782MPD2    C211532   0.024   1.793   9.958 -0.1681  0.3084 -0.0847
  782MPD2    C311533   0.010   1.931   9.921  0.3942  0.5195 -0.1341
  782MPD2    C411534   4.671   1.954   9.802 -0.6277 -0.4735  0.5011
  782MPD2    C511535   4.636   1.851   9.723  0.2279  0.0423 -0.5737
  782MPD2     H11536   0.053   1.769  10.060  0.0327  1.0597  0.0387
  782MPD2    H111537   4.632   2.052   9.776 -0.4035 -0.5573 -0.1519
  782MPD2    H211538   4.615   1.647   9.694 -0.0498  1.8314 -2.4957
  782MPD2    H311539   4.590   1.876   9.628 -3.3718  2.4659  1.7795
  782MPD2     N11540   0.044   2.028  10.017 -0.2768  0.3981  0.1397
  782MPD2    H511541   0.089   2.000  10.104 -1.9074 -1.5516  0.3352
  782MPD2    N111542   4.711   1.570   9.942 -0.2009  0.3392  0.9646
  782MPD2    H711543   0.060   1.564  10.016  0.1537 -1.1993  0.5007
  783MPD2     C11544   4.074   1.279  10.580  0.2256 -0.7578  0.0210
  783MPD2    C111545   4.130   1.403  10.550  0.0995 -0.2494 -0.0222
  783MPD2    C211546   4.232   1.405  10.459 -0.5793 -0.3252 -0.8317
  783MPD2    C311547   4.286   1.292  10.404  0.2572 -0.4727  0.8881
  783MPD2    C411548   4.225   1.170  10.435  0.1401  1.1593 -0.5106
  783MPD2    C511549   4.119   1.168  10.521  0.0351 -0.4992  0.1929
  783MPD2     H11550   4.279   1.495  10.420 -0.4344  0.4888  1.1917
  783MPD2    H111551   4.244   1.073  10.391 -3.0699  0.1976  0.2397
  783MPD2    H211552   3.991   1.261  10.649  1.9154  1.9691  2.7697
  783MPD2    H311553   4.061   1.078  10.529  1.4011 -1.5068 -1.2242
  783MPD2     N11554   4.392   1.306  10.308  0.6597 -0.0225 -0.0104
  783MPD2    H511555   4.437   1.393  10.281 -2.1399  1.3592 -0.2522
  783MPD2    N111556   4.086   1.519  10.623  0.2244  0.3719  0.0992
  783MPD2    H711557   4.013   1.508  10.692  1.2631  2.2603  1.5095
  784MPD2     C11558   2.998   1.982   0.373 -0.4499 -0.1165  0.0264
  784MPD2    C111559   3.009   2.077   0.470  0.7968  0.4006 -0.4806
  784MPD2    C211560   2.919   2.178   0.473  0.5462 -0.2006 -0.3471
  784MPD2    C311561   2.821   2.195   0.384  0.8451 -0.0189  0.1760
  784MPD2    C411562   2.807   2.103   0.278 -0.8933 -0.3752  0.0252
  784MPD2    C511563   2.892   1.997   0.287 -0.3678  0.3140 -0.1972
  784MPD2     H11564   2.932   2.254   0.550  2.3523 -2.2258  1.3298
  784MPD2    H111565   2.742   2.110   0.192 -0.7590 -2.7037 -0.2516
  784MPD2    H211566   3.063   1.895   0.378 -1.8739 -1.2940 -2.3882
  784MPD2    H311567   2.871   1.918   0.215 -0.3617 -1.1239  1.3687
  784MPD2     N11568   2.740   2.309   0.395  0.0193  0.2307  0.0116
  784MPD2    H511569   2.740   2.364   0.480 -0.9539  0.7494 -0.3122
  784MPD2    N111570   3.119   2.085   0.560  0.8402 -0.0386  0.5121
  784MPD2    H711571   3.124   2.165   0.623  2.5068  0.7495 -0.6153
  785MPD2     C11572   2.382   2.003  10.435  0.1027 -0.5264 -0.1589
  785MPD2    C111573   2.297   1.998  10.326  0.7130  0.8945 -0.0739
  785MPD2    C211574   2.165   1.952  10.337  0.8869  0.0714  0.1244
  785MPD2    C311575   2.123   1.899  10.449 -0.4917 -0.0850  0.2559
  785MPD2    C411576   2.210   1.883  10.551 -0.3240  0.4522 -0.3502
  785MPD2    C511577   2.333   1.946  10.550  0.6736  0.4348 -0.1588
  785MPD2     H11578   2.087   1.961  10.263 -0.0149  2.0411  1.3160
  785MPD2    H111579   2.184   1.833  10.643  1.9839  0.3761  0.2687
  785MPD2    H211580   2.484   2.038  10.434 -0.4915  1.1903 -0.9133
  785MPD2    H311581   2.394   1.940  10.640 -1.2229  0.2097  1.1199
  785MPD2     N11582   1.987   1.851  10.446 -0.0326  0.3059  0.2699
  785MPD2    H511583   1.937   1.868  10.359 -0.0039  2.2690  0.6323
  785MPD2    N111584   2.346   2.047  10.202  0.9809 -0.0677 -0.1418
  785MPD2    H711585   2.442   2.080  10.202  0.9137  0.1399 -0.9312
  786MPD2     C11586   1.241   3.911  14.561 -0.1780 -0.1960  0.0700
  786MPD2    C111587   1.309   3.795  14.594  0.6779  0.3213  0.0031
  786MPD2    C211588   1.375   3.790  14.714  0.7217 -0.4235 -0.4834
  786MPD2    C311589   1.374   3.900  14.800  0.3948  0.4244  0.1986
  786MPD2    C411590   1.305   4.007  14.771  0.2969 -0.5926  0.7336
  786MPD2    C511591   1.251   4.019  14.644 -1.3075  0.3423  0.2840
  786MPD2     H11592   1.436   3.702  14.728 -1.2001 -2.1168 -2.8681
  786MPD2    H111593   1.303   4.096  14.834 -0.5673  1.0906 -1.6912
  786MPD2    H211594   1.197   3.929  14.463  0.6039 -0.8257 -0.3990
  786MPD2    H311595   1.204   4.112  14.615 -0.0906  0.3178 -1.8095
  786MPD2     N11596   1.452   3.903  14.919  0.8554 -0.3834 -0.0836
  786MPD2    H511597   1.447   3.986  14.977  2.4633 -0.2346 -0.1630
  786MPD2    N111598   1.299   3.678  14.515 -0.4050  0.2638  0.1862
  786MPD2    H711599   1.354   3.598  14.544  0.3367  1.9344  3.4362
  787MPD2     C11600   1.091   2.924  14.697  0.5489  0.0913  0.2350
  787MPD2    C111601   1.180   3.027  14.670 -0.0740  0.1404  0.2399
  787MPD2    C211602   1.292   3.049  14.756  0.0400 -0.3819 -0.3994
  787MPD2    C311603   1.296   2.971  14.869 -0.7551  0.3912  0.0617
  787MPD2    C411604   1.203   2.881  14.902 -0.5300  0.0267 -0.4644
  787MPD2    C511605   1.101   2.859  14.813  0.5849 -0.0503  0.1627
  787MPD2     H11606   1.358   3.134  14.748  0.0485 -0.5626 -2.2717
  787MPD2    H111607   1.208   2.819  14.991  0.7667  0.7180 -0.0651
  787MPD2    H211608   1.015   2.893  14.627  1.9249  2.0107 -2.1355
  787MPD2    H311609   1.033   2.775  14.824  0.5880  0.1114  1.4450
  787MPD2     N11610   1.408   2.997  14.957 -0.3492  0.2534  0.2879
  787MPD2    H511611   1.480   3.058  14.921 -0.6379  0.3571 -0.1126
  787MPD2    N111612   1.159   3.120  14.559  0.4765 -0.1069 -0.1723
  787MPD2    H711613   1.091   3.102  14.486 -1.1691  2.0301  0.8342
  788MPD2     C11614   3.076   1.333   1.462  0.0623 -0.6606  0.3940
  788MPD2    C111615   3.158   1.232   1.405 -0.8473 -0.4271 -0.3230
  788MPD2    C211616   3.249   1.281   1.310 -0.4967  0.0001  0.0696
  788MPD2    C311617   3.260   1.406   1.264 -0.3583 -0.2048  0.0279
  788MPD2    C411618   3.184   1.501   1.329 -0.6364  0.8158 -1.0739
  788MPD2    C511619   3.104   1.464   1.435  0.2562 -0.1235 -0.1846
  788MPD2     H11620   3.329   1.215   1.279 -0.5525  1.9985 -4.2719
  788MPD2    H111621   3.184   1.605   1.298  1.9333  1.3713  0.7635
  788MPD2    H211622   3.012   1.316   1.548  0.1234 -1.9554  0.1916
  788MPD2    H311623   3.031   1.531   1.477  1.9860  1.7057 -0.1243
  788MPD2     N11624   3.345   1.455   1.158 -0.2625 -0.3274 -0.2141
  788MPD2    H511625   3.327   1.552   1.135  1.0586  0.3293  1.4725
  788MPD2    N111626   3.143   1.090   1.438  0.1864  0.8349  0.4304
  788MPD2    H711627   3.200   1.024   1.387 -1.7357 -0.6811  0.2441
  789MPD2     C11628   3.946   2.061  16.205 -0.4876  0.3806  0.3076
  789MPD2    C111629   3.991   2.006  16.323  0.1087  0.5261 -0.3957
  789MPD2    C211630   3.929   2.036  16.443  0.1292 -0.2754 -0.1792
  789MPD2    C311631   3.822   2.124  16.447  0.5320  0.6067  0.0717
  789MPD2    C411632   3.788   2.196  16.329 -0.2486  0.0832  0.3587
  789MPD2    C511633   3.852   2.155  16.213 -0.0931 -0.4194  0.5628
  789MPD2     H11634   3.974   2.004  16.536  1.7226 -1.4370 -1.3544
  789MPD2    H111635   3.707   2.267  16.337 -0.5590  0.0150 -2.0170
  789MPD2    H211636   3.975   2.034  16.104  0.5769  0.9158  0.4657
  789MPD2    H311637   3.809   2.203  16.125 -1.0109  2.5988  2.6366
  789MPD2     N11638   3.735   2.142  16.562  0.2476  0.2307 -0.1507
  789MPD2    H511639   3.655   2.204  16.550  0.0312  0.2881  1.5859
  789MPD2    N111640   4.103   1.926  16.332 -0.3819  0.4101  0.2314
  789MPD2    H711641   4.128   1.892  16.424  2.0709  1.0286 -0.1991
  790MPD2     C11642   4.597   3.398  13.575 -0.0687 -0.3583 -0.0116
  790MPD2    C111643   4.665   3.296  13.529 -0.8588  0.4742 -0.2038
  790MPD2    C211644   4.606   3.217  13.427 -0.0364 -0.0442  0.0395
  790MPD2    C311645   4.483   3.254  13.370  0.2203 -0.0096  0.0791
  790MPD2    C411646   4.417   3.369  13.414 -0.2572  0.0615 -0.3949
  790MPD2    C511647   4.477   3.423  13.521 -0.5964 -0.4135 -0.2731
  790MPD2     H11648   4.656   3.130  13.385 -0.4346  0.8777 -2.3257
  790MPD2    H111649   4.322   3.403  13.372  0.4317  1.6644 -0.6652
  790MPD2    H211650   4.635   3.465  13.652  2.5006 -1.0347 -0.6935
  790MPD2    H311651   4.424   3.511  13.558 -1.2864 -0.8471 -0.2305
  790MPD2     N11652   4.442   3.178  13.262 -0.0655 -0.6598  0.4951
  790MPD2    H511653   4.483   3.086  13.250 -0.9564 -0.9237 -0.5506
  790MPD2    N111654   0.075   3.270  13.573 -0.3239  0.0253 -0.0412
  790MPD2    H711655   0.109   3.357  13.614 -0.5517 -0.1300  0.4831
  791MPD2     C11656   3.887   3.343  12.750 -0.4233  0.7048  0.5060
  791MPD2    C111657   3.924   3.210  12.719 -0.2633  0.1260  0.5457
  791MPD2    C211658   3.855   3.132  12.627  0.4319 -0.4217 -0.0431
  791MPD2    C311659   3.743   3.183  12.565  0.1571  0.0560 -1.1890
  791MPD2    C411660   3.700   3.315  12.591 -0.0011 -0.1093 -0.5809
  791MPD2    C511661   3.769   3.393  12.682 -0.0148 -0.1548  0.4693
  791MPD2     H11662   3.896   3.039  12.590  3.9696  0.8240  0.7702
  791MPD2    H111663   3.612   3.361  12.548 -1.1313 -2.1403 -0.4615
  791MPD2    H211664   3.934   3.410  12.820  0.9454  3.3664 -3.0236
  791MPD2    H311665   3.739   3.496  12.691  1.8209  0.3705  0.6424
  791MPD2     N11666   3.683   3.108  12.460 -0.3336 -0.5041 -0.4463
  791MPD2    H511667   3.712   3.012  12.446  0.2980 -0.1150 -1.8311
  791MPD2    N111668   4.027   3.160  12.798 -0.3102  0.8904  0.3689
  791MPD2    H711669   4.077   3.226  12.858  1.2045 -2.5271  2.8275
  792MPD2     C11670   4.720   3.151  11.280 -0.5626  0.5842 -0.8409
  792MPD2    C111671   4.709   3.172  11.143 -0.1518 -0.2427  0.4999
  792MPD2    C211672   4.662   3.068  11.065  0.1444 -0.5598  0.1357
  792MPD2    C311673   4.627   2.941  11.123 -0.3179  0.2209  0.1875
  792MPD2    C411674   4.630   2.931  11.259  0.1058 -0.5239 -0.3937
  792MPD2    C511675   4.683   3.029  11.336 -0.1910  0.6990  0.1158
  792MPD2     H11676   4.658   3.079  10.958  0.2760  0.1013  0.1956
  792MPD2    H111677   4.597   2.843  11.314  1.9856 -0.7923  0.3099
  792MPD2    H211678   0.036   3.231  11.344 -0.4202  0.2961 -0.5635
  792MPD2    H311679   4.691   3.018  11.444  1.2637 -3.0519 -0.3765
  792MPD2     N11680   4.588   2.828  11.049 -1.0209  0.2565  0.1185
  792MPD2    H511681   4.548   2.752  11.103 -0.8370 -0.8670 -1.3207
  792MPD2    N111682   0.041   3.295  11.089  0.7319 -0.5126 -0.0461
  792MPD2    H711683   0.096   3.356  11.148  1.1589 -0.6770 -0.2742
  793MPD2     C11684   3.837   2.521  10.517 -0.1931  0.1218  0.3168
  793MPD2    C111685   3.942   2.612  10.506  0.0663 -0.8471  0.2387
  793MPD2    C211686   4.033   2.616  10.609  0.2991  0.0079  0.1044
  793MPD2    C311687   4.035   2.520  10.705 -0.2605 -0.3615  0.8643
  793MPD2    C411688   3.943   2.417  10.706 -0.2195  0.5884  0.9250
  793MPD2    C511689   3.842   2.422  10.608  0.2421  0.0125 -0.8096
  793MPD2     H11690   4.109   2.692  10.597  0.0704  0.0848 -0.8103
  793MPD2    H111691   3.930   2.339  10.780  1.0808  0.8473  1.4272
  793MPD2    H211692   3.742   2.539  10.469  0.1171  2.2897  0.5237
  793MPD2    H311693   3.756   2.356  10.620 -0.3905  0.9133 -0.3728
  793MPD2     N11694   4.137   2.514  10.798  0.1462 -0.3411 -0.4902
  793MPD2    H511695   4.156   2.424  10.841 -0.9443  0.2146  1.2020
  793MPD2    N111696   3.934   2.728  10.427 -0.0437 -0.6412  0.3001
  793MPD2    H711697   4.007   2.798  10.429  0.7790 -1.4817 -0.0240
  794MPD2     C11698   3.823   2.842  17.490 -0.6300 -0.3394 -0.7336
  794MPD2    C111699   3.942   2.815  17.430 -0.0131 -0.6182  0.2145
  794MPD2    C211700   3.962   2.846  17.299 -0.7878 -0.4526  0.2852
  794MPD2    C311701   3.856   2.885  17.218 -0.9127 -0.1568  0.2758
  794MPD2    C411702   3.735   2.913  17.275 -0.9781 -0.7516  0.0950
  794MPD2    C511703   3.716   2.886  17.410  0.2658  0.2910 -0.1456
  794MPD2     H11704   4.058   2.825  17.254 -0.3116  2.1857  0.0896
  794MPD2    H111705   3.649   2.935  17.213 -0.0185  3.3966  0.2417
  794MPD2    H211706   3.808   2.830  17.597  2.8364  2.2740  0.0672
  794MPD2    H311707   3.615   2.888  17.449  0.2880  1.4153 -0.1679
  794MPD2     N11708   3.865   2.923  17.079 -0.4732  0.2152  0.4045
  794MPD2    H511709   3.782   2.967  17.041 -1.7158 -3.2736 -0.8630
  794MPD2    N111710   4.050   2.763  17.499 -0.1216  0.0413  0.5957
  794MPD2    H711711   4.135   2.759  17.445 -1.1446  2.1407 -1.1628
  795MPD2     C11712   2.329   0.037  13.641 -0.2492 -0.2866 -0.1445
  795MPD2    C111713   2.268   4.651  13.585  0.4044 -0.2752 -0.4122
  795MPD2    C211714   2.351   4.539  13.552 -0.3720  0.8021  0.2813
  795MPD2    C311715   2.487   4.539  13.587  0.1800 -0.1621 -0.0762
  795MPD2    C411716   2.537   4.656  13.640  0.0889 -0.4106 -1.2417
  795MPD2    C511717   2.454   0.035  13.678  0.0491  0.2707 -0.0394
  795MPD2     H11718   2.301   4.454  13.505 -0.3234  0.4174  0.9258
  795MPD2    H111719   2.638   4.662  13.677 -0.7217 -0.9758  1.0627
  795MPD2    H211720   2.264   0.117  13.674  0.6777  0.5608 -0.3943
  795MPD2    H311721   2.485   0.121  13.737 -0.2122  1.9089 -2.3045
  795MPD2     N11722   2.563   4.430  13.545 -0.1438  0.6607  0.0196
  795MPD2    H511723   2.513   4.353  13.503  0.2739  0.2062  0.3534
  795MPD2    N111724   2.133   4.633  13.551  0.1789  0.3359 -0.1523
  795MPD2    H711725   2.100   4.542  13.521 -2.7206  1.3343 -0.0049
  796MPD2     C11726   2.031   1.248  16.198  0.0673  0.0419 -0.5857
  796MPD2    C111727   2.079   1.338  16.293 -0.1139 -0.0428  0.0450
  796MPD2    C211728   2.089   1.475  16.255  0.6810 -0.3376 -1.2330
  796MPD2    C311729   2.029   1.522  16.137 -0.3408  0.1665 -0.1007
  796MPD2    C411730   1.997   1.428  16.044 -0.4236  0.1469  0.2333
  796MPD2    C511731   2.000   1.295  16.073  0.1645  0.1891 -0.3731
  796MPD2     H11732   2.121   1.544  16.332 -0.6154 -0.3869 -0.6442
  796MPD2    H111733   1.961   1.452  15.944  0.8296  0.6785 -0.0893
  796MPD2    H211734   2.024   1.141  16.216  0.1776  0.0820 -0.3082
  796MPD2    H311735   1.953   1.220  16.010  0.5206  0.8073 -1.3704
  796MPD2     N11736   2.017   1.662  16.110  0.1721 -0.1558 -0.5909
  796MPD2    H511737   2.044   1.712  16.194 -2.8293  0.2826  0.1130
  796MPD2    N111738   2.115   1.275  16.414  0.4216 -0.3749 -0.0685
  796MPD2    H711739   2.074   1.182  16.423  1.6447 -1.0881 -2.0182
  797MPD2     C11740   2.780   0.480   0.288 -0.8881 -0.3165  0.0855
  797MPD2    C111741   2.840   0.590   0.348 -0.1535 -0.2477  0.1423
  797MPD2    C211742   2.810   0.719   0.306  0.1751 -0.2454  0.0176
  797MPD2    C311743   2.711   0.732   0.211  0.0418 -0.1867  0.3038
  797MPD2    C411744   2.631   0.625   0.168  0.0922 -0.1469  0.1741
  797MPD2    C511745   2.673   0.499   0.203  0.0825  0.1365 -0.0376
  797MPD2     H11746   2.856   0.806   0.351 -0.6243  0.8396 -1.2526
  797MPD2    H111747   2.544   0.638   0.105  0.3005 -1.5570 -0.3888
  797MPD2    H211748   2.799   0.378   0.321  2.8155  0.8803  1.6888
  797MPD2    H311749   2.617   0.412   0.172 -1.1300  1.5347 -1.7530
  797MPD2     N11750   2.697   0.863   0.159  0.5606  0.4088  0.2368
  797MPD2    H511751   2.770   0.924   0.192  0.2858  1.3867 -0.9509
  797MPD2    N111752   2.952   0.584   0.431 -0.2557 -0.1482  0.3932
  797MPD2    H711753   2.986   0.674   0.463  2.6735 -1.8020  1.8251
  798MPD2     C11754   3.277   1.229   0.264 -0.2935  0.1178  0.1801
  798MPD2    C111755   3.166   1.144   0.263 -0.6786 -0.3245 -0.0029
  798MPD2    C211756   3.186   1.017   0.317  0.5111 -0.1792 -0.4275
  798MPD2    C311757   3.299   0.976   0.383 -0.1500 -1.0578 -0.4361
  798MPD2    C411758   3.411   1.053   0.374  0.2654 -0.3409 -0.1152
  798MPD2    C511759   3.400   1.179   0.319  0.5215 -0.1093 -0.0348
  798MPD2     H11760   3.104   0.947   0.323 -0.1968  0.7982  1.2966
  798MPD2    H111761   3.505   1.019   0.416  0.3633  0.0555 -0.0140
  798MPD2    H211762   3.274   1.330   0.226 -2.1794 -0.0975 -0.2619
  798MPD2    H311763   3.491   1.237   0.319  0.3995  0.0454 -3.5095
  798MPD2     N11764   3.296   0.844   0.432 -0.4161 -0.4403  0.7126
  798MPD2    H511765   3.207   0.796   0.426 -0.7462  0.4883 -1.9108
  798MPD2    N111766   3.048   1.195   0.202  0.3279  0.2852  0.4235
  798MPD2    H711767   3.053   1.292   0.173 -0.9236  0.5264  1.0060
  799MPD2     C11768   1.795   2.833  14.723  0.1231  0.0582  0.4225
  799MPD2    C111769   1.679   2.756  14.704 -0.0674  0.2132  0.7398
  799MPD2    C211770   1.576   2.795  14.613 -0.1789 -0.9367 -0.1533
  799MPD2    C311771   1.608   2.895  14.522 -0.1135  0.9944  1.2054
  799MPD2    C411772   1.721   2.973  14.548 -0.7993  0.2237  0.4395
  799MPD2    C511773   1.815   2.941  14.645  0.0565  0.1731 -0.3386
  799MPD2     H11774   1.482   2.741  14.622 -1.3244  1.0855  0.0124
  799MPD2    H111775   1.740   3.055  14.479  2.3887 -1.6222 -0.8552
  799MPD2    H211776   1.874   2.795  14.786 -0.3146 -2.1733 -0.3868
  799MPD2    H311777   1.902   3.002  14.663 -0.0205  0.6819 -1.6594
  799MPD2     N11778   1.522   2.936  14.423  0.8003  0.3368  0.1886
  799MPD2    H511779   1.542   3.021  14.372  1.3553 -0.5690 -1.1002
  799MPD2    N111780   1.653   2.635  14.780  0.6745  0.2868 -0.5336
  799MPD2    H711781   1.588   2.565  14.745  0.1168 -0.6557  2.4006
  800MPD2     C11782   2.158   3.733  13.952 -0.2159  0.4876  0.2760
  800MPD2    C111783   2.245   3.772  13.853  0.6521  0.4225  0.0951
  800MPD2    C211784   2.221   3.747  13.720  0.1632 -0.2533 -0.4071
  800MPD2    C311785   2.108   3.677  13.687 -0.3198 -0.5289  0.3199
  800MPD2    C411786   2.015   3.654  13.786  0.0056  0.1415 -0.5526
  800MPD2    C511787   2.040   3.679  13.913 -0.2722 -0.2400 -0.3289
  800MPD2     H11788   2.294   3.771  13.644 -0.9573 -0.1978 -1.4621
  800MPD2    H111789   1.919   3.613  13.756 -0.5757  1.1759 -0.1081
  800MPD2    H211790   2.180   3.750  14.056 -1.5756 -0.5746  0.7359
  800MPD2    H311791   1.957   3.673  13.983 -0.6139  0.1819 -0.6916
  800MPD2     N11792   2.072   3.664  13.549  0.2296  0.0569  0.1829
  800MPD2    H511793   2.143   3.698  13.486  2.9848  0.1316  3.3113
  800MPD2    N111794   2.363   3.844  13.899 -0.1800 -0.0105  0.1876
  800MPD2    H711795   2.361   3.884  13.992  0.4625  1.1886 -0.3247
  801MPD2     C11796   2.284   4.599  13.964 -0.2129 -0.5410 -0.2354
  801MPD2    C111797   2.379   4.534  14.039  0.2211  0.3793 -0.5647
  801MPD2    C211798   2.403   4.588  14.165 -0.0773 -0.5603 -0.4385
  801MPD2    C311799   2.353   4.702  14.220  0.0286 -0.1525  0.0347
  801MPD2    C411800   2.276   0.054  14.135  0.3790 -0.4691 -1.0695
  801MPD2    C511801   2.239   0.001  14.014 -0.4505  0.2383 -0.0851
  801MPD2     H11802   2.473   4.534  14.228 -0.9814 -0.7295  0.4183
  801MPD2    H111803   2.244   0.153  14.168  0.0066 -0.8734 -0.1992
  801MPD2    H211804   2.244   4.559  13.872 -1.2472  0.1620 -0.0852
  801MPD2    H311805   2.186   0.055  13.937  0.5344 -1.4470 -1.9595
  801MPD2     N11806   2.397   0.043  14.340  0.4241 -0.1800 -0.4256
  801MPD2    H511807   2.376   0.141  14.358 -0.8655 -0.1411 -2.1037
  801MPD2    N111808   2.437   4.415  14.002  0.5051 -0.5215 -0.6085
  801MPD2    H711809   2.511   4.384  14.063 -0.0012 -1.0998 -0.2893
  802MPD2     C11810   1.232   4.361   0.533  0.4897 -0.1299 -0.6396
  802MPD2    C111811   1.184   4.328   0.409  0.0285  0.5543  0.2341
  802MPD2    C211812   1.206   4.208   0.360  0.2297 -0.2368  0.1575
  802MPD2    C311813   1.279   4.111   0.430 -0.2323 -0.1609  0.3903
  802MPD2    C411814   1.322   4.145   0.556 -0.2952  0.0815 -0.0092
  802MPD2    C511815   1.289   4.269   0.614 -0.0341  0.5451 -0.1175
  802MPD2     H11816   1.169   4.187   0.261  1.8693  0.1384 -0.5415
  802MPD2    H111817   1.386   4.083   0.618 -1.5335  1.3339  2.5380
  802MPD2    H211818   1.207   4.454   0.584  0.9129  0.3048 -1.2270
  802MPD2    H311819   1.316   4.289   0.717 -1.5793 -1.5907  0.7027
  802MPD2     N11820   1.320   3.999   0.359 -0.4955  0.0803  0.3137
  802MPD2    H511821   1.287   3.985   0.264  0.2806 -1.4505  0.2689
  802MPD2    N111822   1.111   4.419   0.329  0.6223  0.1675  0.0221
  802MPD2    H711823   1.095   4.395   0.232 -2.2921  1.4004  0.2009
  803MPD2     C11824   2.410   3.319  11.661  0.1719 -0.5412 -0.2011
  803MPD2    C111825   2.509   3.300  11.764 -0.0269 -1.0370 -0.1267
  803MPD2    C211826   2.476   3.204  11.862 -0.5300 -0.7530 -0.6393
  803MPD2    C311827   2.365   3.122  11.858  0.7911 -0.2690  0.1477
  803MPD2    C411828   2.270   3.151  11.764 -0.3991  0.4110  0.6360
  803MPD2    C511829   2.292   3.249  11.668  0.7731 -0.0044  0.2160
  803MPD2     H11830   2.553   3.187  11.937 -0.3422  1.5514 -0.2996
  803MPD2    H111831   2.185   3.087  11.743 -1.6459  1.3688  2.7351
  803MPD2    H211832   2.414   3.392  11.581 -0.5376 -1.0435 -0.7005
  803MPD2    H311833   2.209   3.259  11.598  1.5993 -2.3745 -1.1018
  803MPD2     N11834   2.344   3.009  11.938  0.3139 -0.0753  0.3887
  803MPD2    H511835   2.258   2.956  11.934  0.0920  0.2935  0.2779
  803MPD2    N111836   2.624   3.382  11.780 -0.6139 -0.5495 -0.0165
  803MPD2    H711837   2.691   3.355  11.852 -0.0029  0.3739 -0.2438
  804MPD2     C11838   2.177   4.421  16.957  0.7549  0.2726 -0.1962
  804MPD2    C111839   2.204   4.389  17.082  0.1827 -0.4857  0.0942
  804MPD2    C211840   2.280   4.475  17.157 -0.7407  0.1039 -0.0879
  804MPD2    C311841   2.339   4.585  17.097  0.5011  0.1277  0.7386
  804MPD2    C411842   2.312   4.626  16.970  0.5263  0.5942  0.1218
  804MPD2    C511843   2.225   4.539  16.906 -0.9007  0.4236  0.2693
  804MPD2     H11844   2.297   4.457  17.263 -1.4408 -0.5771 -0.0897
  804MPD2    H111845   2.343   0.002  16.931  1.7995 -0.6424 -1.8581
  804MPD2    H211846   2.109   4.363  16.895 -2.9039  0.8387  3.2651
  804MPD2    H311847   2.207   4.560  16.801 -0.7996 -1.2862 -0.0877
  804MPD2     N11848   2.434   4.651  17.181 -0.6529 -0.2414 -0.3242
  804MPD2    H511849   2.437   4.623  17.278  0.8197 -0.8433 -0.5382
  804MPD2    N111850   2.153   4.268  17.146 -0.1412  0.2711  0.1463
  804MPD2    H711851   2.188   4.252  17.239  0.2041  1.0026  0.1447
  805MPD2     C11852   1.574   2.615  16.008  0.1793 -0.3747 -0.6996
  805MPD2    C111853   1.628   2.656  15.888 -0.1340  0.0666  0.5415
  805MPD2    C211854   1.761   2.685  15.876 -0.7092  0.3706 -0.1204
  805MPD2    C311855   1.843   2.673  15.990 -0.0888 -0.1399 -0.2670
  805MPD2    C411856   1.794   2.619  16.103 -0.6035  0.3758  0.0783
  805MPD2    C511857   1.658   2.593  16.108 -0.8286  0.0497  0.1014
  805MPD2     H11858   1.809   2.727  15.788 -0.3003  2.1520  0.9503
  805MPD2    H111859   1.846   2.606  16.197 -1.0091  0.6177  0.3341
  805MPD2    H211860   1.472   2.580  16.021  0.4621 -0.5962  0.9343
  805MPD2    H311861   1.616   2.544  16.195 -0.6576  0.1858  0.2618
  805MPD2     N11862   1.979   2.709  15.983 -0.1869  0.1807  0.0797
  805MPD2    H511863   2.011   2.749  15.895 -1.1544  1.8290  0.4778
  805MPD2    N111864   1.549   2.666  15.766 -0.2128  0.2168 -0.3459
  805MPD2    H711865   1.604   2.700  15.688  0.8921  1.1303  0.8313
  806MPD2     C11866   2.412   2.417   1.533  0.7535 -0.5084 -0.0928
  806MPD2    C111867   2.456   2.342   1.426  0.3890  0.5370  0.2408
  806MPD2    C211868   2.399   2.364   1.301  0.6050  0.1550 -0.3047
  806MPD2    C311869   2.294   2.447   1.290 -0.1872  0.5313 -0.0933
  806MPD2    C411870   2.247   2.515   1.398  0.0260 -0.6916 -0.3080
  806MPD2    C511871   2.309   2.503   1.519  0.0984 -0.8991 -0.0852
  806MPD2     H11872   2.435   2.310   1.214  1.0799  0.4397 -0.2871
  806MPD2    H111873   2.161   2.581   1.401  2.8700  3.0319 -0.7681
  806MPD2    H211874   2.452   2.411   1.634 -0.5464  0.8111  0.5025
  806MPD2    H311875   2.268   2.563   1.600  1.0848  0.0694 -0.3091
  806MPD2     N11876   2.232   2.451   1.161  0.4483 -0.0609  0.0253
  806MPD2    H511877   2.270   2.395   1.086  1.3576 -0.9800  1.1697
  806MPD2    N111878   2.570   2.257   1.456  0.3992  0.6666 -0.3157
  806MPD2    H711879   2.604   2.257   1.552 -0.8653  2.8855  0.1290
  807MPD2     C11880   2.824   1.773   1.971 -0.2596 -0.6381 -1.3607
  807MPD2    C111881   2.721   1.827   1.893  0.0903 -0.5327 -0.2657
  807MPD2    C211882   2.589   1.798   1.919 -0.6063  1.0639  0.4943
  807MPD2    C311883   2.555   1.721   2.028  0.0240 -0.1416 -0.8169
  807MPD2    C411884   2.658   1.668   2.106 -0.0145  0.5075  0.1071
  807MPD2    C511885   2.789   1.692   2.074  0.4661  0.0638  0.4988
  807MPD2     H11886   2.518   1.840   1.849 -1.2059 -1.2925 -0.3171
  807MPD2    H111887   2.650   1.615   2.201 -2.5877  2.2778  0.8694
  807MPD2    H211888   2.929   1.787   1.950 -0.7830  1.7788 -2.4256
  807MPD2    H311889   2.872   1.647   2.126  1.6959  1.7627  0.0187
  807MPD2     N11890   2.413   1.694   2.047 -0.0133 -0.2732  0.0877
  807MPD2    H511891   2.348   1.705   1.970 -1.5032 -1.2646  1.1987
  807MPD2    N111892   2.745   1.907   1.778  0.1372  0.0051 -0.4186
  807MPD2    H711893   2.662   1.933   1.726 -0.0602  0.0270 -0.0946
  808MPD2     C11894   1.648   3.871   9.411  0.6275  0.3203 -0.5451
  808MPD2    C111895   1.727   3.849   9.525  0.4456  0.3449 -0.2774
  808MPD2    C211896   1.799   3.954   9.572  0.8434 -0.1214  0.1237
  808MPD2    C311897   1.812   4.075   9.505 -0.1429 -0.2352  0.4856
  808MPD2    C411898   1.742   4.086   9.381  0.2071  0.4613 -0.4384
  808MPD2    C511899   1.657   3.990   9.342 -0.3005  0.2274 -0.3655
  808MPD2     H11900   1.843   3.940   9.670  1.6285  3.0400  0.2095
  808MPD2    H111901   1.731   4.183   9.333 -1.5328  1.0608  1.1904
  808MPD2    H211902   1.570   3.800   9.384  0.1238 -0.1882  2.2206
  808MPD2    H311903   1.597   4.009   9.254  1.4828  0.8760 -1.4338
  808MPD2     N11904   1.892   4.183   9.550 -0.1554  0.0227 -0.2826
  808MPD2    H511905   1.906   4.262   9.487 -0.5476 -0.6266 -1.1894
  808MPD2    N111906   1.731   3.726   9.601  0.3832  0.0597  0.2435
  808MPD2    H711907   1.803   3.722   9.673 -0.4869  1.5123  1.2032
  809MPD2     C11908   2.805   4.513   9.493 -0.8708  0.1932 -0.4659
  809MPD2    C111909   2.724   4.423   9.424  0.3465 -0.4954 -0.6370
  809MPD2    C211910   2.586   4.436   9.434  0.3577  0.1100 -0.4397
  809MPD2    C311911   2.521   4.539   9.508 -0.6909 -0.2316  0.0345
  809MPD2    C411912   2.604   4.634   9.555  0.2179  0.4614 -0.4925
  809MPD2    C511913   2.740   4.624   9.544  0.0512  0.1434  0.8101
  809MPD2     H11914   2.519   4.355   9.410 -2.1256  0.8951  3.8469
  809MPD2    H111915   2.568   0.006   9.599  0.2993 -0.8156  2.2327
  809MPD2    H211916   2.913   4.512   9.501 -0.6421  0.4045 -3.3484
  809MPD2    H311917   2.798   4.704   9.588  1.3892 -1.2862  1.6398
  809MPD2     N11918   2.384   4.546   9.550  0.1368  0.0655  0.3265
  809MPD2    H511919   2.360   4.631   9.600 -0.1159  0.0508  0.2322
  809MPD2    N111920   2.776   4.307   9.358  0.5029 -0.1205  0.1461
  809MPD2    H711921   2.711   4.246   9.309  1.2165  0.7379 -1.8931
  810MPD2     C11922   1.444   3.287  10.566 -0.0160 -0.3630 -0.5045
  810MPD2    C111923   1.338   3.209  10.582  0.1394 -1.1322 -0.0452
  810MPD2    C211924   1.331   3.150  10.708  0.5561 -0.4602 -0.5464
  810MPD2    C311925   1.418   3.172  10.810 -0.4864 -0.3335 -0.0627
  810MPD2    C411926   1.529   3.249  10.789  0.0026 -0.6696 -0.2200
  810MPD2    C511927   1.543   3.305  10.661 -0.3215  0.3267 -0.1384
  810MPD2     H11928   1.255   3.075  10.721 -1.1198  1.6873  1.9958
  810MPD2    H111929   1.598   3.272  10.869 -1.4372 -0.4449  0.9421
  810MPD2    H211930   1.465   3.328  10.468 -1.4895  0.4273 -0.4934
  810MPD2    H311931   1.640   3.345  10.633  0.6942 -1.4456  0.8685
  810MPD2     N11932   1.391   3.102  10.934 -0.4452  1.1505 -0.1413
  810MPD2    H511933   1.309   3.043  10.920 -0.1944  0.2162  2.3106
  810MPD2    N111934   1.234   3.196  10.487 -0.2324 -0.5064 -0.3636
  810MPD2    H711935   1.256   3.226  10.393 -3.4800  0.7896 -0.7265
  811MPD2     C11936   0.584   3.401   9.942 -0.5007  0.3988 -0.3519
  811MPD2    C111937   0.706   3.418  10.005  0.0659  0.4258  0.8282
  811MPD2    C211938   0.766   3.546  10.002 -0.0768 -0.2351 -0.1168
  811MPD2    C311939   0.705   3.651   9.928 -0.3076 -0.4337 -0.0659
  811MPD2    C411940   0.579   3.631   9.878 -0.2452 -0.4131 -0.4899
  811MPD2    C511941   0.520   3.505   9.878 -0.2376  0.3162 -0.3565
  811MPD2     H11942   0.862   3.574  10.044 -2.1233  3.6672  2.0551
  811MPD2    H111943   0.514   3.706   9.835 -0.0303  0.3285  0.4823
  811MPD2    H211944   0.545   3.300   9.939  1.4578 -0.4069  1.7827
  811MPD2    H311945   0.417   3.493   9.846 -0.3904 -2.5011  1.2227
  811MPD2     N11946   0.771   3.772   9.926 -0.3379  0.8248 -0.0425
  811MPD2    H511947   0.850   3.783   9.988 -0.4801 -2.3566  0.7150
  811MPD2    N111948   0.772   3.306  10.066  0.1497  0.3771 -0.0334
  811MPD2    H711949   0.713   3.223  10.067  1.0291 -0.3031 -3.0020
  812MPD2     C11950   0.546   2.960  12.066 -0.6079 -0.0951  0.0905
  812MPD2    C111951   0.491   3.013  12.184  0.9254 -0.4142  0.1371
  812MPD2    C211952   0.520   2.954  12.303 -0.2589  0.3189  0.4140
  812MPD2    C311953   0.603   2.838  12.298 -0.4334 -0.2884  0.1231
  812MPD2    C411954   0.641   2.779  12.175  0.2781 -0.2939 -0.4742
  812MPD2    C511955   0.624   2.854  12.064  0.3171  0.0938  0.1099
  812MPD2     H11956   0.475   2.974  12.400 -3.5234  0.3858 -1.1159
  812MPD2    H111957   0.709   2.695  12.168  1.7622  0.7058  1.7846
  812MPD2    H211958   0.521   2.999  11.968  1.3041  1.5557  0.2630
  812MPD2    H311959   0.657   2.821  11.966 -1.8764  1.3643 -1.0463
  812MPD2     N11960   0.653   2.788  12.422 -0.0629  0.3140  0.2046
  812MPD2    H511961   0.608   2.814  12.509 -2.3747 -1.7024 -0.3872
  812MPD2    N111962   0.402   3.128  12.160 -0.0048  0.1406 -0.0376
  812MPD2    H711963   0.386   3.140  12.060 -0.2616  2.7070  0.3078
  813MPD2     C11964   4.074   0.620  12.744 -0.4544  1.2204  0.0547
  813MPD2    C111965   4.160   0.557  12.835  0.1974 -0.2721 -0.3655
  813MPD2    C211966   4.114   0.482  12.939  0.4117 -0.7291 -0.6462
  813MPD2    C311967   3.984   0.475  12.966  0.4787  0.2103 -0.2538
  813MPD2    C411968   3.895   0.541  12.878 -0.0795  0.2794 -0.2996
  813MPD2    C511969   3.943   0.606  12.772  0.2303 -0.0791 -0.5103
  813MPD2     H11970   4.186   0.439  13.008 -0.6928  0.4755  1.2585
  813MPD2    H111971   3.788   0.552  12.891 -0.3309 -0.0744 -2.0198
  813MPD2    H211972   4.106   0.673  12.656 -3.1144  1.0405 -1.0254
  813MPD2    H311973   3.881   0.662  12.703  3.2624 -0.1159 -3.2830
  813MPD2     N11974   3.931   0.411  13.080  0.2827  0.2456 -0.6961
  813MPD2    H511975   3.998   0.369  13.144  0.2630  1.6659  0.2524
  813MPD2    N111976   4.299   0.567  12.794  0.4642  0.6723  0.6066
  813MPD2    H711977   4.322   0.634  12.721 -2.0848  1.2500  0.3449
  814MPD2     C11978   0.111   1.305  12.164  0.2965 -0.0678 -0.0214
  814MPD2    C111979   0.112   1.386  12.054  0.2199  0.7113 -0.4863
  814MPD2    C211980   0.154   1.519  12.080  0.7020  0.2207 -0.3084
  814MPD2    C311981   0.187   1.567  12.201  0.1024  0.0692 -0.1544
  814MPD2    C411982   0.187   1.479  12.306 -0.4599 -0.6421 -0.4009
  814MPD2    C511983   0.160   1.347  12.283  0.6153  0.2276  1.1964
  814MPD2     H11984   0.147   1.596  12.004 -0.9536 -0.8881 -1.2865
  814MPD2    H111985   0.216   1.516  12.404 -2.7343 -1.8527  0.7319
  814MPD2    H211986   0.073   1.204  12.150  0.5495  0.1281 -2.0085
  814MPD2    H311987   0.178   1.274  12.362 -2.2256 -1.6002  0.1632
  814MPD2     N11988   0.242   1.695  12.229  0.5386  0.1556 -0.3348
  814MPD2    H511989   0.269   1.713  12.325 -4.6527 -1.0515  1.3038
  814MPD2    N111990   0.058   1.352  11.926 -0.5325  0.3483 -0.2111
  814MPD2    H711991   0.050   1.430  11.861  0.1107  0.8944  0.3626
  815MPD2     C11992   0.730   4.287  12.387 -0.6447 -0.1598  0.3871
  815MPD2    C111993   0.678   4.330  12.267  0.8335  0.3501  0.2954
  815MPD2    C211994   0.597   4.445  12.263 -0.0261  0.0496  0.6638
  815MPD2    C311995   0.552   4.504  12.380 -0.2260  0.5048  0.0304
  815MPD2    C411996   0.596   4.444  12.500  0.1548 -0.0227  0.8364
  815MPD2    C511997   0.685   4.345  12.498  0.2801  0.5268 -0.6958
  815MPD2     H11998   0.580   4.500  12.171  1.5178 -0.3560  0.1459
  815MPD2    H111999   0.563   4.496  12.589 -4.1157 -0.9821 -0.1465
  815MPD2    H212000   0.803   4.207  12.386  1.3465  1.6543  1.1189
  815MPD2    H312001   0.732   4.313  12.590  2.0384 -1.2155 -2.2000
  815MPD2     N12002   0.459   4.615  12.377  0.2750 -0.3720  0.0977
  815MPD2    H512003   0.437   4.647  12.283 -0.3828 -3.3956 -0.7606
  815MPD2    N112004   0.727   4.283  12.138 -0.1057  0.4617 -0.0851
  815MPD2    H712005   0.675   4.318  12.058 -2.1208 -0.4191  0.8219
  816MPD2     C12006   1.340   3.632  17.645 -0.3053  0.6472 -0.5653
  816MPD2    C112007   1.332   3.714  17.541 -0.2290  0.3241  0.6117
  816MPD2    C212008   1.414   3.685  17.431 -0.1952 -0.1184 -0.7240
  816MPD2    C312009   1.488   3.572  17.428 -0.1827 -0.8491 -0.3272
  816MPD2    C412010   1.490   3.489  17.540  0.0470 -0.2528 -0.0836
  816MPD2    C512011   1.420   3.524  17.649  0.1089  0.8265 -0.7071
  816MPD2     H12012   1.429   3.756  17.351 -0.3132  0.6797 -0.0391
  816MPD2    H112013   1.563   3.409  17.542  0.7673  0.3425 -2.4966
  816MPD2    H212014   1.290   3.661   0.053  0.4889 -2.5468  0.8583
  816MPD2    H312015   1.424   3.471   0.059  0.6407  1.9138 -0.1183
  816MPD2     N12016   1.556   3.552  17.302  0.2321  0.7816  0.0086
  816MPD2    H512017   1.542   3.620  17.229 -1.0074  0.8173  0.2771
  816MPD2    N112018   1.254   3.831  17.558 -0.0045 -0.1692  0.3192
  816MPD2    H712019   1.226   3.853  17.653 -0.6094  4.6751 -0.9682
  817MPD2     C12020   4.604   0.564   9.994 -0.3731 -0.0564  0.5054
  817MPD2    C112021   4.663   0.560   9.871 -0.3523 -0.9178 -0.6126
  817MPD2    C212022   4.597   0.612   9.764 -0.0922  0.2968 -0.6011
  817MPD2    C312023   4.467   0.650   9.768 -0.6266  0.3303 -0.5924
  817MPD2    C412024   4.410   0.661   9.898  0.0285 -0.0122 -0.0804
  817MPD2    C512025   4.479   0.622  10.009 -0.1592 -0.4286 -0.7404
  817MPD2     H12026   4.654   0.618   9.672 -0.3854  0.1037 -0.7970
  817MPD2    H112027   4.310   0.698   9.916  0.5489  1.6930 -0.6933
  817MPD2    H212028   4.648   0.519  10.082 -0.4650  0.2147  0.6873
  817MPD2    H312029   4.426   0.630  10.104  0.0188  0.4736 -0.7253
  817MPD2     N12030   4.401   0.688   9.647 -0.3747  0.9111  0.0696
  817MPD2    H512031   4.454   0.673   9.562  0.1420  0.8245  0.4027
  817MPD2    N112032   0.074   0.509   9.850  0.8984  1.3709  0.0408
  817MPD2    H712033   0.117   0.514   9.758 -0.7316 -0.9781 -0.8545
  818MPD2     C12034   3.572   0.486   9.850  1.0729 -0.1923  0.3669
  818MPD2    C112035   3.557   0.431   9.971 -0.1823 -0.3312  0.1852
  818MPD2    C212036   3.517   0.299   9.980 -0.3390  0.2816 -0.2892
  818MPD2    C312037   3.481   0.230   9.863  0.4744 -0.0446 -0.4362
  818MPD2    C412038   3.487   0.290   9.744 -0.6955  0.5531 -0.4453
  818MPD2    C512039   3.524   0.422   9.738 -0.2552  0.2102  0.5316
  818MPD2     H12040   3.497   0.253  10.076 -1.3958  0.1288 -0.5866
  818MPD2    H112041   3.464   0.240   9.651  0.6522 -2.2984  0.7603
  818MPD2    H212042   3.623   0.582   9.851 -0.2829  0.5271  0.5619
  818MPD2    H312043   3.536   0.463   9.638  1.4392 -0.8837  0.2922
  818MPD2     N12044   3.444   0.092   9.864  0.2860 -0.3722  0.6214
  818MPD2    H512045   3.425   0.051   9.773  0.5609 -1.2910  0.9887
  818MPD2    N112046   3.617   0.491  10.079 -0.1681  0.0929 -0.3982
  818MPD2    H712047   3.610   0.592  10.082  1.2177  0.2589 -2.8651
  819MPD2     C12048   2.069   2.320  15.755 -0.4062 -0.5106  0.1224
  819MPD2    C112049   2.158   2.223  15.727 -0.0075 -0.1821 -0.1777
  819MPD2    C212050   2.275   2.210  15.800  0.1227  0.5505 -0.0272
  819MPD2    C312051   2.298   2.304  15.898  0.3284 -0.6529 -0.1650
  819MPD2    C412052   2.212   2.407  15.922 -1.1398 -0.5568 -0.6504
  819MPD2    C512053   2.097   2.418  15.844  0.4242 -0.2982 -0.2735
  819MPD2     H12054   2.347   2.132  15.776  1.4970  0.6387  3.7981
  819MPD2    H112055   2.226   2.478  16.003 -1.9546 -2.5753  1.2769
  819MPD2    H212056   1.974   2.332  15.703 -1.7202  0.7816  2.8114
  819MPD2    H312057   2.025   2.498  15.859  0.2007  0.0349 -3.1632
  819MPD2     N12058   2.423   2.287  15.965  0.5976 -0.4900 -0.2043
  819MPD2    H512059   2.487   2.216  15.931 -0.9679 -2.5434  1.1254
  819MPD2    N112060   2.118   2.136  15.621 -0.7966 -0.1719  0.0690
  819MPD2    H712061   2.027   2.157  15.580 -1.3777 -1.0402  0.9190
  820MPD2     C12062   1.364   2.193  15.154 -0.5873  0.1718 -0.5402
  820MPD2    C112063   1.465   2.275  15.206  0.1778  0.7173  0.4236
  820MPD2    C212064   1.586   2.216  15.233  0.3610 -0.6763  0.5675
  820MPD2    C312065   1.615   2.085  15.205  0.3047  0.1710 -1.0245
  820MPD2    C412066   1.518   2.014  15.142 -0.8966 -0.1253 -0.1277
  820MPD2    C512067   1.395   2.062  15.125  0.8861 -0.1788 -0.8052
  820MPD2     H12068   1.671   2.273  15.269 -0.6085  0.6852  0.7044
  820MPD2    H112069   1.545   1.916  15.104  2.8548  0.7960  0.1259
  820MPD2    H212070   1.269   2.233  15.120 -1.1665 -2.6859 -2.2915
  820MPD2    H312071   1.315   2.001  15.086  0.1761 -0.5715  1.2662
  820MPD2     N12072   1.743   2.024  15.229  0.4185  0.0851  0.4849
  820MPD2    H512073   1.747   1.926  15.201 -0.8041 -0.6004  2.7216
  820MPD2    N112074   1.427   2.406  15.241 -0.3348  0.0013  1.0249
  820MPD2    H712075   1.330   2.430  15.227 -0.5961 -0.1616  2.4951
  821MPD2     C12076   1.620   3.933  12.955  0.6685 -0.1823  0.1212
  821MPD2    C112077   1.758   3.933  12.970 -0.7065  0.8028 -0.2625
  821MPD2    C212078   1.830   4.047  12.945 -0.6813  0.0887  0.1458
  821MPD2    C312079   1.765   4.156  12.882  0.4727 -0.1452 -0.0388
  821MPD2    C412080   1.629   4.154  12.867 -0.8691 -0.8561 -0.0924
  821MPD2    C512081   1.559   4.046  12.913  0.2798  0.2161  0.4505
  821MPD2     H12082   1.936   4.035  12.962  0.1243  0.6273 -4.4205
  821MPD2    H112083   1.571   4.239  12.834  2.3386  0.8248 -1.3660
  821MPD2    H212084   1.548   3.859  12.987 -1.5956  1.2237 -1.7052
  821MPD2    H312085   1.451   4.052  12.912  0.1955 -1.4998 -0.5511
  821MPD2     N12086   1.836   4.277  12.851  0.0351 -0.1683 -0.7442
  821MPD2    H512087   1.785   4.349  12.800 -0.4967 -1.3212 -1.8556
  821MPD2    N112088   1.829   3.827  13.029 -0.3762 -0.0355  0.4922
  821MPD2    H712089   1.930   3.825  13.022 -0.3714 -1.6105  1.0995
  822MPD2     C12090   3.176   3.801  15.796  0.5924 -0.0687  0.3377
  822MPD2    C112091   3.167   3.749  15.921  0.6413  0.1774  0.2451
  822MPD2    C212092   3.110   3.826  16.018 -0.4748 -0.1640 -0.0102
  822MPD2    C312093   3.056   3.955  15.996 -0.3772 -0.3251 -0.5322
  822MPD2    C412094   3.062   3.999  15.868  0.0856 -0.3984 -0.2300
  822MPD2    C512095   3.119   3.925  15.765 -0.3512 -0.0863  0.0857
  822MPD2     H12096   3.119   3.787  16.119  1.7003 -1.2432 -0.6268
  822MPD2    H112097   3.009   4.091  15.845  0.6294  0.3432  1.4738
  822MPD2    H212098   3.222   3.753  15.710 -0.2119 -1.2808  0.5869
  822MPD2    H312099   3.128   3.960  15.663 -1.3416  2.4058  0.8438
  822MPD2     N12100   3.011   4.026  16.114  0.1143 -0.2200  0.2025
  822MPD2    H512101   3.018   3.978  16.203 -1.8878  0.6300  0.8086
  822MPD2    N112102   3.218   3.618  15.954 -0.0488 -0.0094 -0.3851
  822MPD2    H712103   3.215   3.581  16.049  2.6004  0.8167  0.0251
  823MPD2     C12104   2.750   4.036  16.923 -0.2049  0.0427  0.0446
  823MPD2    C112105   2.781   3.965  16.808  0.4716  0.4267 -0.0958
  823MPD2    C212106   2.781   3.825  16.809 -0.2735  0.2038  0.1168
  823MPD2    C312107   2.739   3.753  16.919 -0.4866 -0.4484 -0.0235
  823MPD2    C412108   2.700   3.828  17.029  0.1078 -0.4187 -0.8371
  823MPD2    C512109   2.718   3.963  17.031  0.3568  0.7410  0.7813
  823MPD2     H12110   2.802   3.773  16.716 -0.7534  3.3957 -1.7901
  823MPD2    H112111   2.659   3.786  17.120  0.3710  0.7425 -0.1854
  823MPD2    H212112   2.749   4.144  16.924 -1.7733  0.0332 -0.8842
  823MPD2    H312113   2.697   4.018  17.122  0.7139  0.2203  1.1773
  823MPD2     N12114   2.742   3.613  16.933  0.2502 -0.6152  0.0780
  823MPD2    H512115   2.700   3.571  17.014  1.2068 -0.8389  0.4595
  823MPD2    N112116   2.810   4.047  16.698 -0.3643 -0.5861  0.0025
  823MPD2    H712117   2.831   4.143  16.722 -0.9283 -0.6766  0.8565
  824MPD2     C12118   3.365   2.818  15.657 -0.6088 -0.5349  0.7607
  824MPD2    C112119   3.432   2.938  15.670  0.3388  0.3902 -0.3052
  824MPD2    C212120   3.557   2.949  15.614  0.1050  0.3289  0.9311
  824MPD2    C312121   3.614   2.846  15.544 -0.0157  0.0236 -1.2691
  824MPD2    C412122   3.542   2.729  15.524  0.8062  0.4286  0.5734
  824MPD2    C512123   3.418   2.717  15.581 -0.3237  0.1824  0.2483
  824MPD2     H12124   3.618   3.038  15.621  0.8954 -0.1509  0.1463
  824MPD2    H112125   3.577   2.638  15.476 -1.7974 -0.2118 -0.1291
  824MPD2    H212126   3.271   2.790  15.703 -1.9524  3.7179  0.5460
  824MPD2    H312127   3.370   2.620  15.581 -0.1049  0.0816 -0.7097
  824MPD2     N12128   3.750   2.850  15.510  0.0001 -0.3860  0.2664
  824MPD2    H512129   3.810   2.919  15.555  0.0329 -1.2693  1.6000
  824MPD2    N112130   3.382   3.048  15.745 -0.1521  0.1287 -0.2497
  824MPD2    H712131   3.441   3.129  15.763  0.8953 -0.5789 -0.5055
  825MPD2     C12132   4.426   3.020  15.039 -0.0097  0.5731 -0.2369
  825MPD2    C112133   4.353   3.069  15.142  0.3437  0.1086  0.6497
  825MPD2    C212134   4.347   3.206  15.162 -0.8147  0.3780 -0.4351
  825MPD2    C312135   4.398   3.295  15.067 -0.2363  1.0894  0.0360
  825MPD2    C412136   4.466   3.242  14.965 -0.0072 -0.2705 -0.0602
  825MPD2    C512137   4.472   3.110  14.950  0.1199 -0.3343  0.0175
  825MPD2     H12138   4.279   3.239  15.239 -1.3099  1.9540 -1.5529
  825MPD2    H112139   4.523   3.305  14.897  0.1556  0.2618  0.5705
  825MPD2    H212140   4.414   2.914  15.019 -0.4746  0.2911  1.5332
  825MPD2    H312141   4.511   3.073  14.856  4.0796  0.2435  1.4399
  825MPD2     N12142   4.400   3.435  15.079 -0.6722  0.5591 -0.5899
  825MPD2    H512143   4.425   3.489  14.996 -0.1188  0.2037 -0.6538
  825MPD2    N112144   4.279   2.978  15.219 -0.1526  0.4399 -0.7056
  825MPD2    H712145   4.289   2.878  15.203 -3.1541  0.1723 -0.9339
  826MPD2     C12146   3.675   3.043  13.390 -0.2631  0.7060 -0.9411
  826MPD2    C112147   3.582   2.987  13.301 -0.0875 -0.2227  0.1478
  826MPD2    C212148   3.479   3.065  13.261 -0.0926  0.0890  0.3272
  826MPD2    C312149   3.475   3.203  13.299 -0.4936 -0.5452 -0.0466
  826MPD2    C412150   3.570   3.255  13.379 -0.6792  0.6296 -0.3043
  826MPD2    C512151   3.672   3.176  13.423 -0.2756 -0.5509  0.0419
  826MPD2     H12152   3.409   3.031  13.186  0.5676  1.3804 -0.8790
  826MPD2    H112153   3.564   3.350  13.429  1.8505  0.5910  0.0925
  826MPD2    H212154   3.751   2.974  13.425 -1.4815 -0.4013 -0.4959
  826MPD2    H312155   3.739   3.215  13.498 -1.4615 -0.8338  1.2419
  826MPD2     N12156   3.364   3.288  13.268 -0.2052  0.4248 -0.2984
  826MPD2    H512157   3.361   3.383  13.304  1.5015  0.0729  0.7753
  826MPD2    N112158   3.611   2.858  13.254  0.4151  0.6151 -1.2084
  826MPD2    H712159   3.700   2.820  13.285 -1.0873  0.9653  3.4677
  827MPD2     C12160   4.203   4.529   9.880 -0.6197 -0.1768  0.0510
  827MPD2    C112161   4.196   4.395   9.919 -0.0524  0.6431  0.2455
  827MPD2    C212162   4.139   4.308   9.828  0.7391  0.0561  0.4223
  827MPD2    C312163   4.069   4.351   9.720  0.1588  0.1546 -0.0101
  827MPD2    C412164   4.068   4.483   9.689  0.5693  0.0580  0.3505
  827MPD2    C512165   4.131   4.569   9.767 -0.0458  0.1368  0.6827
  827MPD2     H12166   4.137   4.202   9.846  0.0185 -0.2789 -1.6270
  827MPD2    H112167   4.027   4.522   9.596  1.2675  0.7199  0.3237
  827MPD2    H212168   4.269   4.594   9.936 -0.8042 -1.2849  1.5575
  827MPD2    H312169   4.125   4.674   9.738 -1.6117 -0.0606  0.3307
  827MPD2     N12170   3.993   4.255   9.648  0.0817  0.0018 -0.5617
  827MPD2    H512171   3.999   4.164   9.694  2.1539  0.2367 -0.3568
  827MPD2    N112172   4.271   4.350  10.030 -0.6679 -0.3248 -0.7181
  827MPD2    H712173   4.325   4.421  10.079 -1.5419  0.3311 -0.7002
  828MPD2     C12174   2.875   3.927  12.832  0.6489 -0.6207 -0.3045
  828MPD2    C112175   2.870   3.947  12.696  0.2975 -0.0981 -0.0434
  828MPD2    C212176   2.979   3.928  12.617  0.1033  0.0057 -1.0113
  828MPD2    C312177   3.097   3.891  12.678 -0.5053  0.0435  0.6827
  828MPD2    C412178   3.109   3.873  12.810 -0.1306  0.3662 -0.1619
  828MPD2    C512179   2.997   3.888  12.891 -0.5272 -0.2736 -0.0976
  828MPD2     H12180   2.960   3.947  12.512 -1.6732  1.8819 -0.3506
  828MPD2    H112181   3.202   3.835  12.851 -0.4290 -1.3228 -1.0369
  828MPD2    H212182   2.794   3.944  12.902  0.9830 -1.4931  0.2951
  828MPD2    H312183   3.005   3.872  12.998  0.6290 -0.1602 -0.1611
  828MPD2     N12184   3.210   3.859  12.592  0.0097 -0.4453  0.0680
  828MPD2    H512185   3.296   3.821  12.629 -0.5681 -1.5409  0.2914
  828MPD2    N112186   2.759   3.994  12.627  0.0745  0.3903  0.4268
  828MPD2    H712187   2.773   3.998  12.527  1.3249  2.2126  0.6739
  829MPD2     C12188   2.781   4.373  11.840 -0.2331  0.1642 -0.7565
  829MPD2    C112189   2.664   4.307  11.830 -0.2872  0.5589  0.6539
  829MPD2    C212190   2.609   4.229  11.942  0.0017 -0.2572  0.6185
  829MPD2    C312191   2.685   4.224  12.058 -0.0926  0.0299 -0.1136
  829MPD2    C412192   2.812   4.282  12.059 -0.2832 -0.0189  0.0380
  829MPD2    C512193   2.858   4.352  11.950  0.4189  0.3371  0.5219
  829MPD2     H12194   2.515   4.175  11.944  0.0109 -0.3546 -2.2268
  829MPD2    H112195   2.889   4.265  12.134 -0.1173  2.5851  0.4486
  829MPD2    H212196   2.817   4.428  11.754 -1.2391  2.2303  0.1505
  829MPD2    H312197   2.957   4.398  11.952  0.9879 -0.9669  2.0420
  829MPD2     N12198   2.647   4.164  12.179  0.0960  0.6308 -0.6862
  829MPD2    H512199   2.714   4.174  12.255  0.4487 -1.3482 -0.7316
  829MPD2    N112200   2.605   4.305  11.707  0.5819 -0.3909 -0.5444
  829MPD2    H712201   2.659   4.344  11.631 -0.1183  0.0782 -0.7997
  830MPD2     C12202   2.615   2.551  15.496  0.3726  0.1896  0.2820
  830MPD2    C112203   2.738   2.508  15.536  0.5719 -0.2324 -0.5840
  830MPD2    C212204   2.849   2.517  15.457  0.1543 -0.2446 -0.0145
  830MPD2    C312205   2.831   2.564  15.329  0.1260  0.2295  0.2069
  830MPD2    C412206   2.705   2.602  15.287 -0.4001 -0.2977  0.1433
  830MPD2    C512207   2.600   2.591  15.370 -0.9501  0.0713  0.4653
  830MPD2     H12208   2.942   2.470  15.487 -0.3296 -0.6487  0.8425
  830MPD2    H112209   2.686   2.635  15.186  0.7287  2.7888  0.9599
  830MPD2    H212210   2.529   2.549  15.561 -0.1635  1.2529 -0.3963
  830MPD2    H312211   2.498   2.609  15.338 -0.3043  1.8864 -0.6187
  830MPD2     N12212   2.934   2.591  15.233  0.8339 -0.2827 -0.1613
  830MPD2    H512213   2.905   2.623  15.142  0.6484  2.9177  1.0246
  830MPD2    N112214   2.739   2.458  15.667  1.0102  0.1658  0.5841
  830MPD2    H712215   2.656   2.479  15.723  1.5557  0.0800  1.4246
  831MPD2     C12216   3.273   3.930  16.488 -0.8058  0.2634 -0.2131
  831MPD2    C112217   3.292   3.838  16.394  0.0073 -0.2760 -0.2990
  831MPD2    C212218   3.198   3.737  16.377 -0.3771 -0.0189  0.3414
  831MPD2    C312219   3.085   3.733  16.459 -0.2970  0.1151 -0.0635
  831MPD2    C412220   3.085   3.818  16.571  0.3998 -0.0660 -0.3916
  831MPD2    C512221   3.179   3.912  16.582 -0.3271 -0.1429 -1.0218
  831MPD2     H12222   3.201   3.681  16.284  2.0104  0.3076  0.2211
  831MPD2    H112223   3.010   3.816  16.649  0.2067  0.3669 -0.5664
  831MPD2    H212224   3.340   4.015  16.499 -1.1182  0.5737 -0.6853
  831MPD2    H312225   3.176   3.987  16.660  1.7079 -0.9969 -0.1134
  831MPD2     N12226   2.971   3.662  16.428  0.1285 -0.7369  0.5715
  831MPD2    H512227   2.890   3.663  16.489  0.0956 -1.6608  0.5469
  831MPD2    N112228   3.395   3.864  16.294 -0.5623 -0.3379 -0.2783
  831MPD2    H712229   3.442   3.954  16.297 -0.3950 -0.5259  2.2202
  832MPD2     C12230   1.497   0.493  17.580 -0.7112  0.1219  0.4434
  832MPD2    C112231   1.567   0.385  17.529  0.0016  0.2235 -0.5146
  832MPD2    C212232   1.530   0.326  17.407 -0.6970 -0.0165 -0.0101
  832MPD2    C312233   1.426   0.382  17.338  0.5786 -0.4365 -0.1500
  832MPD2    C412234   1.356   0.484  17.394  0.0742 -0.3976 -0.0845
  832MPD2    C512235   1.389   0.543  17.513 -0.1705  0.1631 -0.5578
  832MPD2     H12236   1.599   0.255  17.364 -0.7780  0.6188 -1.2062
  832MPD2    H112237   1.266   0.531  17.354  0.6667 -0.3726 -1.3877
  832MPD2    H212238   1.519   0.535  17.678 -0.7457 -1.2291  1.0350
  832MPD2    H312239   1.340   0.632  17.553 -0.3334  0.9759 -2.5969
  832MPD2     N12240   1.373   0.322  17.220 -0.0633 -0.1864 -0.1561
  832MPD2    H512241   1.290   0.367  17.182 -0.0568  0.7264  0.9198
  832MPD2    N112242   1.667   0.344  17.618  0.7918  0.3464 -0.1060
  832MPD2    H712243   1.676   0.399   0.018  3.8143 -1.3236  0.6617
  833MPD2     C12244   3.170   2.008  12.580  0.7556 -0.5606  0.4828
  833MPD2    C112245   3.207   2.045  12.451  0.0932  0.5234 -0.2753
  833MPD2    C212246   3.266   1.952  12.367  0.0056  0.0326 -0.7163
  833MPD2    C312247   3.294   1.823  12.415 -0.4620  0.1727 -0.2542
  833MPD2    C412248   3.260   1.788  12.544 -0.3550 -0.3555 -0.1248
  833MPD2    C512249   3.186   1.880  12.622 -0.5551 -1.0459  0.2036
  833MPD2     H12250   3.275   1.960  12.259 -0.4437 -0.0673 -0.7630
  833MPD2    H112251   3.285   1.692  12.587  1.2754 -0.2122 -0.7578
  833MPD2    H212252   3.129   2.080  12.650 -1.8250 -0.5471 -1.0279
  833MPD2    H312253   3.167   1.858  12.726 -0.8954 -1.0762  0.1335
  833MPD2     N12254   3.370   1.732  12.338  0.0231 -0.3711 -0.2542
  833MPD2    H512255   3.361   1.640  12.381 -0.6227 -1.4346 -2.6730
  833MPD2    N112256   3.168   2.174  12.403 -0.6255  0.0749  0.3110
  833MPD2    H712257   3.103   2.227  12.461  2.8201  1.1432  3.1451
  834MPD2     C12258   3.124   0.853  11.965  0.2957 -0.0762  0.1330
  834MPD2    C112259   3.176   0.918  11.856  0.0899  0.2280 -0.5415
  834MPD2    C212260   3.186   1.056  11.855  0.4581 -0.8139  0.2908
  834MPD2    C312261   3.170   1.118  11.980  0.0674 -0.1769 -1.0102
  834MPD2    C412262   3.134   1.048  12.091  0.2286  0.4152  0.5059
  834MPD2    C512263   3.105   0.912  12.086  0.0337  0.5192 -0.1529
  834MPD2     H12264   3.216   1.114  11.769 -1.6947 -1.1918 -0.7257
  834MPD2    H112265   3.126   1.096  12.188  0.4635 -0.6198  1.0329
  834MPD2    H212266   3.113   0.745  11.963  0.4159 -0.1056  0.8945
  834MPD2    H312267   3.071   0.854  12.171  0.8318  1.3449  0.7320
  834MPD2     N12268   3.196   1.256  11.995  0.3979 -0.9488  0.0853
  834MPD2    H512269   3.216   1.301  11.907  1.9640 -0.7932  0.5072
  834MPD2    N112270   3.225   0.838  11.746  0.2571  0.4568  0.5467
  834MPD2    H712271   3.202   0.739  11.750  0.8970  0.3298  1.1250
  835MPD2     C12272   3.055   0.134  10.717  0.0962  0.2825 -0.7371
  835MPD2    C112273   3.101   0.013  10.748  0.3533  0.1494  0.5876
  835MPD2    C212274   3.125   4.689  10.878 -0.0271  0.4348  0.6563
  835MPD2    C312275   3.108   0.059  10.983 -0.1456  0.8109  0.3764
  835MPD2    C412276   3.062   0.185  10.952 -0.4335  0.8909  0.0018
  835MPD2    C512277   3.041   0.215  10.825 -0.2786 -0.0254 -0.1627
  835MPD2     H12278   3.162   4.587  10.888 -0.1060  0.3264 -0.1347
  835MPD2    H112279   3.037   0.251  11.035  0.0397  0.4955  0.4667
  835MPD2    H212280   3.022   0.170  10.620  0.3746  0.1669 -0.8748
  835MPD2    H312281   3.008   0.312  10.788 -1.0710  0.3046  1.4324
  835MPD2     N12282   3.110   0.016  11.119 -0.0327  0.3615 -0.0312
  835MPD2    H512283   3.081   0.081  11.190  1.6644  1.2705 -0.1608
  835MPD2    N112284   3.110   4.640  10.642 -0.2595 -0.7243  0.1922
  835MPD2    H712285   3.095   4.682  10.551  1.2965 -1.1544 -0.2528
  836MPD2     C12286   2.524   4.507  11.131  0.3210  0.9632 -0.0904
  836MPD2    C112287   2.568   4.518  11.261  0.3274  0.2063 -0.2099
  836MPD2    C212288   2.466   4.536  11.357 -0.0521 -0.5984  0.0280
  836MPD2    C312289   2.337   4.541  11.326 -0.2032 -0.2470  0.0866
  836MPD2    C412290   2.299   4.523  11.202 -0.4130  0.2283  0.5262
  836MPD2    C512291   2.390   4.505  11.102  0.5997  0.0612 -0.7828
  836MPD2     H12292   2.497   4.540  11.461  0.0769  0.2705 -0.0439
  836MPD2    H112293   2.194   4.534  11.177 -0.7567  0.2098  1.9775
  836MPD2    H212294   2.592   4.493  11.047 -1.5943  0.4983 -1.5760
  836MPD2    H312295   2.360   4.501  10.998 -3.0375  1.8874  0.1859
  836MPD2     N12296   2.240   4.562  11.429  0.3533  1.1176  0.0534
  836MPD2    H512297   2.145   4.537  11.404  1.4638 -2.5634 -0.5272
  836MPD2    N112298   2.706   4.509  11.289  0.1501 -0.2562 -0.0121
  836MPD2    H712299   2.761   4.502  11.205 -2.5188 -3.2927 -1.5287
  837MPD2     C12300   1.435   4.105  10.140  0.3685  0.1291  0.0865
  837MPD2    C112301   1.360   4.193  10.060 -0.3126 -0.0894 -0.3700
  837MPD2    C212302   1.407   4.319  10.038 -0.0757 -0.6791 -0.3494
  837MPD2    C312303   1.519   4.369  10.099 -0.1806  0.2466 -0.0372
  837MPD2    C412304   1.573   4.291  10.201 -0.1913 -0.3703  0.4572
  837MPD2    C512305   1.547   4.159  10.208 -0.4028 -0.3588 -0.4646
  837MPD2     H12306   1.358   4.385   9.967 -0.9029 -0.0030  0.8640
  837MPD2    H112307   1.658   4.334  10.253 -0.2872  1.5109 -0.9280
  837MPD2    H212308   1.401   4.007  10.173  1.3814  0.1324  1.1335
  837MPD2    H312309   1.603   4.092  10.273 -0.9255 -0.7403 -0.4102
  837MPD2     N12310   1.540   4.513  10.078  0.6211 -0.4571  0.0320
  837MPD2    H512311   1.494   4.551   9.996  2.0717  0.6303 -0.2774
  837MPD2    N112312   1.235   4.167  10.006  0.1002  0.0373 -0.0489
  837MPD2    H712313   1.188   4.239   9.952 -1.6223  0.5267  2.1398
  838MPD2     C12314   3.876   1.695  11.165  0.5167 -0.1101  0.7096
  838MPD2    C112315   3.956   1.769  11.252 -0.2102  0.4072  0.5344
  838MPD2    C212316   3.913   1.787  11.383 -0.4111 -0.3154 -0.4612
  838MPD2    C312317   3.792   1.732  11.422  0.0416 -0.7232 -0.1233
  838MPD2    C412318   3.715   1.660  11.334  0.4173  0.4400  0.4136
  838MPD2    C512319   3.762   1.644  11.210  0.1268 -0.1773 -0.5068
  838MPD2     H12320   3.964   1.845  11.459  0.3415 -0.5883 -0.7615
  838MPD2    H112321   3.626   1.607  11.366  0.9382 -0.1215  0.9412
  838MPD2    H212322   3.906   1.666  11.066  1.5232  0.8742  0.7256
  838MPD2    H312323   3.695   1.590  11.144 -1.5372 -0.3306  1.2957
  838MPD2     N12324   3.758   1.742  11.560 -0.1042  0.2186  0.0313
  838MPD2    H512325   3.824   1.798  11.613 -1.7789 -0.3301  2.6964
  838MPD2    N112326   4.080   1.810  11.213  0.1068 -1.2796  0.3300
  838MPD2    H712327   4.133   1.853  11.289  0.4168  0.4439 -0.8566
  839MPD2     C12328   4.212   1.758  11.718 -0.5356  0.5468  0.2785
  839MPD2    C112329   4.234   1.695  11.592 -0.2069 -0.4579  0.3092
  839MPD2    C212330   4.330   1.750  11.508 -0.2930 -0.4443  0.5423
  839MPD2    C312331   4.411   1.855  11.551  0.3540 -0.1954  0.2142
  839MPD2    C412332   4.396   1.906  11.672  0.3973 -0.1829  0.2920
  839MPD2    C512333   4.307   1.851  11.756  0.3830 -0.2382  0.6328
  839MPD2     H12334   4.339   1.694  11.416  2.4244 -0.3566  0.7493
  839MPD2    H112335   4.456   1.993  11.698  1.2112 -0.4948 -0.5399
  839MPD2    H212336   4.122   1.739  11.776 -1.6249 -0.3064 -1.6912
  839MPD2    H312337   4.286   1.899  11.851  2.5576  1.0318  0.4657
  839MPD2     N12338   4.503   1.920  11.470  0.2273  0.2169  0.0449
  839MPD2    H512339   4.564   1.983  11.521  0.4112  0.6589 -0.7243
  839MPD2    N112340   4.150   1.591  11.537  0.2579 -0.2138  0.2395
  839MPD2    H712341   4.177   1.568  11.442 -1.1341 -0.3160 -0.1341
  840MPD2     C12342   0.111   4.508  10.230 -0.9139  0.2945  0.2555
  840MPD2    C112343   0.067   4.424  10.331  0.0801  0.3447  0.0103
  840MPD2    C212344   0.157   4.389  10.431 -0.3495  1.0137  0.1698
  840MPD2    C312345   0.277   4.461  10.432  0.1483  0.4219 -0.1271
  840MPD2    C412346   0.319   4.547  10.336 -0.1266  0.8491 -0.0788
  840MPD2    C512347   0.236   4.564  10.230 -0.6797  0.7863  0.9810
  840MPD2     H12348   0.127   4.319  10.508 -0.3532  0.5313 -0.2695
  840MPD2    H112349   0.417   4.591  10.347 -0.1580 -0.0350  3.7079
  840MPD2    H212350   0.059   4.509  10.136 -1.6065 -1.2155  0.6269
  840MPD2    H312351   0.270   4.633  10.154  1.4967 -1.6852 -0.2957
  840MPD2     N12352   0.369   4.457  10.547  0.6683  0.6054  0.4599
  840MPD2    H512353   0.443   4.525  10.562  0.1398  0.9958  1.2932
  840MPD2    N112354   4.657   4.381  10.326  0.2426  0.7160 -0.0530
  840MPD2    H712355   4.597   4.427  10.258 -1.5560  1.1467  1.8357
  841MPD2     C12356   4.571   3.757  14.390 -0.0321  0.4604 -1.1859
  841MPD2    C112357   4.539   3.711  14.517 -0.0010 -0.4070  0.2457
  841MPD2    C212358   4.613   3.761  14.627 -0.3670  0.2536 -0.5842
  841MPD2    C312359   0.007   3.843  14.607 -0.1303 -0.1817  0.2946
  841MPD2    C412360   0.051   3.865  14.479  0.6235  0.4882 -0.8408
  841MPD2    C512361   4.686   3.831  14.376  0.3395  0.7065  0.7000
  841MPD2     H12362   4.589   3.729  14.728 -2.0404  1.0646 -0.7150
  841MPD2    H112363   0.146   3.912  14.457  1.5739 -0.5934  1.0164
  841MPD2    H212364   4.514   3.727  14.302  0.4667  0.8804 -1.6542
  841MPD2    H312365   0.007   3.853  14.278  2.3890  0.1492  1.4369
  841MPD2     N12366   0.066   3.895  14.723 -0.3252  0.0205  0.4964
  841MPD2    H512367   0.060   3.842  14.810 -0.5190 -0.1462  0.3819
  841MPD2    N112368   4.424   3.627  14.522 -0.3455  0.2850 -0.5017
  841MPD2    H712369   4.388   3.603  14.430  0.2103 -1.2716 -0.3270
  842MPD2     C12370   0.227   0.211  16.768  0.1315  0.3574 -0.3389
  842MPD2    C112371   0.315   0.319  16.765  0.6162  0.2051 -1.3075
  842MPD2    C212372   0.419   0.318  16.858 -1.2239  0.2979 -0.5177
  842MPD2    C312373   0.425   0.222  16.966  0.2536 -0.2606  0.3189
  842MPD2    C412374   0.322   0.128  16.973 -0.3799  0.1883  0.1952
  842MPD2    C512375   0.228   0.122  16.874  0.8405 -0.6680 -0.1990
  842MPD2     H12376   0.485   0.404  16.853 -0.7127  0.0403  1.8472
  842MPD2    H112377   0.312   0.064  17.060  1.6526 -0.1798  0.1638
  842MPD2    H212378   0.145   0.194  16.701  0.0234  0.7631 -0.3078
  842MPD2    H312379   0.147   0.052  16.890  0.6645 -0.6298 -0.9328
  842MPD2     N12380   0.511   0.233  17.074  0.0180 -0.0582  0.3925
  842MPD2    H512381   0.478   0.190  17.160  0.2210 -0.4147  0.2907
  842MPD2    N112382   0.289   0.422  16.673 -0.6635  0.1111  0.0466
  842MPD2    H712383   0.194   0.435  16.639 -0.3460  0.4976 -0.6926
  843MPD2     C12384   1.929   0.683   0.907 -0.1720 -0.0073  0.5260
  843MPD2    C112385   2.013   0.570   0.893  0.1854 -0.5403 -1.0595
  843MPD2    C212386   2.139   0.589   0.851 -0.5868 -0.2296 -0.0446
  843MPD2    C312387   2.180   0.713   0.801 -0.3082  0.2364 -0.0025
  843MPD2    C412388   2.097   0.825   0.815 -0.1183 -0.1532  0.5995
  843MPD2    C512389   1.975   0.802   0.874  0.6623  0.7401  0.5855
  843MPD2     H12390   2.198   0.499   0.837  0.2919  0.3719 -0.2086
  843MPD2    H112391   2.126   0.928   0.797 -0.7236  0.0223  0.6468
  843MPD2    H212392   1.824   0.669   0.931 -0.3398 -0.4589 -0.4929
  843MPD2    H312393   1.911   0.889   0.889  1.4034  1.4926 -0.5660
  843MPD2     N12394   2.316   0.732   0.762 -0.5046  0.0796  0.3471
  843MPD2    H512395   2.341   0.830   0.746 -2.4103  0.9921  3.0487
  843MPD2    N112396   1.961   0.443   0.930 -0.5283 -0.3605 -0.0588
  843MPD2    H712397   1.870   0.438   0.975 -0.9496 -0.6685 -0.9422
  844MPD2     C12398   1.400   0.021  16.643 -0.2885  0.3778 -0.9196
  844MPD2    C112399   1.424   4.607  16.677  0.9642 -0.3517  0.0637
  844MPD2    C212400   1.523   4.583  16.769  0.3508 -0.1678 -0.5288
  844MPD2    C312401   1.593   4.683  16.835 -0.0940 -0.2534 -0.3714
  844MPD2    C412402   1.562   0.093  16.804 -1.1709 -0.8278 -0.6631
  844MPD2    C512403   1.466   0.120  16.707  0.0069  0.4098 -0.2228
  844MPD2     H12404   1.563   4.486  16.796 -0.0040 -0.2795 -0.4060
  844MPD2    H112405   1.626   0.173  16.837 -2.4556 -0.0958  0.0402
  844MPD2    H212406   1.329   0.050  16.566 -0.6359 -0.2991 -0.8541
  844MPD2    H312407   1.464   0.224  16.676 -1.2176  0.3537 -0.2937
  844MPD2     N12408   1.686   4.643  16.931 -0.1610 -0.1674 -0.3365
  844MPD2    H512409   1.712   4.545  16.934 -2.8190 -0.9589 -3.3508
  844MPD2    N112410   1.367   4.509  16.592  0.5606  0.3388  0.3154
  844MPD2    H712411   1.294   4.543  16.530  0.7704  0.5853  0.2051
  845MPD2     C12412   2.239   0.439  17.631 -0.6044 -0.4774 -0.1797
  845MPD2    C112413   2.135   0.477  17.547  0.2093 -0.0691 -0.3644
  845MPD2    C212414   2.079   0.378  17.464  0.4247 -0.3374  0.4817
  845MPD2    C312415   2.127   0.248  17.467  0.6496 -0.6706 -0.5101
  845MPD2    C412416   2.239   0.215  17.548  0.3940  0.5782 -0.4271
  845MPD2    C512417   2.290   0.315  17.627  0.5110  0.4190  0.3876
  845MPD2     H12418   1.985   0.396  17.413  0.4461 -1.9447 -0.1361
  845MPD2    H112419   2.287   0.118  17.545 -0.8933 -0.0724 -0.0335
  845MPD2    H212420   2.287   0.507   0.015 -1.3103  0.9443 -1.1022
  845MPD2    H312421   2.360   0.279   0.018 -2.3108  2.0135  3.7746
  845MPD2     N12422   2.053   0.157  17.386  0.1231 -0.1298  0.1128
  845MPD2    H512423   1.982   0.191  17.323 -0.1590  1.4311  1.2754
  845MPD2    N112424   2.087   0.614  17.552 -0.3546 -0.4644  0.2975
  845MPD2    H712425   2.127   0.678  17.620 -1.8143  0.1583  0.5672
  846MPD2     C12426   3.037   1.407  13.346 -0.2485  0.4905 -0.0944
  846MPD2    C112427   2.999   1.528  13.395  0.1432 -0.3690  0.0566
  846MPD2    C212428   2.962   1.533  13.527  0.3498  0.1345  0.4605
  846MPD2    C312429   2.957   1.415  13.598 -0.1656 -0.0952 -0.7065
  846MPD2    C412430   2.976   1.294  13.541 -0.5266 -0.7270 -0.0113
  846MPD2    C512431   3.018   1.286  13.411 -0.8371  0.3988  0.4625
  846MPD2     H12432   2.945   1.626  13.580  0.8575  0.9969 -0.8836
  846MPD2    H112433   2.960   1.197  13.588 -0.2736 -0.3293  0.9016
  846MPD2    H212434   3.067   1.409  13.242  3.2317  1.4263  0.9174
  846MPD2    H312435   3.043   1.189  13.371  1.5445  1.6207 -1.0179
  846MPD2     N12436   2.925   1.424  13.736  0.6912  0.2845 -0.4517
  846MPD2    H512437   2.875   1.507  13.766  0.5357 -0.0614  0.2665
  846MPD2    N112438   2.980   1.640  13.320 -0.3329 -0.5086  0.0608
  846MPD2    H712439   2.951   1.726  13.367 -0.7709 -0.5288 -0.1773
  847MPD2     C12440   2.642   2.530  14.928  0.0038 -0.5572 -0.1435
  847MPD2    C112441   2.722   2.592  14.833 -0.1808  0.3499  0.3197
  847MPD2    C212442   2.848   2.530  14.806  0.0664 -0.0347  0.0464
  847MPD2    C312443   2.887   2.413  14.874  0.1221  0.6225 -0.5267
  847MPD2    C412444   2.804   2.356  14.967 -0.3458  0.0731  0.7331
  847MPD2    C512445   2.680   2.413  14.996 -1.1010  0.1234 -0.9716
  847MPD2     H12446   2.927   2.569  14.743 -0.6469 -1.2047 -1.5687
  847MPD2    H112447   2.847   2.274  15.024  0.3573  0.7424  1.1593
  847MPD2    H212448   2.550   2.581  14.952 -0.4459 -1.1255 -0.6401
  847MPD2    H312449   2.613   2.374  15.073  2.0670 -0.7191  1.3503
  847MPD2     N12450   3.018   2.367  14.843 -0.4525 -0.0747 -0.2974
  847MPD2    H512451   3.066   2.423  14.774 -0.2163  0.4362  0.2809
  847MPD2    N112452   2.681   2.715  14.766 -0.4656 -0.4535  0.5309
  847MPD2    H712453   2.595   2.762  14.791 -0.1662  0.0598  0.6193
  848MPD2     C12454   1.162   0.579  16.583 -0.9208  0.6865 -0.5437
  848MPD2    C112455   1.189   0.581  16.719 -0.0025  0.3360  0.0030
  848MPD2    C212456   1.194   0.703  16.778  0.1888 -0.8605  0.1256
  848MPD2    C312457   1.161   0.819  16.712  0.3923  0.0109  0.1548
  848MPD2    C412458   1.154   0.819  16.577  0.3186  0.3879 -0.0756
  848MPD2    C512459   1.152   0.696  16.510 -0.1338 -0.4739  0.0194
  848MPD2     H12460   1.211   0.707  16.885  0.2228  1.8527  0.0320
  848MPD2    H112461   1.157   0.910  16.520  0.9781 -0.2141 -0.9945
  848MPD2    H212462   1.152   0.488  16.525  0.7074  2.0094 -2.9045
  848MPD2    H312463   1.133   0.690  16.403  1.7289 -1.2007 -0.2616
  848MPD2     N12464   1.141   0.939  16.768 -0.7741 -0.1823  0.0085
  848MPD2    H512465   1.099   1.018  16.719 -2.1248 -1.1434 -0.3709
  848MPD2    N112466   1.207   0.465  16.797 -0.4547  0.1113  0.5033
  848MPD2    H712467   1.229   0.471  16.896  0.3059  2.7420  0.1704
  849MPD2     C12468   4.623   0.308  14.307  0.2782 -0.4174  0.8976
  849MPD2    C112469   0.026   0.339  14.251  0.2041  0.1936  0.5518
  849MPD2    C212470   0.145   0.279  14.298 -0.0655 -0.1790  0.5824
  849MPD2    C312471   0.141   0.181  14.396 -0.0747  0.0017 -0.0072
  849MPD2    C412472   0.020   0.145  14.448 -0.3704  0.0037 -0.6848
  849MPD2    C512473   4.623   0.211  14.410  0.2221  0.6700  0.2221
  849MPD2     H12474   0.247   0.305  14.269 -0.8409  0.1206 -1.9170
  849MPD2    H112475   0.010   0.067  14.524  0.8363 -0.8316 -1.3799
  849MPD2    H212476   4.538   0.353  14.258  0.5387 -2.4250 -1.3914
  849MPD2    H312477   4.528   0.185  14.455 -0.6900  2.0735 -0.8779
  849MPD2     N12478   0.261   0.100  14.400 -0.2388  0.3283 -0.0607
  849MPD2    H512479   0.330   0.110  14.327 -0.8084 -0.8562 -0.7565
  849MPD2    N112480   0.045   0.421  14.138 -0.7154  0.7688  0.4765
  849MPD2    H712481   0.142   0.435  14.113 -1.6319  2.1115 -2.3900
  850MPD2     C12482   2.633   3.746  15.046  0.0301 -0.3365  0.3633
  850MPD2    C112483   2.714   3.749  15.162 -0.0596 -0.4675 -0.0324
  850MPD2    C212484   2.847   3.795  15.163 -0.9188 -0.2561  0.0597
  850MPD2    C312485   2.904   3.824  15.039  0.2098  0.0590  0.4188
  850MPD2    C412486   2.828   3.823  14.920 -0.4796  0.4077  0.2820
  850MPD2    C512487   2.698   3.784  14.928  0.0448  0.1481  0.5003
  850MPD2     H12488   2.903   3.785  15.256 -1.0359  2.8064  0.4339
  850MPD2    H112489   2.868   3.861  14.826  1.4885 -1.7469  0.2443
  850MPD2    H212490   2.531   3.710  15.048  0.0123 -0.2184  2.1967
  850MPD2    H312491   2.626   3.796  14.848 -0.4175  1.1077  1.0560
  850MPD2     N12492   3.043   3.839  15.026  0.6297 -0.0582 -0.2602
  850MPD2    H512493   3.089   3.806  14.942  0.5372 -0.4341 -0.1659
  850MPD2    N112494   2.655   3.681  15.267  1.0930 -0.6732 -0.2972
  850MPD2    H712495   2.568   3.632  15.248 -0.1731  1.6305 -0.4441
  851MPD2     C12496   3.185   3.309  15.530  0.3500 -0.1472 -0.1030
  851MPD2    C112497   3.080   3.219  15.511  0.1115  0.0706  0.4284
  851MPD2    C212498   3.100   3.100  15.446 -0.5647  0.4482 -0.3143
  851MPD2    C312499   3.228   3.064  15.405 -0.3818  0.1879  0.0523
  851MPD2    C412500   3.331   3.152  15.421 -0.3700 -0.3302  0.2055
  851MPD2    C512501   3.306   3.277  15.475  0.8342 -0.2761 -0.0411
  851MPD2     H12502   3.020   3.027  15.449  0.1642 -0.3043  0.8826
  851MPD2    H112503   3.434   3.119  15.414  0.4692  2.9315 -2.6910
  851MPD2    H212504   3.168   3.406  15.576 -0.6366  0.3954 -1.6094
  851MPD2    H312505   3.389   3.338  15.509  0.9675 -0.1174 -0.6416
  851MPD2     N12506   3.257   2.945  15.334  0.2521 -0.5698 -0.9133
  851MPD2    H512507   3.180   2.880  15.320 -0.9059  0.6268 -0.0688
  851MPD2    N112508   2.951   3.263  15.545 -0.0271  0.2668  0.4466
  851MPD2    H712509   2.955   3.354  15.590 -0.4671  0.4983  0.0149
  852MPD2     C12510   1.856   1.080  10.370 -0.4558  0.5254  0.2577
  852MPD2    C112511   1.936   1.184  10.408 -0.8090  0.0097  0.4372
  852MPD2    C212512   2.069   1.165  10.426 -0.3333 -0.2837  0.8922
  852MPD2    C312513   2.128   1.043  10.389 -0.3178 -0.5418  0.0079
  852MPD2    C412514   2.043   0.937  10.344  0.3478 -0.3376  0.4159
  852MPD2    C512515   1.908   0.960  10.349  0.2044  0.5477 -0.1196
  852MPD2     H12516   2.136   1.249  10.436  0.1725 -0.5588 -0.2069
  852MPD2    H112517   2.074   0.836  10.319 -0.0643 -0.3621 -0.0108
  852MPD2    H212518   1.751   1.095  10.347  0.1267  2.2061 -1.3341
  852MPD2    H312519   1.846   0.876  10.321  0.3700  1.0634 -2.0388
  852MPD2     N12520   2.262   1.036  10.387 -0.2978 -0.2461  0.1330
  852MPD2    H512521   2.323   1.116  10.404  0.9846 -1.2069  0.0202
  852MPD2    N112522   1.895   1.323  10.417 -0.1915  0.1113 -0.1892
  852MPD2    H712523   1.969   1.388  10.440  0.5661 -1.6367  2.2665
  853MPD2     C12524   4.697   0.891  12.489  0.0874 -0.3382 -0.2909
  853MPD2    C112525   4.576   0.928  12.433 -0.0823 -0.0097  0.0678
  853MPD2    C212526   4.556   0.900  12.300 -0.0951  0.1080  0.0078
  853MPD2    C312527   4.659   0.835  12.227 -0.7000  1.0654  0.4462
  853MPD2    C412528   0.048   0.789  12.288 -0.1821  0.1330  0.0222
  853MPD2    C512529   0.065   0.815  12.422  0.1774  0.7669 -0.2688
  853MPD2     H12530   4.463   0.912  12.247 -0.7139  0.8653  1.2740
  853MPD2    H112531   0.127   0.739  12.234  0.0138  0.3818  0.0783
  853MPD2    H212532   4.702   0.905  12.596  1.7782  0.9905 -0.5428
  853MPD2    H312533   0.155   0.787  12.476 -1.5421 -2.7920  0.7378
  853MPD2     N12534   4.647   0.804  12.089  0.3899 -0.3783  0.3253
  853MPD2    H512535   0.001   0.743  12.055 -0.5418 -1.2295 -0.1585
  853MPD2    N112536   4.481   0.984  12.514 -0.2456  0.2868 -0.1614
  853MPD2    H712537   4.516   0.999  12.608 -0.7736 -1.1343  0.2628
  854MPD2     C12538   1.674   1.394  12.678 -0.3825 -0.3643 -0.0013
  854MPD2    C112539   1.571   1.302  12.683 -1.3526 -0.4844 -0.1663
  854MPD2    C212540   1.586   1.194  12.762 -0.2709 -0.4332  0.2038
  854MPD2    C312541   1.701   1.169  12.833  0.2789  0.5901 -0.4523
  854MPD2    C412542   1.798   1.265  12.834  0.1375  0.6265  0.2336
  854MPD2    C512543   1.782   1.378  12.758 -0.1686  0.1325  0.3663
  854MPD2     H12544   1.510   1.117  12.755  0.2673 -1.1459  2.0741
  854MPD2    H112545   1.890   1.247  12.889  1.2526  2.9015 -0.8806
  854MPD2    H212546   1.677   1.484  12.618 -1.8869  0.8438  1.7250
  854MPD2    H312547   1.863   1.449  12.762  0.7123 -0.8698  0.3066
  854MPD2     N12548   1.724   1.051  12.901 -0.2299  0.1105  0.7471
  854MPD2    H512549   1.816   1.042  12.942  0.6417  1.4189 -0.8937
  854MPD2    N112550   1.454   1.327  12.606 -0.4352  0.3093  0.1682
  854MPD2    H712551   1.470   1.406  12.544 -0.7574  1.9898  2.2035
  855MPD2     C12552   2.213   0.949  13.612  0.9298  0.0205 -0.2138
  855MPD2    C112553   2.118   0.848  13.624 -0.4898  0.2352 -0.4272
  855MPD2    C212554   2.046   0.803  13.518  0.3911  0.3393 -0.4432
  855MPD2    C312555   2.059   0.872  13.397 -0.2197 -0.1006 -0.5188
  855MPD2    C412556   2.156   0.971  13.381  0.4195  0.8342 -0.0820
  855MPD2    C512557   2.229   1.011  13.491 -0.2123  0.5029  0.5635
  855MPD2     H12558   1.976   0.721  13.524 -1.2376  1.7698 -0.0305
  855MPD2    H112559   2.170   1.018  13.285 -1.3275  0.4757 -0.4992
  855MPD2    H212560   2.270   0.984  13.697  1.0718 -1.3213  0.2397
  855MPD2    H312561   2.299   1.093  13.485  0.8345 -0.3978  0.3892
  855MPD2     N12562   1.983   0.848  13.277  0.0833 -0.3769 -0.3912
  855MPD2    H512563   2.002   0.919  13.207  0.1615  1.0609  1.0831
  855MPD2    N112564   2.095   0.805  13.758 -0.3925 -0.4878 -0.1147
  855MPD2    H712565   2.145   0.835  13.841  0.9267 -3.3693  0.1430
  856MPD2     C12566   3.502   1.836  14.193 -0.0706  0.5447  0.0765
  856MPD2    C112567   3.621   1.885  14.147  1.1407  0.8863  0.2093
  856MPD2    C212568   3.615   1.992  14.062  0.2673 -0.1347 -1.2921
  856MPD2    C312569   3.491   2.056  14.033 -0.5302  0.1799  0.5936
  856MPD2    C412570   3.379   2.008  14.092  0.3815  0.1752  0.2043
  856MPD2    C512571   3.381   1.895  14.171 -0.3076  0.6278  0.0499
  856MPD2     H12572   3.708   2.038  14.034  0.8376 -0.1985  0.5488
  856MPD2    H112573   3.284   2.057  14.077 -0.4737 -2.0721 -1.7311
  856MPD2    H212574   3.497   1.748  14.256 -2.2416  0.1443 -0.6713
  856MPD2    H312575   3.291   1.859  14.219 -0.5003  0.2419 -0.5989
  856MPD2     N12576   3.487   2.177  13.958 -0.3791 -0.4564 -0.2970
  856MPD2    H512577   3.398   2.224  13.941  0.0402  0.5939  0.4597
  856MPD2    N112578   3.743   1.826  14.183  0.3557  0.4055 -0.1366
  856MPD2    H712579   3.830   1.864  14.147  0.6168  1.5744  1.6670
  857MPD2     C12580   0.348   3.600  13.046 -0.5832  0.5560  0.0382
  857MPD2    C112581   0.478   3.587  13.006  0.4134  0.0241  0.1470
  857MPD2    C212582   0.573   3.688  13.038 -0.1163  0.3394  0.3265
  857MPD2    C312583   0.527   3.791  13.118 -0.4739  0.1923  0.2505
  857MPD2    C412584   0.402   3.788  13.177 -0.5189 -0.1608  0.2148
  857MPD2    C512585   0.311   3.698  13.141  0.0412  0.6355  0.5333
  857MPD2     H12586   0.674   3.697  12.998 -0.6790 -0.3743 -1.2510
  857MPD2    H112587   0.361   3.867  13.238 -1.6511 -0.3103 -0.3528
  857MPD2    H212588   0.279   3.520  13.022 -0.9592  0.6492  0.8054
  857MPD2    H312589   0.206   3.700  13.167  0.0903 -2.8387  1.0994
  857MPD2     N12590   0.614   3.899  13.156 -0.3346  0.0692 -0.6892
  857MPD2    H512591   0.714   3.883  13.155 -0.2012  0.8426 -0.3420
  857MPD2    N112592   0.510   3.473  12.929  0.3351  0.0221  0.0540
  857MPD2    H712593   0.436   3.406  12.908  1.0292 -0.4726 -0.8260
  858MPD2     C12594   1.527   2.236  16.772 -0.1807 -0.6110 -0.4930
  858MPD2    C112595   1.664   2.220  16.806  0.5626 -0.3431 -0.0102
  858MPD2    C212596   1.721   2.316  16.886 -0.2968 -0.3465  0.5040
  858MPD2    C312597   1.644   2.425  16.930 -0.4810 -0.0466  0.4978
  858MPD2    C412598   1.510   2.434  16.892  0.0078 -0.5194 -0.4494
  858MPD2    C512599   1.448   2.340  16.814  0.1558  0.6460 -0.0654
  858MPD2     H12600   1.822   2.321  16.925 -0.4657 -1.4880  1.0877
  858MPD2    H112601   1.445   2.513  16.929  0.5645 -0.3690  0.2049
  858MPD2    H212602   1.469   2.158  16.724 -1.1096  0.5748 -1.2930
  858MPD2    H312603   1.342   2.352  16.798 -0.0973 -0.1449  1.0918
  858MPD2     N12604   1.703   2.536  17.000  0.5231  0.4554 -0.2953
  858MPD2    H512605   1.641   2.614  17.019  0.6836 -0.1442  2.7007
  858MPD2    N112606   1.737   2.098  16.768  0.1363  0.3535  0.3096
  858MPD2    H712607   1.687   2.032  16.710  0.2995 -0.5183  1.1760
  859MPD2     C12608   4.575   0.557  15.226  0.0432 -1.2301  0.5889
  859MPD2    C112609   4.627   0.582  15.353  0.0021 -0.0223  0.5798
  859MPD2    C212610   4.621   0.478  15.452  0.6148  1.1894  0.3795
  859MPD2    C312611   4.558   0.363  15.420 -0.4457  0.2644 -0.0294
  859MPD2    C412612   4.522   0.340  15.298 -0.0691 -0.8902  0.3523
  859MPD2    C512613   4.528   0.437  15.199 -0.0850 -0.0718  0.5664
  859MPD2     H12614   4.654   0.499  15.553 -0.7055 -1.1017  1.2740
  859MPD2    H112615   4.473   0.248  15.267  0.9165 -0.7764 -1.5749
  859MPD2    H212616   4.587   0.625  15.142  3.2830  0.5828  2.5643
  859MPD2    H312617   4.494   0.401  15.103 -1.3042 -1.8824  1.6729
  859MPD2     N12618   4.550   0.268  15.529  1.0016  0.2043  0.0620
  859MPD2    H512619   4.591   0.283  15.621 -0.1475  1.3387  0.3863
  859MPD2    N112620   4.694   0.702  15.367  0.3554  0.7778 -1.1542
  859MPD2    H712621   4.691   0.773  15.295  1.1280  1.1869 -0.7905
  860MPD2     C12622   2.453   0.146  11.928  0.3841  0.0161  0.1520
  860MPD2    C112623   2.384   0.160  12.045  0.1746 -0.2788  0.2888
  860MPD2    C212624   2.261   0.221  12.044 -0.2391 -0.0953  0.2902
  860MPD2    C312625   2.206   0.263  11.925  1.1092 -0.7068  0.6077
  860MPD2    C412626   2.276   0.246  11.807  0.9767 -0.3115 -0.7998
  860MPD2    C512627   2.398   0.183  11.806  0.6276 -0.2837 -0.0997
  860MPD2     H12628   2.209   0.229  12.139 -2.3925 -0.5729 -0.8444
  860MPD2    H112629   2.237   0.275  11.710 -1.3264  0.4535  0.3569
  860MPD2    H212630   2.546   0.092  11.916 -0.0609 -0.8289  0.5121
  860MPD2    H312631   2.446   0.173  11.710  1.2466  0.0296  0.1775
  860MPD2     N12632   2.081   0.325  11.925  0.5488  0.4221 -0.1701
  860MPD2    H512633   2.027   0.331  12.010 -0.0933  0.1379 -0.5571
  860MPD2    N112634   2.424   0.113  12.172 -0.1031  0.2536 -0.4602
  860MPD2    H712635   2.363   0.138  12.249  0.2282 -2.1756  0.5840
  861MPD2     C12636   1.352   3.565  10.927  0.2105 -0.1504  0.4959
  861MPD2    C112637   1.239   3.529  10.992  0.1043  0.5293 -0.3299
  861MPD2    C212638   1.115   3.559  10.941  0.2495  0.3017  0.5250
  861MPD2    C312639   1.105   3.636  10.827  0.2986 -0.9318  0.1906
  861MPD2    C412640   1.216   3.658  10.750 -0.0948 -0.3953 -0.4283
  861MPD2    C512641   1.341   3.629  10.802  0.7038  1.2746  0.5609
  861MPD2     H12642   1.046   3.537  11.020 -0.4326 -0.0895 -0.1823
  861MPD2    H112643   1.210   3.719  10.662  2.8820  0.6961  0.1170
  861MPD2    H212644   1.450   3.553  10.971 -0.0150 -2.7373  0.3121
  861MPD2    H312645   1.436   3.651  10.754  1.2060  0.7954  1.3275
  861MPD2     N12646   0.989   3.698  10.783  1.0916 -0.3950 -0.0862
  861MPD2    H512647   0.990   3.758  10.701  1.7175  1.1849  1.0922
  861MPD2    N112648   1.239   3.464  11.117  0.0690 -0.0777 -0.4846
  861MPD2    H712649   1.146   3.440  11.151 -0.0932  1.0448 -0.1207
  862MPD2     C12650   0.467   4.113  10.395 -0.0803  0.7617  0.5774
  862MPD2    C112651   0.518   3.989  10.418 -0.3164  0.5433 -0.7616
  862MPD2    C212652   0.459   3.881  10.356 -0.0985  0.1543  0.9878
  862MPD2    C312653   0.360   3.895  10.262 -0.7536  0.2299 -0.4268
  862MPD2    C412654   0.314   4.023  10.237 -0.4876 -0.8739 -0.1413
  862MPD2    C512655   0.367   4.129  10.299 -0.3489 -0.4702  0.3786
  862MPD2     H12656   0.502   3.783  10.376 -0.9447 -0.4561 -0.1945
  862MPD2    H112657   0.237   4.039  10.162  1.0734 -0.9512 -1.7443
  862MPD2    H212658   0.504   4.200  10.448 -1.0605  1.7059 -0.2942
  862MPD2    H312659   0.320   4.227  10.297 -2.1871 -1.4251 -2.0124
  862MPD2     N12660   0.305   3.785  10.189  0.5567 -0.6086 -0.0400
  862MPD2    H512661   0.238   3.815  10.120 -2.5724 -0.5072  3.0405
  862MPD2    N112662   0.626   3.972  10.512  0.1642  0.8493 -0.2810
  862MPD2    H712663   0.645   3.877  10.541  1.1866  0.6937 -1.4689
  863MPD2     C12664   4.133   1.646  17.267  0.4238  0.4429  0.0373
  863MPD2    C112665   4.231   1.747  17.257 -0.4941  0.2502 -0.8182
  863MPD2    C212666   4.358   1.712  17.299  0.1375 -0.4610  0.3339
  863MPD2    C312667   4.396   1.578  17.312  0.2846 -0.5533 -0.2453
  863MPD2    C412668   4.299   1.475  17.302  0.1252 -0.3845  0.3605
  863MPD2    C512669   4.172   1.517  17.276 -0.5894  0.0684  0.3618
  863MPD2     H12670   4.434   1.787  17.314 -2.2628  1.9568  0.2914
  863MPD2    H112671   4.326   1.370  17.313 -0.1121 -0.3667  1.1111
  863MPD2    H212672   4.026   1.659  17.258  0.1006 -1.6222  0.9078
  863MPD2    H312673   4.097   1.438  17.277 -0.1459 -0.3676 -1.1354
  863MPD2     N12674   4.531   1.533  17.319  0.3548  0.5011  0.2293
  863MPD2    H512675   4.545   1.440  17.356 -1.3184 -0.1619 -0.8170
  863MPD2    N112676   4.197   1.874  17.214  0.1474 -0.3168 -0.5897
  863MPD2    H712677   4.100   1.902  17.201  1.3279  3.3764 -1.4104
  864MPD2     C12678   0.528   3.380  17.340 -0.4985 -0.3788 -0.0734
  864MPD2    C112679   0.546   3.303  17.233  0.3403  0.0102 -0.4119
  864MPD2    C212680   0.614   3.356  17.122 -0.5514  0.3074 -0.2423
  864MPD2    C312681   0.658   3.487  17.115  0.0832 -0.2929  0.7342
  864MPD2    C412682   0.634   3.569  17.222  0.2210 -0.4213  0.3082
  864MPD2    C512683   0.577   3.509  17.327 -0.0503  0.0313  0.5982
  864MPD2     H12684   0.635   3.299  17.032 -0.9799 -1.0527  0.5200
  864MPD2    H112685   0.675   3.669  17.233 -1.6610  0.1198  2.3481
  864MPD2    H212686   0.473   3.368  17.433 -1.4371 -0.1538 -0.6108
  864MPD2    H312687   0.540   3.575  17.405 -1.4781 -0.4491  0.3316
  864MPD2     N12688   0.735   3.533  17.005 -0.1936  0.1255 -0.3624
  864MPD2    H512689   0.766   3.630  16.998  0.7667 -0.2108 -0.7976
  864MPD2    N112690   0.523   3.162  17.227  0.1159 -0.1262  0.3900
  864MPD2    H712691   0.535   3.110  17.140 -0.7070 -0.0787  0.2489
  865MPD2     C12692   0.239   3.662  16.626 -0.1011  0.3009 -0.4562
  865MPD2    C112693   0.329   3.598  16.546  0.0216  0.0790 -0.1330
  865MPD2    C212694   0.461   3.630  16.553  0.2601 -0.8069  0.6161
  865MPD2    C312695   0.505   3.727  16.643 -0.5114 -0.6446  1.0211
  865MPD2    C412696   0.413   3.805  16.714  0.1973  0.3085 -0.6085
  865MPD2    C512697   0.279   3.764  16.704  0.5786  0.0877 -0.0271
  865MPD2     H12698   0.536   3.565  16.509  3.4296  2.7099  0.8137
  865MPD2    H112699   0.430   3.892  16.777  1.9181 -0.0008 -0.6403
  865MPD2    H212700   0.137   3.628  16.616 -0.4303  0.5788  1.8389
  865MPD2    H312701   0.199   3.810  16.762  1.5377  2.6373 -0.7450
  865MPD2     N12702   0.643   3.762  16.655 -0.1985 -0.2239 -0.0738
  865MPD2    H512703   0.669   3.827  16.728 -0.5692  1.5104 -1.5076
  865MPD2    N112704   0.277   3.488  16.471 -0.1596  1.2490 -0.5723
  865MPD2    H712705   0.176   3.476  16.470 -0.0739  0.5350 -0.4477
  866MPD2     C12706   1.753   3.734  11.693  0.1686  0.0425  0.3141
  866MPD2    C112707   1.775   3.762  11.558  0.0162 -0.4923 -0.1616
  866MPD2    C212708   1.662   3.785  11.477  0.3416  0.5031 -0.9303
  866MPD2    C312709   1.540   3.788  11.526 -0.1431 -0.2139  0.8345
  866MPD2    C412710   1.521   3.778  11.665  0.0418  0.1550 -0.2608
  866MPD2    C512711   1.627   3.749  11.740  0.1705  0.0443 -0.6266
  866MPD2     H12712   1.691   3.808  11.375 -1.3739  0.5622 -1.3948
  866MPD2    H112713   1.424   3.772  11.712 -0.6236 -1.0913 -1.7836
  866MPD2    H212714   1.839   3.732  11.758  1.3508  0.6407 -1.2451
  866MPD2    H312715   1.612   3.727  11.845  2.4721 -0.4479 -0.4017
  866MPD2     N12716   1.416   3.802  11.451 -0.1709 -0.6327 -0.0601
  866MPD2    H512717   1.332   3.837  11.497 -0.2262 -0.0882 -0.5677
  866MPD2    N112718   1.902   3.731  11.518  0.2845  0.0607  0.3860
  866MPD2    H712719   1.966   3.682  11.579  1.2728  2.0160  0.9286
  867MPD2     C12720   3.890   3.540  16.507 -0.3647  0.1893 -0.5127
  867MPD2    C112721   3.938   3.471  16.613  0.0038 -0.3664 -0.0294
  867MPD2    C212722   4.013   3.541  16.710  0.1936  0.1549 -0.3344
  867MPD2    C312723   4.066   3.669  16.684  0.1083 -0.4172  0.4233
  867MPD2    C412724   4.032   3.725  16.563 -0.3409 -0.2292 -0.5028
  867MPD2    C512725   3.941   3.663  16.481 -0.1373 -0.5093 -0.3415
  867MPD2     H12726   4.053   3.489  16.796 -0.7217  0.5000  0.3095
  867MPD2    H112727   4.075   3.816  16.523  3.2127 -0.9707  1.7455
  867MPD2    H212728   3.816   3.497  16.440 -0.1365 -3.2110  1.3868
  867MPD2    H312729   3.910   3.717  16.392 -0.2456  3.2040  1.9471
  867MPD2     N12730   4.163   3.739  16.766 -0.0693  0.1691  0.3316
  867MPD2    H512731   4.186   3.830  16.728 -0.1567 -0.1369 -0.4560
  867MPD2    N112732   3.885   3.341  16.635 -0.1051  0.0754 -0.4235
  867MPD2    H712733   3.838   3.294  16.558 -0.6750 -0.4392  0.2454
  868MPD2     C12734   1.176   1.618  13.736 -0.1809  0.5525  0.1872
  868MPD2    C112735   1.106   1.673  13.631  0.7004  0.2062  0.0456
  868MPD2    C212736   1.021   1.778  13.656  0.4572  0.5626 -0.4912
  868MPD2    C312737   1.007   1.836  13.777  0.9957  0.7695  0.8626
  868MPD2    C412738   1.075   1.789  13.890 -0.8235 -0.1391  0.1773
  868MPD2    C512739   1.154   1.677  13.864  0.1187  0.0229 -0.3449
  868MPD2     H12740   0.962   1.823  13.577  0.7861 -1.5768 -1.9693
  868MPD2    H112741   1.055   1.831  13.988 -0.2603  0.2267  0.1366
  868MPD2    H212742   1.238   1.533  13.711  0.1244  0.9093 -0.2412
  868MPD2    H312743   1.205   1.629  13.947 -2.6108 -1.8853  0.2416
  868MPD2     N12744   0.918   1.942  13.774  0.7286  0.7307 -0.9630
  868MPD2    H512745   0.867   1.963  13.689 -1.4302 -1.3244 -0.2169
  868MPD2    N112746   1.134   1.617  13.503  0.7978 -0.2291  0.8069
  868MPD2    H712747   1.213   1.553  13.502  1.5032  0.6441  0.8687
  869MPD2     C12748   1.248   0.378   2.593 -0.2048 -0.0147  0.2015
  869MPD2    C112749   1.367   0.320   2.551 -0.2587  0.7794 -0.4070
  869MPD2    C212750   1.450   0.377   2.457 -0.3803  0.0293  0.5699
  869MPD2    C312751   1.412   0.497   2.396  0.0568 -0.2966  0.2599
  869MPD2    C412752   1.292   0.551   2.438 -0.3096  0.2059  0.1752
  869MPD2    C512753   1.210   0.492   2.526  0.6166  0.6100  0.3058
  869MPD2     H12754   1.536   0.321   2.423 -0.3269  0.7141 -0.4269
  869MPD2    H112755   1.263   0.649   2.401 -0.4470 -0.6459 -1.9974
  869MPD2    H212756   1.189   0.339   2.675 -1.2478 -0.0988 -0.5814
  869MPD2    H312757   1.115   0.536   2.557 -0.9696 -2.7079  0.1134
  869MPD2     N12758   1.481   0.558   2.284  0.1282 -0.0656 -0.0515
  869MPD2    H512759   1.440   0.643   2.246  0.3340 -0.7220 -1.7321
  869MPD2    N112760   1.399   0.195   2.615  0.8919  0.0913  0.2016
  869MPD2    H712761   1.354   0.174   2.704 -0.9060 -3.6323 -1.6012
  870MPD2     C12762   1.328   3.193   1.836  0.7712  0.5093  0.7435
  870MPD2    C112763   1.413   3.249   1.932  0.1500  0.0158 -0.8305
  870MPD2    C212764   1.539   3.287   1.897  0.0712  0.3041  0.1190
  870MPD2    C312765   1.569   3.281   1.763 -0.2950 -0.2156 -0.4589
  870MPD2    C412766   1.482   3.233   1.668  0.3038  0.4146  0.5733
  870MPD2    C512767   1.360   3.184   1.709 -0.4288 -0.5899 -0.6697
  870MPD2     H12768   1.609   3.329   1.969 -0.7352 -1.6378  2.0413
  870MPD2    H112769   1.518   3.224   1.566  1.8235 -1.7787  1.2877
  870MPD2    H212770   1.231   3.154   1.866  0.9725 -0.2385  0.4232
  870MPD2    H312771   1.291   3.134   1.641  3.0281 -0.9819 -3.8960
  870MPD2     N12772   1.701   3.336   1.739 -0.3160  0.0928 -0.0814
  870MPD2    H512773   1.759   3.364   1.817 -1.3736  2.2844 -0.0520
  870MPD2    N112774   1.363   3.261   2.061  0.6385 -0.2572 -0.4951
  870MPD2    H712775   1.268   3.227   2.069  0.8458 -0.9757 -1.0634
  871MPD2     C12776   2.630   3.146  16.329  0.0277 -0.3336 -0.8572
  871MPD2    C112777   2.640   3.073  16.441  0.4621  0.4951  0.0350
  871MPD2    C212778   2.672   2.939  16.436  0.3590  0.1425  0.1811
  871MPD2    C312779   2.690   2.883  16.312 -0.5994 -0.5551 -0.3463
  871MPD2    C412780   2.690   2.956  16.195 -0.1189  0.5257  0.1902
  871MPD2    C512781   2.654   3.088  16.205  0.2927 -0.4164 -1.0498
  871MPD2     H12782   2.676   2.877  16.525 -0.8571  1.0581  0.8683
  871MPD2    H112783   2.705   2.913  16.097 -3.3273  0.9107 -0.4759
  871MPD2    H212784   2.580   3.242  16.337 -3.4970 -2.4242  2.2842
  871MPD2    H312785   2.640   3.160  16.125  0.0134  1.3377  0.5624
  871MPD2     N12786   2.732   2.750  16.315  0.6163 -0.0281  0.0225
  871MPD2    H512787   2.740   2.712  16.409  2.0039 -0.3279 -0.2157
  871MPD2    N112788   2.629   3.147  16.565  0.3694 -0.5986 -0.1454
  871MPD2    H712789   2.619   3.248  16.558 -2.6415 -0.9393 -0.7098
  872MPD2     C12790   3.600   0.903  13.648 -0.3987 -0.6880 -0.2083
  872MPD2    C112791   3.666   0.908  13.770 -0.6638  0.1100  0.8545
  872MPD2    C212792   3.593   0.889  13.887  0.5527  0.5546 -0.6096
  872MPD2    C312793   3.452   0.877  13.893  0.1142  0.7242 -0.0395
  872MPD2    C412794   3.387   0.874  13.769 -0.3467  0.2770  0.6136
  872MPD2    C512795   3.462   0.885  13.653 -0.0783 -0.5212  0.1514
  872MPD2     H12796   3.660   0.881  13.971 -0.4120  0.3521  0.1453
  872MPD2    H112797   3.281   0.853  13.760 -0.3835  0.9417 -0.5449
  872MPD2    H212798   3.641   0.922  13.550  0.4808  0.9090  0.4613
  872MPD2    H312799   3.415   0.876  13.556  0.0186  0.5240  0.0119
  872MPD2     N12800   3.372   0.859  14.006 -0.0061  0.6085  0.2880
  872MPD2    H512801   3.271   0.860  13.992 -0.0416  2.3165  0.7555
  872MPD2    N112802   3.807   0.926  13.771  0.7928 -0.3634  0.9020
  872MPD2    H712803   3.856   0.945  13.858  1.0606  0.2646  0.6125
  873MPD2     C12804   0.263   1.687   0.907 -0.3929 -0.0921 -0.4737
  873MPD2    C112805   0.353   1.694   1.001  0.1363 -0.0787  0.4248
  873MPD2    C212806   0.473   1.629   0.982 -0.5189 -0.8045 -0.1525
  873MPD2    C312807   0.504   1.573   0.856  0.5756  0.4093 -0.7776
  873MPD2    C412808   0.413   1.583   0.753 -0.6610 -0.1499 -0.0390
  873MPD2    C512809   0.292   1.638   0.782  1.1869 -0.5162 -0.3592
  873MPD2     H12810   0.545   1.620   1.063  0.5222 -0.1363 -1.0000
  873MPD2    H112811   0.421   1.544   0.652  0.5454  0.5592 -0.2151
  873MPD2    H212812   0.159   1.715   0.921 -0.0241  0.7815  0.6096
  873MPD2    H312813   0.215   1.620   0.708 -1.3324  0.8800  1.9237
  873MPD2     N12814   0.633   1.521   0.824 -0.7815  0.6487 -0.3858
  873MPD2    H512815   0.648   1.493   0.728  0.7610  0.1438  0.0034
  873MPD2    N112816   0.313   1.756   1.119  0.0577  0.0502  0.5412
  873MPD2    H712817   0.216   1.785   1.115  0.2346  0.6479  0.4895
  874MPD2     C12818   0.482   1.327  16.545  0.5878 -0.4233 -0.0934
  874MPD2    C112819   0.498   1.206  16.613 -0.1296 -0.3679 -0.3059
  874MPD2    C212820   0.599   1.184  16.700 -0.2636 -0.2868 -0.7574
  874MPD2    C312821   0.687   1.286  16.734 -0.0079  0.1629  0.5267
  874MPD2    C412822   0.672   1.411  16.670 -0.3228 -0.4682  0.2408
  874MPD2    C512823   0.568   1.431  16.580  0.3851 -0.1482  0.4412
  874MPD2     H12824   0.612   1.093  16.758 -2.7516 -0.8710 -1.1314
  874MPD2    H112825   0.737   1.494  16.694  0.2734 -0.8969  0.0997
  874MPD2    H212826   0.416   1.346  16.461 -0.5970 -2.2032  0.4242
  874MPD2    H312827   0.569   1.518  16.515  1.2108 -0.5197 -0.0521
  874MPD2     N12828   0.781   1.263  16.841  0.0182  0.5321  0.0455
  874MPD2    H512829   0.796   1.170  16.877  1.7436  0.1740 -1.6092
  874MPD2    N112830   0.405   1.106  16.585  0.7930 -0.6915 -0.0329
  874MPD2    H712831   0.321   1.130  16.532  1.3810  0.8738 -0.2551
  875MPD2     C12832   1.866   4.021  14.786  0.5352  0.5915 -0.3501
  875MPD2    C112833   1.751   4.088  14.762 -0.8998 -0.4797  0.8487
  875MPD2    C212834   1.685   4.153  14.862 -0.1503  0.3376 -0.4269
  875MPD2    C312835   1.733   4.152  14.992 -0.7252  1.0040 -0.2563
  875MPD2    C412836   1.853   4.100  15.023  0.1592  0.8917 -0.7426
  875MPD2    C512837   1.926   4.043  14.915  0.2811  0.4988  0.0092
  875MPD2     H12838   1.585   4.189  14.838  0.4433  1.6038 -0.9931
  875MPD2    H112839   1.889   4.087  15.124 -0.9256 -3.1555 -0.9004
  875MPD2    H212840   1.924   3.981  14.704  1.2756  0.1297  0.3902
  875MPD2    H312841   2.014   3.987  14.944 -0.1849  0.3170  1.0322
  875MPD2     N12842   1.666   4.216  15.095 -0.1850 -0.0197  0.2662
  875MPD2    H512843   1.712   4.246  15.180  0.4928  2.0154 -0.8182
  875MPD2    N112844   1.676   4.081  14.640 -0.2213 -0.0531 -0.6169
  875MPD2    H712845   1.592   4.137  14.639 -0.5742 -0.5952 -1.3483
  876MPD2     C12846   0.462   1.075  16.192 -0.0941  0.3561  0.1423
  876MPD2    C112847   0.549   1.021  16.098 -0.0979  0.1774 -0.3807
  876MPD2    C212848   0.542   0.882  16.072 -0.1622  0.1732  0.0016
  876MPD2    C312849   0.452   0.799  16.142 -0.5357 -0.2044  0.4762
  876MPD2    C412850   0.367   0.855  16.239  0.5439 -0.1831  0.4430
  876MPD2    C512851   0.373   0.996  16.261  0.5388 -0.4981  0.3200
  876MPD2     H12852   0.599   0.842  15.989  0.9731  4.4836 -1.2770
  876MPD2    H112853   0.297   0.795  16.295 -0.6601  1.6316  0.8863
  876MPD2    H212854   0.461   1.180  16.220 -2.7239 -0.0921  1.7479
  876MPD2    H312855   0.327   1.036  16.350 -1.5608 -1.7840 -0.1989
  876MPD2     N12856   0.447   0.664  16.104 -0.2363 -0.4362 -0.2931
  876MPD2    H512857   0.508   0.644  16.026  1.2355 -0.0375  0.7704
  876MPD2    N112858   0.634   1.108  16.023 -0.3172 -0.1814 -0.1825
  876MPD2    H712859   0.635   1.205  16.053  2.2945  0.2601 -1.7221
  877MPD2     C12860   0.444   1.448  15.431  0.3734 -0.2749 -0.2518
  877MPD2    C112861   0.565   1.398  15.425 -0.6060 -0.6270 -0.7401
  877MPD2    C212862   0.610   1.338  15.309  0.4607 -0.4886  0.0483
  877MPD2    C312863   0.528   1.320  15.203  0.0358 -0.7842 -0.1161
  877MPD2    C412864   0.399   1.373  15.216  0.1918  0.2223 -0.5991
  877MPD2    C512865   0.358   1.442  15.327 -0.5351  0.2284  0.0425
  877MPD2     H12866   0.709   1.295  15.306  0.5302 -0.4151  1.1762
  877MPD2    H112867   0.331   1.368  15.133 -2.3549  1.7768  1.3851
  877MPD2    H212868   0.415   1.492  15.525 -2.0922 -2.3855 -0.0324
  877MPD2    H312869   0.265   1.498  15.336 -0.4556  0.5134 -0.9650
  877MPD2     N12870   0.560   1.245  15.086 -0.1990  0.0658  0.1465
  877MPD2    H512871   0.484   1.237  15.020 -1.4143 -0.8288  1.6449
  877MPD2    N112872   0.650   1.379  15.533 -0.4399 -0.3795  0.2742
  877MPD2    H712873   0.741   1.338  15.514  0.1383  0.7542  0.6427
  878MPD2     C12874   4.465   0.328  13.247  0.5343  0.0379  0.4411
  878MPD2    C112875   4.586   0.382  13.232  0.5234 -0.4836 -0.1852
  878MPD2    C212876   4.669   0.382  13.345 -0.1572  0.4371 -0.1474
  878MPD2    C312877   4.634   0.319  13.458 -0.8670 -0.3211 -0.2903
  878MPD2    C412878   4.518   0.246  13.464  0.1025  0.2623 -1.0359
  878MPD2    C512879   4.428   0.270  13.361 -0.0174 -0.5620 -0.1420
  878MPD2     H12880   0.044   0.433  13.337  0.1742  0.0856  1.5468
  878MPD2    H112881   4.480   0.208  13.558  4.0930 -1.6207 -0.2248
  878MPD2    H212882   4.395   0.329  13.164  1.8114  1.6703 -0.6218
  878MPD2    H312883   4.333   0.218  13.364 -0.2274 -0.3814 -4.3533
  878MPD2     N12884   4.694   0.344  13.583  0.1228 -0.2911 -0.0116
  878MPD2    H512885   4.660   0.290  13.662  1.3252 -1.7381 -0.4629
  878MPD2    N112886   4.624   0.441  13.116 -0.2894  0.1846 -0.0447
  878MPD2    H712887   4.557   0.428  13.040  1.0884  1.7477 -1.5444
  879MPD2     C12888   1.260   1.440  17.484  0.0102 -0.5237 -0.2171
  879MPD2    C112889   1.215   1.562  17.449 -0.1893  0.4006 -0.3077
  879MPD2    C212890   1.099   1.562  17.373  0.8070  0.2311 -0.1548
  879MPD2    C312891   1.024   1.447  17.346  0.3008  0.1126  0.7536
  879MPD2    C412892   1.076   1.329  17.397 -0.2746 -0.2113  0.0938
  879MPD2    C512893   1.197   1.326  17.456  0.3928 -0.2956  0.4938
  879MPD2     H12894   1.055   1.660  17.355  0.5836 -0.1264 -1.5614
  879MPD2    H112895   1.030   1.235  17.371 -0.9361  1.2024 -3.8079
  879MPD2    H212896   1.342   1.436  17.555  0.1820 -0.6215 -0.4202
  879MPD2    H312897   1.221   1.233  17.506 -2.2074  0.3431  2.9212
  879MPD2     N12898   0.901   1.447  17.273 -0.0526  0.2904 -0.1984
  879MPD2    H512899   0.855   1.357  17.260 -0.3900  0.1916  1.6627
  879MPD2    N112900   1.281   1.672  17.507 -0.3899  0.6574 -0.1034
  879MPD2    H712901   1.371   1.652  17.551 -0.4771  0.3279 -0.0782
  880MPD2     C12902   2.193   3.181   0.078 -0.2381  0.3133  0.1582
  880MPD2    C112903   2.239   3.193   0.205  0.4313  0.3434  0.1778
  880MPD2    C212904   2.323   3.084   0.248  0.1978  0.1281 -0.1401
  880MPD2    C312905   2.343   2.979   0.163 -0.2291  0.2373  0.7887
  880MPD2    C412906   2.289   2.969   0.039  0.2092  0.0304  0.2226
  880MPD2    C512907   2.218   3.077  17.681  0.1619 -0.5205  0.6049
  880MPD2     H12908   2.373   3.090   0.344  1.8846  0.1954 -1.0308
  880MPD2    H112909   2.301   2.879  17.664 -1.4970  0.5372 -0.8672
  880MPD2    H212910   2.146   3.270   0.036 -0.2575 -0.4578 -1.4820
  880MPD2    H312911   2.187   3.089  17.578  2.2443 -2.1015 -0.2153
  880MPD2     N12912   2.432   2.881   0.210  0.3329  0.1773 -0.1642
  880MPD2    H512913   2.482   2.913   0.293 -0.3589 -1.2128  0.7980
  880MPD2    N112914   2.214   3.317   0.272 -0.2082 -0.4991 -0.0078
  880MPD2    H712915   2.152   3.377   0.219 -0.8601  0.3130  1.6581
  881MPD2     C12916   1.848   4.158   0.068 -0.7852  0.6463  0.6039
  881MPD2    C112917   1.934   4.056   0.024 -0.6769 -0.2870  0.4608
  881MPD2    C212918   1.971   3.961   0.123  0.5408  0.0754  0.1901
  881MPD2    C312919   1.930   3.963   0.262  0.4819  0.4319  0.5607
  881MPD2    C412920   1.824   4.047   0.287  0.4171  0.0488 -0.1147
  881MPD2    C512921   1.783   4.134   0.189  0.5366 -0.6943  0.1724
  881MPD2     H12922   2.023   3.871   0.092  0.7840  0.0199  0.7624
  881MPD2    H112923   1.762   4.042   0.375 -1.5518 -2.1877 -1.6113
  881MPD2    H212924   1.808   4.228  17.679 -0.1880 -0.7296 -1.0493
  881MPD2    H312925   1.697   4.193   0.221 -0.0799 -1.0077 -0.9305
  881MPD2     N12926   1.968   3.865   0.355 -0.3829  0.2156  0.3734
  881MPD2    H512927   1.929   3.857   0.449  0.0631 -1.1151  0.4408
  881MPD2    N112928   1.960   4.041  17.571 -0.0341 -0.2824 -0.7904
  881MPD2    H712929   1.918   4.104  17.504 -0.2286  1.3514  0.8476
  882MPD2     C12930   0.448   0.887  14.325 -0.0786  0.0991  0.0169
  882MPD2    C112931   0.407   0.948  14.438  0.3043  0.2506  0.2504
  882MPD2    C212932   0.273   0.966  14.453 -0.0221  1.0205  0.1967
  882MPD2    C312933   0.178   0.940  14.354  0.4897  0.5948 -0.3367
  882MPD2    C412934   0.223   0.892  14.231 -0.3657  0.2885  0.0748
  882MPD2    C512935   0.357   0.849  14.228  0.0382 -0.1929  0.1488
  882MPD2     H12936   0.240   1.012  14.545 -0.4480  2.0721 -0.4882
  882MPD2    H112937   0.153   0.864  14.154 -0.7638  0.6169  0.3191
  882MPD2    H212938   0.551   0.859  14.306 -0.4945 -1.6592  0.3641
  882MPD2    H312939   0.377   0.789  14.140 -4.1630  0.3821 -1.1749
  882MPD2     N12940   0.041   0.952  14.368  0.0751  0.4153  0.1723
  882MPD2    H512941   4.705   0.943  14.283 -0.0331  0.8617  0.1950
  882MPD2    N112942   0.504   0.980  14.532 -0.0327  0.2006  0.0789
  882MPD2    H712943   0.591   0.931  14.515 -0.7624 -0.7982 -0.8211
  883MPD2     C12944   2.725   0.948  16.779  0.1529 -0.7649  0.4864
  883MPD2    C112945   2.756   1.006  16.658  0.1110  0.3230 -0.2295
  883MPD2    C212946   2.872   1.082  16.654 -0.6707 -0.0289 -1.4975
  883MPD2    C312947   2.955   1.089  16.764  0.2411 -0.5275  0.3559
  883MPD2    C412948   2.922   1.028  16.881  0.0876 -0.8027  0.6162
  883MPD2    C512949   2.804   0.961  16.886  0.3337  0.3632 -0.3033
  883MPD2     H12950   2.899   1.131  16.561 -1.4550  0.5664 -1.4053
  883MPD2    H112951   2.985   1.039  16.969  0.9846  0.8248 -0.2258
  883MPD2    H212952   2.636   0.890  16.803 -0.1933 -0.1665  0.6363
  883MPD2    H312953   2.773   0.921  16.982 -0.7891 -0.9962 -1.2227
  883MPD2     N12954   3.066   1.174  16.754 -0.7056 -0.3192 -0.7913
  883MPD2    H512955   3.091   1.203  16.660  0.2190  0.0152 -0.4423
  883MPD2    N112956   2.677   1.007  16.543 -0.0869 -0.1001  0.6294
  883MPD2    H712957   2.705   1.057  16.459 -2.0723  4.5311  2.6941
  884MPD2     C12958   4.418   1.822  15.375  0.1526 -0.0715  0.0100
  884MPD2    C112959   4.413   1.958  15.321  0.3381 -0.5486  0.4028
  884MPD2    C212960   4.294   2.024  15.328 -0.5343  0.2730  0.0081
  884MPD2    C312961   4.179   1.967  15.383 -0.2658  0.0768  0.4083
  884MPD2    C412962   4.189   1.843  15.441  0.5443  0.5071  0.3822
  884MPD2    C512963   4.305   1.769  15.432  1.6563 -0.1294 -0.1024
  884MPD2     H12964   4.291   2.114  15.268  2.6897  0.7826  0.6481
  884MPD2    H112965   4.112   1.788  15.493  0.5143  2.0347  1.9446
  884MPD2    H212966   4.505   1.757  15.371 -0.2756 -0.6791  0.5564
  884MPD2    H312967   4.305   1.674  15.484 -1.2453  0.8289  1.6264
  884MPD2     N12968   4.065   2.042  15.382 -0.5832 -0.2464  0.0602
  884MPD2    H512969   4.060   2.125  15.324 -0.4116 -1.0128 -1.0401
  884MPD2    N112970   4.522   2.027  15.267  0.0260  0.5741 -0.4132
  884MPD2    H712971   4.505   2.123  15.237  0.0866  0.5252 -0.6083
  885MPD2     C12972   2.328   1.158   0.192 -0.2750  0.3699 -0.1826
  885MPD2    C112973   2.403   1.259   0.246  0.1749  0.0391 -0.2249
  885MPD2    C212974   2.456   1.346   0.151 -0.2022 -0.0436  0.1069
  885MPD2    C312975   2.430   1.339   0.017  0.1953  0.1051  0.6151
  885MPD2    C412976   2.346   1.237  17.655  0.0743  0.2822  0.0453
  885MPD2    C512977   2.293   1.145   0.058 -0.2430 -0.0444  0.3724
  885MPD2     H12978   2.508   1.434   0.186 -2.3522  1.0174  0.6563
  885MPD2    H112979   2.320   1.222  17.551 -1.7940 -1.9293  0.8361
  885MPD2    H212980   2.282   1.088   0.261 -1.2314 -0.2526 -1.4526
  885MPD2    H312981   2.235   1.060   0.026  1.2632 -0.7201 -0.5310
  885MPD2     N12982   2.502   1.432  17.615 -0.0791  0.2818  0.4193
  885MPD2    H512983   2.534   1.519  17.657  0.9354 -0.3514  0.9537
  885MPD2    N112984   2.425   1.266   0.388 -0.7782 -0.0106  0.0826
  885MPD2    H712985   2.381   1.193   0.443 -5.8483  3.2550  0.3855
  886MPD2     C12986   3.811   0.654  15.963 -0.1619  1.0648 -0.0691
  886MPD2    C112987   3.817   0.653  15.823 -0.0251 -0.2688  0.5108
  886MPD2    C212988   3.798   0.774  15.751  0.3335  0.3749 -0.2050
  886MPD2    C312989   3.789   0.896  15.815  0.2964  0.5024  0.0066
  886MPD2    C412990   3.813   0.890  15.956  0.4889  0.3071  0.0347
  886MPD2    C512991   3.820   0.774  16.023  0.4315 -0.2125 -0.3127
  886MPD2     H12992   3.809   0.759  15.644 -0.7229  0.4830 -0.3294
  886MPD2    H112993   3.838   0.980  16.011 -0.2921  0.1823  0.5955
  886MPD2    H212994   3.832   0.572  16.030  0.6277  1.1766 -0.1674
  886MPD2    H312995   3.828   0.777  16.131 -1.3228  2.0402 -0.2378
  886MPD2     N12996   3.777   1.020  15.748  0.1795 -0.3576  0.3987
  886MPD2    H512997   3.805   1.106  15.793  1.4107  0.7686 -2.5331
  886MPD2    N112998   3.853   0.543  15.745 -0.4831  0.2413 -0.1127
  886MPD2    H712999   3.850   0.554  15.644  0.1893  1.6585  0.0277
  887MPD2     C13000   4.331   0.733  15.389  0.2022  0.1908  0.0540
  887MPD2    C113001   4.328   0.663  15.508 -0.2300 -0.4211  1.1121
  887MPD2    C213002   4.391   0.723  15.623  0.5829 -0.4930  0.1318
  887MPD2    C313003   4.437   0.855  15.623  0.0033  0.1723  0.8379
  887MPD2    C413004   4.435   0.919  15.497 -0.6282  0.4366  0.0326
  887MPD2    C513005   4.382   0.858  15.388 -0.2187  0.6160  0.7615
  887MPD2     H13006   4.387   0.668  15.717  3.1147 -0.0730  0.4960
  887MPD2    H113007   4.472   1.020  15.482 -1.7452  0.9095  0.4586
  887MPD2    H213008   4.296   0.697  15.292 -0.2878 -1.7264  0.9273
  887MPD2    H313009   4.376   0.918  15.298 -1.1345 -0.0931  0.3501
  887MPD2     N13010   4.495   0.907  15.742 -0.1017  0.2922  0.6822
  887MPD2    H513011   4.501   0.842  15.819  1.1988 -1.6385 -1.0180
  887MPD2    N113012   4.266   0.534  15.529  0.4198  0.0267  0.0085
  887MPD2    H713013   4.255   0.498  15.623 -1.0395 -0.2763 -0.2767
  888MPD2     C13014   1.649   0.834  14.738  0.1236  0.4385 -0.2705
  888MPD2    C113015   1.695   0.883  14.859  0.3979  0.2151  0.3885
  888MPD2    C213016   1.741   1.011  14.860 -0.0396 -0.5085 -0.9307
  888MPD2    C313017   1.746   1.091  14.742  0.4754 -0.0830  0.1597
  888MPD2    C413018   1.720   1.033  14.619 -0.3471 -0.3931  0.0081
  888MPD2    C513019   1.670   0.903  14.622  0.5657  0.9722  0.6169
  888MPD2     H13020   1.774   1.033  14.961  0.1136  0.5309 -1.2077
  888MPD2    H113021   1.716   1.082  14.522  0.2035  0.6408  0.5165
  888MPD2    H213022   1.629   0.728  14.727  0.0927  0.6380 -2.1074
  888MPD2    H313023   1.647   0.857  14.527  0.2734  1.3200  0.5195
  888MPD2     N13024   1.790   1.219  14.748 -0.2211 -0.1068  0.1760
  888MPD2    H513025   1.832   1.253  14.834 -2.2798  2.6070  0.1194
  888MPD2    N113026   1.681   0.808  14.981 -0.1910  0.1463  0.1140
  888MPD2    H713027   1.732   0.842  15.063  0.5989  1.9394 -1.1168
  889MPD2     C13028   0.611   4.630  12.894 -1.0852 -0.0374  0.2418
  889MPD2    C113029   0.671   4.610  13.017 -0.1007  0.7695 -0.4958
  889MPD2    C213030   0.716   0.002  13.067 -0.4609 -0.2515  0.1328
  889MPD2    C313031   0.681   0.132  13.031  0.8626  0.5762  0.1263
  889MPD2    C413032   0.618   0.145  12.915 -0.2028  0.0998  0.2411
  889MPD2    C513033   0.571   0.032  12.855  0.3836 -0.2786 -0.1787
  889MPD2     H13034   0.749   4.714  13.170 -2.3755 -1.2829  0.6544
  889MPD2    H113035   0.597   0.236  12.860 -2.5915 -0.8108 -0.3793
  889MPD2    H213036   0.570   4.541  12.847 -0.2307 -0.3131  0.0137
  889MPD2    H313037   0.511   0.029  12.765 -0.5553  2.8346  0.3201
  889MPD2     N13038   0.730   0.243  13.112  0.1808 -1.0391  0.1200
  889MPD2    H513039   0.773   0.231  13.203  1.6059  1.6298 -0.2026
  889MPD2    N113040   0.705   4.478  13.064  0.8941 -0.3711 -0.2355
  889MPD2    H713041   0.667   4.402  13.007 -0.0741 -2.1290  2.7469
  890MPD2     C13042   0.285   1.942  14.898  0.0957 -0.6793  0.2408
  890MPD2    C113043   0.401   1.998  14.925  0.0372 -0.7578 -0.0233
  890MPD2    C213044   0.465   1.952  15.040 -0.0502 -0.6204 -0.1140
  890MPD2    C313045   0.401   1.876  15.134  0.3337  0.5321  0.0554
  890MPD2    C413046   0.287   1.815  15.099  0.0740  0.4868  0.1765
  890MPD2    C513047   0.230   1.847  14.979 -0.7031 -0.7090  0.0502
  890MPD2     H13048   0.558   2.002  15.061  0.0035  0.2207 -2.3900
  890MPD2    H113049   0.256   1.732  15.162  0.8964  1.2193  1.5587
  890MPD2    H213050   0.228   1.964  14.808 -1.4616  0.4652  1.5045
  890MPD2    H313051   0.137   1.803  14.945 -0.7606 -1.2534  0.9210
  890MPD2     N13052   0.469   1.856  15.251 -0.5882  0.1107  0.3223
  890MPD2    H513053   0.563   1.893  15.255 -0.3827 -0.3864  0.1110
  890MPD2    N113054   0.444   2.107  14.843  0.6507  0.0616  0.6737
  890MPD2    H713055   0.381   2.144  14.773  0.3127 -0.9650  0.4310
  891MPD2     C13056   3.456   0.407  16.553  0.2839  0.4218 -0.2201
  891MPD2    C113057   3.393   0.394  16.672  0.4715 -0.1752  0.1575
  891MPD2    C213058   3.458   0.337  16.782  0.4484  0.3330 -0.4331
  891MPD2    C313059   3.586   0.290  16.771 -0.1101 -0.0551  0.4342
  891MPD2    C413060   3.646   0.298  16.645 -0.0368 -0.3630 -0.1166
  891MPD2    C513061   3.580   0.353  16.536  0.0253 -0.4550 -0.3329
  891MPD2     H13062   3.407   0.340  16.877  1.4907 -0.9634  0.1686
  891MPD2    H113063   3.750   0.268  16.634 -0.7749 -1.7130 -3.4510
  891MPD2    H213064   3.409   0.457  16.468 -0.7758 -2.0530 -1.0885
  891MPD2    H313065   3.634   0.359  16.442  0.0621  0.2551 -0.2666
  891MPD2     N13066   3.642   0.232  16.885 -0.5102  0.2416 -0.0927
  891MPD2    H513067   3.583   0.230  16.968 -1.5924 -0.2532 -0.8684
  891MPD2    N113068   3.261   0.443  16.691 -0.5223 -0.4897 -0.1733
  891MPD2    H713069   3.224   0.481  16.605  0.0983 -0.5538 -0.4720
  892MPD2     C13070   4.314   1.764  14.618 -0.1030  0.6902 -1.0111
  892MPD2    C113071   4.213   1.672  14.637  0.1242  0.3036  0.0291
  892MPD2    C213072   4.244   1.538  14.615  0.6862  0.1982  0.0969
  892MPD2    C313073   4.367   1.501  14.566 -0.0735  0.0085 -0.3771
  892MPD2    C413074   4.464   1.595  14.541 -0.0492  0.5302  0.0158
  892MPD2    C513075   4.437   1.727  14.565 -0.4992  0.1840 -0.1355
  892MPD2     H13076   4.178   1.461  14.653 -0.6471  0.6600 -1.3105
  892MPD2    H113077   4.560   1.572  14.497 -1.6990 -1.9360 -2.2906
  892MPD2    H213078   4.302   1.870  14.638 -0.8192  0.6431 -1.2035
  892MPD2    H313079   4.517   1.799  14.553 -0.0501 -0.2375  0.3640
  892MPD2     N13080   4.405   1.367  14.538 -0.1402 -0.2073 -0.2574
  892MPD2    H513081   4.501   1.345  14.512 -0.5297 -0.5170 -1.4262
  892MPD2    N113082   4.091   1.700  14.694 -0.0781 -0.0042  0.3389
  892MPD2    H713083   4.025   1.626  14.712 -1.6737  0.9085 -1.7747
  893MPD2     C13084   1.836   3.775   1.583  0.2933  0.1588 -0.5659
  893MPD2    C113085   1.762   3.746   1.697  0.1621 -0.3256 -0.3148
  893MPD2    C213086   1.633   3.704   1.687  0.4717  0.1355  0.4907
  893MPD2    C313087   1.585   3.681   1.558 -0.1203 -0.5406 -0.9409
  893MPD2    C413088   1.653   3.708   1.441 -0.3410 -0.3435  0.1427
  893MPD2    C513089   1.776   3.759   1.459  0.1839 -0.1589  0.6248
  893MPD2     H13090   1.579   3.677   1.777  0.4272 -2.6209 -0.3542
  893MPD2    H113091   1.616   3.672   1.346  0.7731 -1.3300  0.0909
  893MPD2    H213092   1.938   3.811   1.586  0.1353  0.5812 -0.1632
  893MPD2    H313093   1.833   3.770   1.368  0.5931  0.4056  0.9501
  893MPD2     N13094   1.468   3.608   1.538  0.2824  0.2664  0.3978
  893MPD2    H513095   1.461   3.594   1.437 -2.2663  0.8201  0.4816
  893MPD2    N113096   1.833   3.770   1.817 -0.5995 -0.1177  0.3232
  893MPD2    H713097   1.924   3.814   1.812  0.1922 -1.6922  0.6731
  894MPD2     C13098   4.266   1.920   0.347 -0.2080  0.1678  0.0128
  894MPD2    C113099   4.167   1.860   0.416  0.4937 -0.0050  0.6094
  894MPD2    C213100   4.064   1.943   0.456 -0.7274  0.0866  0.3465
  894MPD2    C313101   4.063   2.080   0.423  0.0630 -0.5409 -0.3095
  894MPD2    C413102   4.165   2.138   0.347  0.3109 -0.7114  0.9011
  894MPD2    C513103   4.266   2.050   0.309 -0.2061  1.1366 -0.0418
  894MPD2     H13104   3.993   1.914   0.532 -1.1639 -0.2444 -0.1915
  894MPD2    H113105   4.178   2.244   0.330  0.5649 -1.0897 -1.2867
  894MPD2    H213106   4.357   1.873   0.311 -2.2549 -2.5387 -1.6479
  894MPD2    H313107   4.351   2.084   0.250  1.9112 -0.0905  2.2754
  894MPD2     N13108   3.970   2.162   0.494  0.1398 -0.1074 -0.2086
  894MPD2    H513109   3.913   2.109   0.559 -0.1191  1.0835  0.5281
  894MPD2    N113110   4.168   1.730   0.466 -0.4335 -0.1393 -0.1955
  894MPD2    H713111   4.078   1.704   0.504 -0.3798 -0.6861 -0.4379
  895MPD2     C13112   3.543   0.108  14.008 -0.3619  0.2326  0.1081
  895MPD2    C113113   3.466   0.095  13.892 -0.1133  0.2301 -0.4646
  895MPD2    C213114   3.514   0.013  13.797  0.6304  1.0937 -0.1455
  895MPD2    C313115   3.625   4.658  13.807 -0.0025  0.2209 -0.0491
  895MPD2    C413116   3.702   4.666  13.924 -0.1282 -1.0461  0.0174
  895MPD2    C513117   3.655   0.030  14.027 -0.2173  0.2743  0.6164
  895MPD2     H13118   3.463   0.022  13.701 -1.6318  1.6837  1.1166
  895MPD2    H113119   3.791   4.608  13.944  1.5410  0.7960 -2.0375
  895MPD2    H213120   3.513   0.172  14.090 -2.5202  1.5435 -1.7381
  895MPD2    H313121   3.699   0.030  14.126 -2.2227  2.3301  1.5100
  895MPD2     N13122   3.666   4.588  13.695  0.2637  0.7303 -0.1876
  895MPD2    H513123   3.606   4.590  13.613  0.0145 -0.9913 -0.0361
  895MPD2    N113124   3.362   0.182  13.860 -0.5346 -0.4825  0.2127
  895MPD2    H713125   3.320   0.170  13.769  1.1628 -2.0440 -0.3534
  896MPD2     C13126   4.665   2.864   2.005 -0.5773  0.8475  0.2455
  896MPD2    C113127   4.718   2.838   1.881 -0.0852 -0.8883  0.5110
  896MPD2    C213128   4.635   2.790   1.779 -0.2159  0.3223 -0.3791
  896MPD2    C313129   4.502   2.780   1.804 -0.3755  0.2418  0.3255
  896MPD2    C413130   4.447   2.816   1.923  0.2323  0.2747 -0.6331
  896MPD2    C513131   4.532   2.850   2.022 -0.3415  0.3352 -0.1086
  896MPD2     H13132   4.668   2.753   1.683 -2.4516  0.8496 -1.3469
  896MPD2    H113133   4.342   2.806   1.947  0.2286  1.1920 -0.2679
  896MPD2    H213134   0.011   2.894   2.085  0.1252 -1.1379  0.3996
  896MPD2    H313135   4.485   2.864   2.118  0.9088  2.6952  0.1536
  896MPD2     N13136   4.420   2.737   1.694 -0.3903  0.7938 -0.1090
  896MPD2    H513137   4.463   2.711   1.606 -0.7109 -1.0806  0.2987
  896MPD2    N113138   0.134   2.872   1.854  0.4868 -0.3955 -0.4153
  896MPD2    H713139   0.188   2.913   1.929 -0.6484  0.5565 -0.1074
  897MPD2     C13140   2.124   4.388  10.435  0.1237  0.2918  0.3858
  897MPD2    C113141   2.027   4.481  10.458  0.6114 -0.1504 -0.0613
  897MPD2    C213142   1.925   4.459  10.550 -0.4943 -0.8643 -0.4665
  897MPD2    C313143   1.929   4.336  10.608  0.0940  0.2469  0.4068
  897MPD2    C413144   2.025   4.245  10.593 -0.4915 -0.1322  0.3646
  897MPD2    C513145   2.125   4.265  10.502  1.0310 -0.0263  0.1206
  897MPD2     H13146   1.840   4.526  10.551  2.5479  3.0299  0.2160
  897MPD2    H113147   2.040   4.158  10.657 -0.8595 -1.1503 -0.9182
  897MPD2    H213148   2.191   4.394  10.350  0.6395  0.6899  0.8166
  897MPD2    H313149   2.206   4.196  10.485 -0.9982 -2.0626 -1.2704
  897MPD2     N13150   1.829   4.321  10.705  0.3910  0.4458  0.0398
  897MPD2    H513151   1.780   4.404  10.734  0.7827  0.5730  0.3400
  897MPD2    N113152   2.025   4.589  10.360  0.3116 -0.2415 -0.7045
  897MPD2    H713153   2.100   4.591  10.293  0.5086 -1.4964 -0.5360
  898MPD2     C13154   3.518   0.212   0.316  0.3390  0.1053 -0.0339
  898MPD2    C113155   3.572   0.308   0.234  1.0437  0.5808  0.7232
  898MPD2    C213156   3.488   0.405   0.173 -0.3322 -0.0462  0.1239
  898MPD2    C313157   3.355   0.412   0.199 -0.1555 -0.7293  0.1388
  898MPD2    C413158   3.302   0.313   0.280  0.3701  0.0383  0.1291
  898MPD2    C513159   3.382   0.217   0.337  0.7839  0.7052  0.1690
  898MPD2     H13160   3.525   0.483   0.108 -1.3643 -1.8083 -2.5732
  898MPD2    H113161   3.197   0.310   0.308 -0.0866 -2.5432 -1.8791
  898MPD2    H213162   3.574   0.132   0.364 -0.0900  0.0572  0.3793
  898MPD2    H313163   3.330   0.142   0.396 -1.8408  1.1704 -1.5125
  898MPD2     N13164   3.277   0.506   0.130  0.0008  0.0820  0.7875
  898MPD2    H513165   3.324   0.574   0.071 -2.1611 -2.2931 -3.6366
  898MPD2    N113166   3.704   0.297   0.191  0.4058 -0.7954 -0.1009
  898MPD2    H713167   3.732   0.350   0.108 -0.1021  0.9249  0.8407
  899MPD2     C13168   4.644   1.059  17.664  1.0648  0.3091 -0.6839
  899MPD2    C113169   0.006   1.162   0.003  0.0113  0.5498 -0.5757
  899MPD2    C213170   0.038   1.200   0.129 -0.0007  0.2451 -0.1071
  899MPD2    C313171   4.678   1.156   0.231 -0.3379  0.2428 -0.5147
  899MPD2    C413172   4.596   1.052   0.209 -0.4198 -0.1846  0.0426
  899MPD2    C513173   4.589   0.991   0.085 -0.0506 -0.3800  0.6929
  899MPD2     H13174   0.104   1.285   0.145 -0.1905  0.4728 -0.5215
  899MPD2    H113175   4.544   1.016   0.296 -1.8736  1.1544 -0.2656
  899MPD2    H213176   4.604   1.027  17.568  0.6506 -0.3099 -0.3011
  899MPD2    H313177   4.533   0.900   0.068  0.5929 -0.5903 -0.2839
  899MPD2     N13178   4.682   1.210   0.359  0.5494 -0.7795  0.6231
  899MPD2    H513179   4.643   1.149   0.430 -2.3474  0.0191 -0.2708
  899MPD2    N113180   0.048   1.239  17.578 -0.5130  0.9761 -0.2985
  899MPD2    H713181   4.715   1.236  17.492 -2.2073  0.7794  0.7574
  900MPD2     C13182   4.149   3.168  12.472 -0.9083 -0.1294  0.2651
  900MPD2    C113183   4.106   3.060  12.402 -0.3627 -0.5629  0.5100
  900MPD2    C213184   4.022   3.085  12.293 -0.8624  0.5133 -0.2806
  900MPD2    C313185   3.969   3.214  12.276  0.1006  0.2539 -0.0235
  900MPD2    C413186   4.013   3.318  12.359  0.4251 -0.0281 -0.5653
  900MPD2    C513187   4.109   3.296  12.450 -0.2391 -0.1528  0.6045
  900MPD2     H13188   3.974   3.001  12.244 -0.3396  0.3133 -0.4497
  900MPD2    H113189   3.986   3.421  12.337 -1.7903 -0.9894 -2.2996
  900MPD2    H213190   4.216   3.151  12.555  0.8357  0.7951 -0.9319
  900MPD2    H313191   4.139   3.381  12.511  0.0269 -0.0760  0.3674
  900MPD2     N13192   3.876   3.248  12.172  0.3954 -0.0054  0.0344
  900MPD2    H513193   3.856   3.173  12.106 -0.8849 -0.2763  0.7276
  900MPD2    N113194   4.152   2.933  12.450 -0.6684  0.7018  0.3663
  900MPD2    H713195   4.193   2.929  12.542  2.5410 -0.2070 -1.0997
  901MPD2     C13196   4.219   2.091  13.040 -0.1137 -0.1944  0.5000
  901MPD2    C113197   4.235   2.052  12.909  0.0697  0.1607 -0.5845
  901MPD2    C213198   4.234   2.145  12.799 -0.4245  1.0793  0.0076
  901MPD2    C313199   4.226   2.278  12.827 -0.3066 -0.3849  0.1635
  901MPD2    C413200   4.205   2.312  12.960  0.3387 -0.0067 -0.0379
  901MPD2    C513201   4.210   2.225  13.062  0.5468  0.3850  0.5847
  901MPD2     H13202   4.249   2.126  12.693  1.7107 -0.9444  0.6804
  901MPD2    H113203   4.193   2.416  12.989 -2.8745 -0.4722  0.3060
  901MPD2    H213204   4.223   2.019  13.120  1.5817  1.4209  1.8725
  901MPD2    H313205   4.201   2.259  13.165 -1.2411  2.3617 -0.2318
  901MPD2     N13206   4.242   2.364  12.717 -0.1659 -0.0605 -0.8074
  901MPD2    H513207   4.256   2.323  12.625  0.1346 -0.2787 -0.6636
  901MPD2    N113208   4.259   1.916  12.891  0.4757  0.5272  0.0239
  901MPD2    H713209   4.245   1.854  12.970 -1.2048  1.3417  0.3702
  902MPD2     C13210   3.172   1.061  12.949  0.7935  0.2481 -0.2879
  902MPD2    C113211   3.112   1.056  12.825  0.2695 -0.1745  0.5723
  902MPD2    C213212   3.170   0.983  12.718 -0.4742  0.0963  0.1838
  902MPD2    C313213   3.296   0.928  12.731  0.2149 -0.5682 -0.2158
  902MPD2    C413214   3.348   0.925  12.861  0.2396 -0.4689 -0.2180
  902MPD2    C513215   3.291   0.993  12.960  0.3817  0.3925  0.3522
  902MPD2     H13216   3.121   0.979  12.622  1.3914 -1.5932 -0.7094
  902MPD2    H113217   3.442   0.879  12.889  2.0926  1.2140 -3.7354
  902MPD2    H213218   3.136   1.108  13.040  1.0562  0.6548 -0.3940
  902MPD2    H313219   3.321   0.981  13.063 -0.3674 -0.5816  0.4656
  902MPD2     N13220   3.373   0.867  12.625 -0.4325  0.4430  0.1648
  902MPD2    H513221   3.455   0.815  12.655  0.1369 -0.0786 -2.2791
  902MPD2    N113222   2.992   1.130  12.812 -0.2805 -0.1446  0.0151
  902MPD2    H713223   2.972   1.202  12.881  1.8212  0.4939 -0.0337
  903MPD2     C13224   3.368   0.110  12.403  0.7135  0.1892  0.0349
  903MPD2    C113225   3.288   0.216  12.366  0.2471  0.5258  0.3242
  903MPD2    C213226   3.150   0.211  12.385 -0.0606 -0.4934  0.5818
  903MPD2    C313227   3.097   0.101  12.451 -0.4959  0.1267  0.3460
  903MPD2    C413228   3.185   0.011  12.513 -0.0319  0.2992 -0.4140
  903MPD2    C513229   3.316   0.013  12.485 -0.7204 -0.0106  1.0021
  903MPD2     H13230   3.086   0.288  12.342  0.8139 -0.7597 -1.2080
  903MPD2    H113231   3.153   4.652  12.581  3.2155  0.6812  1.5514
  903MPD2    H213232   3.473   0.131  12.391  0.1503  3.2449  0.4489
  903MPD2    H313233   3.375   4.652  12.525 -0.0737 -0.3553 -0.6761
  903MPD2     N13234   2.959   0.092  12.453  0.3916  0.5252  0.2618
  903MPD2    H513235   2.907   0.151  12.389 -1.7651  0.3233  1.8028
  903MPD2    N113236   3.361   0.327  12.310 -0.1956 -0.2154  0.2241
  903MPD2    H713237   3.460   0.310  12.321  0.1203  0.2778 -1.9270
  904MPD2     C13238   3.419   4.556  14.239 -0.2607 -0.2133  0.0217
  904MPD2    C113239   3.395   4.499  14.121 -0.0119  0.5418 -0.0181
  904MPD2    C213240   3.490   4.421  14.066 -0.0985  0.0782 -0.3035
  904MPD2    C313241   3.609   4.403  14.132  0.9319 -0.5987 -0.8909
  904MPD2    C413242   3.638   4.467  14.252  0.0306  0.5973  0.3932
  904MPD2    C513243   3.531   4.533  14.314 -0.3264 -0.1297  0.7562
  904MPD2     H13244   3.483   4.389  13.963  3.4307  0.5747 -0.6885
  904MPD2    H113245   3.721   4.438  14.315  0.6097 -0.9968 -1.1015
  904MPD2    H213246   3.341   4.610  14.292  0.0405 -0.4191  0.6840
  904MPD2    H313247   3.531   4.560  14.419 -1.5486  3.0412 -0.0683
  904MPD2     N13248   3.700   4.319  14.066 -0.0359 -0.3751  0.3007
  904MPD2    H513249   3.683   4.287  13.971 -0.1388 -1.1848  0.5914
  904MPD2    N113250   3.271   4.516  14.055  0.4521 -0.3481 -0.3196
  904MPD2    H713251   3.253   4.459  13.973 -0.9013 -0.6425  0.1935
  905MPD2     C13252   3.020   4.453  13.355 -0.4531  0.1226 -0.3462
  905MPD2    C113253   3.095   4.535  13.443 -0.0737  0.1494  0.3344
  905MPD2    C213254   3.235   4.549  13.416  0.3491 -0.4348  1.0715
  905MPD2    C313255   3.295   4.481  13.310  0.4851 -0.6226  0.1183
  905MPD2    C413256   3.215   4.403  13.229 -0.2800  0.3177  0.0623
  905MPD2    C513257   3.079   4.395  13.250  0.0786 -0.5990  0.5692
  905MPD2     H13258   3.293   4.617  13.478  1.6522  0.1808 -0.8285
  905MPD2    H113259   3.249   4.366  13.133 -2.7919  2.5208 -1.6868
  905MPD2    H213260   2.912   4.458  13.364 -0.3676  1.4254  0.0522
  905MPD2    H313261   3.018   4.348  13.173  0.3500 -1.2594  0.7584
  905MPD2     N13262   3.435   4.491  13.286 -0.2415  0.0178 -0.6074
  905MPD2    H513263   3.474   4.439  13.208 -0.3798 -1.6285  0.4107
  905MPD2    N113264   3.027   4.581  13.559 -0.3244 -0.1619  0.2113
  905MPD2    H713265   2.939   4.535  13.578 -0.3117  0.8751  2.6830
  906MPD2     C13266   0.475   4.354  11.395 -0.1259 -0.4268 -0.4755
  906MPD2    C113267   0.403   4.296  11.297 -0.1819  0.0023 -0.7192
  906MPD2    C213268   0.271   4.250  11.321 -0.1980 -0.0275  0.0887
  906MPD2    C313269   0.224   4.258  11.451 -0.3528  0.6073 -0.1879
  906MPD2    C413270   0.300   4.307  11.555  0.3827 -0.3773 -0.2180
  906MPD2    C513271   0.424   4.358  11.522  0.7485  0.0832 -1.0413
  906MPD2     H13272   0.211   4.215  11.237  2.8638 -2.1638 -1.2151
  906MPD2    H113273   0.258   4.308  11.654 -2.1905  1.0967 -1.3322
  906MPD2    H213274   0.576   4.390  11.378 -0.2806 -0.3220 -1.1637
  906MPD2    H313275   0.487   4.404  11.598 -0.1172 -0.0103 -0.2633
  906MPD2     N13276   0.090   4.223  11.488  0.1708  0.1048  0.8955
  906MPD2    H513277   0.060   4.227  11.585  0.5195  1.2510  0.9517
  906MPD2    N113278   0.447   4.299  11.159  0.1054 -0.3798 -0.5548
  906MPD2    H713279   0.401   4.243  11.087  0.0444  1.9750 -2.3454
  907MPD2     C13280   4.129   3.984  15.628  0.0874  0.1489 -0.0535
  907MPD2    C113281   4.247   3.921  15.587  0.4334  0.5109  0.1541
  907MPD2    C213282   4.353   3.919  15.674  0.2076  0.0973 -0.3356
  907MPD2    C313283   4.335   3.956  15.803 -0.2621 -0.7701 -0.1162
  907MPD2    C413284   4.223   4.027  15.837 -1.3557  0.4253 -0.2651
  907MPD2    C513285   4.116   4.043  15.756 -0.3673 -0.3349 -0.0022
  907MPD2     H13286   4.437   3.853  15.653  0.0159 -0.1288 -0.3911
  907MPD2    H113287   4.211   4.065  15.938 -1.2030 -2.4178  0.8301
  907MPD2    H213288   4.035   3.991  15.575 -1.0290 -1.4976  1.7140
  907MPD2    H313289   4.024   4.086  15.792 -0.6754 -0.9668 -0.0427
  907MPD2     N13290   4.434   3.927  15.899 -0.1611 -0.1115 -0.3218
  907MPD2    H513291   4.493   3.847  15.877 -1.6470 -1.0211 -1.0263
  907MPD2    N113292   4.250   3.866  15.460 -0.3657  0.1003  0.3532
  907MPD2    H713293   4.336   3.813  15.442 -0.2460  0.4224 -0.0300
  908MPD2     C13294   1.658   4.408   9.595  0.5202  0.5434  0.3269
  908MPD2    C113295   1.660   4.373   9.729 -0.4074 -0.0371 -0.6279
  908MPD2    C213296   1.729   4.451   9.822 -0.2170 -0.1502 -0.4836
  908MPD2    C313297   1.795   4.566   9.785 -0.7755 -0.1035  0.2247
  908MPD2    C413298   1.805   4.597   9.647  0.8169 -0.3722 -0.4001
  908MPD2    C513299   1.732   4.517   9.557 -0.0373 -0.9181  0.6248
  908MPD2     H13300   1.720   4.430   9.927 -2.5619 -1.0417 -0.8624
  908MPD2    H113301   1.854   4.684   9.606  0.1348  0.3323  0.2835
  908MPD2    H213302   1.604   4.361   9.513  2.1390 -0.5865 -0.0907
  908MPD2    H313303   1.710   4.545   9.455 -2.1856 -0.9631  1.0837
  908MPD2     N13304   1.841   4.647   9.891 -0.4145 -0.5579 -0.0135
  908MPD2    H513305   1.829   4.604   9.982  1.0401 -1.8182 -0.4293
  908MPD2    N113306   1.616   4.244   9.776 -0.3053 -0.0217  0.6923
  908MPD2    H713307   1.647   4.216   9.869  2.0875  1.1690  0.2575
  909MPD2     C13308   2.179   2.265  11.686  0.9134 -0.6721 -0.1855
  909MPD2    C113309   2.204   2.401  11.674 -0.7563 -0.2960  1.1131
  909MPD2    C213310   2.152   2.489  11.766  0.0964 -0.2990  0.5489
  909MPD2    C313311   2.073   2.441  11.869  0.1977  0.7748  0.3465
  909MPD2    C413312   2.059   2.304  11.886  0.3515  0.1013  0.3075
  909MPD2    C513313   2.112   2.216  11.791 -0.1331  0.3141 -0.4824
  909MPD2     H13314   2.166   2.597  11.762 -0.8343 -0.2250 -0.7981
  909MPD2    H113315   1.998   2.256  11.962  0.0641  1.7763  1.1318
  909MPD2    H213316   2.224   2.190  11.623  1.6038 -1.4508  1.2375
  909MPD2    H313317   2.105   2.108  11.802  0.1971  0.3262 -0.1713
  909MPD2     N13318   2.014   2.539  11.950 -0.1462 -0.0276 -0.5004
  909MPD2    H513319   2.031   2.638  11.937 -0.7099 -0.0501 -1.4257
  909MPD2    N113320   2.273   2.457  11.564 -0.5310  0.0429  0.2461
  909MPD2    H713321   2.263   2.558  11.554  0.5759  0.0320 -0.9592
  910MPD2     C13322   3.583   4.436  16.273  0.1016 -0.1105 -0.0640
  910MPD2    C113323   3.666   4.381  16.178  0.5411 -0.3266  0.3056
  910MPD2    C213324   3.623   4.387  16.046  0.4183 -0.3007 -0.3879
  910MPD2    C313325   3.501   4.457  16.017  0.3455  0.0563  0.1548
  910MPD2    C413326   3.416   4.501  16.116 -0.3456  0.2574  1.3023
  910MPD2    C513327   3.465   4.495  16.240  0.1866  0.9424 -0.3820
  910MPD2     H13328   3.675   4.342  15.963  1.7450 -0.0117  0.2877
  910MPD2    H113329   3.325   4.557  16.098  0.9452  1.9911  0.2055
  910MPD2    H213330   3.609   4.444  16.378 -3.3201  2.8473  0.5377
  910MPD2    H313331   3.417   4.537  16.327  0.2574  3.4722 -1.5708
  910MPD2     N13332   3.463   4.480  15.881 -0.4075 -0.1398  0.1853
  910MPD2    H513333   3.367   4.505  15.859  0.7693  3.2795 -1.1464
  910MPD2    N113334   3.798   4.331  16.205 -0.3097  0.0878 -0.2231
  910MPD2    H713335   3.844   4.295  16.122 -0.8451  2.2071 -1.4240
  911MPD2     C13336   1.603   4.715  16.310  0.4648 -0.4087  1.3084
  911MPD2    C113337   1.633   0.109  16.375 -0.3136  0.0416 -0.2481
  911MPD2    C213338   1.544   0.219  16.370 -0.9336  0.3163 -0.2415
  911MPD2    C313339   1.426   0.200  16.300  0.6508 -0.2275 -0.3815
  911MPD2    C413340   1.398   0.085  16.235 -0.0896 -0.2084 -0.1873
  911MPD2    C513341   1.484   4.704  16.235  0.3617 -0.1969  0.2259
  911MPD2     H13342   1.556   0.313  16.424 -1.6346 -1.3545  2.8412
  911MPD2    H113343   1.306   0.072  16.180 -1.0190 -0.6403  1.4667
  911MPD2    H213344   1.675   4.634  16.304 -0.2989 -0.8350 -1.9625
  911MPD2    H313345   1.463   4.617  16.173  1.2002  0.6156 -1.2022
  911MPD2     N13346   1.322   0.295  16.286 -0.6612  0.5743  0.9937
  911MPD2    H513347   1.236   0.251  16.252  0.5193 -1.4312  0.5958
  911MPD2    N113348   1.751   0.109  16.450 -0.0359  0.0768 -0.4707
  911MPD2    H713349   1.810   0.027  16.438 -1.2470 -0.8887  0.2577
  912MPD2     C13350   1.025   4.705  15.843 -0.0190  0.2613  0.9723
  912MPD2    C113351   1.065   0.041  15.965 -0.4470  0.7126  0.9472
  912MPD2    C213352   1.093   4.674  16.070 -0.2695 -0.4068 -0.0959
  912MPD2    C313353   1.080   4.534  16.054 -0.1614 -0.2814  0.0352
  912MPD2    C413354   1.041   4.479  15.933  0.3573  0.4384  0.7658
  912MPD2    C513355   1.005   4.567  15.832  0.0114  0.3422 -0.1073
  912MPD2     H13356   1.123   4.703  16.170 -0.0094  0.1619 -0.3409
  912MPD2    H113357   1.032   4.374  15.907 -0.9968  1.0156 -1.1300
  912MPD2    H213358   0.980   0.041  15.762 -0.1280  1.0889  1.6099
  912MPD2    H313359   0.962   4.527  15.741 -0.9880 -1.5961  1.2182
  912MPD2     N13360   1.123   4.469  16.174  0.6782 -0.5819  0.6834
  912MPD2    H513361   1.123   4.525  16.258 -0.8720  0.3589  0.0678
  912MPD2    N113362   1.059   0.182  15.977  0.0803 -0.6290 -0.5634
  912MPD2    H713363   1.060   0.234  15.889 -0.3469  1.3829  0.6165
  913MPD2     C13364   1.561   1.570  10.654  0.2101  0.4208  0.2524
  913MPD2    C113365   1.549   1.673  10.735  0.3324 -0.6730 -0.8373
  913MPD2    C213366   1.444   1.758  10.716 -0.5519 -0.2514  0.1600
  913MPD2    C313367   1.349   1.744  10.621 -0.3317  0.4260 -0.3743
  913MPD2    C413368   1.374   1.633  10.529 -0.2911  0.1168 -0.3375
  913MPD2    C513369   1.475   1.548  10.552 -0.2171  0.1439 -0.6668
  913MPD2     H13370   1.437   1.836  10.791  1.4914 -1.1014  1.2273
  913MPD2    H113371   1.310   1.618  10.443  0.0209 -0.0222 -0.5437
  913MPD2    H213372   1.625   1.486  10.680 -0.2556  0.1387  0.5000
  913MPD2    H313373   1.492   1.457  10.496  0.6907  0.5326 -1.0311
  913MPD2     N13374   1.236   1.825  10.589 -0.3972 -0.3979 -0.2715
  913MPD2    H513375   1.169   1.794  10.519 -0.6726 -0.5425  0.0585
  913MPD2    N113376   1.643   1.678  10.850  0.8457  0.7480 -0.1981
  913MPD2    H713377   1.721   1.612  10.849  0.5487  0.3966  0.0740
  914MPD2     C13378   4.141   1.435  12.023  0.3797 -1.2488 -0.2889
  914MPD2    C113379   4.072   1.542  12.076 -0.4110  0.1688  1.3623
  914MPD2    C213380   4.092   1.568  12.208  0.0907  0.4246  0.7727
  914MPD2    C313381   4.181   1.499  12.285 -0.6456  0.5100 -1.0605
  914MPD2    C413382   4.243   1.390  12.230 -0.1539  0.2799  0.5428
  914MPD2    C513383   4.223   1.354  12.100 -0.0229  0.0531  0.4620
  914MPD2     H13384   4.033   1.640  12.264  0.2343  1.2191 -0.0972
  914MPD2    H113385   4.307   1.331  12.295 -0.1150 -1.9810 -1.5576
  914MPD2    H213386   4.129   1.397  11.922  0.8423 -0.2658 -0.7150
  914MPD2    H313387   4.270   1.262  12.069  2.1397  0.3256  2.9342
  914MPD2     N13388   4.207   1.550  12.413  0.2270  0.8775 -0.2284
  914MPD2    H513389   4.161   1.633  12.448  1.1266  0.7114  1.3316
  914MPD2    N113390   3.977   1.615  11.991  0.1897 -0.1751 -0.0162
  914MPD2    H713391   3.973   1.587  11.894 -3.4288  1.5654 -0.3772
  915MPD2     C13392   2.856   1.758  15.850  0.6476 -0.6273  0.5741
  915MPD2    C113393   2.780   1.875  15.866 -0.3476 -0.0021 -0.6680
  915MPD2    C213394   2.762   1.924  15.994  0.5738  0.0622 -0.2223
  915MPD2    C313395   2.790   1.847  16.109 -1.0053  0.2154  0.5842
  915MPD2    C413396   2.854   1.724  16.092 -0.7075 -0.1549 -0.4569
  915MPD2    C513397   2.887   1.686  15.964 -0.2336 -0.0164  0.8844
  915MPD2     H13398   2.712   2.019  16.006  1.1459  0.2312  0.7948
  915MPD2    H113399   2.880   1.655  16.171 -0.8474 -0.3815 -0.6097
  915MPD2    H213400   2.888   1.713  15.757 -1.5629  0.4049 -0.6814
  915MPD2    H313401   2.946   1.596  15.950  0.9857  0.6667  1.5738
  915MPD2     N13402   2.750   1.891  16.235  0.0843  0.3816  0.2940
  915MPD2    H513403   2.677   1.962  16.235 -0.4638 -0.1634  1.9517
  915MPD2    N113404   2.747   1.940  15.749  0.1692 -0.3027  0.2462
  915MPD2    H713405   2.774   1.891  15.665 -2.0945 -0.8786 -0.1552
  916MPD2     C13406   0.502   0.380  15.535  0.2140 -0.9275 -0.3046
  916MPD2    C113407   0.479   0.273  15.617 -0.5743  0.3599 -0.9225
  916MPD2    C213408   0.536   0.147  15.592  0.8924 -0.2008 -0.0039
  916MPD2    C313409   0.619   0.140  15.478 -0.1184 -0.8075 -0.0022
  916MPD2    C413410   0.619   0.248  15.387  0.1862 -0.3346 -0.3049
  916MPD2    C513411   0.571   0.367  15.421 -0.3614 -0.0320  0.6543
  916MPD2     H13412   0.544   0.068  15.666  0.5724 -1.0936 -0.9360
  916MPD2    H113413   0.681   0.243  15.298 -0.6320  0.2318 -0.9058
  916MPD2    H213414   0.450   0.471  15.564  1.8992 -0.4634  1.2463
  916MPD2    H313415   0.586   0.456  15.361 -0.2448 -0.4247  0.1003
  916MPD2     N13416   0.691   0.019  15.445  0.6345 -0.0566  0.5507
  916MPD2    H513417   0.675   4.662  15.509  2.7551  1.1815  2.5657
  916MPD2    N113418   0.417   0.303  15.744 -0.1939  0.2886  0.3457
  916MPD2    H713419   0.401   0.402  15.763  0.8904  0.3993  0.6761
  917MPD2     C13420   0.401   2.414  11.067  0.2536  0.0808  0.4582
  917MPD2    C113421   0.421   2.463  11.196  1.3685 -0.3106  0.0196
  917MPD2    C213422   0.400   2.596  11.222 -0.4127 -0.0687 -0.8780
  917MPD2    C313423   0.373   2.684  11.116 -1.1439 -0.4304  0.3247
  917MPD2    C413424   0.352   2.637  10.985  0.0951 -0.7288  0.1429
  917MPD2    C513425   0.374   2.506  10.964  0.6914 -0.2146 -0.0731
  917MPD2     H13426   0.429   2.634  11.319  1.4370  1.0710 -1.8571
  917MPD2    H113427   0.337   2.708  10.904  1.6382 -2.2025 -1.4222
  917MPD2    H213428   0.424   2.310  11.049 -0.7022  0.5708 -3.5495
  917MPD2    H313429   0.375   2.480  10.858  1.3707 -2.0148  0.3840
  917MPD2     N13430   0.341   2.818  11.134  0.9731 -0.0013  0.0089
  917MPD2    H513431   0.311   2.868  11.052 -0.6187  1.9898  1.8113
  917MPD2    N113432   0.450   2.367  11.296  0.7427 -0.3925 -0.1436
  917MPD2    H713433   0.451   2.271  11.263  1.0948  0.3686 -2.3722
  918MPD2     C13434   0.737   2.372  12.292  0.1231 -1.2026  0.7535
  918MPD2    C113435   0.836   2.323  12.206 -0.6111 -0.1814 -0.3556
  918MPD2    C213436   0.807   2.294  12.079 -0.2942 -0.3251  0.0692
  918MPD2    C313437   0.675   2.311  12.030 -0.5121 -0.4696  0.1127
  918MPD2    C413438   0.578   2.355  12.116  0.2787 -0.5242  0.2002
  918MPD2    C513439   0.606   2.378  12.250 -0.3690 -0.9098 -0.0071
  918MPD2     H13440   0.886   2.244  12.023 -0.3002  2.0909 -2.0492
  918MPD2    H113441   0.475   2.363  12.081 -0.2145  0.2473  1.8414
  918MPD2    H213442   0.764   2.402  12.392 -0.0282 -0.7180  0.6487
  918MPD2    H313443   0.524   2.414  12.312  0.9285  4.1366 -1.2063
  918MPD2     N13444   0.642   2.283  11.901 -0.6234  0.6244  0.5584
  918MPD2    H513445   0.719   2.259  11.839 -1.4861 -0.0440 -0.2530
  918MPD2    N113446   0.970   2.301  12.250 -0.7886  0.1827 -0.2624
  918MPD2    H713447   1.035   2.282  12.174 -0.7910  0.7524 -0.4057
  919MPD2     C13448   1.594   1.594  11.849 -0.2256 -0.0919  0.6385
  919MPD2    C113449   1.574   1.470  11.788  0.5865  0.0900  0.5298
  919MPD2    C213450   1.559   1.460  11.652  0.1482 -0.4009 -0.5942
  919MPD2    C313451   1.556   1.577  11.576 -0.0812  0.6000  0.0445
  919MPD2    C413452   1.560   1.698  11.640 -0.1087  0.2270  0.2220
  919MPD2    C513453   1.588   1.709  11.770  0.7659 -0.2093  0.3305
  919MPD2     H13454   1.547   1.364  11.604  0.3661  0.1322 -1.7207
  919MPD2    H113455   1.570   1.785  11.576 -2.4488  0.1312 -0.2779
  919MPD2    H213456   1.595   1.619  11.954  2.4355  1.4647  0.2190
  919MPD2    H313457   1.593   1.804  11.822  0.4344 -0.3249  0.5724
  919MPD2     N13458   1.532   1.578  11.439 -0.1951 -0.2533 -0.3067
  919MPD2    H513459   1.508   1.662  11.387 -0.6491 -0.2783 -0.1342
  919MPD2    N113460   1.575   1.352  11.869  0.1806  0.0918  0.2183
  919MPD2    H713461   1.560   1.261  11.828 -1.0663  1.0878 -1.5111
  920MPD2     C13462   0.793   1.823  10.819  0.0723  0.3366  0.3089
  920MPD2    C113463   0.825   1.700  10.769  0.2743  0.8052 -0.1691
  920MPD2    C213464   0.948   1.637  10.809  0.0811 -0.4124  0.5940
  920MPD2    C313465   1.038   1.701  10.897  0.2954  0.2783  0.1930
  920MPD2    C413466   1.007   1.828  10.945 -0.4515  0.6939 -0.1354
  920MPD2    C513467   0.883   1.878  10.911 -0.3326  0.1896  0.5714
  920MPD2     H13468   0.972   1.538  10.771  1.7332 -0.1709  1.0066
  920MPD2    H113469   1.066   1.891  11.010 -3.1636  1.7586  1.2689
  920MPD2    H213470   0.702   1.873  10.790  1.1882  2.5885  0.6658
  920MPD2    H313471   0.854   1.975  10.952 -0.0541  0.9764 -1.0638
  920MPD2     N13472   1.165   1.635  10.935  0.0415 -0.8814  0.6053
  920MPD2    H513473   1.187   1.547  10.890  1.5708 -0.4951  0.5962
  920MPD2    N113474   0.732   1.627  10.689  0.0345  0.1844 -0.0509
  920MPD2    H713475   0.756   1.531  10.669 -0.6376  0.7081 -3.4559
  921MPD2     C13476   2.522   0.424  17.178 -0.5131 -0.6566 -0.3025
  921MPD2    C113477   2.554   0.435  17.044  1.0041 -0.2086 -0.1686
  921MPD2    C213478   2.463   0.389  16.951 -0.6656 -0.2482  0.5836
  921MPD2    C313479   2.342   0.332  16.991 -0.1306  0.3564  0.0652
  921MPD2    C413480   2.316   0.319  17.123  0.0120  0.1021  0.0012
  921MPD2    C513481   2.404   0.372  17.208 -0.1603 -0.7763 -0.0187
  921MPD2     H13482   2.486   0.389  16.845  2.8655  1.2013  1.3694
  921MPD2    H113483   2.230   0.261  17.155  0.1319 -1.4611 -2.4991
  921MPD2    H213484   2.587   0.458  17.259 -1.2212  1.1468 -0.4904
  921MPD2    H313485   2.382   0.368  17.314  0.1339  0.6598  0.1023
  921MPD2     N13486   2.261   0.293  16.881 -0.6432  0.0564 -0.2257
  921MPD2    H513487   2.291   0.316  16.787  1.3893 -0.0458  0.3976
  921MPD2    N113488   2.672   0.495  17.006  0.1392  0.2511  0.0238
  921MPD2    H713489   2.734   0.538  17.074 -0.1999  1.2294 -0.2873
  922MPD2     C13490   3.177   2.412  16.818 -0.4262 -0.0148 -0.1591
  922MPD2    C113491   3.182   2.518  16.918  0.0721  0.2353  0.1408
  922MPD2    C213492   3.169   2.487  17.056  0.4939 -0.0773 -0.0330
  922MPD2    C313493   3.143   2.363  17.089 -0.0237 -0.1529 -0.1750
  922MPD2    C413494   3.127   2.263  16.991  0.0174 -0.3200  0.5436
  922MPD2    C513495   3.143   2.283  16.861  0.0817  0.2060  0.9858
  922MPD2     H13496   3.197   2.560  17.131  0.0793  1.1265 -1.0509
  922MPD2    H113497   3.099   2.163  17.019 -0.3375 -0.3075  0.2254
  922MPD2    H213498   3.190   2.432  16.712 -0.8516 -2.1288 -0.6180
  922MPD2    H313499   3.126   2.203  16.790 -0.5784  1.0317  0.2126
  922MPD2     N13500   3.114   2.340  17.224  0.2459 -0.2653  0.1596
  922MPD2    H513501   3.115   2.421  17.286 -0.8159 -0.4941  0.4751
  922MPD2    N113502   3.206   2.653  16.887  0.1734 -0.0029 -0.6890
  922MPD2    H713503   3.215   2.725  16.957 -1.7597 -2.1812  1.7864
  923MPD2     C13504   4.254   4.521   8.924 -0.1899  0.1066  0.1020
  923MPD2    C113505   4.292   4.635   8.988 -0.1406 -0.0668 -0.3360
  923MPD2    C213506   4.389   4.638   9.082 -0.3512  0.0179  0.6579
  923MPD2    C313507   4.467   4.522   9.093 -0.1559 -0.1846  0.6643
  923MPD2    C413508   4.448   4.414   9.015 -0.7997  0.2528 -0.2754
  923MPD2    C513509   4.339   4.415   8.934 -0.2687  0.1705  0.2439
  923MPD2     H13510   4.404   0.004   9.146 -2.0466  2.3704 -2.1075
  923MPD2    H113511   4.515   4.329   9.012 -0.1940  0.7250 -0.0703
  923MPD2    H213512   4.162   4.518   8.868  0.1286 -2.7655 -0.2432
  923MPD2    H313513   4.320   4.326   8.875  2.2288 -0.0930 -0.1766
  923MPD2     N13514   4.579   4.514   9.181 -0.3397 -0.2392  0.2045
  923MPD2    H513515   4.638   4.432   9.188  0.6296  0.2281 -2.5625
  923MPD2    N113516   4.205   0.022   8.955  0.2661  0.3336  0.6036
  923MPD2    H713517   4.117   0.010   8.907  0.1888  1.0520  0.5673
  924MPD2     C13518   4.600   3.160  15.962  0.5736 -0.1680  0.1545
  924MPD2    C113519   4.609   3.203  16.093  0.4748 -0.7654 -0.6907
  924MPD2    C213520   4.642   3.339  16.123  0.3452 -0.5086 -0.1417
  924MPD2    C313521   4.685   3.421  16.021  0.2622 -0.2214  0.4195
  924MPD2    C413522   4.676   3.375  15.889 -0.0757  0.5586  0.2520
  924MPD2    C513523   4.650   3.242  15.864 -0.1266 -0.0766 -0.1257
  924MPD2     H13524   4.631   3.374  16.225  0.8490  1.6579 -0.8275
  924MPD2    H113525   4.686   3.442  15.804 -2.1623 -1.3634 -1.5196
  924MPD2    H213526   4.585   3.053  15.951  0.9294 -0.0705 -1.3211
  924MPD2    H313527   4.659   3.208  15.761  0.1614 -1.3973  0.3432
  924MPD2     N13528   4.717   3.560  16.041  0.0496  0.0355 -0.5452
  924MPD2    H513529   4.711   3.624  15.962 -1.3378 -1.0397 -1.3192
  924MPD2    N113530   4.567   3.111  16.194 -0.5469 -0.4231 -0.1257
  924MPD2    H713531   4.538   3.019  16.163 -1.7101 -0.7797  2.0036
  925MPD2     C13532   3.456   0.973  14.861 -0.7813 -0.6419  0.2169
  925MPD2    C113533   3.327   0.929  14.839 -0.2406  0.3525  0.3882
  925MPD2    C213534   3.235   0.916  14.937  0.3907  0.6679 -0.1179
  925MPD2    C313535   3.278   0.936  15.063 -0.3369 -0.1393 -0.2556
  925MPD2    C413536   3.409   0.965  15.092  0.0293  0.2247 -0.5787
  925MPD2    C513537   3.496   0.989  14.989  0.3518 -0.2185  0.3349
  925MPD2     H13538   3.135   0.891  14.904  0.0295  1.1568  0.6017
  925MPD2    H113539   3.444   0.982  15.193  0.8173 -0.9993 -0.6550
  925MPD2    H213540   3.533   0.982  14.786 -0.2359 -0.0462  0.8453
  925MPD2    H313541   3.593   1.033  15.009 -0.3304  0.6131  1.8938
  925MPD2     N13542   3.200   0.923  15.182 -0.0412  0.4291  0.1425
  925MPD2    H513543   3.257   0.896  15.261 -1.0060  1.1482  1.0911
  925MPD2    N113544   3.283   0.894  14.711 -0.6190 -0.0780  0.4290
  925MPD2    H713545   3.187   0.861  14.705 -0.0372 -1.4681 -1.0595
  926MPD2     C13546   1.749   3.960  14.010 -0.5846 -0.1722 -0.9250
  926MPD2    C113547   1.777   4.091  13.968 -0.6260 -0.7829 -0.1074
  926MPD2    C213548   1.792   4.127  13.837 -0.1469 -0.0050 -0.2109
  926MPD2    C313549   1.776   4.025  13.738 -0.2464  0.2124  0.0210
  926MPD2    C413550   1.748   3.900  13.787  0.1219  0.2518  0.0699
  926MPD2    C513551   1.730   3.861  13.921 -0.2335  0.1091 -0.2271
  926MPD2     H13552   1.796   4.232  13.808 -1.9816  0.0457 -0.3007
  926MPD2    H113553   1.727   3.824  13.712 -2.8050 -0.4441  1.5946
  926MPD2    H213554   1.717   3.944  14.112  1.4314  0.7509 -0.1537
  926MPD2    H313555   1.688   3.764  13.944 -0.8975  0.1734 -1.1539
  926MPD2     N13556   1.787   4.062  13.598 -0.0506 -0.6693 -0.7971
  926MPD2    H513557   1.799   4.159  13.570  1.0604 -0.2659  1.0713
  926MPD2    N113558   1.782   4.209  14.057 -0.5907  0.4133 -0.9182
  926MPD2    H713559   1.789   4.302  14.018 -0.8597 -0.1038 -2.1952
  927MPD2     C13560   1.410   1.681   0.503  0.1516 -0.3789 -0.7722
  927MPD2    C113561   1.443   1.677   0.635 -0.7539  0.3159  0.6656
  927MPD2    C213562   1.505   1.563   0.687 -0.1363 -0.0946 -0.1496
  927MPD2    C313563   1.544   1.464   0.604 -0.6555  0.0592 -0.2918
  927MPD2    C413564   1.511   1.464   0.470  0.4128 -0.4412  0.1067
  927MPD2    C513565   1.449   1.576   0.419 -0.0654  0.4058  0.3608
  927MPD2     H13566   1.539   1.564   0.790  1.1167 -0.2795 -0.5593
  927MPD2    H113567   1.537   1.381   0.406  2.5326 -0.5269  1.0883
  927MPD2    H213568   1.334   1.754   0.476  0.4943 -0.2062 -1.2843
  927MPD2    H313569   1.411   1.569   0.317  0.2733  1.3900  0.1641
  927MPD2     N13570   1.630   1.362   0.649 -0.5643 -0.2520 -0.3189
  927MPD2    H513571   1.655   1.375   0.747 -0.6586  1.2799 -0.4851
  927MPD2    N113572   1.408   1.794   0.714  0.2803 -0.1472 -0.5861
  927MPD2    H713573   1.346   1.863   0.672 -0.3990 -0.8347 -0.7177
  928MPD2     C13574   1.608   0.848   0.992 -0.2826  0.1805  0.6689
  928MPD2    C113575   1.545   0.728   1.026 -1.1625  0.2815  0.2094
  928MPD2    C213576   1.415   0.701   0.983 -0.2843 -0.6241  0.0487
  928MPD2    C313577   1.344   0.796   0.901 -0.0814 -0.0107 -0.2657
  928MPD2    C413578   1.412   0.906   0.855 -0.0621 -0.4274 -0.4750
  928MPD2    C513579   1.539   0.937   0.912  0.3288  0.3974 -0.7244
  928MPD2     H13580   1.364   0.609   1.008 -2.5218  0.6253  0.1189
  928MPD2    H113581   1.359   0.974   0.790  0.0789 -0.7029 -0.8775
  928MPD2    H213582   1.711   0.872   1.017 -0.9074  1.2107  2.2459
  928MPD2    H313583   1.602   1.018   0.877  1.5064  0.2086  0.9536
  928MPD2     N13584   1.218   0.783   0.844  0.0072  0.4159  0.0126
  928MPD2    H513585   1.176   0.862   0.796 -1.4657 -0.3379  0.0452
  928MPD2    N113586   1.601   0.643   1.120  0.3065 -0.0116  0.6676
  928MPD2    H713587   1.678   0.685   1.172 -0.4082 -0.3596  1.9980
  929MPD2     C13588   3.818   0.137   9.907 -0.0532  0.3808 -0.3030
  929MPD2    C113589   3.807   0.018   9.978 -0.8031  0.2971 -0.0941
  929MPD2    C213590   3.801   4.621   9.904  0.0225  0.1049 -0.1100
  929MPD2    C313591   3.790   4.625   9.763 -0.7476  0.4129 -0.4961
  929MPD2    C413592   3.815   0.023   9.701 -0.6635  0.3034 -0.2149
  929MPD2    C513593   3.820   0.142   9.771  0.0166  0.5703  0.0130
  929MPD2     H13594   3.789   4.523   9.949 -0.5486 -0.1231 -0.7741
  929MPD2    H113595   3.803   0.037   9.594  0.1336 -0.3186 -0.3855
  929MPD2    H213596   3.824   0.230   9.961  0.5342 -0.8980  1.8425
  929MPD2    H313597   3.825   0.238   9.720  0.3689  0.1524 -0.7345
  929MPD2     N13598   3.748   4.514   9.690  0.2442  0.7007 -0.0990
  929MPD2    H513599   3.787   4.502   9.597 -1.1368 -1.3481 -0.4116
  929MPD2    N113600   3.775   0.031  10.113 -0.4945  0.6421  0.0484
  929MPD2    H713601   3.759   0.124  10.152  2.1292  0.5730  1.2483
  930MPD2     C13602   1.587   2.184  14.465 -0.1300 -0.4295  0.2517
  930MPD2    C113603   1.537   2.267  14.368 -0.2342  0.4199  0.4041
  930MPD2    C213604   1.474   2.208  14.259  0.1704 -0.5397  0.8687
  930MPD2    C313605   1.461   2.073  14.230  0.1529 -0.7069 -0.3206
  930MPD2    C413606   1.502   1.991  14.330 -0.6691  0.1026 -0.5307
  930MPD2    C513607   1.560   2.046  14.450  0.3073 -0.0891  0.3675
  930MPD2     H13608   1.450   2.268  14.172 -1.1719 -2.4081 -0.0456
  930MPD2    H113609   1.497   1.883  14.321  2.4449 -0.0121 -0.9918
  930MPD2    H213610   1.640   2.221  14.551  1.3672 -2.1005  0.0399
  930MPD2    H313611   1.598   1.982  14.529  2.0643 -0.8952 -1.1220
  930MPD2     N13612   1.427   2.028  14.100 -0.3544 -0.5453 -0.3884
  930MPD2    H513613   1.416   2.100  14.030 -1.2204  1.4133  1.7457
  930MPD2    N113614   1.562   2.398  14.361 -0.6316  0.2381 -0.5680
  930MPD2    H713615   1.525   2.435  14.275  0.6647 -0.1070 -1.2859
  931MPD2     C13616   1.658   2.059   1.456 -0.4887  0.0784  0.0687
  931MPD2    C113617   1.531   2.020   1.419 -0.5008 -0.4776 -0.5467
  931MPD2    C213618   1.442   1.971   1.512  0.4344 -0.3089 -0.3368
  931MPD2    C313619   1.493   1.934   1.631 -0.0012  0.2738  0.3677
  931MPD2    C413620   1.630   1.956   1.661  0.3320 -0.4789 -0.3743
  931MPD2    C513621   1.711   2.016   1.577 -0.0839  0.6429  0.0029
  931MPD2     H13622   1.341   1.939   1.487  0.6199  0.2669 -1.8068
  931MPD2    H113623   1.668   1.914   1.753  0.6893  3.0712  1.1175
  931MPD2    H213624   1.729   2.103   1.386  0.2045  1.2454  1.4832
  931MPD2    H313625   1.816   2.037   1.597 -0.2034  1.1152  0.1352
  931MPD2     N13626   1.426   1.846   1.718 -0.0841  0.2783  0.2075
  931MPD2    H513627   1.482   1.796   1.786 -1.1648 -0.7377  0.3604
  931MPD2    N113628   1.484   2.037   1.291  0.5569  0.2713 -0.3671
  931MPD2    H713629   1.550   2.073   1.224  0.1871  0.8454 -0.4276
  932MPD2     C13630   3.434   0.124  11.665 -0.2788 -0.1226 -0.4295
  932MPD2    C113631   3.531   0.204  11.608 -0.4460 -0.0672  0.6332
  932MPD2    C213632   3.660   0.154  11.595  0.5625 -0.2726  0.1064
  932MPD2    C313633   3.696   0.031  11.641  0.2374 -0.4339  0.7021
  932MPD2    C413634   3.593   4.667  11.672  0.3098  0.2710  0.4593
  932MPD2    C513635   3.467   4.717  11.692  0.0913 -0.2590 -0.5695
  932MPD2     H13636   3.737   0.201  11.536  0.7477 -0.3315  0.3022
  932MPD2    H113637   3.607   4.570  11.718 -1.0286  0.8647  2.1078
  932MPD2    H213638   3.332   0.156  11.684  0.0110  1.3628 -1.3486
  932MPD2    H313639   3.385   4.667  11.743  0.8843 -0.5395  0.4068
  932MPD2     N13640   3.833   4.706  11.645  0.2597 -0.9016  0.1371
  932MPD2    H513641   3.845   4.610  11.677  0.8546 -0.8603  0.0462
  932MPD2    N113642   3.511   0.337  11.568  0.7029 -0.2187  0.0766
  932MPD2    H713643   3.579   0.389  11.514 -0.8312  0.5147 -1.1774
  933MPD2     C13644   1.403   4.585   1.309  0.1142  0.1150  0.4666
  933MPD2    C113645   1.415   4.686   1.222  0.1171  0.4508  0.6555
  933MPD2    C213646   1.333   4.675   1.106 -0.1163 -0.0018 -0.8115
  933MPD2    C313647   1.245   4.572   1.081  0.1969  0.7940 -0.1530
  933MPD2    C413648   1.245   4.470   1.174  0.2075 -0.6706  0.4853
  933MPD2    C513649   1.325   4.477   1.282 -0.1893 -0.0596  0.6981
  933MPD2     H13650   1.339   0.031   1.029 -1.7208  2.3050  1.3484
  933MPD2    H113651   1.183   4.381   1.166  0.0905 -0.4746 -0.7378
  933MPD2    H213652   1.454   4.580   1.405 -1.6806 -1.6467  1.3358
  933MPD2    H313653   1.322   4.399   1.358 -2.8817 -1.7994 -1.1928
  933MPD2     N13654   1.154   4.581   0.971 -0.3423 -0.1845  0.1328
  933MPD2    H513655   1.138   4.669   0.924  1.6254 -0.0950 -0.3911
  933MPD2    N113656   1.482   0.084   1.249 -0.5333  0.0009  0.3358
  933MPD2    H713657   1.475   0.154   1.175 -1.8924  3.2784  3.6127
  934MPD2     C13658   4.212   2.523   2.120  0.4020 -0.1211 -0.2711
  934MPD2    C113659   4.342   2.530   2.084  0.2764 -0.3477 -0.0359
  934MPD2    C213660   4.377   2.497   1.953 -0.5915 -0.5543  0.1632
  934MPD2    C313661   4.286   2.444   1.866 -0.1482  0.0932 -0.3568
  934MPD2    C413662   4.157   2.435   1.906  1.2695 -0.1681 -0.3253
  934MPD2    C513663   4.120   2.487   2.029  0.0439  0.4686  0.1925
  934MPD2     H13664   4.480   2.512   1.923  0.4195 -1.2585  3.2286
  934MPD2    H113665   4.088   2.392   1.834  1.7623  0.5046 -1.2046
  934MPD2    H213666   4.176   2.562   2.214 -2.2303 -0.0060 -1.3290
  934MPD2    H313667   4.018   2.494   2.064 -0.2788 -1.1376 -0.4031
  934MPD2     N13668   4.320   2.394   1.734 -0.2981 -0.1530 -0.0230
  934MPD2    H513669   4.241   2.361   1.680  1.0824 -0.8727 -1.6007
  934MPD2    N113670   4.445   2.578   2.169  0.1937 -0.5034  0.0709
  934MPD2    H713671   4.540   2.576   2.132 -1.1264 -0.5925 -3.2752
  935MPD2     C13672   0.519   2.168   1.426 -0.0246 -0.5821 -0.3157
  935MPD2    C113673   0.457   2.145   1.310  0.5760  0.5468 -0.6955
  935MPD2    C213674   0.319   2.150   1.312  0.0968  1.1056 -0.5078
  935MPD2    C313675   0.247   2.205   1.420  0.0299  0.2021  0.2287
  935MPD2    C413676   0.314   2.222   1.539  0.8859 -0.1859 -0.1555
  935MPD2    C513677   0.448   2.195   1.539 -0.2320 -0.1873 -0.3090
  935MPD2     H13678   0.262   2.116   1.226  0.2151  2.1646 -1.0066
  935MPD2    H113679   0.265   2.241   1.634  1.1248 -1.8939  0.3245
  935MPD2    H213680   0.627   2.164   1.441  0.0065 -0.7127 -0.5633
  935MPD2    H313681   0.504   2.208   1.631  0.2873 -0.1862 -0.6242
  935MPD2     N13682   0.110   2.254   1.429  0.5476  0.3972 -0.4644
  935MPD2    H513683   0.072   2.287   1.517  1.0456 -0.9222  0.2506
  935MPD2    N113684   0.528   2.096   1.189  0.7908  0.0140 -0.0011
  935MPD2    H713685   0.476   2.084   1.102 -0.5525 -1.2503  0.9723
  936MPD2     C13686   3.257   4.701  12.086  0.4181  0.1545 -0.8550
  936MPD2    C113687   3.290   4.576  12.127 -0.5730  0.1695  0.9843
  936MPD2    C213688   3.425   4.541  12.114  0.3988  0.4530 -0.5828
  936MPD2    C313689   3.527   4.628  12.074 -0.0693  0.3107 -0.1320
  936MPD2    C413690   3.490   0.028  12.020 -0.0150 -0.1451  0.0663
  936MPD2    C513691   3.358   0.057  12.029  0.2218 -0.6650 -0.4030
  936MPD2     H13692   3.460   4.449  12.161 -1.5206  0.3376  0.5901
  936MPD2    H113693   3.554   0.103  11.974 -1.8017  0.7684 -0.9233
  936MPD2    H213694   3.156   0.012  12.112  0.9732 -0.0196  1.5457
  936MPD2    H313695   3.331   0.151  11.983 -0.2900 -1.2689 -1.3444
  936MPD2     N13696   3.654   4.579  12.075  0.1136  0.0688  0.2652
  936MPD2    H513697   3.673   4.480  12.087 -0.0073 -0.0176 -0.2497
  936MPD2    N113698   3.206   4.489  12.195  0.8225  0.4684 -0.1244
  936MPD2    H713699   3.251   4.402  12.222 -0.6550 -0.0692  0.6027
  937MPD2     C13700   1.571   0.644  11.810  0.3574 -0.0647  0.1819
  937MPD2    C113701   1.629   0.765  11.779  0.4222  0.7494 -0.3578
  937MPD2    C213702   1.674   0.779  11.646 -0.0042  0.0270  0.5514
  937MPD2    C313703   1.669   0.676  11.548  0.4704  0.7163 -0.0830
  937MPD2    C413704   1.619   0.558  11.596 -0.4045  0.3780 -0.0871
  937MPD2    C513705   1.575   0.538  11.723  0.1863  0.3326 -0.2838
  937MPD2     H13706   1.688   0.881  11.611 -0.3385 -0.1702 -0.1430
  937MPD2    H113707   1.612   0.473  11.530  2.4267  0.2711 -0.2653
  937MPD2    H213708   1.534   0.613  11.908  1.8997 -1.3878  0.3398
  937MPD2    H313709   1.527   0.447  11.755  0.3559  0.3617  0.0558
  937MPD2     N13710   1.703   0.701  11.413  0.2762 -0.6084 -0.1465
  937MPD2    H513711   1.734   0.795  11.392  2.2455 -1.5492 -1.4794
  937MPD2    N113712   1.601   0.879  11.858 -0.1301  0.4543  0.0050
  937MPD2    H713713   1.610   0.973  11.820 -2.7244 -0.3557 -2.6388
  938MPD2     C13714   4.568   1.708   0.625  0.8424  0.4331 -0.0309
  938MPD2    C113715   4.484   1.812   0.661 -0.1385  0.7069  0.6088
  938MPD2    C213716   4.394   1.793   0.765  0.2477 -0.3047 -0.5391
  938MPD2    C313717   4.422   1.679   0.848  0.0605 -0.4088 -0.1122
  938MPD2    C413718   4.515   1.579   0.814 -0.2237  0.1083  0.4736
  938MPD2    C513719   4.584   1.593   0.700  1.2643 -0.3851 -0.0486
  938MPD2     H13720   4.314   1.864   0.780 -0.2206 -0.8862 -0.3026
  938MPD2    H113721   4.528   1.485   0.865  1.2959 -0.2076 -0.5068
  938MPD2    H213722   4.628   1.704   0.535  1.2656 -1.6712  0.3605
  938MPD2    H313723   4.652   1.516   0.666  0.0540 -1.3740 -0.1964
  938MPD2     N13724   4.358   1.661   0.974  0.5754 -0.0867  0.0590
  938MPD2    H513725   4.407   1.592   1.030  0.4315 -1.3840 -1.4079
  938MPD2    N113726   4.474   1.932   0.597 -0.4765 -0.0514  0.1075
  938MPD2    H713727   4.400   1.997   0.622 -1.0861 -0.2122 -1.2853
  939MPD2     C13728   0.662   2.731   0.712 -0.6747  0.9711 -0.1159
  939MPD2    C113729   0.671   2.851   0.648  0.2037  0.2692  0.2305
  939MPD2    C213730   0.771   2.867   0.556 -0.8752  0.1472  0.0563
  939MPD2    C313731   0.866   2.761   0.529 -0.3617  0.0643 -0.3334
  939MPD2    C413732   0.848   2.644   0.593  0.1752  0.3753 -0.5921
  939MPD2    C513733   0.747   2.628   0.684 -0.0761  0.1060 -0.3484
  939MPD2     H13734   0.796   2.960   0.507 -1.2425  0.2091 -0.0095
  939MPD2    H113735   0.908   2.557   0.570 -0.7690 -0.1374 -1.1402
  939MPD2    H213736   0.581   2.714   0.782  1.0763 -0.5523  1.5475
  939MPD2    H313737   0.731   2.529   0.724  1.5145 -0.4962 -1.2013
  939MPD2     N13738   0.967   2.790   0.437 -0.1792 -0.1716  0.1676
  939MPD2    H513739   0.962   2.886   0.407 -0.0858 -0.1629  0.1817
  939MPD2    N113740   0.579   2.955   0.686  0.2740  0.4284 -0.5510
  939MPD2    H713741   0.532   2.933   0.773 -1.5197  1.9668 -1.1284
  940MPD2     C13742   3.738   3.671  12.981 -0.2807  0.0869  0.4310
  940MPD2    C113743   3.861   3.639  13.032  0.2164  0.4065  0.2326
  940MPD2    C213744   3.965   3.655  12.948 -0.0112 -0.3649  0.4685
  940MPD2    C313745   3.948   3.707  12.823 -0.7131  0.4277  0.5047
  940MPD2    C413746   3.818   3.745  12.777  0.6528 -0.5096  0.0617
  940MPD2    C513747   3.711   3.732  12.864 -0.0042  0.0315  0.1436
  940MPD2     H13748   4.062   3.622  12.985  0.1102 -1.5684 -0.9488
  940MPD2    H113749   3.807   3.796  12.682 -0.9904  1.6593  1.4144
  940MPD2    H213750   3.646   3.653  13.036 -0.4768  4.0845  1.4365
  940MPD2    H313751   3.612   3.767  12.836  0.4791  2.5607  1.6127
  940MPD2     N13752   4.052   3.714  12.730  0.2284  0.3295  0.6179
  940MPD2    H513753   4.030   3.757  12.641  0.3204 -1.3163 -0.1961
  940MPD2    N113754   3.891   3.584  13.157  0.0115 -0.6153 -0.2897
  940MPD2    H713755   3.987   3.567  13.182  0.1720 -1.3872 -1.4384
  941MPD2     C13756   3.585   3.102   9.554 -0.2098  0.3068 -0.7483
  941MPD2    C113757   3.665   3.097   9.662  0.1914 -0.2264 -0.6820
  941MPD2    C213758   3.620   3.030   9.770  0.0729 -0.7918 -0.3440
  941MPD2    C313759   3.501   2.956   9.769 -0.4877  0.2315 -0.2008
  941MPD2    C413760   3.427   2.954   9.653 -0.3416 -0.5113 -0.0152
  941MPD2    C513761   3.470   3.029   9.546  0.2288 -0.5682 -0.2619
  941MPD2     H13762   3.686   3.011   9.854  1.1946 -0.1561 -1.0922
  941MPD2    H113763   3.339   2.892   9.643 -0.4617 -0.1679 -1.1115
  941MPD2    H213764   3.633   3.146   9.467 -0.4773  2.7602  0.3484
  941MPD2    H313765   3.426   3.021   9.447 -1.6429  0.6016  0.4756
  941MPD2     N13766   3.451   2.878   9.874 -0.1435 -0.6616  0.2782
  941MPD2    H513767   3.360   2.838   9.854 -1.1786  0.9363  1.7776
  941MPD2    N113768   3.789   3.159   9.668 -0.0327 -0.3821 -0.2767
  941MPD2    H713769   3.861   3.124   9.731  1.0878 -0.0873 -1.3951
  942MPD2     C13770   2.434   4.715   9.225 -0.1482 -0.1308 -0.2312
  942MPD2    C113771   2.531   0.084   9.262 -0.7218 -0.3350  0.0442
  942MPD2    C213772   2.664   0.062   9.243  0.3837 -0.8804  0.2584
  942MPD2    C313773   2.711   4.665   9.187 -0.4592 -0.3478 -0.2771
  942MPD2    C413774   2.617   4.570   9.164  0.6275 -0.3262 -0.6263
  942MPD2    C513775   2.482   4.595   9.174  0.4068 -0.1743 -0.4515
  942MPD2     H13776   2.729   0.140   9.282 -0.8295 -0.1859  0.8846
  942MPD2    H113777   2.643   4.471   9.131 -0.5908 -0.2339 -1.8625
  942MPD2    H213778   2.328   0.017   9.232  0.0905  0.6364  0.7980
  942MPD2    H313779   2.412   4.519   9.141 -1.0375  0.6384  0.7763
  942MPD2     N13780   2.846   4.639   9.162 -0.1529  0.1937 -0.1475
  942MPD2    H513781   2.866   4.547   9.123  1.0006 -1.0429  3.3479
  942MPD2    N113782   2.498   0.206   9.325 -0.2710 -0.1958 -0.1488
  942MPD2    H713783   2.573   0.271   9.345 -0.2058  0.3762 -2.1904
  943MPD2     C13784   1.993   3.143  10.023  0.8475  0.3844 -0.2052
  943MPD2    C113785   1.904   3.070  10.095  0.8340  0.1617 -0.4230
  943MPD2    C213786   1.929   3.056  10.236  0.0530  0.6292 -0.4997
  943MPD2    C313787   2.031   3.122  10.305 -0.3648 -0.2787  0.1497
  943MPD2    C413788   2.116   3.200  10.233  0.4215  0.3436 -0.6128
  943MPD2    C513789   2.095   3.203  10.093 -0.2820 -0.3420 -0.3382
  943MPD2     H13790   1.852   3.005  10.292  0.3305  0.9678  0.1855
  943MPD2    H113791   2.188   3.258  10.289  0.0371 -0.5095  0.7456
  943MPD2    H213792   1.986   3.155   9.915  2.5465  0.7876 -0.2755
  943MPD2    H313793   2.165   3.264  10.037  1.3844 -2.0629 -0.1371
  943MPD2     N13794   2.031   3.125  10.449 -0.2080 -0.1274  0.3824
  943MPD2    H513795   2.077   3.196  10.506 -1.5163  0.9345  0.1242
  943MPD2    N113796   1.788   3.034  10.026 -0.3156  0.2496 -0.5658
  943MPD2    H713797   1.781   3.035   9.925  2.0340  2.9589 -0.6837
  944MPD2     C13798   1.815   2.109  10.768 -0.4085 -0.3779 -0.5075
  944MPD2    C113799   1.937   2.166  10.798 -0.0205 -0.2899 -0.5418
  944MPD2    C213800   1.951   2.223  10.923  0.3705  0.2174  0.0924
  944MPD2    C313801   1.851   2.194  11.016 -0.0254  0.1954  0.0352
  944MPD2    C413802   1.734   2.118  10.987  0.2499  0.1851  0.1784
  944MPD2    C513803   1.709   2.098  10.855  0.2013  0.1609 -0.0845
  944MPD2     H13804   2.041   2.280  10.945 -0.1748  1.6241 -1.3518
  944MPD2    H113805   1.649   2.105  11.053  1.4244 -0.3848  1.5715
  944MPD2    H213806   1.797   2.072  10.668 -2.4880 -1.5043  0.2901
  944MPD2    H313807   1.615   2.049  10.831  0.7688 -0.4952 -0.9232
  944MPD2     N13808   1.871   2.258  11.136  0.8577 -0.3290  0.3845
  944MPD2    H513809   1.957   2.311  11.149  1.0418 -0.5104 -0.1030
  944MPD2    N113810   2.034   2.185  10.695 -0.2007 -0.6797 -0.3427
  944MPD2    H713811   2.011   2.174  10.597  1.1822  0.3586 -0.7881
    1TCq1    O113812   0.097   3.145  13.937  0.1681  0.0090 -0.4095
    1TCq1    C113813   0.218   3.120  13.979  0.9783  0.1583 -0.1079
    1TCq1    O213814   0.306   3.064  13.912  0.4776 -0.1337 -0.4025
    1TCq1    C213815   0.250   3.235  14.065 -0.3128  0.1886  0.4775
    1TCq1    C313816   0.374   3.232  14.122 -0.0743  0.5295 -0.4569
    1TCq1    C413817   0.431   3.342  14.174  0.7091  0.2002 -0.2890
    1TCq1    C513818   0.362   3.464  14.168  0.0357  0.0778 -0.3200
    1TCq1    C613819   0.231   3.463  14.114  0.5791 -0.0817 -0.2790
    1TCq1    C713820   0.174   3.351  14.057 -0.1558 -0.3659  0.0221
    1TCq1    C813821   0.164   3.588  14.085 -0.3894  0.1823 -0.8621
    1TCq1    O413822   0.048   3.586  14.049  0.3786  0.1510  0.3365
    1TCq1    C913823   0.563   3.331  14.242 -0.6133  0.3680 -0.2725
    1TCq1    O513824   0.599   3.420  14.317  0.8148  0.2182  0.0145
    1TCq1    O613825   0.627   3.229  14.219 -0.0699 -0.1507 -0.1662
    1TCq1    H113826   0.040   3.141  14.017  0.5946 -1.9441 -0.2111
    1TCq1    H213827   0.432   3.143  14.103  0.2446  0.8206 -0.8419
    1TCq1    H313828   0.411   3.552  14.206 -0.8005 -0.1807  1.3315
    1TCq1    H413829   0.068   3.351  14.033  0.1669  0.4209 -1.4403
    2MPD2     C13830   0.175   4.086  13.988  0.8121  0.2489  0.7593
    2MPD2    C113831   0.293   4.063  14.061 -0.6243  0.0137 -0.0757
    2MPD2    C213832   0.312   3.935  14.108  0.3141 -0.8575 -0.1692
    2MPD2    C313833   0.220   3.830  14.068  0.1264  0.6626 -0.2625
    2MPD2    C413834   0.101   3.862  13.998 -0.5747 -0.1528 -0.2351
    2MPD2    C513835   0.083   3.990  13.964  0.3030 -0.0488 -0.1620
    2MPD2     H13836   0.407   3.910  14.155  0.4845 -1.4316 -0.8316
    2MPD2    H113837   0.019   3.795  13.976  0.7435 -1.6266 -0.7439
    2MPD2    H213838   0.160   4.185  13.944  0.3409  0.6864  1.9159
    2MPD2    H313839   4.713   4.019  13.911 -0.5524 -2.9798 -0.2715
    2MPD2     N13840   0.251   3.697  14.108 -0.1522  0.3866  0.2538
    2MPD2    H513841   0.342   3.669  14.143  0.0646  0.9925  0.1705
    2MPD2    N113842   0.385   4.172  14.076  0.2411 -0.3106 -0.7044
    2MPD2    H713843   0.366   4.254  14.019 -1.5783  0.1545  0.5750
    3TMC2    C113844   0.586   4.281  14.131  0.0138  0.5514 -0.4099
    3TMC2    C213845   0.669   4.314  14.242 -0.2098  0.3021  0.2760
    3TMC2    C313846   0.725   4.438  14.243  0.0040  0.4167  0.0588
    3TMC2    C413847   0.573   4.367  14.020  0.4353 -0.2380 -0.4876
    3TMC2    C513848   0.643   4.485  14.028 -0.1331  0.7436  0.3559
    3TMC2    C613849   0.722   4.523  14.133 -0.1558 -0.1872  0.1296
    3TMC2     C13850   0.497   4.169  14.158 -0.7944  0.7650 -0.8480
    3TMC2     O13851   0.531   4.086  14.243  0.5233 -0.5203 -0.1847
    3TMC2     H13852   0.693   4.245  14.322  0.9379  1.3076  0.8065
    3TMC2    H113853   0.520   4.349  13.928 -1.0131  0.5530  0.1799
    3TMC2    H213854   0.781   4.614  14.132 -0.8027  0.2398 -0.1443
    3TMC2    C713855   0.629   4.578  13.923  0.7899 -0.2719  0.5267
    3TMC2    C813856   0.807   4.478  14.354 -0.6700  0.0077 -0.5522
    3TMC2    O113857   0.730   4.650  13.901 -0.0826  0.3073  0.2778
    3TMC2    O213858   0.862   4.586  14.361  0.1868  0.5247 -0.1816
    3TMC2    O513859   0.872   4.372  14.412  0.4323 -0.6283  0.5005
    3TMC2    H513860   0.815   4.298  14.442 -0.0425 -0.4193  0.1117
    4MPD2     C13861   3.987   4.264  13.211  0.5988  0.2865  0.7504
    4MPD2    C113862   4.029   4.328  13.103 -0.5947  0.3123 -0.0514
    4MPD2    C213863   4.143   4.401  13.112 -0.0860  0.3792  0.0424
    4MPD2    C313864   4.229   4.392  13.222 -0.0228 -0.4674  0.1140
    4MPD2    C413865   4.189   4.307  13.333  0.8645 -0.3196 -0.4344
    4MPD2    C513866   4.064   4.251  13.329  0.7343 -0.1117 -0.0498
    4MPD2     H13867   4.175   4.465  13.031  0.3593  1.5722  1.1552
    4MPD2    H113868   4.250   4.270  13.415  1.5384  1.6358 -0.0606
    4MPD2    H213869   3.891   4.213  13.211  0.8155 -0.0932 -2.0830
    4MPD2    H313870   4.025   4.189  13.409 -1.2353  0.2393 -0.7502
    4MPD2     N13871   4.349   4.474  13.225 -0.1354  0.0178 -0.1522
    4MPD2    H513872   4.344   4.542  13.150  1.6179 -0.2334 -0.4941
    4MPD2    N113873   3.938   4.336  12.992  0.0767  0.5321  0.1218
    4MPD2    H713874   3.856   4.278  13.008  1.2982 -0.4206  2.8788
    5TCq2    C113875   4.447   4.455  13.323  0.9875 -0.6009  0.1899
    5TCq2    O213876   4.441   4.384  13.428 -0.6024  0.6601 -0.0995
    5TCq2    C213877   4.551   4.547  13.307 -0.1885  0.2946  0.1407
    5TCq2    C313878   4.558   4.632  13.202  0.5693  0.2194 -0.4098
    5TCq2    C413879   4.651   0.008  13.212 -0.3673 -0.3804 -0.8393
    5TCq2    C513880   0.011   0.026  13.321  0.0549 -0.8108  0.4566
    5TCq2    C613881   4.719   4.660  13.427  0.1845 -0.1619  0.4142
    5TCq2    C713882   4.626   4.561  13.418 -0.3748 -0.8459 -0.3832
    5TCq2    C813883   0.095   4.657  13.546  0.6572 -0.3596 -0.5997
    5TCq2    O413884   0.082   4.568  13.632  0.0932 -0.1317  0.1289
    5TCq2    C913885   4.673   0.094  13.094  0.4378  0.3542 -0.0402
    5TCq2    O513886   0.072   0.141  13.094  0.4214  0.4397  0.0293
    5TCq2    O613887   4.601   0.075  12.991  0.0432 -0.7612 -0.2816
    5TCq2    H213888   4.504   4.624  13.109  1.5253 -1.4144 -0.8118
    5TCq2    H313889   0.086   0.104  13.318 -2.0043  1.2794  3.0223
    5TCq2    H413890   4.631   4.483  13.492  0.0630  0.7290  1.2334
    6MPD1     C13891   3.731   0.360  13.728  0.1865 -0.7893 -0.2949
    6MPD1    C113892   3.714   0.487  13.675 -0.1726 -0.3668  0.2965
    6MPD1    C213893   3.624   0.505  13.578 -0.3365  0.5069  0.2948
    6MPD1    C313894   3.566   0.401  13.512  0.1707 -0.0202 -0.0021
    6MPD1    C413895   3.600   0.268  13.551  0.3781 -0.5274 -0.6190
    6MPD1    C513896   3.676   0.256  13.660 -0.4167 -0.2823 -0.5513
    6MPD1     H13897   3.593   0.607  13.559 -1.1514  0.6468  2.3817
    6MPD1    H113898   3.569   0.184  13.491  1.7257 -1.1354 -0.4496
    6MPD1    H213899   3.802   0.336  13.806 -1.0434  2.7888  1.8946
    6MPD1    H313900   3.695   0.155  13.696  2.5074 -0.1311 -1.6815
    6MPD1     N13901   3.477   0.411  13.400  0.4841 -0.2219 -0.9743
    6MPD1    H513902   3.431   0.328  13.364 -0.9232 -0.0569  0.4626
    6MPD1    N113903   3.767   0.599  13.740 -0.2770  0.2317 -0.2654
    6MPD1    H613904   3.859   0.581  13.780 -0.3765  0.8703  0.2445
    6MPD1    H713905   3.762   0.682  13.681  0.1480  0.3256 -0.1660
    7MPD2     C13906   3.040   4.717  12.989 -0.3936 -0.1596 -0.2000
    7MPD2    C113907   3.173   0.036  13.010 -0.1837  0.3087  0.2707
    7MPD2    C213908   3.269   4.673  12.963 -0.3852 -0.4380 -0.0178
    7MPD2    C313909   3.247   4.570  12.883 -0.3833  0.3925 -0.5663
    7MPD2    C413910   3.118   4.530  12.860 -0.3461  0.4733 -0.0756
    7MPD2    C513911   3.023   4.610  12.913  0.1498 -0.2222 -0.2304
    7MPD2     H13912   3.371   4.706  12.980 -0.7058  0.0972  0.8358
    7MPD2    H113913   3.103   4.437  12.806 -0.6325  0.5246 -0.0849
    7MPD2    H213914   2.953   0.053  13.019  0.8801  0.4414  2.3494
    7MPD2    H313915   2.920   4.576  12.903 -0.7946  2.4964  0.4836
    7MPD2     N13916   3.350   4.498  12.830 -0.4386  0.8186 -0.2380
    7MPD2    H513917   3.328   4.426  12.762  1.5727 -1.0625  1.0930
    7MPD2    N113918   3.217   0.158  13.065  0.1343  0.1366 -0.3067
    7MPD2    H713919   3.315   0.183  13.056 -0.3508  2.0377 -0.2440
    8TMC3    C113920   3.578   4.437  12.815 -0.6168  0.4326 -1.1659
    8TMC3    C213921   3.696   4.411  12.884  0.1238 -0.0469 -0.9059
    8TMC3    C313922   3.817   4.419  12.816  0.1739  0.0472 -0.1621
    8TMC3    C413923   3.581   4.499  12.690  0.5095  0.0523  0.4264
    8TMC3    C513924   3.703   4.525  12.630 -0.3767  0.8647 -0.1489
    8TMC3    C613925   3.820   4.481  12.690 -0.0001 -0.6150 -0.5716
    8TMC3     C13926   3.463   4.465  12.902 -0.8067 -0.4977 -0.6227
    8TMC3     O13927   3.485   4.470  13.028 -0.3235  0.0516 -0.0555
    8TMC3     H13928   3.693   4.372  12.985  2.1612  1.5597 -0.2307
    8TMC3    H113929   3.492   4.518  12.632 -0.0859 -0.5495  1.1366
    8TMC3    H213930   3.916   4.511  12.652 -1.2292  2.2477 -1.3609
    8TMC3    C713931   3.720   4.662  12.579 -0.5112  0.4364 -0.0691
    8TMC3    C813932   3.950   4.402  12.873 -0.5023 -0.3527 -0.2264
    8TMC3    O113933   3.826   4.688  12.525 -0.1539 -0.1340 -0.3391
    8TMC3    O213934   4.046   4.454  12.825  0.1979  0.5744 -0.1141
    9TMC3    C113935   3.348   0.520  13.234  0.6100 -0.2911 -0.2496
    9TMC3    C213936   3.391   0.587  13.122 -0.1541  0.2487 -0.4306
    9TMC3    C313937   3.347   0.532  13.001 -0.1751 -0.9589  0.5524
    9TMC3    C413938   3.256   0.417  13.242  0.0897 -0.0034 -0.3252
    9TMC3    C513939   3.213   0.373  13.119  0.3195 -0.3874 -0.0762
    9TMC3    C613940   3.256   0.431  12.998 -0.5424  0.1374  0.2807
    9TMC3     C13941   3.450   0.529  13.334 -0.0582  0.0711  0.5927
    9TMC3     O13942   3.502   0.636  13.350 -0.2617  0.2025 -0.0329
    9TMC3     H13943   3.480   0.649  13.128 -0.3927  0.6562 -1.2106
    9TMC3    H113944   3.251   0.357  13.332  0.9889  0.4636  0.0264
    9TMC3    H213945   3.221   0.373  12.913  0.4257 -0.9800  0.6446
    9TMC3    C713946   3.137   0.254  13.111 -0.2415 -0.4198 -0.0780
    9TMC3    C813947   3.452   0.530  12.899  0.0398 -0.0852  0.6283
    9TMC3    O113948   3.015   0.256  13.109  0.1623  0.0912  0.1881
    9TMC3    O213949   3.540   0.616  12.902 -0.2454  0.1086 -0.7741
   10MPD2     C13950   3.747   0.231  12.592  0.4202  0.7201 -0.6410
   10MPD2    C113951   3.632   0.167  12.638  0.7796  0.0526 -0.1409
   10MPD2    C213952   3.531   0.235  12.708  0.3945 -0.3580 -0.4483
   10MPD2    C313953   3.544   0.367  12.745 -0.1753 -0.4316  0.0426
   10MPD2    C413954   3.650   0.436  12.704  0.9203 -0.9856 -0.1706
   10MPD2    C513955   3.746   0.366  12.633 -0.1385  0.4954 -0.5887
   10MPD2     H13956   3.448   0.180  12.750  0.5491 -1.3259 -1.3897
   10MPD2    H113957   3.678   0.537  12.732  0.3832 -0.5047 -1.3658
   10MPD2    H213958   3.835   0.189  12.545  0.6297 -0.6782  1.0223
   10MPD2    H313959   3.836   0.422  12.610 -0.6487  0.8438 -1.7135
   10MPD2     N13960   3.438   0.414  12.818  0.1104 -0.4257 -0.1622
   10MPD2    H513961   3.360   0.349  12.825  0.4665 -0.7442  0.9929
   10MPD2    N113962   3.627   0.024  12.633  0.4129  0.2323  0.2165
   10MPD2    H713963   3.550   4.702  12.685 -1.0617  0.0010 -2.1772
   11MPD2     C13964   0.542   0.081  13.760  0.0943 -0.1171 -0.4478
   11MPD2    C113965   0.469   4.687  13.780  0.3990  0.3218 -0.4322
   11MPD2    C213966   0.349   4.679  13.710 -0.0023  0.1070 -0.1494
   11MPD2    C313967   0.300   0.056  13.625 -0.2750 -0.3840  0.4745
   11MPD2    C413968   0.374   0.174  13.611 -0.4630 -0.0279 -0.3222
   11MPD2    C513969   0.493   0.176  13.677  0.1771 -0.1437  0.1526
   11MPD2     H13970   0.301   4.582  13.714  1.4496 -0.5819  0.6276
   11MPD2    H113971   0.331   0.264  13.568 -1.4433 -0.7569 -0.8699
   11MPD2    H213972   0.638   0.112  13.801 -0.1693 -0.9742  0.8115
   11MPD2    H313973   0.535   0.276  13.680 -0.7873  0.2728  0.0466
   11MPD2     N13974   0.178   0.051  13.554  0.2598  0.2987  0.4939
   11MPD2    H513975   0.153   0.125  13.489  0.2627 -0.6366 -0.5702
   11MPD2    N113976   0.506   4.573  13.859 -0.5777  0.0615  0.2608
   11MPD2    H713977   0.426   4.515  13.882 -1.2639  0.5388 -0.9347
    1MPD1     C13978   3.320   0.722  17.431 -0.3076  0.0012 -0.3130
    1MPD1    C113979   3.442   0.673  17.475  0.1641 -0.3562  0.8888
    1MPD1    C213980   3.445   0.536  17.498  0.4570 -0.3428 -0.2315
    1MPD1    C313981   3.346   0.449  17.467 -0.3177 -0.2969  0.3418
    1MPD1    C413982   3.226   0.498  17.425 -0.9393  0.5416  0.1432
    1MPD1    C513983   3.215   0.633  17.413 -0.2103 -0.2240 -0.2703
    1MPD1     H13984   3.529   0.484  17.542 -0.7940  0.1932  2.8123
    1MPD1    H113985   3.141   0.436  17.397 -0.0158  0.0878 -1.6649
    1MPD1    H213986   3.294   0.823  17.405 -0.1755  0.5305  1.6173
    1MPD1    H313987   3.118   0.676  17.391 -0.9159 -1.5848  0.2150
    1MPD1     N13988   3.353   0.307  17.497 -0.8221  0.0697 -0.1444
    1MPD1    H513989   3.269   0.251  17.484 -0.1817 -0.7682 -0.6706
    1MPD1    N113990   3.555   0.754  17.502 -0.3093 -0.4650  0.0977
    1MPD1    H613991   3.647   0.712  17.491  0.5681  1.1983  1.1146
    1MPD1    H713992   3.551   0.838  17.445  3.6469 -1.8322 -2.1810
    2MPD1     C13993   2.822   4.320   0.233 -0.2828 -0.0397 -0.5437
    2MPD1    C113994   2.931   4.308   0.321 -0.5982 -0.0945  0.5974
    2MPD1    C213995   3.034   4.392   0.307 -0.1238  0.3891  0.1728
    2MPD1    C313996   3.035   4.480   0.204  0.5681  0.1333 -0.4373
    2MPD1    C413997   2.934   4.488   0.113 -0.4664 -0.1784 -0.5516
    2MPD1    C513998   2.822   4.413   0.134 -0.1148 -0.3540  0.3115
    2MPD1     H13999   3.105   4.389   0.388  0.1861  1.2995 -0.0695
    2MPD1    H114000   2.936   4.553   0.026 -2.3987 -1.2908 -1.4315
    2MPD1    H214001   2.738   4.255   0.255  1.0165 -1.4199  0.3154
    2MPD1    H314002   2.738   4.414   0.066  0.5626  0.2948 -0.5186
    2MPD1     N14003   3.153   4.563   0.185 -0.7391 -0.1485  0.5102
    2MPD1    H514004   3.226   4.543   0.253 -1.2029 -1.2208  0.6940
    2MPD1    N114005   2.924   4.236   0.437  0.8637  0.2544  0.8481
    2MPD1    H614006   3.017   4.198   0.457  0.0843 -1.7117  0.7151
    2MPD1    H714007   2.866   4.153   0.429 -0.4202  1.2218  0.1727
    3TMC3    C114008   3.291   4.719   0.080 -0.3092 -0.2469 -0.0215
    3TMC3    C214009   3.404   4.646   0.114 -0.1554  0.2931 -0.0278
    3TMC3    C314010   3.519   4.673   0.055 -0.2462 -0.6812  0.2774
    3TMC3    C414011   3.296   0.089  17.667  0.4147 -0.0278  0.0663
    3TMC3    C514012   3.417   0.107  17.598  0.3203 -0.3113 -0.2724
    3TMC3    C614013   3.528   0.039  17.640 -0.0357  0.0497  0.5506
    3TMC3     C14014   3.160   4.661   0.091 -0.3061  0.0206  0.2897
    3TMC3     O14015   3.070   0.002   0.027  0.5450 -0.5610 -0.7414
    3TMC3     H14016   3.395   4.569   0.190  0.0347  0.3056  0.0064
    3TMC3    H114017   3.209   0.143  17.633  1.4337  0.5461 -1.6465
    3TMC3    H214018   3.622   0.048  17.588  1.0915 -1.5714  2.3229
    3TMC3    C714019   3.458   0.238  17.541 -0.0055 -0.5962  0.2646
    3TMC3    C814020   3.642   4.621   0.119 -0.2609  0.1192  0.6886
    3TMC3    O114021   3.571   0.272  17.554  0.0634  0.1472 -0.2273
    3TMC3    O214022   3.642   4.578   0.232 -0.2079  0.1991  0.1998
    4MPD1     C14023   4.139   4.497   0.064  0.8467 -0.8595 -0.0213
    4MPD1    C114024   4.089   4.525  17.624  0.3364  0.1575 -0.2713
    4MPD1    C214025   3.954   4.565  17.615  0.7700  0.0966  0.5780
    4MPD1    C314026   3.876   4.582   0.043  0.0337  0.0801 -0.5735
    4MPD1    C414027   3.931   4.560   0.164 -0.2252  0.3764  0.2520
    4MPD1    C514028   4.062   4.523   0.175 -0.3255 -0.5152 -0.5867
    4MPD1     H14029   3.904   4.587  17.521  1.6930  0.8171  0.2563
    4MPD1    H114030   3.877   4.576   0.256  0.2786 -2.2127  1.0216
    4MPD1    H214031   4.228   4.443   0.094  0.9822 -1.0584 -0.7928
    4MPD1    H314032   4.100   4.501   0.274 -1.1315  0.4371 -0.0555
    4MPD1     N14033   3.738   4.618   0.024 -0.0536  0.8496 -0.1311
    4MPD1    H514034   3.715   4.642  17.613 -1.5291  0.1282  0.0471
    4MPD1    N114035   4.170   4.484  17.510  0.0547  0.6375  0.0083
    4MPD1    H614036   4.149   4.528  17.421 -1.8587  2.0016  1.1089
    4MPD1    H714037   4.269   4.494  17.533  0.3136 -1.5168 -0.1195
    1TCq1    O114038   4.458   0.524  12.447 -0.3568 -0.0422  0.1572
    1TCq1    C114039   4.395   0.637  12.443  0.3524 -0.1488  0.5343
    1TCq1    O214040   4.357   0.704  12.533 -0.0493 -0.0820 -0.3561
    1TCq1    C214041   4.318   0.640  12.318 -0.3006 -0.2196  0.2074
    1TCq1    C314042   4.332   0.559  12.206 -0.1120 -0.1411 -0.4411
    1TCq1    C414043   4.284   0.599  12.090  0.1347  0.8255  0.3269
    1TCq1    C514044   4.164   0.673  12.092  0.4347 -0.3408 -0.2063
    1TCq1    C614045   4.140   0.754  12.203  0.1407 -0.3654 -0.3597
    1TCq1    C714046   4.223   0.748  12.314 -0.0546  0.2720  0.2436
    1TCq1    C814047   4.021   0.837  12.203 -0.9310  0.1797 -0.1310
    1TCq1    O414048   4.008   0.929  12.285  0.0031  0.0108 -0.7275
    1TCq1    C914049   4.298   0.523  11.975  0.1363  0.1255  0.5462
    1TCq1    O514050   4.224   0.546  11.879  0.2265 -0.2382 -0.6476
    1TCq1    O614051   4.380   0.428  11.983  0.4344 -0.3683 -0.0257
    1TCq1    H114052   4.510   0.507  12.366 -0.8906 -0.6596 -0.0627
    1TCq1    H214053   4.412   0.485  12.203 -0.3969 -0.4105 -1.2763
    1TCq1    H314054   4.106   0.683  12.001  0.5581  1.3700 -0.0896
    1TCq1    H414055   4.195   0.811  12.398 -2.5386  0.9942 -1.1301
    2MPD1     C14056   3.522   0.906  12.104  1.0042  0.6729  0.3439
    2MPD1    C114057   3.554   0.786  12.042  0.0249  0.3807 -0.2650
    2MPD1    C214058   3.695   0.757  12.044 -1.4354 -0.1146  0.0907
    2MPD1    C314059   3.786   0.826  12.125  0.0295 -0.5022 -0.1586
    2MPD1    C414060   3.740   0.937  12.195 -0.2313 -0.4411 -0.5393
    2MPD1    C514061   3.609   0.982  12.172 -0.3439 -0.2719 -0.0834
    2MPD1     H14062   3.736   0.678  11.981 -1.0966 -0.0527  0.2300
    2MPD1    H114063   3.800   0.996  12.263 -1.2245 -1.2746  1.0750
    2MPD1    H214064   3.423   0.946  12.087  0.6291 -0.2633  0.3227
    2MPD1    H314065   3.577   1.078  12.210 -1.2703 -0.9658  0.8977
    2MPD1     N14066   3.922   0.779  12.129 -0.3825 -0.2721  0.3165
    2MPD1    H514067   3.946   0.699  12.072  1.3176  0.3263  0.1998
    2MPD1    N114068   3.468   0.722  11.950  0.2021 -0.0179  0.4063
    2MPD1    H614069   3.471   0.620  11.942 -0.7260  0.0570 -0.8811
    2MPD1    H714070   3.372   0.729  11.984 -0.2941  2.5108 -1.5752
    1TCq1    O114071   2.440   3.475   1.226  0.2048  0.2848 -0.1308
    1TCq1    C114072   2.458   3.599   1.277  0.1485 -0.3667 -0.3839
    1TCq1    O214073   2.475   3.625   1.397 -0.0157 -0.7651  0.1287
    1TCq1    C214074   2.452   3.710   1.177  0.0336  0.0593  0.5759
    1TCq1    C314075   2.473   3.829   1.244 -0.3208 -0.1021  0.2170
    1TCq1    C414076   2.482   3.942   1.166 -0.0014  0.1814  0.0641
    1TCq1    C514077   2.489   3.927   1.031 -0.5459  0.4896  0.0080
    1TCq1    C614078   2.475   3.802   0.970  0.3905 -0.1106  0.3041
    1TCq1    C714079   2.454   3.693   1.043  0.0917 -0.5494  0.1765
    1TCq1    C814080   2.503   3.795   0.832  0.3349  0.6234  0.5585
    1TCq1    O414081   2.501   3.898   0.767  0.4192 -0.5646  0.6204
    1TCq1    C914082   2.535   4.070   1.215 -0.1771 -0.1656  0.8643
    1TCq1    O514083   2.526   4.171   1.138 -0.0569  0.5561 -0.5581
    1TCq1    O614084   2.592   4.065   1.330  0.0328  0.1431 -0.0781
    1TCq1    H114085   2.398   3.471   1.138 -0.1321  2.9391 -0.0890
    1TCq1    H214086   2.493   3.832   1.351  1.6097 -0.0555 -0.1584
    1TCq1    H314087   2.512   4.013   0.968 -1.3997  1.1868  0.6420
    1TCq1    H414088   2.454   3.595   0.996  1.2438 -0.2784 -0.3563
    2MPD1     C14089   2.581   3.514   0.413 -0.3578 -0.2006  0.6616
    2MPD1    C114090   2.609   3.435   0.521  0.3222  0.8372 -0.5242
    2MPD1    C214091   2.594   3.490   0.644 -0.1200  0.1968  0.5933
    2MPD1    C314092   2.555   3.623   0.662  0.2882 -0.0552  0.2928
    2MPD1    C414093   2.528   3.705   0.556 -0.6427  1.3573  0.3363
    2MPD1    C514094   2.530   3.645   0.432 -0.7254  0.1230  0.1381
    2MPD1     H14095   2.597   3.423   0.729  0.0012  0.3027  0.6722
    2MPD1    H114096   2.482   3.803   0.561 -1.9271  0.7916 -0.7224
    2MPD1    H214097   2.585   3.478   0.311  1.7841  1.6162  0.1088
    2MPD1    H314098   2.511   3.708   0.346 -0.0211 -1.9367 -1.5125
    2MPD1     N14099   2.552   3.674   0.792  0.5938 -0.2819 -0.1168
    2MPD1    H514100   2.596   3.621   0.867 -2.1487  0.4014  1.9680
    2MPD1    N114101   2.660   3.304   0.503 -0.3267 -0.4101  0.0664
    2MPD1    H614102   2.641   3.249   0.587 -0.8293 -2.3980 -1.3558
    2MPD1    H714103   2.635   3.260   0.415 -1.2862 -1.3070  0.7838
    1MPD1     C14104   0.705   0.891  11.844 -0.5889  0.0176 -0.1598
    1MPD1    C114105   0.784   0.881  11.963  0.3200 -1.0302  0.0832
    1MPD1    C214106   0.839   1.000  12.008  0.4779  0.3884 -0.2903
    1MPD1    C314107   0.820   1.127  11.943  0.0610  0.2424 -0.0065
    1MPD1    C414108   0.744   1.124  11.832  0.4286 -0.8040 -0.9943
    1MPD1    C514109   0.680   1.012  11.788 -0.2900  0.7691  1.0040
    1MPD1     H14110   0.885   0.989  12.105  1.7682  1.0268 -0.8256
    1MPD1    H114111   0.714   1.217  11.786  1.3138 -1.3826 -2.7141
    1MPD1    H214112   0.659   0.802  11.803  2.6843 -2.2560  1.0926
    1MPD1    H314113   0.615   1.016  11.701  0.5863  2.5146  0.4170
    1MPD1     N14114   0.881   1.244  11.994 -0.2858  0.2446  0.4424
    1MPD1    H514115   0.942   1.226  12.073  1.2592  1.2574 -0.5173
    1MPD1    N114116   0.783   0.755  12.032  0.2373 -0.3351  0.3812
    1MPD1    H614117   0.872   0.752  12.082  0.5308  0.5824 -0.0779
    1MPD1    H714118   0.782   0.686  11.957  0.4518  0.0193  0.0511
    2MPD1     C14119   4.626   0.133  11.203 -0.5016  0.0181  0.0678
    2MPD1    C114120   4.630   0.084  11.076  0.4265  0.0864  0.0847
    2MPD1    C214121   0.018   0.118  10.992 -0.2517  0.5130  0.4292
    2MPD1    C314122   0.113   0.212  11.038  0.0382  0.3381  0.0968
    2MPD1    C414123   0.105   0.251  11.165 -0.1354 -0.4367  0.7393
    2MPD1    C514124   0.009   0.213  11.256  0.0269  0.0430  0.7093
    2MPD1     H14125   0.027   0.068  10.897 -1.1229 -0.9260  1.0999
    2MPD1    H114126   0.187   0.309  11.206  0.5646 -0.3660 -0.7539
    2MPD1    H214127   4.547   0.101  11.269  0.1970 -1.8972 -0.0339
    2MPD1    H314128   0.009   0.236  11.362  0.9532 -2.1123  1.1688
    2MPD1     N14129   0.222   0.252  10.958  0.4100  0.5224 -1.0103
    2MPD1    H514130   0.296   0.302  11.005 -0.5290  0.4355  0.5607
    2MPD1    N114131   4.528   0.007  11.032 -0.4876 -0.8154 -0.0287
    2MPD1    H614132   4.483   4.682  11.111  1.1399 -0.4459  1.0958
    2MPD1    H714133   4.572   4.659  10.971  2.0350 -1.2125  2.2764
    3MPD1     C14134   0.576   0.754  10.062  0.0141  0.6523  0.5147
    3MPD1    C114135   0.685   0.755  10.148  0.6125 -0.2398 -0.1141
    3MPD1    C214136   0.682   0.670  10.260  0.1913  0.1229  0.7763
    3MPD1    C314137   0.570   0.601  10.297  0.5246  0.0230 -0.6258
    3MPD1    C414138   0.460   0.608  10.212 -0.4662 -0.3505 -0.7780
    3MPD1    C514139   0.468   0.677  10.096  1.0528  0.3779 -0.0265
    3MPD1     H14140   0.763   0.680  10.333  0.3020  1.1371  0.5151
    3MPD1    H114141   0.368   0.557  10.237 -0.9567  0.0974 -1.6833
    3MPD1    H214142   0.587   0.795   9.962  0.1795  2.1547  1.1519
    3MPD1    H314143   0.375   0.685  10.041  2.4907 -0.7041 -2.6297
    3MPD1     N14144   0.567   0.523  10.422 -0.0032 -0.1920  0.8775
    3MPD1    H514145   0.658   0.519  10.468  0.8050 -1.4099 -0.8395
    3MPD1    N114146   0.803   0.799  10.095 -0.4606 -0.4251  0.5224
    3MPD1    H614147   0.792   0.870  10.023 -0.5507 -1.3765 -0.4034
    3MPD1    H714148   0.860   0.831  10.172  1.3519  1.9671 -1.7985
    4MPD2     C14149   1.056   1.550  11.369 -0.3678 -0.3560 -0.0660
    4MPD2    C114150   1.131   1.466  11.450 -1.0619  0.3684 -0.1636
    4MPD2    C214151   1.188   1.350  11.401  0.1885 -0.6834  0.3100
    4MPD2    C314152   1.174   1.317  11.269 -0.5789  0.2221 -0.4701
    4MPD2    C414153   1.106   1.399  11.186 -0.3299 -0.8285  0.3879
    4MPD2    C514154   1.046   1.519  11.237  0.3093 -0.3150  0.0378
    4MPD2     H14155   1.251   1.301  11.474  0.0848 -1.8294 -0.3639
    4MPD2    H114156   1.104   1.392  11.078 -2.2851 -3.1008  0.5815
    4MPD2    H214157   1.011   1.644  11.398  0.2826  0.4117 -1.5335
    4MPD2    H314158   0.993   1.592  11.177  0.7560  1.3271  1.6086
    4MPD2     N14159   1.246   1.200  11.238  0.2578  0.1869  0.0420
    4MPD2    H514160   1.305   1.162  11.311  1.2306  0.6631 -0.4940
    4MPD2    N114161   1.151   1.491  11.586 -0.3298  0.6437  0.3436
    4MPD2    H714162   1.213   1.427  11.633 -0.7560 -0.3881 -0.5016
    5TMC3    C114163   1.114   1.566  11.809 -0.0444  0.6459 -0.0623
    5TMC3    C214164   0.992   1.556  11.875 -0.2618  0.1073 -0.5029
    5TMC3    C314165   0.989   1.454  11.969 -0.1071  0.1489  0.2474
    5TMC3    C414166   1.227   1.501  11.845 -0.5338  0.3192  0.7254
    5TMC3    C514167   1.222   1.413  11.951  0.1216 -0.0293 -1.3063
    5TMC3    C614168   1.109   1.394  12.021  0.1836 -0.2367  0.2990
    5TMC3     C14169   1.093   1.588  11.667  0.5690  0.2022  0.0205
    5TMC3     O14170   1.004   1.670  11.638 -0.4622 -0.4788  0.5592
    5TMC3     H14171   0.901   1.604  11.840  1.2022  0.3186 -4.0811
    5TMC3    H114172   1.317   1.519  11.787 -1.1780 -2.0378 -1.0031
    5TMC3    H214173   1.106   1.326  12.105 -0.9841  0.7161  1.0231
    5TMC3    C714174   1.264   1.299  11.879  0.2283  0.6549  0.0680
    5TMC3    C814175   0.874   1.368  11.939  0.1846  0.1279 -0.4765
    5TMC3    O114176   1.272   1.320  11.758  0.1851  0.2596  0.3224
    5TMC3    O214177   0.786   1.414  11.876 -0.0233 -0.1296  0.3613
    6TMC3    C114178   0.369   0.293  10.778 -0.6488 -0.0938  0.1769
    6TMC3    C214179   0.380   0.319  10.650  0.4732 -0.1328  0.5563
    6TMC3    C314180   0.479   0.396  10.600 -0.0034  0.2826  0.1861
    6TMC3    C414181   0.450   0.351  10.870 -0.4553 -0.0327  0.0293
    6TMC3    C514182   0.550   0.434  10.820  0.1553  0.7236  0.9459
    6TMC3    C614183   0.567   0.459  10.681 -0.0701 -0.1468  1.1726
    6TMC3     C14184   0.252   0.223  10.827 -0.2248  0.7800  0.3335
    6TMC3     O14185   0.190   0.163  10.740 -0.3676  0.2706  0.1555
    6TMC3     H14186   0.318   0.259  10.584  1.7217 -0.9442  0.1070
    6TMC3    H114187   0.457   0.316  10.972 -4.4308  2.9899  1.3410
    6TMC3    H214188   0.658   0.507  10.646 -2.0547  1.1882 -2.0641
    6TMC3    C714189   0.668   0.456  10.899 -0.4659 -0.8628 -0.1435
    6TMC3    C814190   0.455   0.458  10.469  0.6632  0.1009  0.4791
    6TMC3    O114191   0.733   0.548  10.857  0.3632  0.8538 -0.3018
    6TMC3    O214192   0.340   0.440  10.423  1.0694 -0.0265 -1.0096
    7MPD2     C14193   1.226   0.799  11.781 -0.4892  0.0720  0.3731
    7MPD2    C114194   1.273   0.900  11.705  0.4565 -0.4154  0.6464
    7MPD2    C214195   1.268   1.033  11.751  0.0754  0.6570 -0.0362
    7MPD2    C314196   1.243   1.053  11.883  0.5701 -0.9797 -0.2707
    7MPD2    C414197   1.213   0.952  11.967 -0.1733  0.5333  0.2434
    7MPD2    C514198   1.203   0.826  11.916 -0.3451  0.0610 -0.1084
    7MPD2     H14199   1.277   1.114  11.680 -2.4803 -1.2389 -2.5146
    7MPD2    H114200   1.201   0.958  12.075  1.8334 -1.1172  0.5547
    7MPD2    H214201   1.216   0.700  11.739 -0.1549 -0.5037  1.6624
    7MPD2    H314202   1.181   0.737  11.974  0.2471 -0.2602 -0.3714
    7MPD2     N14203   1.239   1.177  11.939  0.5575 -0.3712 -0.2212
    7MPD2    H514204   1.231   1.182  12.040  1.2805  1.4812 -0.2587
    7MPD2    N114205   1.291   0.864  11.568 -0.1369  0.1727  0.7597
    7MPD2    H714206   1.275   0.764  11.560 -1.1184  0.3273  0.7150
    8TMC3    C114207   1.342   0.903  11.338 -0.6370 -0.0671 -0.0695
    8TMC3    C214208   1.254   0.804  11.305 -0.2684  0.3265  0.4289
    8TMC3    C314209   1.194   0.812  11.176 -0.6100 -0.3391  0.2331
    8TMC3    C414210   1.373   1.000  11.248  0.8321  0.3936  0.1169
    8TMC3    C514211   1.317   1.007  11.122  0.5764  0.2311 -0.4624
    8TMC3    C614212   1.223   0.915  11.087  0.2421  0.4214 -0.0245
    8TMC3     C14213   1.355   0.942  11.475 -0.8615 -0.2405  0.2458
    8TMC3     O14214   1.387   1.061  11.483  0.4792  0.7644 -0.3149
    8TMC3     H14215   1.246   0.716  11.368 -0.4342 -0.9162 -1.3419
    8TMC3    H114216   1.446   1.075  11.273  0.7019  1.3342 -2.3445
    8TMC3    H214217   1.168   0.925  10.994  1.5773  0.6315 -0.7893
    8TMC3    C714218   1.249   1.137  11.113 -1.0821 -0.3819 -0.9016
    8TMC3    C814219   1.089   0.722  11.136  0.6111 -0.5540 -0.4861
    8TMC3    O114220   1.194   1.173  11.008  0.3382  0.0662 -0.0755
    8TMC3    O214221   1.042   0.720  11.027  0.2582 -0.0399  0.1167
    9MPD2     C14222   0.929   0.465  11.343 -0.3442  0.3550 -0.0030
    9MPD2    C114223   0.942   0.548  11.231  0.1228 -0.0985  0.0304
    9MPD2    C214224   0.871   0.514  11.115  0.3125 -0.5944 -0.3415
    9MPD2    C314225   0.779   0.409  11.111  0.0607  0.1842 -0.1488
    9MPD2    C414226   0.802   0.313  11.206  0.3099 -0.4211  0.3835
    9MPD2    C514227   0.851   0.350  11.326 -0.3304 -0.2617 -0.0386
    9MPD2     H14228   0.880   0.585  11.033  0.5039  0.4955  0.6259
    9MPD2    H114229   0.748   0.219  11.210  0.3954 -0.5199 -0.7039
    9MPD2    H214230   0.985   0.478  11.434 -0.5525  1.2874 -0.0145
    9MPD2    H314231   0.845   0.272  11.400 -0.6798  0.0187  0.2293
    9MPD2     N14232   0.688   0.380  11.009  0.1666 -0.5089  0.0865
    9MPD2    H514233   0.627   0.299  11.015  0.0528 -0.5250 -1.1639
    9MPD2    N114234   1.047   0.643  11.239  0.2329  0.2955  0.7203
    9MPD2    H714235   1.088   0.653  11.332 -0.6977 -0.5305  1.2122
    1MPD1     C14236   1.011   4.031  16.549  0.1360  0.0379  0.0429
    1MPD1    C114237   1.022   4.151  16.597  0.0092 -0.2686 -0.9866
    1MPD1    C214238   0.938   4.247  16.537 -0.2678 -0.4586  0.0331
    1MPD1    C314239   0.872   4.218  16.418 -0.3829  0.6795 -0.2452
    1MPD1    C414240   0.868   4.089  16.371  0.3940  0.7883 -0.4659
    1MPD1    C514241   0.941   3.994  16.435 -0.0207  0.5485 -0.3491
    1MPD1     H14242   0.936   4.345  16.582 -0.5911 -0.1912 -0.5591
    1MPD1    H114243   0.831   4.059  16.273  0.0360 -1.1990  0.2798
    1MPD1    H214244   1.058   3.946  16.596  0.3131  0.6648  1.0147
    1MPD1    H314245   0.947   3.894  16.393 -0.3959  0.1810  0.4682
    1MPD1     N14246   0.814   4.312  16.332  0.0611 -0.9415  0.5466
    1MPD1    H514247   0.764   4.265  16.257  0.4514 -0.6943  0.1354
    1MPD1    N114248   1.090   4.167  16.718 -0.3687  0.3532  0.4040
    1MPD1    H614249   1.167   4.101  16.720 -0.2831  0.4334 -0.6978
    1MPD1    H714250   1.119   4.264  16.730  1.0334  0.3089 -2.7844
    2MPD1     C14251   0.813   0.508  15.770 -0.8985  0.0392  0.1742
    2MPD1    C114252   0.777   0.503  15.905  0.2817 -0.2530  0.8477
    2MPD1    C214253   0.763   0.379  15.961 -0.9237 -0.1806  0.3603
    2MPD1    C314254   0.764   0.265  15.884  0.5056 -0.2393 -0.0599
    2MPD1    C414255   0.784   0.269  15.748  0.0686 -0.2026  0.5277
    2MPD1    C514256   0.817   0.394  15.691 -0.1245 -0.5024 -0.4374
    2MPD1     H14257   0.744   0.376  16.068  1.5780 -4.0011  0.7185
    2MPD1    H114258   0.787   0.183  15.682 -0.8823  0.1308  0.0465
    2MPD1    H214259   0.822   0.601  15.715  0.8763  0.0410  0.4910
    2MPD1    H314260   0.843   0.404  15.587  0.6474 -1.0884 -0.3036
    2MPD1     N14261   0.750   0.139  15.940  0.0967  0.0602  0.1989
    2MPD1    H514262   0.742   0.060  15.876  0.4980  0.1102  0.0828
    2MPD1    N114263   0.746   0.624  15.969 -0.0838  0.2261 -0.3821
    2MPD1    H614264   0.776   0.628  16.066 -1.8115  1.6856  0.0812
    2MPD1    H714265   0.794   0.699  15.920  1.4112 -0.8008 -0.4782
    3TCq2    C114266   0.736   0.109  16.078 -0.2942 -0.3346 -0.1894
    3TCq2    O214267   0.751   0.184  16.178  0.4238 -0.0303  0.3795
    3TCq2    C214268   0.715   4.695  16.101 -0.0797 -0.1907  0.6019
    3TCq2    C314269   0.628   4.624  16.018  0.3903 -0.2755  0.2755
    3TCq2    C414270   0.609   4.494  16.056  0.1789 -0.9399 -0.2611
    3TCq2    C514271   0.653   4.442  16.170  0.2356 -0.4570 -0.6171
    3TCq2    C614272   0.731   4.520  16.249  0.3450 -0.3448  0.3911
    3TCq2    C714273   0.755   4.652  16.225 -0.6163  0.4719  0.8986
    3TCq2    C814274   0.816   4.450  16.347 -0.0960 -0.1685  0.6674
    3TCq2    O414275   0.880   4.520  16.427  0.6045  0.3149 -0.5258
    3TCq2    C914276   0.516   4.407  15.978  0.1180 -0.5777 -0.1466
    3TCq2    O514277   0.478   4.453  15.867  0.5010  0.1679 -0.7513
    3TCq2    O614278   0.503   4.287  16.013  0.3061  0.1836  0.9388
    3TCq2    H214279   0.591   4.662  15.924  0.8189 -1.0917 -0.2206
    3TCq2    H314280   0.619   4.345  16.204  0.8472 -0.4634 -0.0126
    3TCq2    H414281   0.812   4.714  16.294  1.6569  0.0016 -0.5438
    1TCq1    O114282   2.576   3.198  12.328  0.5542  0.3298 -0.7731
    1TCq1    C114283   2.496   3.093  12.361 -0.4427 -0.3111 -0.0611
    1TCq1    O214284   2.410   3.050  12.287 -0.2520 -0.2521 -0.0746
    1TCq1    C214285   2.503   3.072  12.505  0.0570  0.5325  0.1767
    1TCq1    C314286   2.490   2.938  12.553 -0.0364  0.4811 -0.6749
    1TCq1    C414287   2.532   2.917  12.679 -0.6026  0.6195 -0.0150
    1TCq1    C514288   2.587   3.019  12.754  0.2887  0.0664  0.3509
    1TCq1    C614289   2.596   3.147  12.704  0.2815 -0.5095  0.0975
    1TCq1    C714290   2.550   3.175  12.579 -0.0052 -0.6740  0.2019
    1TCq1    C814291   2.658   3.258  12.775  0.2068 -0.2683 -0.4037
    1TCq1    O414292   2.618   3.372  12.761  0.3471  0.0870 -0.4635
    1TCq1    C914293   2.525   2.786  12.733 -0.1824 -0.6753  0.4441
    1TCq1    O514294   2.590   2.760  12.836  0.4185  0.2883 -0.0708
    1TCq1    O614295   2.438   2.711  12.684  0.4227 -0.5110 -0.1377
    1TCq1    H114296   2.638   3.231  12.396 -0.3601  2.2457 -0.8536
    1TCq1    H214297   2.449   2.851  12.503  1.5816  0.2398 -1.5510
    1TCq1    H314298   2.616   2.993  12.855  0.9328  0.8517  0.3651
    1TCq1    H414299   2.542   3.280  12.552 -0.4585 -0.8585 -0.3733
    2MPD2     C14300   2.898   3.447  12.802 -0.0176  0.1083 -0.0190
    2MPD2    C114301   2.905   3.312  12.811  0.2062  0.3407 -0.0219
    2MPD2    C214302   3.033   3.260  12.836 -0.3009 -0.1401 -0.1341
    2MPD2    C314303   3.144   3.339  12.869 -0.4786 -0.3412  0.4993
    2MPD2    C414304   3.129   3.477  12.864  0.3975  0.0543 -0.3680
    2MPD2    C514305   3.011   3.524  12.823  0.4250 -0.3416 -0.7207
    2MPD2     H14306   3.042   3.152  12.830  1.3953 -0.1470  2.3798
    2MPD2    H114307   3.216   3.540  12.872  1.8719 -2.3186  2.1233
    2MPD2    H214308   2.809   3.499  12.768 -0.6520  0.0996  1.6352
    2MPD2    H314309   3.000   3.632  12.813  0.4742 -0.2298  0.4201
    2MPD2     N14310   3.270   3.272  12.874 -0.3403 -0.2175 -0.3003
    2MPD2    H514311   3.265   3.171  12.859 -0.2468  0.1831 -3.1060
    2MPD2    N114312   2.791   3.225  12.786 -0.6070  0.2445  0.4485
    2MPD2    H714313   2.822   3.129  12.772 -1.6025  0.5284 -3.6885
    3TCq1    O114314   3.846   3.291  13.034 -0.0358 -0.0117 -0.4936
    3TCq1    C114315   3.798   3.176  13.100  0.3013  0.6600  0.0694
    3TCq1    O214316   3.869   3.087  13.144  0.3696  0.6029 -0.4770
    3TCq1    C214317   3.686   3.145  13.019  0.3446  0.7348  0.3152
    3TCq1    C314318   3.698   3.026  12.950 -0.1366  0.4730  0.0119
    3TCq1    C414319   3.597   3.012  12.859 -0.2996 -0.2340  0.4848
    3TCq1    C514320   3.493   3.106  12.848 -0.3253  0.2778 -0.3316
    3TCq1    C614321   3.501   3.228  12.906  1.0112 -0.2404  0.4232
    3TCq1    C714322   3.602   3.252  12.991  0.7185  0.4023 -0.0444
    3TCq1    C814323   3.395   3.326  12.900 -0.0293  0.6948  0.7425
    3TCq1    O414324   3.430   3.438  12.939 -0.1544  0.0182 -0.0508
    3TCq1    C914325   3.586   2.890  12.783  0.2615  0.1587 -0.4589
    3TCq1    O514326   3.469   2.857  12.740  0.1145  0.1133  0.2716
    3TCq1    O614327   3.684   2.807  12.795 -0.6611 -0.2360 -0.1289
    3TCq1    H114328   3.769   3.337  12.993  0.1500  2.3842  1.9065
    3TCq1    H214329   3.762   2.945  12.983  2.0403  1.5770 -1.5251
    3TCq1    H314330   3.430   3.096  12.760 -0.9907 -0.0891  0.1973
    3TCq1    H414331   3.606   3.338  13.057 -2.0221  0.6983 -0.2744
    1MPD2     C14332   2.329   3.919  14.766  0.3714 -0.3872 -0.3363
    1MPD2    C114333   2.444   3.989  14.746 -0.2184  0.3352  0.2902
    1MPD2    C214334   2.504   4.062  14.849  0.2981 -0.5403 -0.1775
    1MPD2    C314335   2.450   4.055  14.973  1.1577 -0.3997 -0.3154
    1MPD2    C414336   2.331   3.976  14.999 -0.3502 -0.0578 -0.2694
    1MPD2    C514337   2.274   3.915  14.893 -0.1907 -0.2299  0.5645
    1MPD2     H14338   2.597   4.115  14.835  0.7929 -2.2788 -3.5473
    1MPD2    H114339   2.290   3.961  15.098 -1.5225 -1.9382 -1.0441
    1MPD2    H214340   2.290   3.846  14.696 -2.4751  1.1622 -0.3737
    1MPD2    H314341   2.196   3.841  14.906  1.1150 -1.5482  0.8937
    1MPD2     N14342   2.535   4.121  15.067 -0.8462  0.8096 -0.9021
    1MPD2    H514343   2.619   4.164  15.029  0.4341 -0.0983  0.8850
    1MPD2    N114344   2.507   3.981  14.620 -0.6532  0.3641 -0.0238
    1MPD2    H714345   2.455   3.941  14.542 -1.3910  1.6047 -0.1626
    2TMC3    C114346   2.668   4.023  14.452  0.1252 -0.0619 -0.0733
    2TMC3    C214347   2.795   3.982  14.463  0.8958  0.4499 -1.0019
    2TMC3    C314348   2.895   4.052  14.397  0.7093  0.3823 -0.0308
    2TMC3    C414349   2.637   4.131  14.380 -0.4509 -0.1246 -0.1132
    2TMC3    C514350   2.739   4.197  14.306  0.8249 -0.0853 -0.0085
    2TMC3    C614351   2.870   4.156  14.309  0.0892  0.1689 -0.0221
    2TMC3     C14352   2.628   4.039  14.589  0.0126  0.0531  0.4339
    2TMC3     O14353   2.717   4.081  14.662  0.0656 -0.2254  0.3817
    2TMC3     H14354   2.820   3.892  14.518 -0.0647 -1.6043 -3.9455
    2TMC3    H114355   2.539   4.177  14.385 -1.2537 -1.5312 -2.8662
    2TMC3    H214356   2.951   4.209  14.261  1.1941 -2.5674 -1.1886
    2TMC3    C714357   2.717   4.333  14.253  0.0049 -0.6187  0.3841
    2TMC3    C814358   3.020   4.046  14.467 -0.3455 -0.3077  0.2341
    2TMC3    O114359   2.615   4.343  14.189 -0.2446 -0.2458  0.7041
    2TMC3    O214360   3.119   4.090  14.408 -0.1595 -0.1179  0.5255
    3TCq1    O114361   3.167   0.617  14.888 -0.3088  0.7366 -0.1038
    3TCq1    C114362   3.119   0.583  14.766  0.3426 -0.4347  0.7815
    3TCq1    O214363   3.154   0.637  14.664  0.1422 -0.1768 -0.1086
    3TCq1    C214364   3.074   0.444  14.768 -0.9327 -0.4617 -0.1114
    3TCq1    C314365   3.133   0.352  14.845  0.4392  0.2098 -0.2905
    3TCq1    C414366   3.124   0.220  14.804 -1.0437  0.5467  0.0910
    3TCq1    C514367   3.053   0.183  14.691  0.4411 -0.4512  0.1275
    3TCq1    C614368   2.989   0.286  14.623 -1.0033  0.1403 -0.1677
    3TCq1    C714369   2.993   0.411  14.664 -0.3345  0.2287  0.4420
    3TCq1    C814370   2.907   0.258  14.503  0.0027 -0.5376 -0.1350
    3TCq1    O414371   2.830   0.339  14.454  0.9906 -0.3286 -0.0660
    3TCq1    C914372   3.187   0.115  14.883 -0.0946 -0.6576  0.2371
    3TCq1    O514373   3.223   0.007  14.833 -0.1913 -0.1532 -0.6493
    3TCq1    O614374   3.206   0.141  15.005  0.4779  0.3353  0.4435
    3TCq1    H114375   3.115   0.565  14.953  0.0626  1.2475  0.5894
    3TCq1    H214376   3.189   0.384  14.933 -0.7924  1.4347  0.0537
    3TCq1    H314377   3.056   0.078  14.664 -1.8137 -0.7587  1.0222
    3TCq1    H414378   2.952   0.485  14.596 -1.7391 -0.6469  0.3380
    4MPD2     C14379   2.759   0.112  14.280  0.2868 -0.1474  0.2801
    4MPD2    C114380   2.850   0.050  14.370  0.1404  0.4552  0.2905
    4MPD2    C214381   2.865   4.634  14.369 -0.9301  0.5057 -0.4361
    4MPD2    C314382   2.797   4.560  14.273  0.0005  0.4874 -0.0630
    4MPD2    C414383   2.711   4.622  14.182  0.5545 -0.5916 -0.0178
    4MPD2    C514384   2.698   0.035  14.183  0.0781  0.2204 -0.0646
    4MPD2     H14385   2.937   4.589  14.437 -1.4487 -0.2579 -0.3892
    4MPD2    H114386   2.649   4.571  14.109  0.1709  0.5032 -0.4500
    4MPD2    H214387   2.757   0.220  14.275 -0.8290 -0.1168  1.2129
    4MPD2    H314388   2.638   0.085  14.107 -0.3979  3.3398  2.3733
    4MPD2     N14389   2.811   4.426  14.296  0.1973  0.1922  0.4771
    4MPD2    H514390   2.885   4.393  14.356  0.1249  1.1881  1.1179
    4MPD2    N114391   2.924   0.125  14.466 -0.1252 -0.7058 -0.0495
    4MPD2    H714392   2.990   0.068  14.517  1.3038  0.6697 -0.3724
    5TMC2    C114393   2.827   4.251  15.177 -0.3234  0.8770  0.2315
    5TMC2    C214394   2.876   4.172  15.278 -0.0797  0.1080 -0.2996
    5TMC2    C314395   2.795   4.109  15.368  0.1467  0.2643  1.0407
    5TMC2    C414396   2.694   4.280  15.182 -0.0302 -0.8135 -0.8114
    5TMC2    C514397   2.610   4.212  15.270  0.6034 -0.3281 -0.2205
    5TMC2    C614398   2.662   4.124  15.360 -0.2242 -0.6555 -0.2802
    5TMC2     C14399   2.885   4.240  15.046 -0.0338 -0.6486  0.0095
    5TMC2     O14400   2.809   4.269  14.952 -0.2832  0.8269  0.4181
    5TMC2     H14401   2.981   4.188  15.299 -0.2686 -0.4932  1.1516
    5TMC2    H114402   2.650   4.350  15.113 -1.3169 -1.4728 -0.6515
    5TMC2    H214403   2.595   4.063  15.420 -0.5445 -1.6683 -1.6798
    5TMC2    C714404   2.505   4.143  15.196 -0.4117 -0.0629 -0.1228
    5TMC2    C814405   2.844   4.048  15.491  0.4493  0.3400  0.1501
    5TMC2    O114406   2.416   4.088  15.260  0.1884  0.1645 -0.3479
    5TMC2    O214407   2.789   4.046  15.602 -0.4115  0.1641 -0.2855
    5TMC2    O514408   2.971   4.003  15.461 -0.5853 -0.5488  0.1898
    5TMC2    H514409   2.993   4.009  15.366  1.5668 -1.8055  0.6332
    6MPD2     C14410   3.206   4.070  14.691 -0.1128 -0.0166 -0.0298
    6MPD2    C114411   3.075   4.074  14.702  0.5937  0.7704  0.3171
    6MPD2    C214412   3.016   4.125  14.818 -0.0387  0.0793  0.1706
    6MPD2    C314413   3.090   4.174  14.924  0.6147 -0.7141 -0.5696
    6MPD2    C414414   3.227   4.165  14.917  0.7255 -0.2633  0.2191
    6MPD2    C514415   3.282   4.113  14.794  0.1833  0.0255  0.0428
    6MPD2     H14416   2.908   4.129  14.820 -0.0726 -1.9919  2.6418
    6MPD2    H114417   3.289   4.210  14.993 -1.5072  0.8752  1.3677
    6MPD2    H214418   3.254   4.029  14.603  1.2706  0.3967  0.5289
    6MPD2    H314419   3.389   4.127  14.782  0.0357  1.2821  0.1376
    6MPD2     N14420   3.022   4.208  15.044  0.0044  0.9035 -0.6316
    6MPD2    H514421   3.073   4.203  15.132 -1.0537 -1.6310 -0.1608
    6MPD2    N114422   2.986   4.047  14.600 -0.0131  0.5411  0.1614
    6MPD2    H714423   2.889   4.061  14.626  0.8638  0.7362  3.2535
  945NH3     N114424   3.830   1.975  12.359 -0.3476  0.8113  0.1375
  945NH3     H214425   3.783   2.052  12.312 -1.4713 -0.5120 -0.9163
  945NH3     H314426   3.852   1.902  12.293  0.1692  0.3614  0.8051
  945NH3     H414427   3.761   1.931  12.419  0.7539 -0.6539  0.3207
  946SOD     NA14428   1.164   3.088  15.491 -0.0082 -0.5302 -0.0507
  947SOD     NA14429   0.750   0.835  16.569 -0.1827  0.0278  0.5392
  948SOD     NA14430   0.115   3.660   0.586  0.1216  0.0467 -0.1734
  949SOD     NA14431   0.108   0.877   1.448 -0.1371  0.1324 -0.3298
  950SOD     NA14432   4.259   4.690  14.660  0.5391 -0.1489 -0.7308
  951SOD     NA14433   1.676   2.523  10.314 -0.5815 -0.4189 -0.3073
  952SOD     NA14434   3.861   2.967  11.802  0.0924 -0.1203 -0.0632
  953SOD     NA14435   1.937   3.672  10.751 -0.3889 -0.5194  0.5188
  954SOD     NA14436   0.779   3.321  14.395 -0.0268  0.0926  0.2485
  955SOD     NA14437   3.781   3.075  14.909 -0.1583  0.0639  0.1753
  956SOD     NA14438   2.179   3.524   9.760 -0.0594  0.0246 -0.0107
  957SOD     NA14439   2.487   1.183   4.488  0.4059  0.1195 -0.1203
  958SOD     NA14440   2.026   1.062   8.186 -0.3556 -0.2484 -0.0071
  959SOD     NA14441   0.951   1.234  15.282  0.2529  0.5694 -0.0936
  960SOD     NA14442   3.890   0.950  13.347  0.0807  0.5685  0.3669
  961SOD     NA14443   0.748   1.085  11.211  0.1209  0.8683  0.5454
  962SOD     NA14444   0.867   2.095  12.906 -0.2100  0.1389  0.0260
  963SOD     NA14445   4.227   3.213  17.170 -0.0947  0.0046 -0.1433
  964SOD     NA14446   4.716   1.830  12.889 -0.2479  0.3684 -0.0521
  965SOD     NA14447   1.666   3.361  11.111 -0.1610  0.0493  0.0387
  966SOD     NA14448   3.230   4.625  14.645 -0.7151  0.1619 -0.2103
  967SOD     NA14449   0.361   2.413  16.985 -0.3740 -0.1800  0.5847
  968SOD     NA14450   4.139   3.191  10.751 -0.2039 -0.2972  0.1378
  969SOD     NA14451   4.184   2.875   9.671 -0.0417 -0.3364 -0.3349
  970SOD     NA14452   3.686   3.050  11.531 -0.1582  0.6029 -0.3506
  971SOD     NA14453   0.239   4.677  15.413  0.3006 -0.1095 -0.2462
  972SOD     NA14454   4.215   3.332  11.103 -0.3146  0.1582 -0.6809
  973SOD     NA14455   2.723   2.324  10.821  0.0134  0.4049 -0.2869
  974SOD     NA14456   2.229   2.696  12.661 -0.1257 -0.1424 -0.3624
  975SOD     NA14457   2.925   2.412  10.221  0.0834  0.1951 -0.3856
  976SOD     NA14458   0.504   2.846  13.209  0.4737  0.1544  0.4129
  977SOD     NA14459   4.626   4.063  10.939 -0.2130 -0.7144  0.2683
  978SOD     NA14460   2.954   1.027  15.936 -0.4019  0.0043 -0.0745
  979SOD     NA14461   2.498   2.510  12.616 -0.6774 -0.7897  0.1692
  980SOD     NA14462   1.280   2.328  11.632  0.0771  0.1748  0.0945
  981SOD     NA14463   0.004   4.603   7.913 -0.0291 -0.2328 -0.1415
  982SOD     NA14464   3.455   1.473   6.415  0.0764 -0.0584 -0.3102
  983SOD     NA14465   0.537   0.780   3.002  0.6909  0.3804 -0.1666
  984SOD     NA14466   3.970   0.243   1.597  0.2111 -0.2466 -0.0033
  985SOD     NA14467   2.424   3.315   7.746 -0.1086  0.0519  0.1786
  986SOD     NA14468   2.723   4.184   1.439  0.4672  0.2776 -0.0909
  987SOD     NA14469   2.549   4.019   2.603 -0.0155 -0.5543  0.1661
  988SOD     NA14470   0.980   2.264   1.606  0.3082 -0.0591  0.0670
  989SOD     NA14471   0.601   3.381  15.944  0.0513  0.0794 -0.0626
  990SOD     NA14472   4.683   4.531   0.741  0.3236  0.0697  0.2882
  991SOD     NA14473   1.191   2.411   0.539  0.2892 -0.7859 -0.0246
  992SOD     NA14474   3.396   0.025  15.026 -0.8105 -0.0218 -0.2761
  993SOD     NA14475   0.948   3.563   0.990 -0.0757  0.1223 -0.1532
  994SOD     NA14476   3.070   3.963  10.991 -0.1874  0.1388 -0.3646
  995SOD     NA14477   1.099   4.704  14.988 -0.3617 -0.0565  0.2160
  996SOD     NA14478   3.354   3.271  11.628  0.1344 -0.2286  0.4846
  997SOD     NA14479   2.688   2.659  10.505 -0.2978  0.4661 -0.0175
  998SOD     NA14480   1.582   2.061   9.161 -0.2478  0.0190  0.1933
  999SOD     NA14481   4.529   0.987   6.035 -0.0313  0.3245 -0.5162
 1000SOD     NA14482   1.698   3.418   1.050  0.2113  0.0165 -0.4903
 1001SOD     NA14483   3.129   2.084   8.705 -0.2950 -0.5537  0.2690
 1002SOD     NA14484   0.079   0.118  12.883 -0.3239 -0.8684 -0.1345
 1003SOD     NA14485   2.612   4.408   9.976 -0.1831 -0.0453 -0.4514
 1004SOD     NA14486   0.194   4.301  12.863  0.1196  0.2045 -0.1950
 1005SOD     NA14487   1.784   0.455  13.362  0.0422 -0.4896 -0.0469
 1006SOD     NA14488   0.018   3.883   0.030  0.0312 -0.0023 -0.3470
 1007SOD     NA14489   2.849   2.775  10.233 -0.0143  0.0573  0.1765
 1008SOD     NA14490   3.824   2.032  13.495  0.1451  1.0085 -0.4859
 1009SOD     NA14491   2.997   0.134  15.385 -0.5578  0.4090  0.2660
 1010SOD     NA14492   2.860   2.334  10.535  0.1955 -0.2934 -0.4585
 1011SOD     NA14493   2.254   4.436   0.991  0.0286 -0.1337  0.3237
 1012SOL     OW14494   3.621   3.501   5.580 -0.2607  0.2910  0.2619
 1012SOL    HW114495   3.538   3.523   5.622  0.0955  0.6367  0.8025
 1012SOL    HW214496   3.612   3.408   5.559  0.9515 -0.0433  1.1984
 1013SOL     OW14497   0.092   1.964   6.628  0.3622 -0.6530  0.3217
 1013SOL    HW114498   0.137   2.040   6.592 -1.3887  0.6321  0.8396
 1013SOL    HW214499   0.168   1.909   6.648  1.2104  0.6566  0.6781
 1014SOL     OW14500   4.343   0.143   4.999  0.1189 -0.3175  0.4032
 1014SOL    HW114501   4.344   0.096   4.916 -1.3522  0.9304 -0.3334
 1014SOL    HW214502   4.312   0.228   4.969  4.2307  1.1888  0.4936
 1015SOL     OW14503   4.175   1.562   8.813  0.5137  0.5052 -0.1707
 1015SOL    HW114504   4.207   1.479   8.777 -0.4965 -0.0891  0.3196
 1015SOL    HW214505   4.227   1.574   8.892 -0.9822 -1.6037  1.1416
 1016SOL     OW14506   1.363   4.321   2.042 -0.0341 -0.0357 -0.4224
 1016SOL    HW114507   1.452   4.311   2.075 -0.7893 -2.3617  0.8847
 1016SOL    HW214508   1.320   4.320   2.127  1.6809  0.7378  0.4393
 1017SOL     OW14509   3.583   1.675   4.378 -0.5903  0.0357 -0.1196
 1017SOL    HW114510   3.505   1.671   4.322 -1.0531  1.1947  0.4283
 1017SOL    HW214511   3.546   1.668   4.466  0.5714  0.9541  0.4297
 1018SOL     OW14512   3.889   3.219   5.665 -0.1911 -0.3635  0.0901
 1018SOL    HW114513   3.977   3.216   5.628  0.0645 -3.8828  0.9608
 1018SOL    HW214514   3.840   3.189   5.589 -2.5857  2.3181  0.5850
 1019SOL     OW14515   1.349   0.628   5.051  0.1593  0.4855  0.1810
 1019SOL    HW114516   1.278   0.685   5.082 -1.0551 -1.2099  0.5676
 1019SOL    HW214517   1.361   0.660   4.961 -1.9547 -0.0065 -0.2970
 1020SOL     OW14518   2.669   1.679   4.189 -0.4592 -0.1319 -0.2109
 1020SOL    HW114519   2.749   1.632   4.167 -0.4599 -0.0293 -0.4297
 1020SOL    HW214520   2.677   1.708   4.280 -2.9681  2.5310 -0.8503
 1021SOL     OW14521   4.077   4.672   3.823  0.1046  0.0882 -0.1044
 1021SOL    HW114522   4.140   0.009   3.777  1.3053 -1.4187 -0.3349
 1021SOL    HW214523   4.099   4.694   3.914  1.2451 -0.3825 -0.2699
 1022SOL     OW14524   3.744   1.338   7.493  0.2337 -0.1962  0.3172
 1022SOL    HW114525   3.714   1.260   7.445 -0.7169  0.6332 -0.4272
 1022SOL    HW214526   3.763   1.306   7.581 -1.2092 -0.8842  0.3854
 1023SOL     OW14527   3.977   4.444   8.711 -0.1382 -0.2667 -0.4933
 1023SOL    HW114528   3.966   4.384   8.785  0.8571 -1.0826 -1.0062
 1023SOL    HW214529   3.884   4.456   8.691 -0.0128  2.9856  0.9644
 1024SOL     OW14530   0.076   0.750   8.214  0.1829  0.2940 -0.3923
 1024SOL    HW114531   0.033   0.832   8.188  4.4243  2.7355  0.3500
 1024SOL    HW214532   0.047   0.739   8.305 -1.6373  1.0744 -0.8670
 1025SOL     OW14533   1.930   1.515   1.193  0.2216  0.3608  0.5987
 1025SOL    HW114534   1.993   1.529   1.122  0.1841  0.3338  0.5602
 1025SOL    HW214535   1.863   1.572   1.155  0.7122  0.5859  0.0705
 1026SOL     OW14536   3.537   2.618  11.790  0.1342 -0.6261  0.0316
 1026SOL    HW114537   3.605   2.575  11.841  1.5448  0.4155 -0.9636
 1026SOL    HW214538   3.531   2.699  11.842 -0.0506 -0.2430 -0.5840
 1027SOL     OW14539   1.234   1.348   5.286  0.1769 -0.4582 -0.0130
 1027SOL    HW114540   1.178   1.341   5.209 -0.1418  1.8772 -0.0191
 1027SOL    HW214541   1.160   1.354   5.347  0.6502 -3.7819  0.8841
 1028SOL     OW14542   0.633   1.204  12.884 -0.7850  0.5113  0.0602
 1028SOL    HW114543   0.580   1.267  12.932 -1.7394  0.8812 -1.4865
 1028SOL    HW214544   0.705   1.258  12.852 -1.8530  1.3594 -0.8972
 1029SOL     OW14545   3.545   3.137   3.469 -0.2977  0.2275 -0.5533
 1029SOL    HW114546   3.508   3.084   3.399  0.8748  1.4848 -2.1170
 1029SOL    HW214547   3.586   3.077   3.532 -0.5755 -0.0904 -0.6766
 1030SOL     OW14548   3.167   2.898   4.075 -0.2725 -0.7267  0.5035
 1030SOL    HW114549   3.104   2.837   4.111 -0.6651 -0.4445  0.3005
 1030SOL    HW214550   3.172   2.975   4.131  2.1046 -0.2561 -0.3195
 1031SOL     OW14551   0.237   3.346  16.825  0.0727  0.4014 -0.3144
 1031SOL    HW114552   0.218   3.299  16.907 -1.6292  1.1778 -0.2820
 1031SOL    HW214553   0.319   3.390  16.849  1.4867 -2.2739 -0.2085
 1032SOL     OW14554   0.464   0.008  10.612 -0.2404  0.2077 -0.7983
 1032SOL    HW114555   0.555   0.032  10.631 -0.0549 -1.5479  0.4747
 1032SOL    HW214556   0.441   0.067  10.540 -0.1317 -0.8247 -1.6770
 1033SOL     OW14557   3.308   1.869   5.773 -0.4957 -0.0654  0.0052
 1033SOL    HW114558   3.363   1.799   5.738 -0.7312 -0.2502  0.0079
 1033SOL    HW214559   3.242   1.874   5.704 -0.7586 -2.1524  0.1227
 1034SOL     OW14560   4.080   2.001   8.541 -0.0209 -0.5884 -0.0647
 1034SOL    HW114561   4.121   1.945   8.608  2.5669  1.1200 -0.2186
 1034SOL    HW214562   4.040   1.940   8.480  1.0774  0.2728 -1.6484
 1035SOL     OW14563   2.357   2.843   7.992 -0.8651 -0.1364 -0.1659
 1035SOL    HW114564   2.290   2.896   8.033 -1.6067  0.3274 -1.9731
 1035SOL    HW214565   2.300   2.802   7.926 -2.3109  1.7048 -0.0463
 1036SOL     OW14566   0.835   0.854   1.012  0.3109 -0.1687  0.0548
 1036SOL    HW114567   0.910   0.893   1.057  1.6485 -0.7704 -1.6543
 1036SOL    HW214568   0.770   0.859   1.082  1.8697  0.8897  1.4563
 1037SOL     OW14569   1.216   0.734  12.943 -0.0401  0.2800  0.2173
 1037SOL    HW114570   1.226   0.804  12.879 -0.0384  0.9648  0.9620
 1037SOL    HW214571   1.174   0.673  12.883 -0.6203  0.7823  0.1142
 1038SOL     OW14572   0.055   0.907   6.002 -0.2178 -0.1394 -0.1532
 1038SOL    HW114573   0.139   0.862   5.990 -0.0554  0.4978 -1.4050
 1038SOL    HW214574   0.019   0.855   6.074 -0.4670 -3.3261 -2.5771
 1039SOL     OW14575   2.032   3.854  15.980  0.2008  0.0382  0.0741
 1039SOL    HW114576   2.051   3.948  15.976 -0.1616  0.0496 -1.3317
 1039SOL    HW214577   1.937   3.862  15.968  0.1275 -1.9987 -0.6250
 1040SOL     OW14578   1.326   4.537   1.886  0.0111 -0.3749 -0.4867
 1040SOL    HW114579   1.348   4.455   1.931 -0.3827 -1.3348 -2.0392
 1040SOL    HW214580   1.355   4.524   1.796  1.1183 -3.0877  0.2665
 1041SOL     OW14581   3.268   3.169   8.688  0.2016 -0.3932  0.0466
 1041SOL    HW114582   3.346   3.120   8.714  0.7406  0.8603  0.7645
 1041SOL    HW214583   3.218   3.177   8.769  0.8797 -0.2189  0.4400
 1042SOL     OW14584   2.936   4.537  15.331  0.7080  0.0749  0.1412
 1042SOL    HW114585   2.908   4.476  15.399 -0.3600 -0.1893 -0.5398
 1042SOL    HW214586   2.989   4.595  15.386  1.0220 -1.7512  1.7788
 1043SOL     OW14587   2.194   3.918   8.759  0.5058 -0.5283 -0.1048
 1043SOL    HW114588   2.198   4.002   8.805 -1.0637  0.6201 -2.0560
 1043SOL    HW214589   2.288   3.901   8.748  0.7199 -2.0385  3.9194
 1044SOL     OW14590   3.439   3.628  15.519 -0.2457 -0.2925 -0.1062
 1044SOL    HW114591   3.391   3.602  15.598  1.2280 -2.2586  0.1578
 1044SOL    HW214592   3.367   3.643  15.458  1.2782 -0.3598 -1.9069
 1045SOL     OW14593   2.144   1.960   7.141  0.8381 -0.5862  0.0885
 1045SOL    HW114594   2.141   1.915   7.226  0.7863  0.6308  0.7181
 1045SOL    HW214595   2.117   1.894   7.076  0.8556  1.6885 -2.2286
 1046SOL     OW14596   0.979   2.721  17.364  0.5332  0.3112  0.0498
 1046SOL    HW114597   1.055   2.670  17.391  0.7075  1.1979  1.2229
 1046SOL    HW214598   0.907   2.673  17.407 -1.3510  1.4201 -1.8700
 1047SOL     OW14599   0.360   0.147   2.862  0.3538  0.2105  0.4814
 1047SOL    HW114600   0.316   0.213   2.915  1.2162  2.0395 -1.0543
 1047SOL    HW214601   0.372   0.188   2.776 -3.0810  1.0775  0.4007
 1048SOL     OW14602   1.584   1.661   3.828 -0.0593  0.0171 -0.3396
 1048SOL    HW114603   1.510   1.601   3.817  0.6791 -0.8976 -0.3267
 1048SOL    HW214604   1.556   1.728   3.890 -2.0901 -2.5947  1.5601
 1049SOL     OW14605   0.167   1.846  12.494  0.5797 -0.5168 -0.2637
 1049SOL    HW114606   0.127   1.932  12.482  2.0565  0.0901 -0.7625
 1049SOL    HW214607   0.092   1.790  12.476 -0.9873  1.0481  1.3806
 1050SOL     OW14608   2.998   3.899   5.660 -0.9768 -0.0116  0.0468
 1050SOL    HW114609   3.050   3.903   5.740  0.9718  1.8278 -1.3376
 1050SOL    HW214610   3.033   3.815   5.630 -1.1892 -0.8190  2.0506
 1051SOL     OW14611   4.592   0.150   3.327  0.3838 -0.1255 -0.0072
 1051SOL    HW114612   4.629   0.235   3.304 -0.2517  0.4673  1.2086
 1051SOL    HW214613   4.537   0.188   3.395 -0.0483  0.1141 -0.4937
 1052SOL     OW14614   2.042   2.218  12.445 -0.3447  0.3974  0.0200
 1052SOL    HW114615   2.003   2.287  12.499  0.4030  0.4487  0.5060
 1052SOL    HW214616   1.976   2.196  12.380 -0.7599  3.9638 -0.7497
 1053SOL     OW14617   0.231   0.808   1.637  0.6948  0.1726 -0.5002
 1053SOL    HW114618   0.206   0.764   1.719 -1.2095  1.6749 -0.2670
 1053SOL    HW214619   0.327   0.802   1.640  0.6955  1.1416  1.2977
 1054SOL     OW14620   0.280   1.857   2.242 -0.7050  0.2912  0.8189
 1054SOL    HW114621   0.218   1.834   2.310 -0.2861 -1.6340  0.5486
 1054SOL    HW214622   0.249   1.814   2.162  1.4378 -0.1751  0.2382
 1055SOL     OW14623   0.983   0.630   2.325  0.2843 -0.5291  0.0690
 1055SOL    HW114624   0.945   0.710   2.362  1.1549 -1.0447  2.1038
 1055SOL    HW214625   1.010   0.671   2.243 -0.3095 -1.0333 -0.3770
 1056SOL     OW14626   0.524   4.514   2.761 -0.1193 -0.2586  0.1776
 1056SOL    HW114627   0.619   4.525   2.760 -0.1285 -0.3411 -1.2711
 1056SOL    HW214628   0.503   4.527   2.668 -1.5906  1.4465  0.7369
 1057SOL     OW14629   4.104   4.374   6.324 -0.1884  0.1576 -0.3081
 1057SOL    HW114630   4.025   4.384   6.270 -0.0719 -1.9563 -0.8910
 1057SOL    HW214631   4.090   4.438   6.393 -1.5930 -0.2026 -0.2413
 1058SOL     OW14632   0.630   4.362   4.693  0.6858 -0.2679 -0.1575
 1058SOL    HW114633   0.625   4.443   4.641 -2.1161 -0.0070  0.5184
 1058SOL    HW214634   0.611   4.391   4.782 -0.2729 -1.2088 -0.0565
 1059SOL     OW14635   0.532   4.524   9.690 -0.0367 -0.1277 -0.0491
 1059SOL    HW114636   0.610   4.484   9.729  0.8564 -0.7689 -2.4755
 1059SOL    HW214637   0.488   4.449   9.648  1.1295 -0.9263  0.1477
 1060SOL     OW14638   1.272   2.665   6.068  0.2405  0.0248 -0.2971
 1060SOL    HW114639   1.197   2.697   6.117 -0.3974  0.0727 -1.2958
 1060SOL    HW214640   1.251   2.720   5.992 -1.0857 -1.4400 -0.9693
 1061SOL     OW14641   0.282   1.542   5.251 -0.2629 -0.0280  0.4383
 1061SOL    HW114642   0.277   1.603   5.177 -1.7962 -2.0106 -1.0823
 1061SOL    HW214643   0.332   1.464   5.225 -0.3268  0.5072 -1.2802
 1062SOL     OW14644   3.168   1.513   4.381  0.0875 -0.2699 -0.2657
 1062SOL    HW114645   3.108   1.463   4.435  1.6197 -0.2694  1.4399
 1062SOL    HW214646   3.250   1.494   4.426  0.1882  1.0030  0.0993
 1063SOL     OW14647   4.362   4.319   0.934  0.6557 -0.1729 -0.3915
 1063SOL    HW114648   4.431   4.351   0.992  1.0572 -1.4790 -0.1504
 1063SOL    HW214649   4.287   4.376   0.951  0.1272 -1.0367  0.1603
 1064SOL     OW14650   2.862   0.072  15.732  0.2336 -0.2004 -0.0473
 1064SOL    HW114651   2.942   0.022  15.716 -1.4924 -2.4019 -1.9893
 1064SOL    HW214652   2.895   0.129  15.800 -0.2653 -0.3752  0.3449
 1065SOL     OW14653   0.793   1.145   4.468  0.3551 -0.7166  0.6791
 1065SOL    HW114654   0.841   1.126   4.387 -0.6891 -3.2715  0.6604
 1065SOL    HW214655   0.721   1.200   4.438  1.2228  0.5235  0.8651
 1066SOL     OW14656   4.322   1.228   3.656  0.1138  0.4736  0.2708
 1066SOL    HW114657   4.256   1.161   3.675  0.9312 -0.3279  0.2841
 1066SOL    HW214658   4.401   1.177   3.674 -1.1559 -0.9105  1.9593
 1067SOL     OW14659   1.453   0.077   5.538 -0.6786 -0.3758  0.2903
 1067SOL    HW114660   1.474   0.169   5.559  1.3541 -0.2861 -2.1356
 1067SOL    HW214661   1.424   0.066   5.448  1.5465  3.2747 -0.9155
 1068SOL     OW14662   1.438   4.345   6.357  0.3139  0.2377 -0.0644
 1068SOL    HW114663   1.510   4.358   6.296  0.2002  1.3658  0.0392
 1068SOL    HW214664   1.361   4.351   6.300  0.0625 -2.6264 -0.0378
 1069SOL     OW14665   4.299   1.437   9.851  0.3010  0.5475 -0.3093
 1069SOL    HW114666   4.388   1.470   9.838  1.0260 -0.6592  1.5946
 1069SOL    HW214667   4.316   1.358   9.799  1.9133  0.4440  0.3770
 1070SOL     OW14668   0.160   3.739   0.910  0.1447 -0.1484 -0.1503
 1070SOL    HW114669   0.209   3.672   0.862 -3.1042 -1.4364 -1.6561
 1070SOL    HW214670   0.220   3.748   0.984  0.2873 -0.6087 -0.2101
 1071SOL     OW14671   3.495   2.593  13.464  0.0537  0.2466 -0.1075
 1071SOL    HW114672   3.590   2.592  13.464  0.0671  0.4060 -3.0080
 1071SOL    HW214673   3.480   2.502  13.491 -1.1323  0.3345 -0.4728
 1072SOL     OW14674   2.361   2.572   5.232 -0.2891 -0.4713 -0.7213
 1072SOL    HW114675   2.392   2.485   5.207  1.9021  0.4533 -1.2773
 1072SOL    HW214676   2.323   2.598   5.149  0.5268 -1.7224 -1.4906
 1073SOL     OW14677   1.064   1.516   3.714 -0.1244 -0.3036  0.2848
 1073SOL    HW114678   0.970   1.531   3.723  0.3276  2.0366  1.0610
 1073SOL    HW214679   1.072   1.426   3.683 -3.1063 -1.2016  2.0860
 1074SOL     OW14680   0.243   1.696   8.132  0.1353  0.7247 -0.5142
 1074SOL    HW114681   0.288   1.650   8.203  0.4877  1.7717 -0.0594
 1074SOL    HW214682   0.312   1.750   8.093  1.0880 -0.1999 -0.1428
 1075SOL     OW14683   2.294   1.559   7.460  0.1010 -0.4008  0.1834
 1075SOL    HW114684   2.370   1.572   7.404  0.3106 -1.0256  0.3227
 1075SOL    HW214685   2.234   1.519   7.397  0.4029  0.1735 -0.4684
 1076SOL     OW14686   3.110   0.534   2.690  0.8175 -0.2755  0.1985
 1076SOL    HW114687   3.078   0.584   2.615  2.6497  0.5558 -0.0133
 1076SOL    HW214688   3.108   0.447   2.649  0.4796 -0.9707  1.7131
 1077SOL     OW14689   1.288   2.922  15.841 -0.0305 -0.4236  0.0687
 1077SOL    HW114690   1.295   2.839  15.887  0.2069 -1.8589 -2.5601
 1077SOL    HW214691   1.381   2.944  15.831 -1.2728  4.1140 -1.6317
 1078SOL     OW14692   0.302   4.067   1.005 -0.3598 -0.5318 -0.9570
 1078SOL    HW114693   0.387   4.077   1.048  0.1718 -0.5720 -2.0054
 1078SOL    HW214694   0.249   4.058   1.085  0.7994 -1.4085 -0.3033
 1079SOL     OW14695   0.233   0.331   2.268  0.0991  0.4797 -0.2902
 1079SOL    HW114696   0.152   0.367   2.303 -0.5070 -1.7555  0.5535
 1079SOL    HW214697   0.287   0.410   2.261 -0.9781  1.1142 -1.4490
 1080SOL     OW14698   2.641   3.978   9.513  0.5749  0.2186 -0.2468
 1080SOL    HW114699   2.606   4.051   9.564 -0.0157 -0.9374  1.0357
 1080SOL    HW214700   2.558   3.931   9.505  0.4864  0.0741  1.3558
 1081SOL     OW14701   1.108   2.534   8.102 -0.7352 -0.2500 -0.1564
 1081SOL    HW114702   1.072   2.514   8.015  0.1227 -2.2021 -0.0373
 1081SOL    HW214703   1.138   2.622   8.078 -0.4514 -0.1142  0.7058
 1082SOL     OW14704   2.250   2.108   9.052 -0.1531  0.3150  0.2421
 1082SOL    HW114705   2.205   2.024   9.053 -0.8835  0.6855 -0.8993
 1082SOL    HW214706   2.180   2.171   9.067  0.4059  1.0513 -0.1986
 1083SOL     OW14707   2.127   3.596  14.991  0.3725  0.0493  0.5285
 1083SOL    HW114708   2.043   3.635  14.969  1.8342  2.3602 -1.0368
 1083SOL    HW214709   2.109   3.510  15.028  1.7309 -0.3857  0.2021
 1084SOL     OW14710   1.702   1.394   3.603 -0.2836 -0.1316  0.2180
 1084SOL    HW114711   1.736   1.311   3.636  0.8990  0.1721 -0.2135
 1084SOL    HW214712   1.738   1.397   3.514  0.2756 -3.5135  0.3212
 1085SOL     OW14713   3.560   3.002  10.795 -0.0609  0.3800  0.4784
 1085SOL    HW114714   3.466   3.013  10.777 -0.4364 -1.1974  1.4799
 1085SOL    HW214715   3.595   3.091  10.802  0.7025  0.2659 -2.1377
 1086SOL     OW14716   2.709   1.306   6.110  0.8149 -0.9722 -0.1255
 1086SOL    HW114717   2.689   1.270   6.197  0.6361 -1.2792 -0.2930
 1086SOL    HW214718   2.753   1.230   6.071 -2.8710 -2.1638 -1.9591
 1087SOL     OW14719   1.261   3.526   3.481  0.6257  0.1507 -0.3479
 1087SOL    HW114720   1.338   3.555   3.529 -0.9265  0.5467  1.9134
 1087SOL    HW214721   1.247   3.606   3.430  3.4507  0.2845 -0.8804
 1088SOL     OW14722   2.205   0.878   8.526 -0.0387  0.0073  0.5377
 1088SOL    HW114723   2.271   0.922   8.473  1.0246 -0.8986  1.1250
 1088SOL    HW214724   2.231   0.787   8.522  0.7842  0.3616 -1.8141
 1089SOL     OW14725   1.723   0.275   6.944  0.0903 -0.1614  0.2266
 1089SOL    HW114726   1.800   0.326   6.968 -0.8120  0.3478  2.0739
 1089SOL    HW214727   1.676   0.280   7.028 -1.0896 -2.8445 -0.2616
 1090SOL     OW14728   0.499   0.667   7.527 -0.3457  0.2637 -0.5891
 1090SOL    HW114729   0.496   0.576   7.500  1.1946 -0.2195  0.8703
 1090SOL    HW214730   0.407   0.689   7.543  0.6129  3.0627  1.1670
 1091SOL     OW14731   1.218   2.342  14.433 -0.2153 -0.1207  0.1120
 1091SOL    HW114732   1.221   2.331  14.338 -0.2706  0.8088  0.0112
 1091SOL    HW214733   1.299   2.313  14.475  0.0283  1.4929  0.7229
 1092SOL     OW14734   0.214   2.551   5.611  0.0626  0.1079 -0.1407
 1092SOL    HW114735   0.230   2.523   5.520  2.9103 -2.6830  1.2232
 1092SOL    HW214736   0.181   2.637   5.585 -0.4631  0.8179  2.9757
 1093SOL     OW14737   3.982   1.514  10.890 -0.6725 -0.1025  0.3923
 1093SOL    HW114738   4.009   1.599  10.926 -0.7280  0.4110 -0.7998
 1093SOL    HW214739   4.012   1.451  10.955  2.2521  0.2404 -0.6282
 1094SOL     OW14740   1.737   1.971   8.643  0.1413  0.0407  0.5920
 1094SOL    HW114741   1.723   1.898   8.703  0.5338 -2.1956 -2.0553
 1094SOL    HW214742   1.773   2.029   8.710  1.8002 -0.1935 -0.1034
 1095SOL     OW14743   3.857   2.973   5.025  0.1436 -0.1882  0.1525
 1095SOL    HW114744   3.913   2.934   5.092  2.1383 -0.4875 -1.6760
 1095SOL    HW214745   3.883   2.927   4.945  1.2045 -0.1014  0.4495
 1096SOL     OW14746   3.050   2.555   7.846  0.1570  0.1473  0.0988
 1096SOL    HW114747   2.985   2.486   7.838 -0.6961  0.9742 -0.1225
 1096SOL    HW214748   2.999   2.631   7.874  2.9218  1.8236  0.6667
 1097SOL     OW14749   3.962   4.101   7.376  0.2025  0.1134  0.1069
 1097SOL    HW114750   3.934   4.120   7.465 -2.2750  0.0870 -0.6815
 1097SOL    HW214751   3.933   4.010   7.366  0.5188  0.1122 -0.9006
 1098SOL     OW14752   4.260   3.947   4.887 -0.0031 -0.1814  0.2391
 1098SOL    HW114753   4.198   3.886   4.926 -1.1150  0.6951 -0.1411
 1098SOL    HW214754   4.287   3.899   4.809  1.9167  3.0299 -1.0823
 1099SOL     OW14755   1.268   0.869  10.701  0.6938  0.3455  0.3784
 1099SOL    HW114756   1.352   0.835  10.730  0.7350 -0.8244 -1.1251
 1099SOL    HW214757   1.293   0.944  10.648 -0.6607  1.3146  1.0925
 1100SOL     OW14758   1.441   3.985   2.965 -0.6276  0.9582 -0.1373
 1100SOL    HW114759   1.505   3.999   2.895 -2.4103  0.7683 -1.7912
 1100SOL    HW214760   1.447   4.075   2.998 -3.1960  0.9773  0.2173
 1101SOL     OW14761   2.984   2.653   3.687 -0.3941 -1.1170  0.2049
 1101SOL    HW114762   2.943   2.729   3.728  0.5738 -0.1763 -0.5629
 1101SOL    HW214763   2.907   2.614   3.645 -0.1399  0.3555 -1.6100
 1102SOL     OW14764   0.005   4.047   7.571  0.3282 -0.3567  0.4275
 1102SOL    HW114765   4.647   4.044   7.626 -0.0187 -1.4571 -0.1298
 1102SOL    HW214766   4.706   3.978   7.508 -1.4896  0.4890  0.0645
 1103SOL     OW14767   3.023   3.955   7.200 -0.0387 -0.6758 -0.3258
 1103SOL    HW114768   3.111   3.964   7.236  0.0863  0.4621 -0.9148
 1103SOL    HW214769   3.010   3.861   7.210  0.9997 -0.6644  1.2043
 1104SOL     OW14770   2.891   1.726   2.405 -0.2543 -0.8837 -0.1540
 1104SOL    HW114771   2.940   1.775   2.471 -0.8417 -3.6211  2.3212
 1104SOL    HW214772   2.930   1.639   2.403 -0.2881 -0.9116  0.3404
 1105SOL     OW14773   3.560   1.057  17.348  0.0530 -0.2009 -0.1413
 1105SOL    HW114774   3.620   1.096  17.411  1.9712 -2.0310 -0.8271
 1105SOL    HW214775   3.473   1.088  17.372  0.1817 -0.8546  1.1586
 1106SOL     OW14776   2.854   3.210  15.844  0.0007  0.8757 -0.6073
 1106SOL    HW114777   2.768   3.248  15.857 -0.0891 -1.0536  4.4550
 1106SOL    HW214778   2.911   3.272  15.890 -0.3609  0.8006 -0.0583
 1107SOL     OW14779   4.237   2.537  12.056  0.2891 -0.1840  0.1135
 1107SOL    HW114780   4.250   2.539  11.961 -0.2895 -0.9628  0.0156
 1107SOL    HW214781   4.202   2.623  12.081  0.8095  0.2845 -0.7880
 1108SOL     OW14782   0.046   2.367  12.951 -0.1573  0.3387  0.2776
 1108SOL    HW114783   0.056   2.306  13.024 -0.1127  1.0143  0.8414
 1108SOL    HW214784   0.122   2.425  12.956 -1.7215  2.5197 -1.0523
 1109SOL     OW14785   2.251   4.577  10.181 -0.0765 -0.1338  0.8912
 1109SOL    HW114786   2.330   4.565  10.129  0.7534 -0.0477  2.1549
 1109SOL    HW214787   2.275   4.657  10.227  1.4572  0.7103 -1.4289
 1110SOL     OW14788   1.855   1.605   0.565  0.1965 -0.0683 -0.6771
 1110SOL    HW114789   1.938   1.611   0.518  0.1080 -2.5860 -1.1534
 1110SOL    HW214790   1.787   1.595   0.500 -0.5227 -3.2551  0.6022
 1111SOL     OW14791   4.487   1.561  14.175 -0.2613 -0.1398  0.0303
 1111SOL    HW114792   4.569   1.608  14.187  0.2398 -0.9557 -0.1852
 1111SOL    HW214793   4.425   1.623  14.213 -0.2758  2.3319 -4.0950
 1112SOL     OW14794   1.316   3.564   4.847  0.2356 -0.2257  0.6176
 1112SOL    HW114795   1.323   3.529   4.936  0.4082 -0.3677  0.5499
 1112SOL    HW214796   1.288   3.487   4.796 -2.7671  0.9281  0.5785
 1113SOL     OW14797   4.421   0.468  16.154  0.2883  0.4422 -0.1171
 1113SOL    HW114798   4.415   0.402  16.084 -1.0615  1.4499 -0.9489
 1113SOL    HW214799   4.477   0.429  16.221 -2.2051 -3.5742 -0.3730
 1114SOL     OW14800   1.875   1.447   6.290  0.1361  0.3366 -0.0589
 1114SOL    HW114801   1.895   1.372   6.346 -1.3589 -1.5454 -2.0053
 1114SOL    HW214802   1.895   1.516   6.353 -2.2677  1.1333 -0.1649
 1115SOL     OW14803   4.378   1.838   5.825  0.0326  0.2998 -0.1484
 1115SOL    HW114804   4.362   1.836   5.731 -2.3751  0.3840  0.2488
 1115SOL    HW214805   4.318   1.765   5.844  0.3621 -0.9346 -3.9375
 1116SOL     OW14806   1.782   4.600  15.264 -0.2588  0.3581 -0.2924
 1116SOL    HW114807   1.828   4.614  15.346  1.9555 -0.6944 -1.3485
 1116SOL    HW214808   1.785   4.504  15.267  0.0296  0.3631 -0.4240
 1117SOL     OW14809   0.041   3.219   1.874  0.8023  0.2203 -0.2515
 1117SOL    HW114810   0.047   3.268   1.956  0.0181  0.4470 -0.3244
 1117SOL    HW214811   4.667   3.204   1.876  0.7180  0.3934 -2.9886
 1118SOL     OW14812   2.485   1.582   1.225  0.0046 -0.1775  0.0105
 1118SOL    HW114813   2.436   1.502   1.243 -2.0499  1.0588 -0.0485
 1118SOL    HW214814   2.505   1.570   1.132 -1.4355 -1.5813 -0.1212
 1119SOL     OW14815   3.447   2.800   8.217  0.5626 -0.2158  0.4127
 1119SOL    HW114816   3.468   2.847   8.136 -1.9527 -1.7734 -1.1124
 1119SOL    HW214817   3.446   2.709   8.189 -0.7004  0.1890 -0.8457
 1120SOL     OW14818   2.915   0.008   6.337 -0.4172 -0.4246 -0.2246
 1120SOL    HW114819   2.972   4.656   6.360 -3.2378 -2.5239  0.1933
 1120SOL    HW214820   2.951   0.024   6.249  0.8948  0.9113  0.5655
 1121SOL     OW14821   2.424   2.549   9.203  0.0737 -0.0688  0.4374
 1121SOL    HW114822   2.385   2.462   9.206  0.5733 -0.3301 -0.5181
 1121SOL    HW214823   2.403   2.565   9.295 -1.4495 -1.5644  0.3516
 1122SOL     OW14824   1.147   0.151  11.606  0.2771 -0.2953 -0.5025
 1122SOL    HW114825   1.094   0.087  11.558 -1.4626  0.5893  0.2204
 1122SOL    HW214826   1.180   0.093  11.674 -0.0421  0.7885  0.5873
 1123SOL     OW14827   4.155   0.143  10.313  0.0058 -0.5117 -0.3112
 1123SOL    HW114828   4.188   0.066  10.267  0.1843 -0.4534 -0.2826
 1123SOL    HW214829   4.076   0.116  10.359 -1.8596  1.3046 -2.4236
 1124SOL     OW14830   1.773   0.445   2.550  0.1819 -0.3025  0.2257
 1124SOL    HW114831   1.733   0.476   2.469  1.7572  1.2497  0.0449
 1124SOL    HW214832   1.803   0.359   2.520  1.6312  0.8149 -1.5317
 1125SOL     OW14833   3.349   2.410   0.930  0.5088  0.3750 -0.5986
 1125SOL    HW114834   3.435   2.369   0.938  0.0695 -0.1150  1.7282
 1125SOL    HW214835   3.296   2.342   0.972 -0.9580  1.0745 -1.3304
 1126SOL     OW14836   1.358   3.014   9.040  0.7672 -0.0420 -0.0136
 1126SOL    HW114837   1.427   2.971   9.090 -0.4635 -1.5863  0.3729
 1126SOL    HW214838   1.397   3.093   9.001  0.8641 -0.3403 -0.5255
 1127SOL     OW14839   0.103   4.324   4.541 -0.4005 -0.7454 -0.3809
 1127SOL    HW114840   0.058   4.252   4.498 -4.0562  0.8684  0.8061
 1127SOL    HW214841   0.033   4.368   4.589  0.3480 -0.6188  0.5941
 1128SOL     OW14842   3.515   4.527   1.637 -0.3786 -0.3719 -0.1779
 1128SOL    HW114843   3.469   4.444   1.626 -0.8494 -0.1136 -0.1461
 1128SOL    HW214844   3.458   4.568   1.702  0.8516  2.7954 -1.0763
 1129SOL     OW14845   0.381   2.788   7.591 -0.1855  0.1070 -0.4862
 1129SOL    HW114846   0.307   2.728   7.599 -0.4222 -0.0118 -3.3528
 1129SOL    HW214847   0.375   2.835   7.674  0.8593  1.0942 -0.9698
 1130SOL     OW14848   0.284   2.761   3.381  0.1136 -0.0338 -0.0282
 1130SOL    HW114849   0.206   2.726   3.337  0.2141  0.1810 -0.3824
 1130SOL    HW214850   0.344   2.687   3.375 -0.8449 -0.8940  1.2139
 1131SOL     OW14851   0.490   1.045   4.462 -0.1308  0.5430 -0.2993
 1131SOL    HW114852   0.507   1.091   4.544  2.8497 -1.0289 -0.0336
 1131SOL    HW214853   0.513   1.112   4.398  0.9283  0.7014  0.2527
 1132SOL     OW14854   1.260   3.137   4.211 -0.3158  0.3515 -0.3682
 1132SOL    HW114855   1.276   3.088   4.292 -1.7289 -1.0916 -0.9534
 1132SOL    HW214856   1.209   3.208   4.250  0.9133  1.7324 -1.3092
 1133SOL     OW14857   0.083   2.474   1.670  0.0419  0.1914 -0.0399
 1133SOL    HW114858   4.711   2.465   1.693 -0.6963 -0.1606 -3.2316
 1133SOL    HW214859   0.088   2.558   1.625  2.6951  2.2660  4.0354
 1134SOL     OW14860   1.152   0.088   2.176  0.4625  0.2555  0.3768
 1134SOL    HW114861   1.135   0.006   2.222 -0.4856  0.5657  0.5801
 1134SOL    HW214862   1.247   0.084   2.168  0.8229  2.0601  3.8523
 1135SOL     OW14863   0.524   0.654  15.784 -0.2634 -0.2042  0.1172
 1135SOL    HW114864   0.549   0.738  15.746  2.4735 -0.1069  2.1465
 1135SOL    HW214865   0.603   0.631  15.833  1.1016  2.6020 -0.7724
 1136SOL     OW14866   4.326   3.138  14.581 -0.4828 -0.5062  0.6536
 1136SOL    HW114867   4.249   3.178  14.620 -3.0355 -4.0319 -0.7048
 1136SOL    HW214868   4.370   3.207  14.533 -1.0302  0.6536  1.8211
 1137SOL     OW14869   1.306   0.565  11.542 -0.1610  0.0852 -0.3948
 1137SOL    HW114870   1.303   0.494  11.607  0.5019  0.0738 -0.3715
 1137SOL    HW214871   1.398   0.588  11.554  0.4704 -1.0278 -3.1034
 1138SOL     OW14872   4.691   4.389   8.643 -0.0378  0.8689  0.0462
 1138SOL    HW114873   0.039   4.455   8.655  2.4770 -1.0430 -3.6426
 1138SOL    HW214874   4.628   4.430   8.584  2.1662  3.0246 -0.7875
 1139SOL     OW14875   0.012   0.082   2.957 -0.3816 -0.1295  0.3330
 1139SOL    HW114876   0.065   0.092   2.878 -1.1113 -0.6200 -0.2277
 1139SOL    HW214877   0.067   0.128   3.020 -1.1599  1.1992  0.0438
 1140SOL     OW14878   4.335   4.597   2.202 -0.0993 -0.7849  0.2177
 1140SOL    HW114879   4.326   4.521   2.145 -0.9218 -0.4695 -0.0732
 1140SOL    HW214880   4.245   4.628   2.206  0.5640  1.1543  0.3613
 1141SOL     OW14881   4.569   0.594   4.210 -0.6587 -0.3052 -0.4088
 1141SOL    HW114882   4.636   0.593   4.142  0.6489 -1.0092  0.8875
 1141SOL    HW214883   4.582   0.501   4.228 -2.1861 -0.2321  1.0749
 1142SOL     OW14884   4.272   4.624  15.282 -0.0247  0.3301 -0.1122
 1142SOL    HW114885   4.197   4.616  15.340 -0.1477  0.3698 -0.2685
 1142SOL    HW214886   4.310   4.710  15.300  0.9067 -0.0633 -0.1886
 1143SOL     OW14887   2.950   0.196   5.016  0.5165 -0.2733 -0.4426
 1143SOL    HW114888   2.871   0.146   4.996  0.8303 -1.1205  0.4334
 1143SOL    HW214889   2.941   0.262   4.947  1.1393 -0.5267 -0.7693
 1144SOL     OW14890   0.160   4.364   3.375  0.5535 -0.0561  0.5558
 1144SOL    HW114891   0.219   4.288   3.374  1.2271  0.4763 -0.5555
 1144SOL    HW214892   0.123   4.369   3.287  0.5278  0.9312  0.6194
 1145SOL     OW14893   2.289   1.917   7.424 -0.1105 -0.5039 -0.5128
 1145SOL    HW114894   2.335   1.836   7.445 -0.8891 -1.0880 -1.0645
 1145SOL    HW214895   2.200   1.889   7.445  0.3694 -1.1676  0.6356
 1146SOL     OW14896   1.384   4.335  11.681 -0.2667  0.1827  0.0584
 1146SOL    HW114897   1.325   4.264  11.659  1.2343 -0.9054 -0.4467
 1146SOL    HW214898   1.350   4.399  11.618 -1.7075  0.4292  1.0898
 1147SOL     OW14899   4.320   1.224  13.150  0.4000 -0.1317 -0.6048
 1147SOL    HW114900   4.367   1.149  13.187  0.3547  0.0456 -0.1942
 1147SOL    HW214901   4.371   1.288  13.200  1.0442 -1.9416  1.0603
 1148SOL     OW14902   0.677   2.914   8.751 -0.0934  0.0535 -0.8305
 1148SOL    HW114903   0.715   2.993   8.790 -0.7946 -0.3956  0.7370
 1148SOL    HW214904   0.748   2.899   8.689  0.6186  0.4553 -0.0953
 1149SOL     OW14905   3.457   2.684   2.205  0.2201  0.1577  0.1411
 1149SOL    HW114906   3.446   2.618   2.273  0.1161 -0.8645 -0.8704
 1149SOL    HW214907   3.527   2.741   2.237 -1.8284  2.0548  1.2485
 1150SOL     OW14908   1.329   1.041   9.404  0.1551  0.2783  0.2883
 1150SOL    HW114909   1.247   1.079   9.436  0.0679  1.0504 -0.8572
 1150SOL    HW214910   1.399   1.070   9.462 -0.1460 -1.9441  1.7556
 1151SOL     OW14911   2.577   0.149   5.604 -0.4651 -0.5432 -0.3007
 1151SOL    HW114912   2.628   0.084   5.652  0.5170 -0.7960 -1.6942
 1151SOL    HW214913   2.544   0.103   5.527  2.1750 -3.0492  0.0773
 1152SOL     OW14914   0.688   1.293  11.295  0.7173 -0.1359 -0.1570
 1152SOL    HW114915   0.616   1.354  11.309  0.7478 -0.0346 -0.4635
 1152SOL    HW214916   0.730   1.302  11.381 -0.2226 -1.8116  0.4825
 1153SOL     OW14917   3.675   0.676   4.510 -0.2482 -0.0608 -0.6470
 1153SOL    HW114918   3.629   0.721   4.439 -0.7832 -0.6827 -0.6965
 1153SOL    HW214919   3.695   0.591   4.471  0.5499  0.1806 -0.7724
 1154SOL     OW14920   3.910   1.745  16.561  0.1231 -0.0781 -0.0246
 1154SOL    HW114921   3.866   1.825  16.591 -1.1424 -0.8531  0.1953
 1154SOL    HW214922   3.832   1.700  16.526 -0.6885  1.2499  0.0899
 1155SOL     OW14923   2.425   3.987  12.985 -0.3926  0.4189 -0.4016
 1155SOL    HW114924   2.485   4.023  12.920 -2.3763  1.8707 -1.4485
 1155SOL    HW214925   2.466   3.902  12.993 -0.1622  0.4409 -1.3691
 1156SOL     OW14926   4.492   1.200   6.420  0.2410  0.1290 -0.1294
 1156SOL    HW114927   4.458   1.286   6.394 -0.8892  0.7478  3.4012
 1156SOL    HW214928   4.415   1.157   6.458  0.3113 -1.3038 -1.6183
 1157SOL     OW14929   3.219   0.810   0.798  0.1369  0.0006 -0.0166
 1157SOL    HW114930   3.296   0.861   0.772  0.8385 -1.6887 -1.2553
 1157SOL    HW214931   3.231   0.777   0.886  1.5512  1.7496  0.4355
 1158SOL     OW14932   1.942   2.660   5.259 -0.2318  0.3593  0.1458
 1158SOL    HW114933   1.958   2.569   5.285 -0.8600 -0.4349 -2.2713
 1158SOL    HW214934   1.850   2.656   5.232 -0.0021 -2.5501 -0.1880
 1159SOL     OW14935   4.087   3.141   8.192 -0.5326 -0.1902  0.4886
 1159SOL    HW114936   4.119   3.091   8.117 -1.7849  0.0759 -0.2405
 1159SOL    HW214937   4.101   3.232   8.165  0.6691 -0.2548  0.9022
 1160SOL     OW14938   1.912   4.054  15.378 -0.5267 -0.0477  0.3419
 1160SOL    HW114939   1.994   4.014  15.352 -1.6180 -0.1371 -3.1036
 1160SOL    HW214940   1.897   4.014  15.463  1.2312 -1.0361  0.1715
 1161SOL     OW14941   0.289   0.485   1.636 -0.7482  0.4002  0.0301
 1161SOL    HW114942   0.345   0.556   1.605  0.6839  0.2177  2.1621
 1161SOL    HW214943   0.289   0.439   1.552 -1.4876  0.1383  0.1786
 1162SOL     OW14944   4.447   3.570   1.564 -0.0958 -0.6963 -0.6282
 1162SOL    HW114945   4.418   3.489   1.524 -1.5909 -0.1619 -0.6383
 1162SOL    HW214946   4.535   3.583   1.529  0.5568 -1.9977  0.5355
 1163SOL     OW14947   2.523   0.586   6.634  0.0999 -0.7352 -0.1350
 1163SOL    HW114948   2.518   0.531   6.712 -0.3253  1.9254  1.6997
 1163SOL    HW214949   2.613   0.617   6.641 -1.1537  1.9967  3.2988
 1164SOL     OW14950   2.987   1.271   5.137 -0.2741 -0.0793 -0.1140
 1164SOL    HW114951   2.990   1.177   5.156 -1.1548  0.2779  1.7980
 1164SOL    HW214952   3.074   1.293   5.103  0.0219  0.0206  0.6965
 1165SOL     OW14953   3.976   3.677   0.569 -0.2279  0.0021  0.1249
 1165SOL    HW114954   3.965   3.755   0.514  0.0153 -0.0351  0.0278
 1165SOL    HW214955   4.044   3.707   0.629  0.0124  1.6639 -0.9762
 1166SOL     OW14956   4.668   1.330   3.342 -0.6241  0.1154 -0.1757
 1166SOL    HW114957   4.644   1.309   3.252 -0.7954 -0.4343 -0.0029
 1166SOL    HW214958   4.690   1.422   3.331  1.2341 -0.4074 -0.8165
 1167SOL     OW14959   0.900   1.040   6.887 -0.1266 -0.5448 -0.1080
 1167SOL    HW114960   0.853   0.965   6.849 -0.8738  0.1460 -0.5421
 1167SOL    HW214961   0.958   1.055   6.813  1.4973  1.7052  1.6421
 1168SOL     OW14962   4.292   2.056   5.359  0.3852  0.0874  0.3670
 1168SOL    HW114963   4.228   2.113   5.316 -0.0268  0.7368  1.8421
 1168SOL    HW214964   4.375   2.090   5.326  0.2328 -0.7993 -0.9269
 1169SOL     OW14965   0.326   3.704  14.936  0.7365  0.8521 -0.1251
 1169SOL    HW114966   0.373   3.744  14.863 -1.5051 -0.2559 -2.1801
 1169SOL    HW214967   0.351   3.757  15.011  1.9328 -0.3396  0.3082
 1170SOL     OW14968   0.487   1.798  13.322  0.3711  0.5002  1.0483
 1170SOL    HW114969   0.579   1.805  13.347  0.9843 -0.7078 -0.8388
 1170SOL    HW214970   0.493   1.735  13.250  1.9492  2.9055 -0.9256
 1171SOL     OW14971   2.824   1.778  15.456 -0.0555  0.0219  0.0240
 1171SOL    HW114972   2.798   1.734  15.375  1.2246  0.3311 -0.5619
 1171SOL    HW214973   2.899   1.722  15.478  0.1642  0.9947  1.7171
 1172SOL     OW14974   3.068   2.207   0.017  0.2533  0.1277  0.4535
 1172SOL    HW114975   3.028   2.140  17.645  2.4722 -1.1970  0.4606
 1172SOL    HW214976   2.995   2.268   0.029  1.6239  1.5352  1.6864
 1173SOL     OW14977   3.746   4.391   8.356  0.1274 -0.4902  0.0957
 1173SOL    HW114978   3.835   4.358   8.346 -0.0229 -0.6755 -0.6482
 1173SOL    HW214979   3.720   4.356   8.441 -3.0815 -0.0633 -0.6807
 1174SOL     OW14980   2.815   2.725   0.736  0.4421 -0.0810  0.4854
 1174SOL    HW114981   2.910   2.743   0.737  0.6887 -1.3685 -0.0073
 1174SOL    HW214982   2.782   2.815   0.732 -1.0701 -0.6572  0.2448
 1175SOL     OW14983   2.786   1.293   3.732  0.0330  0.6335 -0.1627
 1175SOL    HW114984   2.810   1.272   3.822  0.3637 -1.0861 -0.6596
 1175SOL    HW214985   2.753   1.382   3.748 -1.7022  0.2872 -1.7895
 1176SOL     OW14986   2.737   1.917   2.297  0.0717 -0.2277 -0.1045
 1176SOL    HW114987   2.785   1.847   2.341  0.0448 -0.5489 -0.5908
 1176SOL    HW214988   2.683   1.861   2.242 -2.4135 -0.4990  2.6048
 1177SOL     OW14989   3.904   3.809  12.136 -0.2836  0.0028 -0.5894
 1177SOL    HW114990   3.961   3.779  12.066  0.4912  2.1765 -0.9078
 1177SOL    HW214991   3.951   3.758  12.201 -1.7606  1.3617  1.5727
 1178SOL     OW14992   3.042   1.474   7.958  1.3449  0.0538 -0.1196
 1178SOL    HW114993   2.987   1.488   7.882  1.0288  0.4019  0.1767
 1178SOL    HW214994   3.064   1.383   7.938  3.1845  1.0186 -2.5003
 1179SOL     OW14995   3.363   3.283   4.007  0.2668 -0.1201 -0.5621
 1179SOL    HW114996   3.378   3.247   3.920 -0.5997 -0.7312 -0.4650
 1179SOL    HW214997   3.408   3.225   4.069 -1.0980 -1.8301 -1.1706
 1180SOL     OW14998   4.470   3.342   3.414  0.5708 -0.0932  0.1099
 1180SOL    HW114999   4.490   3.376   3.327  0.8249  0.1780  0.2722
 1180SOL    HW215000   4.375   3.339   3.421  0.2244  3.3715 -2.6564
 1181SOL     OW15001   3.350   3.480   4.536 -0.7728 -0.3295 -0.0165
 1181SOL    HW115002   3.322   3.389   4.527  0.4480 -0.7242  0.1543
 1181SOL    HW215003   3.299   3.505   4.613  1.6186 -0.1013  1.5018
 1182SOL     OW15004   2.126   3.849   4.908  0.4496 -0.6952  0.3910
 1182SOL    HW115005   2.040   3.820   4.940  1.3634 -0.5361  2.9580
 1182SOL    HW215006   2.183   3.855   4.984 -0.6258 -0.3095  1.1723
 1183SOL     OW15007   2.254   2.449   8.753 -0.1107  0.1589  0.0911
 1183SOL    HW115008   2.320   2.437   8.821  0.1938  1.2350 -0.0115
 1183SOL    HW215009   2.226   2.539   8.768 -1.4528 -0.3265  0.5549
 1184SOL     OW15010   1.821   3.267   5.821  0.8335 -0.1068  0.3698
 1184SOL    HW115011   1.887   3.206   5.789 -0.2071 -0.2222 -1.5712
 1184SOL    HW215012   1.750   3.208   5.847  0.9972 -1.2956 -1.8247
 1185SOL     OW15013   3.335   0.688   2.720 -0.3588 -0.3371 -0.1533
 1185SOL    HW115014   3.330   0.694   2.625 -0.4270 -1.6369 -0.2344
 1185SOL    HW215015   3.266   0.623   2.735 -0.1190 -1.1125 -2.4132
 1186SOL     OW15016   2.333   3.187  16.475 -0.3236  0.2743 -0.2785
 1186SOL    HW115017   2.249   3.187  16.520 -0.7214 -0.6603 -1.0195
 1186SOL    HW215018   2.388   3.173  16.553 -0.6676 -1.2061 -0.2980
 1187SOL     OW15019   0.375   4.007   0.722 -0.4104 -0.1871 -0.0845
 1187SOL    HW115020   0.354   4.049   0.805  0.5539 -0.4912  0.3230
 1187SOL    HW215021   0.425   4.071   0.672  1.7446 -0.0930  2.1587
 1188SOL     OW15022   1.743   3.301   4.820  0.0881 -0.3068  0.3100
 1188SOL    HW115023   1.744   3.313   4.725 -0.7456  1.9634  0.5873
 1188SOL    HW215024   1.760   3.207   4.817 -0.9840 -0.4677 -0.5509
 1189SOL     OW15025   3.817   2.462   2.627  0.4285 -0.0993  0.6592
 1189SOL    HW115026   3.890   2.503   2.579 -0.2470 -0.4479 -0.6570
 1189SOL    HW215027   3.847   2.488   2.714 -1.6744  0.3098  1.2428
 1190SOL     OW15028   1.140   1.414   8.735  0.0930 -0.6375 -0.1509
 1190SOL    HW115029   1.135   1.341   8.797 -1.8228 -1.3962 -1.1912
 1190SOL    HW215030   1.067   1.469   8.765  0.9780  1.5990 -2.0331
 1191SOL     OW15031   4.618   1.299   5.167 -0.3987  0.1856 -0.4033
 1191SOL    HW115032   4.652   1.290   5.256  0.1264  0.6819 -0.5517
 1191SOL    HW215033   4.623   1.206   5.142  0.4189 -0.1093  0.8592
 1192SOL     OW15034   1.566   4.530   2.028  0.2501 -0.5594  1.2707
 1192SOL    HW115035   1.616   4.469   1.974  0.0106 -0.3915  0.8543
 1192SOL    HW215036   1.531   4.595   1.966  0.2357 -1.5279  0.2606
 1193SOL     OW15037   0.803   1.559  15.032  0.6404 -0.8044  0.5218
 1193SOL    HW115038   0.708   1.574  15.030  0.4815 -1.8754 -0.3131
 1193SOL    HW215039   0.814   1.476  14.985  2.8558  0.4468 -1.1811
 1194SOL     OW15040   2.169   4.047  16.274 -0.4674  0.3064 -0.1197
 1194SOL    HW115041   2.159   4.118  16.337 -2.2556 -0.8904  0.9578
 1194SOL    HW215042   2.187   4.084  16.188 -1.2222  1.7362  0.3368
 1195SOL     OW15043   4.255   2.559  15.910 -0.1038 -0.7203  0.5609
 1195SOL    HW115044   4.201   2.605  15.846 -0.2727 -0.3769  0.9543
 1195SOL    HW215045   4.211   2.593  15.987 -0.4910 -0.4878  0.2383
 1196SOL     OW15046   3.663   2.082   6.514  0.3430 -0.0447  0.1532
 1196SOL    HW115047   3.681   2.142   6.587 -1.5903 -0.8638  1.3115
 1196SOL    HW215048   3.638   2.136   6.440 -0.5585  0.2131  0.6510
 1197SOL     OW15049   3.920   0.448   5.797 -0.3117  0.1373 -0.3534
 1197SOL    HW115050   3.989   0.510   5.822 -0.1526  0.2774 -1.1396
 1197SOL    HW215051   3.854   0.464   5.864 -3.2800  0.5532 -3.3887
 1198SOL     OW15052   3.479   3.426   2.187  0.2047 -0.1051 -0.5432
 1198SOL    HW115053   3.484   3.511   2.232  0.4827 -0.3771 -0.0557
 1198SOL    HW215054   3.385   3.412   2.195  0.5166 -2.2709 -0.8168
 1199SOL     OW15055   2.702   1.466  15.400 -0.5197 -0.6009  0.0829
 1199SOL    HW115056   2.782   1.419  15.377 -0.4487 -0.4053 -0.0635
 1199SOL    HW215057   2.679   1.492  15.311 -0.3560 -2.1041 -0.4005
 1200SOL     OW15058   1.064   2.899  16.143  0.1827 -0.9008 -0.4662
 1200SOL    HW115059   1.131   2.952  16.099 -0.8809  0.7845 -0.0505
 1200SOL    HW215060   0.987   2.955  16.133  1.7758  1.1583 -1.1443
 1201SOL     OW15061   1.517   1.846   9.148 -0.2998  0.1312  1.0147
 1201SOL    HW115062   1.455   1.811   9.083 -0.2429 -0.2139  1.1468
 1201SOL    HW215063   1.507   1.784   9.220  0.6713 -1.1376  0.0533
 1202SOL     OW15064   0.655   3.055  17.674  0.2103  0.7577 -0.0169
 1202SOL    HW115065   0.587   2.988  17.682  0.1111  0.6950 -1.3520
 1202SOL    HW215066   0.625   3.098  17.594 -0.8438 -0.6653 -0.3738
 1203SOL     OW15067   0.488   2.676   9.337  0.0536  0.2594  0.0056
 1203SOL    HW115068   0.522   2.592   9.307  2.2962  0.9311  0.6814
 1203SOL    HW215069   0.572   2.721   9.335 -1.3368  2.7641 -0.8421
 1204SOL     OW15070   3.362   1.934   3.816 -0.0067 -0.5082 -0.0698
 1204SOL    HW115071   3.351   2.029   3.813 -0.5144 -0.5017  2.2407
 1204SOL    HW215072   3.280   1.909   3.772  0.5217  0.3013 -1.5238
 1205SOL     OW15073   2.777   1.176   0.948 -0.5513 -0.2797  0.4735
 1205SOL    HW115074   2.848   1.112   0.955  0.7724  1.2446  1.0269
 1205SOL    HW215075   2.807   1.239   1.013 -1.1288  1.5512 -1.0251
 1206SOL     OW15076   4.642   3.552  13.276  0.0512  0.0879 -0.2259
 1206SOL    HW115077   4.647   3.505  13.359 -2.0185  1.1754  0.5089
 1206SOL    HW215078   4.578   3.620  13.299 -0.9555 -0.6204 -0.9281
 1207SOL     OW15079   3.095   1.079   4.328  0.5898  0.0610  0.3905
 1207SOL    HW115080   3.186   1.055   4.312  0.4811  0.2530 -0.5084
 1207SOL    HW215081   3.063   1.124   4.250 -1.3189 -1.7054  0.1448
 1208SOL     OW15082   0.459   1.375   2.128 -0.0870 -0.1521 -0.8851
 1208SOL    HW115083   0.483   1.369   2.221 -1.9236  1.1821 -0.3304
 1208SOL    HW215084   0.528   1.337   2.073  0.6035 -1.4723  0.9037
 1209SOL     OW15085   1.983   4.488   7.992  0.0037 -0.0644 -0.9270
 1209SOL    HW115086   1.965   4.521   7.904  2.3205  2.0441 -0.6015
 1209SOL    HW215087   1.897   4.495   8.034  0.9447 -0.1542  1.0163
 1210SOL     OW15088   4.566   0.965   6.852  0.0219  0.1861  0.2282
 1210SOL    HW115089   4.477   0.961   6.889  0.7732 -0.0534  2.0213
 1210SOL    HW215090   4.550   1.000   6.764  0.2638  0.5301  0.3203
 1211SOL     OW15091   3.768   2.752   7.815  0.2770 -0.3068  0.1670
 1211SOL    HW115092   3.794   2.687   7.881  0.7890 -0.2621  0.0128
 1211SOL    HW215093   3.795   2.837   7.849  2.4033 -0.8485 -0.1629
 1212SOL     OW15094   1.436   1.547   8.087  1.3365 -0.0067  0.3647
 1212SOL    HW115095   1.411   1.567   7.996 -2.3421 -1.5008  1.0167
 1212SOL    HW215096   1.362   1.500   8.126  0.0139  1.5417 -0.2916
 1213SOL     OW15097   2.257   0.922  13.031  0.4765 -0.3861 -0.1106
 1213SOL    HW115098   2.337   0.927  13.084  0.5453  1.9346 -0.4314
 1213SOL    HW215099   2.233   0.830  13.041 -0.0135 -0.0566  1.8269
 1214SOL     OW15100   1.249   1.245   3.444 -0.0701 -0.5881  0.2576
 1214SOL    HW115101   1.200   1.304   3.387  1.7195  0.1259 -0.5134
 1214SOL    HW215102   1.341   1.262   3.425  0.4522 -2.1832  1.3319
 1215SOL     OW15103   2.613   3.365   7.658 -0.3914  0.1923  0.1874
 1215SOL    HW115104   2.697   3.353   7.702 -0.9080 -2.9532  0.3604
 1215SOL    HW215105   2.655   3.415   7.588  0.7080  0.2484  0.8823
 1216SOL     OW15106   0.058   4.587   5.799 -0.1995 -0.1886  0.4933
 1216SOL    HW115107   4.696   4.545   5.823  0.7356 -2.2541  0.1143
 1216SOL    HW215108   0.034   4.679   5.800  0.6927 -0.0023  3.3135
 1217SOL     OW15109   1.431   2.925   1.516  0.0810 -0.6103 -0.0620
 1217SOL    HW115110   1.477   2.903   1.435 -1.3614 -0.1342 -1.0130
 1217SOL    HW215111   1.364   2.982   1.479  0.2087 -0.9646 -0.8421
 1218SOL     OW15112   0.721   2.691  16.528 -0.2423 -0.2919 -0.7442
 1218SOL    HW115113   0.702   2.627  16.597 -1.4056 -1.0893 -1.8077
 1218SOL    HW215114   0.644   2.694  16.473 -1.0321  0.5185  0.4057
 1219SOL     OW15115   4.360   3.816   4.659 -0.0360  0.4493 -0.5376
 1219SOL    HW115116   4.314   3.737   4.628  0.3383  0.5928 -1.4681
 1219SOL    HW215117   4.399   3.855   4.581  2.5206  0.4194  0.7265
 1220SOL     OW15118   1.430   3.063  10.302 -0.8216 -0.7284 -0.0544
 1220SOL    HW115119   1.427   3.020  10.387 -0.6700  1.9328  1.3018
 1220SOL    HW215120   1.519   3.039  10.277  0.5128  2.3477  1.7757
 1221SOL     OW15121   3.570   2.515  15.865 -0.1855 -0.1253 -0.1307
 1221SOL    HW115122   3.625   2.582  15.826  1.2883 -1.7093 -0.8034
 1221SOL    HW215123   3.520   2.569  15.926  1.9946  0.4083  1.1916
 1222SOL     OW15124   1.993   4.624   4.311  0.1599  0.0150  0.4313
 1222SOL    HW115125   2.080   4.584   4.303 -0.3323 -0.7778 -0.8175
 1222SOL    HW215126   1.993   4.626   4.407  0.7901  1.4189  0.4066
 1223SOL     OW15127   1.166   2.132   8.806 -0.5754  0.4991 -0.3912
 1223SOL    HW115128   1.130   2.191   8.738 -0.2867 -0.8681 -1.7274
 1223SOL    HW215129   1.205   2.194   8.867  1.4132  1.2087 -2.3811
 1224SOL     OW15130   1.049   3.132   6.366 -0.6330 -0.2130 -1.4068
 1224SOL    HW115131   1.138   3.105   6.340  0.9634 -0.8305  4.8023
 1224SOL    HW215132   1.006   3.140   6.281  0.6127 -1.4051 -2.1627
 1225SOL     OW15133   3.411   1.382  15.691  0.0465 -0.2365  0.3296
 1225SOL    HW115134   3.358   1.459  15.708  1.7070  1.1422 -0.7526
 1225SOL    HW215135   3.490   1.404  15.742  0.1980 -0.9761  0.4237
 1226SOL     OW15136   0.129   3.914   3.333 -0.3120  0.1186 -0.7087
 1226SOL    HW115137   0.112   3.903   3.426 -0.2330  0.8947 -0.6075
 1226SOL    HW215138   0.167   4.001   3.325 -1.5879  0.6306 -1.1850
 1227SOL     OW15139   0.130   2.887  12.169  0.1904  0.4345  0.5833
 1227SOL    HW115140   0.221   2.863  12.152 -0.7673 -1.8234 -1.2875
 1227SOL    HW215141   0.119   2.847  12.256  1.6944  1.2186  1.1303
 1228SOL     OW15142   2.671   0.489  14.259 -0.3829  0.4207 -0.3110
 1228SOL    HW115143   2.743   0.459  14.314 -0.3875  0.6320 -0.1894
 1228SOL    HW215144   2.604   0.483  14.327  1.6079 -0.9782  1.5201
 1229SOL     OW15145   4.094   4.114   0.619  0.3192  0.0734 -0.6116
 1229SOL    HW115146   4.002   4.136   0.634  1.3693  3.0015  1.4470
 1229SOL    HW215147   4.134   4.095   0.704 -3.0124 -0.5056  0.8471
 1230SOL     OW15148   1.962   1.378   4.521 -0.0238 -0.1981 -0.2221
 1230SOL    HW115149   1.894   1.423   4.572  1.4422  0.2670  1.2950
 1230SOL    HW215150   2.035   1.435   4.545 -0.3261 -0.0768  0.4114
 1231SOL     OW15151   1.602   2.869   5.686  0.2259  0.0217  0.1017
 1231SOL    HW115152   1.599   2.818   5.605  0.7255 -1.2201  0.8600
 1231SOL    HW215153   1.508   2.883   5.699  0.3521 -0.6240  1.7887
 1232SOL     OW15154   4.687   2.305   5.754 -0.6127  0.1801  0.5466
 1232SOL    HW115155   0.061   2.305   5.770 -0.1995 -0.7433 -1.8495
 1232SOL    HW215156   4.684   2.293   5.659 -0.1976 -0.7297  0.6546
 1233SOL     OW15157   0.548   3.188   9.099  0.1909 -1.1907 -0.3805
 1233SOL    HW115158   0.518   3.256   9.039 -0.9927 -1.5258 -0.1831
 1233SOL    HW215159   0.586   3.229   9.177  2.1053 -0.2336 -1.8296
 1234SOL     OW15160   1.190   0.862   9.686  0.2222 -0.2333 -0.1339
 1234SOL    HW115161   1.274   0.885   9.725  1.1708 -0.1350 -2.2711
 1234SOL    HW215162   1.124   0.911   9.736  0.4286  0.2636 -0.3522
 1235SOL     OW15163   3.725   2.251   3.792 -0.1287  0.3949 -0.1203
 1235SOL    HW115164   3.683   2.258   3.878  0.5307 -0.4867  0.2701
 1235SOL    HW215165   3.711   2.157   3.778  1.8597  0.4565 -2.4085
 1236SOL     OW15166   3.209   3.302   1.021  0.0036 -0.0238 -0.1252
 1236SOL    HW115167   3.191   3.287   1.114  1.4596  0.0248  0.1686
 1236SOL    HW215168   3.138   3.250   0.985 -1.7631 -0.3209  3.7771
 1237SOL     OW15169   3.916   2.763   3.186 -0.0909 -0.3956  0.5044
 1237SOL    HW115170   3.999   2.811   3.197  1.0827 -2.5127  0.7623
 1237SOL    HW215171   3.936   2.677   3.222 -2.9598 -0.7108  1.3292
 1238SOL     OW15172   0.977   3.369   7.155 -0.2618 -0.6230  0.6270
 1238SOL    HW115173   0.882   3.360   7.154 -0.4466  1.3738  0.5393
 1238SOL    HW215174   0.997   3.317   7.077  0.6120 -1.8301  1.6429
 1239SOL     OW15175   0.573   1.396   6.935 -0.4113 -0.3746  0.4540
 1239SOL    HW115176   0.483   1.388   6.966 -0.0885 -2.0936  0.9290
 1239SOL    HW215177   0.621   1.430   7.011  1.5236  0.1502 -0.9912
 1240SOL     OW15178   4.224   1.861  16.580  0.1741 -0.0799 -0.6196
 1240SOL    HW115179   4.180   1.910  16.650 -1.2204 -0.9158 -0.9073
 1240SOL    HW215180   4.314   1.866  16.612 -0.4282  2.5007  0.6954
 1241SOL     OW15181   0.036   4.541   2.448  0.2907  0.1624 -0.3431
 1241SOL    HW115182   0.043   4.452   2.483 -1.6595 -0.0127 -0.3881
 1241SOL    HW215183   0.117   4.543   2.398  0.7098  0.3022  0.3337
 1242SOL     OW15184   0.344   0.055   1.934 -0.2065  0.2558  0.0201
 1242SOL    HW115185   0.359   0.069   2.027 -0.6237  1.8184 -0.1363
 1242SOL    HW215186   0.412   0.114   1.900  0.1682  0.1289  0.5499
 1243SOL     OW15187   3.779   1.635   3.422 -0.2903  0.2494 -0.2059
 1243SOL    HW115188   3.848   1.617   3.357  0.2090 -1.2721  0.7683
 1243SOL    HW215189   3.768   1.729   3.405  0.1085  0.1633 -0.9972
 1244SOL     OW15190   1.135   1.874   8.654 -0.0898  0.0777  0.7887
 1244SOL    HW115191   1.110   1.950   8.707  0.0674  0.7117 -0.0595
 1244SOL    HW215192   1.231   1.882   8.658 -0.2897  1.2132  3.7476
 1245SOL     OW15193   2.536   2.047   8.155  0.2785 -0.0719  0.3850
 1245SOL    HW115194   2.466   2.011   8.100  1.0234 -0.0999 -0.5365
 1245SOL    HW215195   2.495   2.126   8.191 -1.0612 -1.9329  2.9905
 1246SOL     OW15196   1.214   3.157   3.859 -0.2041 -0.2497  0.1885
 1246SOL    HW115197   1.190   3.232   3.805 -0.3844  0.6974  1.5776
 1246SOL    HW215198   1.142   3.161   3.922  1.3472  0.4657  1.9227
 1247SOL     OW15199   3.471   2.170  16.312  0.1346 -0.5586 -0.4333
 1247SOL    HW115200   3.432   2.194  16.228  0.6651 -0.9004 -0.7809
 1247SOL    HW215201   3.406   2.119  16.359 -0.9775  1.2385  0.0094
 1248SOL     OW15202   0.664   2.531   7.061  0.6033  0.6729 -0.4626
 1248SOL    HW115203   0.670   2.438   7.081  0.3228  0.5431 -0.9957
 1248SOL    HW215204   0.707   2.542   6.976 -0.6835 -1.7731 -1.4267
 1249SOL     OW15205   3.126   1.709   4.191 -0.5198 -0.1001 -0.0116
 1249SOL    HW115206   3.219   1.713   4.167 -0.1638 -3.6367  0.8011
 1249SOL    HW215207   3.140   1.663   4.273  1.1982 -1.1447 -0.9064
 1250SOL     OW15208   0.473   0.195   0.488 -0.3173 -0.0667 -0.1073
 1250SOL    HW115209   0.428   0.219   0.569 -3.5166 -0.6839 -1.6843
 1250SOL    HW215210   0.559   0.175   0.523  0.2746 -0.0304 -1.5254
 1251SOL     OW15211   4.256   0.616   4.415  0.1925 -0.3353  0.7699
 1251SOL    HW115212   4.282   0.529   4.383  0.3072 -0.5098  1.3452
 1251SOL    HW215213   4.226   0.655   4.332  2.4272  0.9751  0.6027
 1252SOL     OW15214   4.016   4.379  14.759 -0.4060  0.8893 -0.4972
 1252SOL    HW115215   3.932   4.335  14.746  0.0417  0.3366 -1.5809
 1252SOL    HW215216   4.068   4.344  14.686 -2.0877 -1.6445 -0.4558
 1253SOL     OW15217   4.275   1.064   6.493  0.4807 -0.0429  0.2096
 1253SOL    HW115218   4.311   0.997   6.551  0.9290  1.3803  1.5644
 1253SOL    HW215219   4.198   1.092   6.541 -1.1458 -0.1336 -2.3124
 1254SOL     OW15220   3.044   0.316   1.987 -0.7558  0.5115  0.0497
 1254SOL    HW115221   3.042   0.264   2.068 -0.0728 -2.7729 -2.0577
 1254SOL    HW215222   2.962   0.365   1.990 -1.0434  0.1360 -1.7852
 1255SOL     OW15223   0.721   4.592   6.943  0.3496  0.5118 -0.7645
 1255SOL    HW115224   0.771   4.511   6.958 -0.3026  0.2050 -0.2506
 1255SOL    HW215225   0.634   4.553   6.950 -0.2442  2.1407  0.8277
 1256SOL     OW15226   0.828   3.822   9.003 -0.3361  0.0372  0.8796
 1256SOL    HW115227   0.881   3.901   8.996 -0.1936 -0.2703 -1.8264
 1256SOL    HW215228   0.750   3.847   8.954 -0.6497 -0.0643  1.3326
 1257SOL     OW15229   4.059   1.850   2.333 -0.0320  0.1017 -0.1688
 1257SOL    HW115230   4.056   1.877   2.425  0.2168  0.2514 -0.2056
 1257SOL    HW215231   4.126   1.781   2.335  0.5144  0.6861  1.3629
 1258SOL     OW15232   1.970   4.685   4.849 -0.0580  0.0567  0.5789
 1258SOL    HW115233   1.912   0.021   4.900  0.0562  1.8781 -1.2623
 1258SOL    HW215234   1.933   0.000   4.768  0.8988  1.8441  0.9248
 1259SOL     OW15235   3.144   0.383  11.198 -0.3339 -0.3716 -0.1528
 1259SOL    HW115236   3.118   0.451  11.259 -1.3237 -1.3891  0.5654
 1259SOL    HW215237   3.107   0.310  11.248 -1.1601 -1.1779 -1.9254
 1260SOL     OW15238   4.209   0.042   6.876  0.0725  0.2819  0.6913
 1260SOL    HW115239   4.250   4.681   6.846  0.2866 -0.2190  2.3414
 1260SOL    HW215240   4.117   0.027   6.854  0.9353 -2.5367 -1.1142
 1261SOL     OW15241   1.535   1.446  14.319  0.4905 -0.1380  0.3849
 1261SOL    HW115242   1.522   1.401  14.235  0.2437 -0.1160  0.4093
 1261SOL    HW215243   1.451   1.491  14.323  0.4158 -0.3468  1.1880
 1262SOL     OW15244   2.159   2.592   2.590 -0.3522  0.5836  0.0318
 1262SOL    HW115245   2.251   2.605   2.612 -1.0610  1.5480  2.4692
 1262SOL    HW215246   2.127   2.568   2.677 -0.2350  1.4877  0.3189
 1263SOL     OW15247   0.052   2.877   1.385 -0.5467  1.1538 -0.4403
 1263SOL    HW115248   0.082   2.893   1.474 -0.5360 -0.8075 -0.0855
 1263SOL    HW215249   0.068   2.784   1.369 -1.0937  1.7317 -4.2267
 1264SOL     OW15250   3.983   1.451   2.792  0.5753  0.1783  0.2581
 1264SOL    HW115251   3.926   1.525   2.813 -2.5222 -2.0338 -0.3810
 1264SOL    HW215252   3.950   1.411   2.711 -0.0736  1.1930  0.0210
 1265SOL     OW15253   3.239   2.095   5.937  0.3875  0.1917  0.2469
 1265SOL    HW115254   3.166   2.082   5.998 -0.5166  0.5362 -0.7582
 1265SOL    HW215255   3.248   2.015   5.886  0.7324 -1.0347  2.2358
 1266SOL     OW15256   2.370   0.373  13.936 -0.1417 -0.2852  0.4043
 1266SOL    HW115257   2.316   0.322  13.997 -0.2876  0.6980  1.1082
 1266SOL    HW215258   2.459   0.352  13.963 -0.0735 -0.6833 -0.1288
 1267SOL     OW15259   0.961   1.272   8.910 -0.7459 -0.4473  0.5139
 1267SOL    HW115260   0.949   1.177   8.914  2.9056 -0.8825  0.8642
 1267SOL    HW215261   0.874   1.305   8.887 -1.0646 -1.1259  0.7117
 1268SOL     OW15262   0.482   4.489   6.997 -0.6277 -0.1468 -0.2946
 1268SOL    HW115263   0.506   4.400   6.972  1.0786  0.8509 -2.1933
 1268SOL    HW215264   0.421   4.516   6.928 -2.2892  0.4732  1.4351
 1269SOL     OW15265   0.653   2.302   2.140  0.0322 -0.4226 -0.6210
 1269SOL    HW115266   0.650   2.373   2.203  1.6780 -0.7773 -0.1357
 1269SOL    HW215267   0.693   2.233   2.193 -1.2910 -0.3148  0.4975
 1270SOL     OW15268   3.499   4.585  14.899  0.5528  0.1589  0.2754
 1270SOL    HW115269   3.462   4.525  14.834 -0.1729  0.3105  0.5417
 1270SOL    HW215270   3.493   4.523  14.972 -0.3624 -0.3086 -0.1962
 1271SOL     OW15271   1.589   2.414   5.783 -0.0823 -0.0183  0.0805
 1271SOL    HW115272   1.591   2.477   5.855  1.4280 -1.4503  1.2826
 1271SOL    HW215273   1.496   2.392   5.793  0.2382 -1.0883  0.7575
 1272SOL     OW15274   2.546   0.399   3.295  0.7814  0.0592 -0.5164
 1272SOL    HW115275   2.462   0.371   3.332  0.1556  0.3763 -1.6678
 1272SOL    HW215276   2.516   0.459   3.226  1.9398  0.9392 -0.2486
 1273SOL     OW15277   4.168   1.087   8.379 -0.2356 -0.7146 -0.4096
 1273SOL    HW115278   4.084   1.042   8.384  0.0630 -1.5263 -2.6020
 1273SOL    HW215279   4.148   1.180   8.370  3.1422 -0.1817 -2.3686
 1274SOL     OW15280   1.978   2.939   9.754 -0.5582 -0.8346  0.0482
 1274SOL    HW115281   2.030   2.958   9.675 -2.0983 -0.1032 -0.7862
 1274SOL    HW215282   1.897   2.975   9.719 -1.9143 -4.1659 -0.1661
 1275SOL     OW15283   2.651   2.284   7.843 -0.5600 -0.0292  0.0737
 1275SOL    HW115284   2.588   2.311   7.910 -1.4426 -0.9954 -0.3621
 1275SOL    HW215285   2.594   2.253   7.772 -0.5987  0.6710 -0.2040
 1276SOL     OW15286   0.138   1.808   7.172  0.2224  0.0152 -0.5130
 1276SOL    HW115287   0.086   1.801   7.092 -0.6677 -2.0225  0.2653
 1276SOL    HW215288   0.075   1.770   7.233 -0.5206 -1.0792 -1.9651
 1277SOL     OW15289   2.293   2.239   2.257 -0.0764 -0.0000  0.0745
 1277SOL    HW115290   2.250   2.170   2.206  0.5225  0.0127 -0.4362
 1277SOL    HW215291   2.233   2.251   2.331 -0.3366  2.7098 -0.5868
 1278SOL     OW15292   4.387   4.211   2.403  0.9347 -0.1545  0.3112
 1278SOL    HW115293   4.329   4.280   2.434 -0.9019 -1.2667 -0.6074
 1278SOL    HW215294   4.333   4.163   2.340 -0.0034  1.5959 -0.1955
 1279SOL     OW15295   0.156   2.482   6.631  0.0582  0.1602 -0.9959
 1279SOL    HW115296   0.079   2.463   6.684  0.8932 -0.1042  0.1209
 1279SOL    HW215297   0.230   2.460   6.687 -1.1679 -1.5130 -0.0508
 1280SOL     OW15298   0.301   1.376   7.052  0.0104  0.6619  0.4685
 1280SOL    HW115299   0.267   1.294   7.014  0.1311  0.9629 -0.2875
 1280SOL    HW215300   0.227   1.412   7.101 -0.3662  0.5083  0.0210
 1281SOL     OW15301   2.474   1.985   5.552 -0.4733 -0.6284  0.2014
 1281SOL    HW115302   2.461   2.003   5.645  0.0977  1.4446 -0.1166
 1281SOL    HW215303   2.566   2.007   5.540 -0.2067 -0.7818  1.9849
 1282SOL     OW15304   4.525   3.593   7.125  0.1638 -0.0017 -0.0572
 1282SOL    HW115305   4.589   3.611   7.194 -0.1009 -1.0276  0.4587
 1282SOL    HW215306   4.454   3.555   7.177 -0.0494  1.3501  0.6559
 1283SOL     OW15307   0.144   0.038   1.770 -0.3669  0.4486 -0.2138
 1283SOL    HW115308   0.209   0.034   1.841 -1.9636  1.6704  1.3411
 1283SOL    HW215309   0.082   4.701   1.815 -1.6137  1.9681  0.0155
 1284SOL     OW15310   3.391   4.317   5.801 -0.0984  0.2404 -0.7870
 1284SOL    HW115311   3.403   4.392   5.860  1.2197  0.4247 -1.2880
 1284SOL    HW215312   3.434   4.247   5.851 -1.7333  0.9989  1.6814
 1285SOL     OW15313   4.454   0.719   6.309 -1.0467  0.2551 -0.2852
 1285SOL    HW115314   4.362   0.698   6.320 -0.5469 -3.0108 -2.2997
 1285SOL    HW215315   4.457   0.763   6.224 -0.5411 -0.4018 -0.6070
 1286SOL     OW15316   2.025   1.475   1.623 -0.5891  0.0419 -0.0028
 1286SOL    HW115317   2.071   1.482   1.540  0.1318  0.6133  0.4434
 1286SOL    HW215318   2.098   1.444   1.677 -1.7365 -3.4242 -0.4301
 1287SOL     OW15319   0.881   4.160   4.023  0.2005 -0.0097 -0.2302
 1287SOL    HW115320   0.832   4.211   3.960  0.6222  1.2126  0.4396
 1287SOL    HW215321   0.904   4.092   3.959  1.0130  0.0191  0.0206
 1288SOL     OW15322   0.761   3.622  12.175 -0.0538 -0.4375 -0.4120
 1288SOL    HW115323   0.821   3.646  12.246 -1.1614  0.0007  0.3685
 1288SOL    HW215324   0.725   3.541  12.211  0.8115 -0.9771 -0.7577
 1289SOL     OW15325   4.120   1.169   1.953 -0.4626  0.2373 -0.5484
 1289SOL    HW115326   4.056   1.240   1.960 -1.2485 -0.4562 -0.7646
 1289SOL    HW215327   4.085   1.109   2.018  0.1185  1.0229  0.5017
 1290SOL     OW15328   4.467   0.236  12.135  0.3895  0.3302  0.2091
 1290SOL    HW115329   4.395   0.173  12.140 -0.5044  1.1938 -1.8023
 1290SOL    HW215330   4.433   0.300  12.073 -1.8834 -0.1278  0.9850
 1291SOL     OW15331   1.848   0.384   8.957 -0.1948  0.2822  0.7620
 1291SOL    HW115332   1.772   0.441   8.971 -0.9913 -0.8967  1.2260
 1291SOL    HW215333   1.919   0.443   8.932  0.4753 -0.6846  0.3864
 1292SOL     OW15334   4.232   4.177   2.876  0.3067 -0.0518  0.2476
 1292SOL    HW115335   4.205   4.213   2.960  0.9820 -1.1180  0.9099
 1292SOL    HW215336   4.165   4.111   2.858 -0.4137  1.3736 -2.3377
 1293SOL     OW15337   2.547   1.746   3.934 -0.0637 -0.7315  0.2769
 1293SOL    HW115338   2.583   1.726   4.020 -0.9640 -1.6513  0.4397
 1293SOL    HW215339   2.454   1.751   3.958 -0.0802  1.7723 -0.3494
 1294SOL     OW15340   4.184   2.800   2.560 -0.1704 -0.2548 -0.0627
 1294SOL    HW115341   4.199   2.759   2.475  0.2547 -0.0151 -0.1070
 1294SOL    HW215342   4.245   2.754   2.618 -0.1446  0.3312  0.3798
 1295SOL     OW15343   1.786   3.706  14.722 -0.0540  0.2714  0.1860
 1295SOL    HW115344   1.778   3.792  14.679 -0.1993  0.1340 -0.0642
 1295SOL    HW215345   1.729   3.704  14.798 -0.1567 -3.4648  0.0081
 1296SOL     OW15346   1.712   1.491   8.576  0.1793 -0.6278 -0.0213
 1296SOL    HW115347   1.723   1.397   8.590  0.5186 -0.6559 -0.4473
 1296SOL    HW215348   1.791   1.513   8.525  0.4843  0.9718  1.1301
 1297SOL     OW15349   2.596   3.617   4.201 -0.3057 -0.6965 -0.2536
 1297SOL    HW115350   2.600   3.604   4.296  0.8270 -1.2796 -0.3819
 1297SOL    HW215351   2.553   3.532   4.192 -3.3566  0.7365  0.9846
 1298SOL     OW15352   1.777   0.760   4.128  0.7400  0.3022 -0.0779
 1298SOL    HW115353   1.777   0.855   4.116 -1.6937  0.1110 -1.6040
 1298SOL    HW215354   1.775   0.752   4.223  1.1869 -0.7190 -0.1542
 1299SOL     OW15355   2.164   0.360   8.525  0.5950  0.6459 -0.1824
 1299SOL    HW115356   2.081   0.367   8.572  0.5206 -0.9965 -0.0599
 1299SOL    HW215357   2.130   0.304   8.454  0.2269  0.5098  0.1011
 1300SOL     OW15358   2.534   4.552   2.221  0.6191 -0.0319 -0.2100
 1300SOL    HW115359   2.556   4.459   2.215  1.7585  0.4409 -3.1169
 1300SOL    HW215360   2.505   4.570   2.132  2.0686 -0.2674 -0.7286
 1301SOL     OW15361   1.779   3.550   6.100 -0.1647  0.6003 -0.1524
 1301SOL    HW115362   1.779   3.626   6.041 -1.8144  2.2129  1.8884
 1301SOL    HW215363   1.755   3.592   6.183 -1.9835  0.7540 -0.7565
 1302SOL     OW15364   2.230   0.261   5.762 -0.2901 -0.1281 -0.6979
 1302SOL    HW115365   2.156   0.302   5.718 -1.8381  0.5646  2.5046
 1302SOL    HW215366   2.298   0.318   5.726  0.1813 -1.9793 -2.7516
 1303SOL     OW15367   0.654   1.259   0.337 -0.7339  0.2723 -0.0283
 1303SOL    HW115368   0.616   1.172   0.328 -2.8957  1.1492  0.5501
 1303SOL    HW215369   0.744   1.236   0.361 -0.6162  0.6186 -0.1444
 1304SOL     OW15370   4.584   0.326   9.001 -0.2158 -0.2544 -0.8434
 1304SOL    HW115371   4.625   0.337   9.087 -0.0436  1.3474 -1.1282
 1304SOL    HW215372   4.503   0.280   9.021 -0.3835  1.2539  1.8619
 1305SOL     OW15373   1.595   4.085   6.308  0.1086 -0.0757 -0.5535
 1305SOL    HW115374   1.522   4.045   6.261 -0.3542 -1.7989  1.6447
 1305SOL    HW215375   1.587   4.180   6.295  1.4680 -0.0149 -0.9026
 1306SOL     OW15376   1.487   3.382   0.322  0.2176 -0.3262  0.6445
 1306SOL    HW115377   1.459   3.292   0.307 -3.6575  0.9697  0.1958
 1306SOL    HW215378   1.430   3.435   0.267 -0.6544 -0.4403  1.4295
 1307SOL     OW15379   4.085   2.500   5.178  0.0884  0.2884 -0.6051
 1307SOL    HW115380   4.142   2.561   5.131 -1.2746 -0.0789 -2.7181
 1307SOL    HW215381   4.074   2.437   5.108  1.0171  1.3433 -1.7028
 1308SOL     OW15382   4.261   4.156   7.297  0.0256  0.1818  0.3032
 1308SOL    HW115383   4.167   4.159   7.316 -0.5371 -3.5090 -1.9581
 1308SOL    HW215384   4.264   4.148   7.201 -1.2337 -0.6352  0.3312
 1309SOL     OW15385   3.983   0.299  14.514  0.2004  0.2387  0.1024
 1309SOL    HW115386   3.914   0.353  14.475 -0.2470  0.3324  1.0340
 1309SOL    HW215387   3.932   0.245  14.574  0.3998 -1.2322 -1.0699
 1310SOL     OW15388   2.591   4.565   1.651 -0.1598  0.3889  0.2782
 1310SOL    HW115389   2.529   4.638   1.648 -0.5460 -0.0172 -1.6721
 1310SOL    HW215390   2.568   4.540   1.561  2.0776 -1.7688  0.3145
 1311SOL     OW15391   4.016   3.651   3.749  0.4504 -0.0023 -0.0408
 1311SOL    HW115392   4.106   3.621   3.763 -0.1112 -0.3503  2.7922
 1311SOL    HW215393   3.968   3.571   3.774  1.4702 -0.8070 -0.6444
 1312SOL     OW15394   1.920   3.456  14.167 -0.5782 -0.1308  0.1169
 1312SOL    HW115395   1.890   3.384  14.223 -1.2478  0.9983  1.2180
 1312SOL    HW215396   1.922   3.403  14.088 -2.0012 -0.6274  0.4093
 1313SOL     OW15397   2.441   1.638   7.239 -0.2016  0.0840 -0.2057
 1313SOL    HW115398   2.471   1.720   7.199 -1.8979 -0.0162 -1.6972
 1313SOL    HW215399   2.503   1.574   7.204 -2.1032 -0.6329 -2.2516
 1314SOL     OW15400   4.297   4.278   1.457  0.1317  0.0796  0.1293
 1314SOL    HW115401   4.240   4.297   1.383 -0.4836  2.2136  1.1473
 1314SOL    HW215402   4.304   4.183   1.459  0.4096  0.1175  1.2936
 1315SOL     OW15403   1.261   0.751   6.145  0.0257  0.1056  1.0302
 1315SOL    HW115404   1.176   0.711   6.125 -0.4147  1.5373  0.0388
 1315SOL    HW215405   1.268   0.807   6.068 -1.8833 -0.7840  0.2183
 1316SOL     OW15406   4.246   1.364   5.756  0.5445  0.6920 -0.0624
 1316SOL    HW115407   4.172   1.304   5.753  0.8702  0.2173  1.1556
 1316SOL    HW215408   4.319   1.302   5.743 -1.0011 -1.2145  0.3721
 1317SOL     OW15409   0.971   3.001   2.632  0.3695 -0.6527 -0.0124
 1317SOL    HW115410   0.948   3.074   2.690  1.3245 -1.4290  1.3607
 1317SOL    HW215411   0.886   2.958   2.631  0.4469 -0.7985 -0.3342
 1318SOL     OW15412   4.397   0.084   0.429 -0.0218  0.1110  0.2273
 1318SOL    HW115413   4.365   0.174   0.429  0.5091  0.2984 -0.0506
 1318SOL    HW215414   4.389   0.059   0.521  2.2664  2.2931  1.0008
 1319SOL     OW15415   4.661   1.014   5.769  0.5134  0.1374  0.0354
 1319SOL    HW115416   0.008   0.974   5.823  0.2350  1.6450  1.5033
 1319SOL    HW215417   4.649   1.088   5.829  0.9946  1.1786 -1.1405
 1320SOL     OW15418   1.879   1.994  12.004  0.1898 -0.2992  0.0863
 1320SOL    HW115419   1.789   2.018  11.984  0.7357  1.2076 -0.6159
 1320SOL    HW215420   1.895   1.913  11.955 -1.8068 -0.4181 -0.3473
 1321SOL     OW15421   0.919   2.860   8.644  0.3676 -0.1555  0.3860
 1321SOL    HW115422   0.996   2.917   8.651  0.9924 -0.7204 -1.6925
 1321SOL    HW215423   0.932   2.816   8.728  0.6325  0.2220  0.5441
 1322SOL     OW15424   0.813   0.515   3.630  0.2106 -0.2670 -0.1231
 1322SOL    HW115425   0.869   0.575   3.581 -0.5106 -0.3279 -1.0018
 1322SOL    HW215426   0.831   0.529   3.723 -1.0922  0.4677  0.0186
 1323SOL     OW15427   3.463   0.864   5.069 -0.4316 -0.3380 -0.2250
 1323SOL    HW115428   3.453   0.811   5.148  0.9311  4.0467  2.9026
 1323SOL    HW215429   3.380   0.849   5.024 -0.2076 -3.0194  0.2570
 1324SOL     OW15430   3.298   1.328  13.798 -0.6306 -0.0939  0.0231
 1324SOL    HW115431   3.205   1.333  13.779 -0.8917  0.2293  1.3490
 1324SOL    HW215432   3.335   1.270  13.732  1.3416  1.1262  0.0459
 1325SOL     OW15433   2.541   2.402   7.519  0.1935  0.0821 -0.4372
 1325SOL    HW115434   2.617   2.424   7.573 -1.6355  0.8610  1.8343
 1325SOL    HW215435   2.581   2.395   7.433  0.7534  1.4751 -0.2893
 1326SOL     OW15436   0.145   4.534   6.871 -0.1618  0.3481 -0.0776
 1326SOL    HW115437   0.102   4.618   6.887 -0.2873  0.6744 -2.2173
 1326SOL    HW215438   0.231   4.568   6.849 -0.0878 -1.0137 -1.8178
 1327SOL     OW15439   0.457   4.205   0.551 -0.3495  0.1915  0.1207
 1327SOL    HW115440   0.514   4.234   0.480 -2.5143  0.4390 -1.5174
 1327SOL    HW215441   0.376   4.256   0.539  1.1165  1.8164 -2.9463
 1328SOL     OW15442   0.969   4.692   8.304  0.2037  0.6776  0.0370
 1328SOL    HW115443   0.942   0.062   8.284  2.4383  1.0470 -1.2841
 1328SOL    HW215444   0.890   4.646   8.274  0.2654 -0.9289  2.4175
 1329SOL     OW15445   2.035   4.369   5.519  0.0329  0.1567  0.0777
 1329SOL    HW115446   2.059   4.281   5.489  1.5549 -0.1303  2.1295
 1329SOL    HW215447   1.953   4.382   5.470 -0.1302  1.2152  0.6460
 1330SOL     OW15448   3.831   1.471   9.273 -0.6549  0.7925  0.8420
 1330SOL    HW115449   3.739   1.469   9.296 -1.1987  0.7932 -1.3111
 1330SOL    HW215450   3.856   1.394   9.325  2.4000  1.3283  0.1741
 1331SOL     OW15451   1.125   0.449  12.427 -0.9647 -0.2382 -0.1851
 1331SOL    HW115452   1.167   0.394  12.494 -0.3185  2.2764  1.4812
 1331SOL    HW215453   1.185   0.523  12.423  0.5232 -1.2539  3.0380
 1332SOL     OW15454   3.266   1.074   6.955  0.2840 -0.0254 -0.1452
 1332SOL    HW115455   3.198   1.042   7.014 -1.2913  0.6619 -1.6037
 1332SOL    HW215456   3.248   1.167   6.941 -0.1008  0.0565  0.9099
 1333SOL     OW15457   3.239   1.006  17.139  0.2956  0.0861  0.6029
 1333SOL    HW115458   3.258   1.069  17.208  0.4400  0.7920 -0.0809
 1333SOL    HW215459   3.228   1.062  17.062 -1.8159  0.3523  1.0950
 1334SOL     OW15460   2.283   1.397  13.368 -0.4944 -0.1295  0.1706
 1334SOL    HW115461   2.290   1.483  13.326  1.8140  0.4268  1.7137
 1334SOL    HW215462   2.307   1.428  13.455  1.0772 -0.0445 -0.2924
 1335SOL     OW15463   4.417   4.192   8.448 -0.1514  0.1427 -0.6893
 1335SOL    HW115464   4.469   4.145   8.513 -1.1864  1.9945  1.5153
 1335SOL    HW215465   4.376   4.258   8.504  0.0010  1.8022 -2.5285
 1336SOL     OW15466   0.585   0.759   6.220 -0.1165 -0.3801 -0.4529
 1336SOL    HW115467   0.548   0.805   6.295 -1.1953 -1.8493 -0.0784
 1336SOL    HW215468   0.578   0.830   6.156  0.2475  0.0363 -0.0251
 1337SOL     OW15469   0.883   2.008  15.800 -0.0263 -0.2513 -0.1467
 1337SOL    HW115470   0.893   2.092  15.754 -2.9990  1.8832  3.0631
 1337SOL    HW215471   0.836   2.028  15.881 -1.0219 -2.6889 -0.1344
 1338SOL     OW15472   0.466   0.935  15.073  0.0770  0.3270  0.0642
 1338SOL    HW115473   0.409   0.900  15.141  0.1588 -0.6934 -0.3866
 1338SOL    HW215474   0.523   0.866  15.039  1.0479  0.5893  1.1731
 1339SOL     OW15475   0.656   2.139   6.133 -0.1223 -0.0488  0.4192
 1339SOL    HW115476   0.695   2.212   6.086 -1.4390  0.9808  0.9177
 1339SOL    HW215477   0.571   2.179   6.153  0.7302  1.2684  1.3866
 1340SOL     OW15478   2.107   1.902  12.915  0.0237  0.0506 -0.1747
 1340SOL    HW115479   2.041   1.842  12.881 -1.1661  1.2225  0.0981
 1340SOL    HW215480   2.099   1.874  13.006 -0.8031  2.9460  0.6488
 1341SOL     OW15481   0.545   0.616   6.585  0.0530 -0.1865 -0.4860
 1341SOL    HW115482   0.562   0.522   6.583 -2.9334 -0.7240  0.3130
 1341SOL    HW215483   0.475   0.625   6.521 -0.4040  0.1174  0.0670
 1342SOL     OW15484   1.763   2.692   3.254  0.1018 -0.0714  0.2849
 1342SOL    HW115485   1.776   2.610   3.206 -2.4610 -0.0369 -0.4368
 1342SOL    HW215486   1.853   2.726   3.255  1.3636 -3.3885  0.8131
 1343SOL     OW15487   0.889   2.361   4.515  0.5542  0.6549  0.1789
 1343SOL    HW115488   0.874   2.289   4.577  0.0730  1.4569  1.0028
 1343SOL    HW215489   0.975   2.335   4.483 -0.2938 -0.7653 -0.9033
 1344SOL     OW15490   3.277   3.643   8.908 -0.4826  0.6944  0.5003
 1344SOL    HW115491   3.186   3.636   8.936 -1.4410  2.3175 -2.2951
 1344SOL    HW215492   3.286   3.548   8.898 -1.9022  0.6042  0.1423
 1345SOL     OW15493   0.006   3.623   3.698  0.1448  0.2706  0.0666
 1345SOL    HW115494   0.001   3.547   3.641  0.6639  1.1271 -1.1286
 1345SOL    HW215495   0.040   3.580   3.777 -0.1108 -0.0177  0.0172
 1346SOL     OW15496   2.121   3.244   8.376 -0.0693  0.0152 -0.4202
 1346SOL    HW115497   2.108   3.267   8.284 -0.6534 -2.4663 -0.9496
 1346SOL    HW215498   2.036   3.204   8.394  0.0358  0.3430  0.7617
 1347SOL     OW15499   1.794   3.593   8.685  0.4417  0.0380 -0.2974
 1347SOL    HW115500   1.759   3.505   8.668 -0.0513 -0.0038  0.9706
 1347SOL    HW215501   1.857   3.568   8.752  0.6098  0.6091 -0.2474
 1348SOL     OW15502   2.539   0.375   9.013  0.2370 -0.1697  0.2989
 1348SOL    HW115503   2.608   0.407   9.071 -1.9707  2.6578  1.3546
 1348SOL    HW215504   2.477   0.448   9.025 -2.7329 -2.8308  1.1495
 1349SOL     OW15505   2.996   1.639  10.422 -0.2486 -1.0123 -0.4551
 1349SOL    HW115506   3.061   1.665  10.487  0.3269 -1.5024 -0.8233
 1349SOL    HW215507   2.982   1.714  10.365  1.7372 -0.8061 -0.6968
 1350SOL     OW15508   2.378   3.705  10.781  0.2615 -0.5828 -0.0352
 1350SOL    HW115509   2.360   3.707  10.875  1.8401 -1.4325  0.2910
 1350SOL    HW215510   2.469   3.676  10.793  0.4355  1.4647  3.6438
 1351SOL     OW15511   2.127   1.471   9.370  0.2131 -0.0854  0.4963
 1351SOL    HW115512   2.081   1.388   9.355  0.8206 -0.0430 -1.6835
 1351SOL    HW215513   2.097   1.489   9.459 -1.6681  0.2745 -0.1962
 1352SOL     OW15514   2.506   2.681  17.076  0.6571  0.4089 -0.3081
 1352SOL    HW115515   2.576   2.644  17.130  2.1883  1.5453 -1.5420
 1352SOL    HW215516   2.560   2.713  17.005 -0.3685  0.9523 -0.8388
 1353SOL     OW15517   2.914   2.599   8.436  0.1578 -0.2052  0.0993
 1353SOL    HW115518   2.963   2.579   8.356  4.0796 -0.0894  2.4981
 1353SOL    HW215519   2.946   2.687   8.456 -1.7545  0.1251  1.7400
 1354SOL     OW15520   3.539   0.052   8.264 -0.1664 -0.5437 -0.2205
 1354SOL    HW115521   3.462   0.009   8.300 -0.1870 -1.2213 -1.0642
 1354SOL    HW215522   3.509   0.133   8.222  0.7463 -0.3038 -0.4225
 1355SOL     OW15523   4.057   1.964  16.793 -0.7894  0.2820 -0.0361
 1355SOL    HW115524   3.967   1.985  16.766 -0.7458  0.1547 -0.2792
 1355SOL    HW215525   4.045   1.876  16.829 -0.7269 -0.4510 -1.8158
 1356SOL     OW15526   2.772   2.080   8.277  0.2809  0.1085  0.7718
 1356SOL    HW115527   2.743   2.008   8.332 -0.7369  0.4341  0.6527
 1356SOL    HW215528   2.686   2.095   8.238  1.0597 -0.9072 -1.3493
 1357SOL     OW15529   2.045   1.041  11.308 -0.2034 -0.1818  0.2492
 1357SOL    HW115530   2.019   1.098  11.236  1.0152 -0.8672 -0.7416
 1357SOL    HW215531   2.063   0.960  11.259 -1.4370  1.3006 -2.6685
 1358SOL     OW15532   4.557   0.203   1.075 -0.5658  0.1275  0.3318
 1358SOL    HW115533   4.620   0.206   1.147  0.9359  0.0579 -0.9835
 1358SOL    HW215534   4.617   0.224   1.003  0.8333 -1.6172  0.9768
 1359SOL     OW15535   0.556   1.781   3.739  0.1626  0.3521  0.2539
 1359SOL    HW115536   0.601   1.865   3.729 -2.0155  1.4394 -0.4138
 1359SOL    HW215537   0.625   1.740   3.790  1.8995  1.9251 -0.8300
 1360SOL     OW15538   0.599   1.306  17.539  0.1865 -0.3811  0.0722
 1360SOL    HW115539   0.602   1.211  17.526  0.9561  0.0263 -2.6793
 1360SOL    HW215540   0.649   1.315  17.620 -0.1272 -2.2502  0.4674
 1361SOL     OW15541   4.216   3.896   7.973 -0.0678  0.0225  0.2350
 1361SOL    HW115542   4.287   3.905   7.910 -0.9932  3.7847 -0.2756
 1361SOL    HW215543   4.234   3.810   8.010  2.0522  0.9229  1.2887
 1362SOL     OW15544   4.224   3.799   7.398 -0.1610 -0.4894 -0.0808
 1362SOL    HW115545   4.271   3.873   7.362 -1.0329 -0.2874 -0.8211
 1362SOL    HW215546   4.232   3.802   7.493 -3.2837 -0.2682  0.1999
 1363SOL     OW15547   2.907   2.082   8.793  0.0418  0.0916 -0.1827
 1363SOL    HW115548   2.828   2.077   8.740 -0.8081 -1.2997  1.2047
 1363SOL    HW215549   2.884   2.152   8.854  0.7423 -0.3472  0.5934
 1364SOL     OW15550   0.807   1.293   8.617 -0.4556  0.0559 -0.4075
 1364SOL    HW115551   0.843   1.212   8.651 -2.6907 -0.0571  1.7130
 1364SOL    HW215552   0.766   1.320   8.699  2.0749  0.9177  0.5416
 1365SOL     OW15553   3.370   0.914   1.311  0.1363 -0.2109  0.5672
 1365SOL    HW115554   3.461   0.944   1.318 -0.5334  2.6652 -3.0254
 1365SOL    HW215555   3.334   0.945   1.228  0.7000  0.5218  0.5972
 1366SOL     OW15556   3.358   3.939   5.723  0.9111 -0.6346 -0.4084
 1366SOL    HW115557   3.386   4.029   5.741  1.2436 -0.5590 -1.3022
 1366SOL    HW215558   3.292   3.927   5.792  1.8108  1.9526  0.9120
 1367SOL     OW15559   3.401   2.368   7.503 -0.5036 -0.2341  0.3543
 1367SOL    HW115560   3.313   2.379   7.538 -0.6711 -1.1450  0.2301
 1367SOL    HW215561   3.448   2.355   7.585  2.0483 -1.0215 -1.2364
 1368SOL     OW15562   2.962   1.711   5.996 -0.0346  0.0281  0.2493
 1368SOL    HW115563   2.923   1.666   6.072  0.5315 -1.2886 -0.2316
 1368SOL    HW215564   2.917   1.795   5.995  0.8951  0.5248  0.2662
 1369SOL     OW15565   1.800   1.137  16.866  0.3554  0.2871  0.2174
 1369SOL    HW115566   1.762   1.060  16.910 -1.4457  1.2484  0.3572
 1369SOL    HW215567   1.880   1.148  16.916  0.8985 -3.0834  0.0964
 1370SOL     OW15568   1.705   3.286   1.238  0.0532  0.1326 -0.0997
 1370SOL    HW115569   1.771   3.220   1.216  0.6617  0.6963  0.0511
 1370SOL    HW215570   1.717   3.289   1.333 -0.7331  0.5541 -0.0111
 1371SOL     OW15571   3.496   3.722  11.226 -1.1569  0.1877  0.1833
 1371SOL    HW115572   3.463   3.684  11.308  0.4753 -1.9201 -0.1366
 1371SOL    HW215573   3.586   3.691  11.231 -1.4260 -0.4610  0.9321
 1372SOL     OW15574   0.365   2.612   8.967 -0.5211 -0.0424  0.2593
 1372SOL    HW115575   0.285   2.664   8.976  0.2664  1.5596 -2.1644
 1372SOL    HW215576   0.359   2.546   9.037 -0.0270  0.7652  1.0599
 1373SOL     OW15577   1.942   0.964   1.236 -0.0262 -0.3147  0.3602
 1373SOL    HW115578   2.035   0.982   1.251  0.1960 -0.9309 -0.2623
 1373SOL    HW215579   1.899   1.045   1.264 -0.4588 -0.8073  1.1393
 1374SOL     OW15580   3.070   2.557   1.891  0.2092  0.5602  0.0544
 1374SOL    HW115581   3.068   2.499   1.967 -0.0186  0.2824 -0.1641
 1374SOL    HW215582   3.085   2.497   1.818  0.1983 -0.6365  1.0268
 1375SOL     OW15583   3.125   2.054   2.086  0.3272  0.2189 -0.2255
 1375SOL    HW115584   3.114   2.047   1.991 -2.5306 -1.7939  0.2423
 1375SOL    HW215585   3.121   1.960   2.107 -0.8917  0.5945  1.1793
 1376SOL     OW15586   2.251   3.663   8.621  0.5224  0.4546  0.6606
 1376SOL    HW115587   2.281   3.578   8.588  0.9109  0.6050  0.6280
 1376SOL    HW215588   2.292   3.729   8.565  1.2081 -1.3510 -0.9514
 1377SOL     OW15589   2.147   1.163   7.455 -0.0460  0.6024  0.4114
 1377SOL    HW115590   2.154   1.256   7.476 -0.9372  0.6076  0.7193
 1377SOL    HW215591   2.169   1.119   7.537  0.0438 -1.8306 -0.9144
 1378SOL     OW15592   3.925   0.873  16.333  0.5657 -0.2962  0.3219
 1378SOL    HW115593   3.995   0.913  16.385 -0.3540  0.8873  0.6304
 1378SOL    HW215594   3.970   0.815  16.272 -1.1107 -2.2105  0.9084
 1379SOL     OW15595   3.917   4.321   6.974  0.6994  1.3038 -0.3847
 1379SOL    HW115596   3.874   4.317   7.060 -0.2827  0.6154 -0.9115
 1379SOL    HW215597   4.002   4.362   6.993  0.9225  1.6374 -2.0697
 1380SOL     OW15598   2.464   2.274   6.952  0.1830 -0.6280  0.0380
 1380SOL    HW115599   2.380   2.295   6.992  0.8212  0.6518  0.7149
 1380SOL    HW215600   2.508   2.358   6.963 -1.1211  0.1093 -0.4718
 1381SOL     OW15601   2.839   0.719   8.526  0.2493 -0.4557 -0.0227
 1381SOL    HW115602   2.781   0.660   8.477 -0.3762  0.0930  0.0570
 1381SOL    HW215603   2.779   0.789   8.553  0.3989  0.0533 -1.0125
 1382SOL     OW15604   0.649   0.880   8.551  0.6352 -0.2812 -0.1256
 1382SOL    HW115605   0.570   0.900   8.600 -0.7387  2.5058 -3.4920
 1382SOL    HW215606   0.682   0.799   8.591  1.0824  0.4111  0.8865
 1383SOL     OW15607   3.709   2.349   7.721 -0.4108  0.1749 -0.0947
 1383SOL    HW115608   3.671   2.437   7.727  0.1340  0.4159 -0.0950
 1383SOL    HW215609   3.634   2.300   7.753  0.3477  0.1580  1.6559
 1384SOL     OW15610   0.192   3.031   8.104 -0.1008 -0.0422  0.4858
 1384SOL    HW115611   0.192   3.074   8.190  0.3748  0.3646  0.2841
 1384SOL    HW215612   0.191   2.938   8.126 -0.5212 -0.2990 -0.6271
 1385SOL     OW15613   3.665   0.594   2.502  0.0322 -0.0020  0.2723
 1385SOL    HW115614   3.656   0.682   2.540  1.7787  1.1015 -1.8406
 1385SOL    HW215615   3.573   0.587   2.479  0.1201 -0.7008  0.1335
 1386SOL     OW15616   0.740   1.958  15.227 -0.4922  0.3414 -0.4449
 1386SOL    HW115617   0.815   1.937  15.171 -0.4142  0.8241 -0.5253
 1386SOL    HW215618   0.738   2.053  15.215  3.4873  0.2175 -2.0705
 1387SOL     OW15619   1.299   2.328   8.982 -0.2692 -0.0411 -0.2538
 1387SOL    HW115620   1.346   2.262   9.032 -0.1790 -0.0166 -0.3053
 1387SOL    HW215621   1.336   2.410   9.016  0.6089 -0.2121 -0.7903
 1388SOL     OW15622   4.065   0.444   6.388 -0.0455  0.4488  0.0787
 1388SOL    HW115623   3.990   0.465   6.334 -1.4201 -1.2369  1.3401
 1388SOL    HW215624   4.114   0.374   6.344  0.8899  0.1110  1.6092
 1389SOL     OW15625   3.588   3.483  14.783 -0.1234  0.7633  0.1063
 1389SOL    HW115626   3.499   3.516  14.796 -0.1271  1.4584 -1.7656
 1389SOL    HW215627   3.637   3.556  14.745  0.7813  0.3967  0.5575
 1390SOL     OW15628   1.571   0.234   3.507  0.4644 -0.7106 -0.6526
 1390SOL    HW115629   1.564   0.284   3.426  1.6345 -0.0705 -0.3600
 1390SOL    HW215630   1.478   0.217   3.519  0.5667 -1.0188 -0.2840
 1391SOL     OW15631   2.566   1.207   6.322 -0.0195 -0.1968 -0.1535
 1391SOL    HW115632   2.606   1.136   6.372 -2.3752 -1.7719 -0.5073
 1391SOL    HW215633   2.478   1.171   6.321  1.4071 -3.7018 -1.4002
 1392SOL     OW15634   2.877   0.120   3.715 -0.2454 -0.2647  0.2586
 1392SOL    HW115635   2.825   0.145   3.639  0.2223 -3.2243 -1.0620
 1392SOL    HW215636   2.828   0.163   3.785 -0.2127 -0.6664  0.5287
 1393SOL     OW15637   1.557   0.621   7.311  0.3138  0.1960  0.1835
 1393SOL    HW115638   1.487   0.558   7.326 -0.3526  1.2558  1.5342
 1393SOL    HW215639   1.627   0.582   7.364  1.7848 -0.2247 -2.0548
 1394SOL     OW15640   4.563   1.127  15.090 -0.5946 -0.9718  0.4095
 1394SOL    HW115641   4.558   1.187  15.016 -0.2335  1.4477  2.3630
 1394SOL    HW215642   4.616   1.181  15.148  0.5132 -1.3343 -0.2691
 1395SOL     OW15643   4.241   0.201  14.528 -0.1216 -0.4919  0.1549
 1395SOL    HW115644   4.282   0.270  14.581  0.8656 -0.7936 -0.2054
 1395SOL    HW215645   4.152   0.237  14.527 -0.4091 -1.1920  0.6049
 1396SOL     OW15646   0.727   3.513   0.664  0.1332  0.5426 -0.2277
 1396SOL    HW115647   0.719   3.457   0.587  0.5659 -0.2671  0.3199
 1396SOL    HW215648   0.635   3.541   0.667 -0.2685 -0.9970  1.3969
 1397SOL     OW15649   2.459   0.123  10.049  0.1200 -0.1564  0.0069
 1397SOL    HW115650   2.395   0.135  10.119 -0.2720 -0.0073 -0.3740
 1397SOL    HW215651   2.544   0.152  10.082 -0.0156  1.6108 -1.1981
 1398SOL     OW15652   4.197   3.691   5.366 -0.2184  0.7542 -0.1491
 1398SOL    HW115653   4.119   3.693   5.310  0.9586  3.9553 -1.7053
 1398SOL    HW215654   4.235   3.775   5.340 -0.3709  0.8418 -0.0962
 1399SOL     OW15655   3.505   0.260   8.079  0.6016 -0.5555 -0.1959
 1399SOL    HW115656   3.460   0.334   8.119 -0.6090 -1.9375  1.0163
 1399SOL    HW215657   3.505   0.296   7.990  1.4945  1.0057  0.4419
 1400SOL     OW15658   3.286   1.244  11.342 -0.3307 -0.0543 -0.6059
 1400SOL    HW115659   3.190   1.242  11.347 -0.3218  0.0436 -0.3883
 1400SOL    HW215660   3.312   1.335  11.354  1.4332 -0.6807  0.3904
 1401SOL     OW15661   0.839   1.555   1.258 -0.2531  0.4163  0.5464
 1401SOL    HW115662   0.911   1.599   1.213 -0.2741 -0.1942 -0.0822
 1401SOL    HW215663   0.787   1.523   1.184 -0.0811 -0.9976  1.0235
 1402SOL     OW15664   0.938   2.155   4.232  0.0848  0.0043 -0.3268
 1402SOL    HW115665   0.881   2.103   4.288 -1.3452  2.1294  0.1714
 1402SOL    HW215666   1.019   2.151   4.284  0.9899 -1.7778 -1.8516
 1403SOL     OW15667   0.146   2.264   0.045 -0.7601 -0.1188  0.0167
 1403SOL    HW115668   0.144   2.176   0.006 -0.0563 -0.1514  0.0539
 1403SOL    HW215669   0.055   2.270   0.073 -1.3569 -0.8123 -1.7470
 1404SOL     OW15670   1.440   3.403   5.939 -0.0252  0.1381  0.0232
 1404SOL    HW115671   1.400   3.478   5.983 -1.7099  0.2627 -1.6886
 1404SOL    HW215672   1.393   3.396   5.856  1.8102 -0.7915 -0.9420
 1405SOL     OW15673   1.957   1.400  16.813 -0.7406 -0.2448  0.0856
 1405SOL    HW115674   1.997   1.415  16.898 -1.7257  0.4230  0.4301
 1405SOL    HW215675   1.934   1.310  16.834  1.3864 -0.9133 -0.4781
 1406SOL     OW15676   4.532   1.784   7.572 -0.8506  0.7035  0.6007
 1406SOL    HW115677   4.608   1.771   7.629 -0.1879  2.3436  0.1146
 1406SOL    HW215678   4.492   1.857   7.619 -4.8060 -0.4612 -0.9840
 1407SOL     OW15679   4.211   2.280  14.906 -0.0461 -0.2253  0.4276
 1407SOL    HW115680   4.234   2.258  14.816  0.9433  2.8744 -0.1039
 1407SOL    HW215681   4.275   2.222  14.947  1.6470  2.2767  1.3718
 1408SOL     OW15682   0.529   3.318  16.764 -0.1385 -0.0016 -0.4233
 1408SOL    HW115683   0.579   3.339  16.685 -0.8532  1.1910 -0.5484
 1408SOL    HW215684   0.537   3.404  16.805 -0.7207  0.1866 -0.7108
 1409SOL     OW15685   1.813   3.674  17.518  0.5684  0.2280 -0.0174
 1409SOL    HW115686   1.853   3.587  17.524  1.1006  0.3713 -1.6965
 1409SOL    HW215687   1.890   3.728  17.540 -0.2667  0.7086  1.7352
 1410SOL     OW15688   0.931   1.357   9.314 -0.0558 -0.1752  0.2558
 1410SOL    HW115689   0.993   1.291   9.345 -1.9740 -1.7987  0.6071
 1410SOL    HW215690   0.994   1.429   9.312 -1.6321  1.2341  0.8480
 1411SOL     OW15691   2.191   0.900   4.722 -0.5061 -0.4204 -0.2723
 1411SOL    HW115692   2.102   0.891   4.687 -0.1178  0.0303 -1.3647
 1411SOL    HW215693   2.169   0.935   4.809  1.8846 -0.0417  0.1651
 1412SOL     OW15694   0.420   3.577   6.566  0.3968 -0.1428 -0.6305
 1412SOL    HW115695   0.507   3.538   6.578  0.7367  0.3825 -1.4145
 1412SOL    HW215696   0.439   3.649   6.506 -0.4543  0.6034  0.0146
 1413SOL     OW15697   0.067   1.860   6.900  0.1967 -0.0973  0.1238
 1413SOL    HW115698   0.069   1.922   6.826 -0.0353 -0.4862 -0.2044
 1413SOL    HW215699   0.085   1.778   6.855 -2.1784 -0.0210 -0.9889
 1414SOL     OW15700   0.064   0.872  16.287  0.6968  0.0711 -0.0669
 1414SOL    HW115701   4.720   0.902  16.351  1.4340 -0.6598  1.0181
 1414SOL    HW215702   0.059   0.778  16.300  2.7408 -0.4341 -2.7166
 1415SOL     OW15703   1.846   3.858   8.847 -0.5678  0.0236 -0.5563
 1415SOL    HW115704   1.935   3.848   8.812 -0.2988 -1.3688  0.5199
 1415SOL    HW215705   1.808   3.792   8.789  0.2258 -0.4757 -0.5143
 1416SOL     OW15706   1.202   3.848   3.531 -0.0044  0.3407 -0.5657
 1416SOL    HW115707   1.122   3.899   3.541  0.6351  0.9923  1.3667
 1416SOL    HW215708   1.208   3.797   3.612  1.0336  0.9712 -0.2553
 1417SOL     OW15709   2.661   2.767  11.002  0.2258 -0.2404  0.4850
 1417SOL    HW115710   2.732   2.739  10.944 -0.5270 -1.1378  0.0043
 1417SOL    HW215711   2.713   2.786  11.080  2.1541  1.8074 -1.2812
 1418SOL     OW15712   2.859   4.331   6.185 -0.4813 -0.1490  0.4885
 1418SOL    HW115713   2.895   4.384   6.255  1.5413 -2.4177  1.1760
 1418SOL    HW215714   2.768   4.328   6.215 -0.2246 -1.9106  1.1190
 1419SOL     OW15715   2.214   4.561   1.355  0.4092  0.5720  0.7416
 1419SOL    HW115716   2.178   4.533   1.271  1.3804 -0.4366  0.6716
 1419SOL    HW215717   2.132   4.549   1.403  0.3512 -0.0522  0.4848
 1420SOL     OW15718   2.984   1.311   4.468  0.0721 -0.3698  0.0702
 1420SOL    HW115719   3.005   1.235   4.413 -0.0708 -0.2234 -0.1880
 1420SOL    HW215720   2.889   1.313   4.455  0.0704  1.2285  0.3762
 1421SOL     OW15721   0.894   3.823  15.178 -0.0566  0.2556 -0.5756
 1421SOL    HW115722   0.837   3.783  15.112  0.1019 -1.5950  0.4014
 1421SOL    HW215723   0.883   3.913  15.145  2.0562  2.2932  4.3764
 1422SOL     OW15724   1.537   1.891   3.962 -0.4852  0.0187  0.0046
 1422SOL    HW115725   1.487   1.958   3.916 -1.4728  0.7246  2.1186
 1422SOL    HW215726   1.605   1.945   4.002  1.3510 -0.9569 -1.7739
 1423SOL     OW15727   3.840   3.514   2.937 -0.0738 -0.2722 -0.6398
 1423SOL    HW115728   3.750   3.528   2.967  0.7272  0.3222  1.5261
 1423SOL    HW215729   3.845   3.419   2.952 -1.8640 -0.2766 -0.0939
 1424SOL     OW15730   2.349   2.777  11.693  0.0173  0.2503 -0.1187
 1424SOL    HW115731   2.443   2.762  11.696 -0.2190 -0.9288  1.4477
 1424SOL    HW215732   2.333   2.805  11.603 -3.6470 -1.6217 -0.0479
 1425SOL     OW15733   4.206   2.985   4.036  0.0484  0.1366  0.1712
 1425SOL    HW115734   4.286   2.932   4.031  0.2411  0.8075 -3.7326
 1425SOL    HW215735   4.204   3.026   4.123  0.1798 -0.7517  0.5960
 1426SOL     OW15736   2.396   1.489   6.241  0.4166 -0.0286  0.1628
 1426SOL    HW115737   2.371   1.498   6.333  1.9693  0.2288  0.5615
 1426SOL    HW215738   2.356   1.403   6.227  0.7716 -0.0901 -0.4460
 1427SOL     OW15739   1.006   0.637   3.445 -0.2199 -0.0446  0.0292
 1427SOL    HW115740   1.052   0.562   3.408 -0.1071  0.4756 -0.9046
 1427SOL    HW215741   0.936   0.652   3.381 -0.0766  1.6363  0.2569
 1428SOL     OW15742   3.492   2.934   1.291  0.0013  0.0332  0.7127
 1428SOL    HW115743   3.489   2.880   1.212  0.2971 -0.1464  0.8209
 1428SOL    HW215744   3.399   2.942   1.312  0.0998 -1.4008  1.6511
 1429SOL     OW15745   0.040   0.623   2.137 -0.2800 -0.0873  0.5031
 1429SOL    HW115746   4.693   0.583   2.192  0.5152 -1.3975  0.5153
 1429SOL    HW215747   4.699   0.674   2.083 -0.9552  1.2316  2.5096
 1430SOL     OW15748   1.052   1.112  10.742  0.3395  0.0814  0.1023
 1430SOL    HW115749   1.135   1.065  10.730  1.1951  1.3604  1.0057
 1430SOL    HW215750   0.996   1.053  10.793  1.2582 -1.7092 -0.9447
 1431SOL     OW15751   2.147   2.562   6.466  0.2974  0.1768  0.0769
 1431SOL    HW115752   2.173   2.648   6.499 -3.3334 -0.0131  3.4027
 1431SOL    HW215753   2.078   2.597   6.411  1.0929  1.7930  0.0918
 1432SOL     OW15754   1.286   3.458  15.779  0.3300 -0.6727 -0.0605
 1432SOL    HW115755   1.250   3.473  15.866 -0.9726  0.4799 -0.7903
 1432SOL    HW215756   1.365   3.511  15.779 -0.1700  0.0743 -1.9245
 1433SOL     OW15757   4.262   4.060   5.118  0.5002  0.3080  0.3863
 1433SOL    HW115758   4.303   3.988   5.166  1.1461  0.5988  0.2679
 1433SOL    HW215759   4.268   4.026   5.029  1.0778  1.3217  0.0401
 1434SOL     OW15760   1.408   3.793   7.392  0.0134  0.7710  0.1600
 1434SOL    HW115761   1.349   3.852   7.344 -0.5397 -0.8304 -1.1127
 1434SOL    HW215762   1.347   3.733   7.435  1.4222 -0.5944  0.2361
 1435SOL     OW15763   4.455   3.739  13.378 -0.0024 -0.2310  0.1355
 1435SOL    HW115764   4.363   3.768  13.373  0.8569  2.4541  0.0574
 1435SOL    HW215765   4.473   3.760  13.470  0.1030  3.7537 -0.7812
 1436SOL     OW15766   1.876   0.757  12.624 -0.4408 -0.4277 -0.0725
 1436SOL    HW115767   1.927   0.796  12.694 -2.0179  0.4136  0.6178
 1436SOL    HW215768   1.873   0.834  12.567  1.6753  0.8664  1.5636
 1437SOL     OW15769   1.108   2.763   3.426  0.0002 -0.0216 -0.5818
 1437SOL    HW115770   1.060   2.767   3.509  2.0847  3.5657  0.4713
 1437SOL    HW215771   1.191   2.796   3.460  0.7203 -0.4659 -1.8885
 1438SOL     OW15772   0.699   3.751   6.674 -0.0022 -0.1795  0.0587
 1438SOL    HW115773   0.613   3.743   6.714 -0.7428  2.8009 -0.9525
 1438SOL    HW215774   0.706   3.682   6.609 -0.6852 -0.7016  0.5487
 1439SOL     OW15775   2.195   1.986   4.480  0.8254  0.2478 -0.4133
 1439SOL    HW115776   2.235   2.070   4.502 -1.6387  1.0108  1.2216
 1439SOL    HW215777   2.103   2.005   4.499 -0.5183 -4.4952 -2.1562
 1440SOL     OW15778   3.266   0.752   2.139 -0.0917 -0.5716  0.0304
 1440SOL    HW115779   3.196   0.687   2.137 -0.3472 -0.2567 -1.1529
 1440SOL    HW215780   3.228   0.826   2.187 -0.7677 -1.3566  0.7071
 1441SOL     OW15781   4.486   2.493   8.146 -0.1391 -0.5044 -0.1308
 1441SOL    HW115782   4.518   2.578   8.177 -0.1114 -0.7564  0.5313
 1441SOL    HW215783   4.403   2.485   8.192  0.9048  0.5314  1.9703
 1442SOL     OW15784   2.329   0.827   6.615  0.4188  0.0113 -0.2887
 1442SOL    HW115785   2.249   0.774   6.616  0.8614 -0.6805 -1.9333
 1442SOL    HW215786   2.400   0.764   6.608  0.7560  0.3641  0.0021
 1443SOL     OW15787   0.513   1.851   6.527 -0.2124 -0.2145  0.2023
 1443SOL    HW115788   0.546   1.906   6.456 -1.3912 -2.3012 -1.9992
 1443SOL    HW215789   0.595   1.817   6.562 -1.5103 -3.4316  0.1918
 1444SOL     OW15790   0.681   3.503   1.346  0.2148 -0.1769  0.3260
 1444SOL    HW115791   0.611   3.542   1.397  0.1025 -2.5868  2.0076
 1444SOL    HW215792   0.659   3.410   1.342  1.3135 -0.3873 -1.2012
 1445SOL     OW15793   2.288   2.853   3.787 -0.1221 -0.6418  0.3101
 1445SOL    HW115794   2.217   2.872   3.849 -0.5539 -0.3747 -0.2671
 1445SOL    HW215795   2.278   2.760   3.766 -0.7914 -0.3801 -0.5320
 1446SOL     OW15796   2.453   3.651   8.894 -0.0179  0.1394  0.3682
 1446SOL    HW115797   2.446   3.645   8.799  0.0792 -1.7003  0.4634
 1446SOL    HW215798   2.540   3.690   8.897 -0.4885  1.2853 -1.5058
 1447SOL     OW15799   3.264   0.002   7.149 -0.3395  0.0912 -0.5738
 1447SOL    HW115800   3.216   4.659   7.203 -0.2105  2.4549  2.2988
 1447SOL    HW215801   3.312   4.665   7.089  1.9010 -0.5421  1.8129
 1448SOL     OW15802   0.707   4.628   7.759 -0.1001  0.1162 -0.1589
 1448SOL    HW115803   0.707   0.002   7.744 -0.6817  0.2130  0.4854
 1448SOL    HW215804   0.626   4.609   7.806  0.1148 -1.8887 -0.5924
 1449SOL     OW15805   3.341   2.522   9.259 -0.2562  0.5891 -0.0237
 1449SOL    HW115806   3.248   2.539   9.277 -0.6383 -1.9331  0.3188
 1449SOL    HW215807   3.366   2.463   9.330 -3.1163 -1.2020 -0.4972
 1450SOL     OW15808   3.672   1.209   3.258 -0.0353  0.3273 -0.0295
 1450SOL    HW115809   3.750   1.253   3.223 -0.9155  1.6211 -0.3626
 1450SOL    HW215810   3.603   1.263   3.220 -0.6771 -1.2411 -1.0688
 1451SOL     OW15811   2.427   3.354   1.668 -0.1822  0.8147 -0.4295
 1451SOL    HW115812   2.474   3.276   1.697 -0.5854  1.2573  1.4227
 1451SOL    HW215813   2.398   3.326   1.581 -0.9554 -3.4617  1.1996
 1452SOL     OW15814   4.137   0.370   3.615 -0.5944  0.2063 -0.3617
 1452SOL    HW115815   4.147   0.359   3.521  1.1859 -2.2885  0.1076
 1452SOL    HW215816   4.143   0.465   3.619  2.1575 -0.0587  1.9172
 1453SOL     OW15817   2.892   4.506   5.764  0.0487  0.0371 -0.1568
 1453SOL    HW115818   2.958   4.438   5.770 -0.9488 -0.9876 -0.8416
 1453SOL    HW215819   2.918   4.562   5.837 -1.5162  0.4284  0.1012
 1454SOL     OW15820   0.060   3.901   5.396  0.0271 -0.4734 -0.6145
 1454SOL    HW115821   0.156   3.908   5.401  0.1445 -2.5387  0.1450
 1454SOL    HW215822   0.038   3.869   5.309 -0.3630  1.3816 -1.1885
 1455SOL     OW15823   2.908   1.723   8.100  0.2204 -0.4107  0.3898
 1455SOL    HW115824   2.912   1.809   8.060  1.8588 -1.1834 -1.0907
 1455SOL    HW215825   2.966   1.687   8.033  0.8494 -0.5677  1.0209
 1456SOL     OW15826   4.342   4.657  13.555 -0.5035  0.6698  0.3730
 1456SOL    HW115827   4.414   4.645  13.617 -0.3402  0.7465  0.1953
 1456SOL    HW215828   4.289   4.714  13.611 -2.3849 -1.1044  0.3989
 1457SOL     OW15829   3.731   0.464  10.918  0.5512 -0.4843 -0.3238
 1457SOL    HW115830   3.667   0.396  10.899 -2.2376  1.8949  0.5762
 1457SOL    HW215831   3.735   0.440  11.010 -2.3376 -0.7886 -0.3049
 1458SOL     OW15832   0.545   0.527   4.755  0.0335 -0.1997 -0.1289
 1458SOL    HW115833   0.574   0.577   4.679  1.1316 -1.8179 -0.7653
 1458SOL    HW215834   0.627   0.520   4.804  0.0439 -0.5280 -0.1901
 1459SOL     OW15835   4.573   1.828  13.101  0.0511  0.2465 -0.4316
 1459SOL    HW115836   4.641   1.823  13.168 -1.0744 -0.3133  0.6727
 1459SOL    HW215837   4.523   1.902  13.135 -0.6430  0.1559 -1.2694
 1460SOL     OW15838   0.152   4.098   2.154 -0.5261 -0.3216  0.6288
 1460SOL    HW115839   0.177   4.024   2.098 -0.2837  1.0099 -1.0298
 1460SOL    HW215840   0.133   4.048   2.233 -1.9273 -2.6347 -1.1695
 1461SOL     OW15841   3.452   3.417   3.289 -0.0104 -0.1720  0.1429
 1461SOL    HW115842   3.445   3.409   3.384 -1.9461 -0.0917  0.0064
 1461SOL    HW215843   3.435   3.512   3.292  0.1764 -0.1493  0.5903
 1462SOL     OW15844   4.281   4.238   5.324  0.2112 -0.0230  0.2698
 1462SOL    HW115845   4.208   4.186   5.360 -0.9034  2.0660  0.9974
 1462SOL    HW215846   4.297   4.179   5.250  2.4075 -0.7371  1.3194
 1463SOL     OW15847   2.428   1.794  12.126 -0.3155  0.1510 -0.3418
 1463SOL    HW115848   2.337   1.821  12.117 -0.1151  1.4562  1.4523
 1463SOL    HW215849   2.471   1.803  12.041  0.2762 -0.1180 -0.0748
 1464SOL     OW15850   2.329   3.949   3.491 -0.2601  0.0636  0.3999
 1464SOL    HW115851   2.403   4.001   3.460 -0.2022 -0.8835 -1.0498
 1464SOL    HW215852   2.347   3.927   3.583  1.3329 -2.9540 -0.6598
 1465SOL     OW15853   3.050   2.068  15.807 -0.1382  0.3565 -0.4527
 1465SOL    HW115854   3.080   2.141  15.754 -0.1634  1.3202  0.8694
 1465SOL    HW215855   3.066   1.993  15.749 -2.5696  0.6559 -1.5192
 1466SOL     OW15856   3.241   3.284   2.184 -0.4738 -0.2566  0.0182
 1466SOL    HW115857   3.188   3.267   2.262 -0.0640 -1.2507  0.0796
 1466SOL    HW215858   3.264   3.197   2.153 -0.2211  0.3614 -1.5358
 1467SOL     OW15859   0.392   0.812   3.180 -0.0974  0.0145 -0.8025
 1467SOL    HW115860   0.443   0.892   3.188 -2.0651  0.9519  2.3133
 1467SOL    HW215861   0.351   0.799   3.265  0.6409 -2.0531 -0.7627
 1468SOL     OW15862   0.266   2.099  14.555 -0.4766  0.0520 -0.5380
 1468SOL    HW115863   0.273   2.192  14.534  1.7269  0.1782  0.7467
 1468SOL    HW215864   0.301   2.068  14.472  2.2427 -0.2624  0.7194
 1469SOL     OW15865   1.266   1.228   0.557 -0.7439 -0.1971  0.1510
 1469SOL    HW115866   1.340   1.229   0.619  0.8490  0.7074 -1.7519
 1469SOL    HW215867   1.299   1.296   0.498  2.1686 -1.9101 -0.2013
 1470SOL     OW15868   0.955   2.543   8.350  0.0174 -0.3085 -0.4940
 1470SOL    HW115869   1.010   2.543   8.272 -0.7176 -0.1065 -1.0041
 1470SOL    HW215870   1.015   2.494   8.407 -1.5302  0.4728  1.8177
 1471SOL     OW15871   0.869   2.120  12.680 -0.2046  0.0512 -0.3406
 1471SOL    HW115872   0.898   2.194  12.626  0.4320 -0.4462 -0.6824
 1471SOL    HW215873   0.909   2.046  12.636 -1.1062 -1.2236  1.0037
 1472SOL     OW15874   2.030   4.673   6.210 -0.3734  0.3558  0.3636
 1472SOL    HW115875   2.087   0.014   6.165 -0.4891 -0.7222 -1.2382
 1472SOL    HW215876   1.948   0.003   6.215  0.5628  2.0030 -0.8039
 1473SOL     OW15877   2.927   4.109   1.357 -0.2377  0.0579 -0.2754
 1473SOL    HW115878   2.979   4.121   1.437  1.3636  0.0144 -1.3214
 1473SOL    HW215879   2.983   4.122   1.281  0.0084  1.2294  0.0999
 1474SOL     OW15880   3.743   4.195   8.037 -0.0999 -0.3413  0.5845
 1474SOL    HW115881   3.771   4.205   7.946 -0.6839  0.9550  0.5451
 1474SOL    HW215882   3.791   4.267   8.078  0.1096 -1.6867  2.6713
 1475SOL     OW15883   1.734   3.249   7.247  0.1957  0.0369  0.3684
 1475SOL    HW115884   1.788   3.319   7.285 -0.9827 -0.0699  2.2288
 1475SOL    HW215885   1.644   3.281   7.255  0.4498  1.3140 -1.9107
 1476SOL     OW15886   0.118   2.935   4.491 -0.1605  0.1103  0.0083
 1476SOL    HW115887   0.171   2.989   4.549 -3.2429  2.2843  0.8188
 1476SOL    HW215888   0.176   2.871   4.451  0.7071  1.2162 -0.5108
 1477SOL     OW15889   4.469   4.596   3.278 -0.2185  0.1652 -0.1483
 1477SOL    HW115890   4.514   4.678   3.260 -0.6336  1.0460  2.9079
 1477SOL    HW215891   4.526   4.529   3.238 -0.0311  1.2769 -1.7518
 1478SOL     OW15892   1.760   3.955   4.510 -0.9667 -0.5637 -0.5864
 1478SOL    HW115893   1.852   3.983   4.512 -1.2336  0.1652  1.6468
 1478SOL    HW215894   1.733   3.957   4.418 -0.5282  0.9305 -0.6850
 1479SOL     OW15895   3.030   1.284  11.365  0.2136  0.0491  0.1607
 1479SOL    HW115896   2.988   1.343  11.427  0.3798  0.4115 -0.0772
 1479SOL    HW215897   2.959   1.247  11.314  0.7942  0.5870 -1.0248
 1480SOL     OW15898   3.803   1.245   6.661 -0.3687  0.3350  0.4035
 1480SOL    HW115899   3.821   1.319   6.603  0.7056  1.3920  2.1251
 1480SOL    HW215900   3.739   1.284   6.720  0.5786 -0.2644  1.8164
 1481SOL     OW15901   0.380   0.965   8.645  0.5501 -0.4181 -0.6430
 1481SOL    HW115902   0.383   1.058   8.620 -0.5971 -0.5912 -1.4385
 1481SOL    HW215903   0.324   0.966   8.723  1.6023  0.1787  0.1012
 1482SOL     OW15904   2.509   2.935  15.639 -0.1148  0.2245 -0.1193
 1482SOL    HW115905   2.475   2.911  15.553 -1.5902  2.2934 -0.1313
 1482SOL    HW215906   2.579   3.001  15.631  1.1305 -1.1485 -0.5021
 1483SOL     OW15907   4.127   4.683  10.938  0.0436  0.1906  0.0205
 1483SOL    HW115908   4.073   0.037  10.913  0.0432  0.7615  1.7268
 1483SOL    HW215909   4.210   0.004  10.916  0.5146 -1.2901 -0.9760
 1484SOL     OW15910   1.722   2.434  10.524  0.4075  0.4208  0.3556
 1484SOL    HW115911   1.762   2.351  10.548  1.4220  0.3769 -1.4236
 1484SOL    HW215912   1.678   2.450  10.607 -1.6193 -1.7172 -0.3136
 1485SOL     OW15913   2.224   3.287   6.511 -0.0909  0.2824 -0.2636
 1485SOL    HW115914   2.279   3.359   6.543  0.8235 -0.8792  0.7507
 1485SOL    HW215915   2.165   3.270   6.584 -1.0504 -1.3905 -1.4381
 1486SOL     OW15916   0.798   2.163   9.771  0.7747 -0.4421  0.5402
 1486SOL    HW115917   0.807   2.070   9.751 -1.2805 -0.4779 -0.2152
 1486SOL    HW215918   0.825   2.205   9.690  0.5927 -0.2519  0.5771
 1487SOL     OW15919   3.825   1.720  17.398  0.5275  0.5974 -0.3476
 1487SOL    HW115920   3.874   1.800  17.379  2.6025 -0.9121 -1.3031
 1487SOL    HW215921   3.740   1.746  17.362  0.1632  2.8330  2.0417
 1488SOL     OW15922   3.951   1.976  14.085 -0.0450 -0.4927  0.3403
 1488SOL    HW115923   3.963   2.067  14.114  0.2970 -0.2938 -0.4408
 1488SOL    HW215924   3.998   1.973  14.002 -1.4768  2.1503 -0.5739
 1489SOL     OW15925   1.811   3.198   4.284  0.1002  0.0942  0.6690
 1489SOL    HW115926   1.895   3.157   4.266 -0.4362 -0.8551  0.3518
 1489SOL    HW215927   1.751   3.125   4.270  1.6344 -1.1945  0.8745
 1490SOL     OW15928   2.080   3.162   6.126 -0.0368  0.0740 -0.2422
 1490SOL    HW115929   2.035   3.235   6.085  0.0187 -1.3475 -2.8314
 1490SOL    HW215930   2.028   3.088   6.094  0.2526  0.2435 -1.0813
 1491SOL     OW15931   1.896   2.949   5.214 -0.0869 -0.2063  0.3385
 1491SOL    HW115932   1.892   2.923   5.306  1.7751  0.7150  0.6589
 1491SOL    HW215933   1.805   2.934   5.186  0.8070 -0.4474 -2.5033
 1492SOL     OW15934   3.006   2.389   5.343 -0.1150  0.0138  0.1768
 1492SOL    HW115935   3.028   2.477   5.315 -1.0674 -0.3784 -1.8266
 1492SOL    HW215936   2.960   2.357   5.265  1.4639 -0.1645 -0.6645
 1493SOL     OW15937   1.039   1.435   6.305 -0.3678 -0.5032  0.8165
 1493SOL    HW115938   0.996   1.485   6.374  1.2114  0.1364  1.3202
 1493SOL    HW215939   0.988   1.461   6.228  1.5795 -0.7491 -0.5397
 1494SOL     OW15940   0.677   3.342  16.527 -0.6174  0.5073 -0.7233
 1494SOL    HW115941   0.743   3.343  16.457 -0.9080  0.9351 -0.9908
 1494SOL    HW215942   0.605   3.387  16.484 -0.5680  1.1327 -0.1328
 1495SOL     OW15943   1.795   1.843   0.424 -0.1835  0.1131 -0.1040
 1495SOL    HW115944   1.880   1.885   0.411  0.2837 -0.0489  2.5103
 1495SOL    HW215945   1.776   1.808   0.336  1.4316  1.1296 -0.8587
 1496SOL     OW15946   0.639   0.145   9.051  0.1497  0.1861  0.2583
 1496SOL    HW115947   0.718   0.159   8.999 -0.7708 -1.3860 -1.5591
 1496SOL    HW215948   0.670   0.107   9.133 -1.1207  0.7006  0.9686
 1497SOL     OW15949   2.202   2.852  14.516  0.5639 -0.1000 -0.3961
 1497SOL    HW115950   2.229   2.943  14.528 -0.9280  0.1673  0.9426
 1497SOL    HW215951   2.196   2.807  14.600 -0.5860  0.3091 -0.2620
 1498SOL     OW15952   3.437   3.175   6.061  0.4415 -0.0676 -0.7475
 1498SOL    HW115953   3.522   3.132   6.063  0.9543  0.9737 -0.4118
 1498SOL    HW215954   3.402   3.154   6.148  2.4790 -2.2662 -0.4686
 1499SOL     OW15955   3.402   3.089   4.423  0.0153  0.2390  0.5609
 1499SOL    HW115956   3.350   3.009   4.410  0.8768 -0.1341 -0.6012
 1499SOL    HW215957   3.351   3.133   4.490  1.7573  0.8031  1.5094
 1500SOL     OW15958   2.262   2.357   7.098  0.1278 -0.3913  0.5904
 1500SOL    HW115959   2.267   2.403   7.181  0.7333  0.6421 -0.0118
 1500SOL    HW215960   2.181   2.396   7.064 -0.1592 -0.7906  0.8185
 1501SOL     OW15961   4.433   3.068   8.958  0.1169  0.3295 -1.0497
 1501SOL    HW115962   4.337   3.068   8.955  0.0715  0.4678  0.3957
 1501SOL    HW215963   4.455   3.048   8.867 -0.9971 -1.1861 -1.0008
 1502SOL     OW15964   3.197   4.363  15.223  0.1805  0.3562  0.1701
 1502SOL    HW115965   3.248   4.357  15.142  0.6899  1.7528  0.3879
 1502SOL    HW215966   3.181   4.457  15.226 -0.5485  0.1558  2.8621
 1503SOL     OW15967   0.455   1.865   8.466  0.3620 -0.4454 -0.2167
 1503SOL    HW115968   0.524   1.898   8.408 -0.4065  2.1107  0.2998
 1503SOL    HW215969   0.461   1.936   8.531  0.7293  0.8979 -1.7061
 1504SOL     OW15970   0.639   3.682   0.425  0.2317  0.6482  0.2193
 1504SOL    HW115971   0.713   3.648   0.475 -0.4021 -0.3163  0.4938
 1504SOL    HW215972   0.593   3.721   0.499  1.4322  1.2237  0.6649
 1505SOL     OW15973   0.021   0.269   9.226  0.0213  0.0925 -0.4251
 1505SOL    HW115974   0.093   0.206   9.223 -0.1874 -0.0929 -1.3927
 1505SOL    HW215975   4.677   0.208   9.261  0.4151 -1.3376 -2.2179
 1506SOL     OW15976   1.948   3.757   9.110 -0.4186  0.6068  0.3182
 1506SOL    HW115977   1.852   3.756   9.106 -0.4933  0.5490  2.2353
 1506SOL    HW215978   1.968   3.747   9.017 -1.2413  0.2012  0.1792
 1507SOL     OW15979   2.325   0.418   4.091 -0.8958 -0.2433  0.2928
 1507SOL    HW115980   2.328   0.438   4.185  1.6522 -2.3213  0.6452
 1507SOL    HW215981   2.332   0.322   4.084 -0.0602 -0.1683  0.1416
 1508SOL     OW15982   0.570   3.739   5.821 -0.2727  0.5273 -0.4163
 1508SOL    HW115983   0.575   3.792   5.901  0.9733  1.1670 -0.9181
 1508SOL    HW215984   0.654   3.763   5.781 -0.6616  0.2854 -1.3715
 1509SOL     OW15985   2.552   4.535   4.231  0.3954  0.3393 -0.3406
 1509SOL    HW115986   2.518   4.447   4.247  0.0861  0.1738 -1.8455
 1509SOL    HW215987   2.647   4.535   4.216  0.7767 -1.5797  2.1859
 1510SOL     OW15988   2.551   2.331   5.954 -0.0542 -0.2889 -0.0246
 1510SOL    HW115989   2.558   2.244   5.994 -1.8705 -1.1098 -1.5018
 1510SOL    HW215990   2.474   2.368   5.997  0.1092 -0.9039  0.8004
 1511SOL     OW15991   2.045   0.835  17.131 -0.3582 -0.2126 -0.0407
 1511SOL    HW115992   2.107   0.896  17.169 -1.1283  0.1508  0.6352
 1511SOL    HW215993   2.087   0.755  17.162 -2.8125 -1.2443  0.7038
 1512SOL     OW15994   4.573   3.907   4.794 -0.2212  0.9105  0.6149
 1512SOL    HW115995   4.548   3.958   4.872  0.8305  0.4876  1.2256
 1512SOL    HW215996   4.496   3.852   4.780  1.6275 -1.2746 -0.9002
 1513SOL     OW15997   3.570   4.162   2.935  0.2165  0.7353 -0.2839
 1513SOL    HW115998   3.664   4.179   2.921 -0.1675  2.1368 -1.1944
 1513SOL    HW215999   3.526   4.236   2.895 -0.1881  0.5658 -0.1522
 1514SOL     OW16000   3.482   3.112   4.163  0.1146 -0.3661 -0.4505
 1514SOL    HW116001   3.503   3.021   4.143  1.3808 -0.5552  1.6555
 1514SOL    HW216002   3.474   3.115   4.259 -1.1884  1.1139 -0.5977
 1515SOL     OW16003   4.337   0.844  17.205  0.2670 -0.2444 -0.2850
 1515SOL    HW116004   4.351   0.775  17.140  2.5066 -0.2723  0.2224
 1515SOL    HW216005   4.424   0.847  17.246  0.0458  1.6242  0.0735
 1516SOL     OW16006   3.129   4.596  15.971  0.2186  0.8889  0.0720
 1516SOL    HW116007   3.131   4.639  15.885 -3.0380  0.0431 -0.4117
 1516SOL    HW216008   3.044   4.629  15.999  0.8292  0.5063  2.3032
 1517SOL     OW16009   2.877   2.947  12.789  0.6916 -0.3378  0.3151
 1517SOL    HW116010   2.953   2.908  12.747 -0.3990 -2.3744  0.2307
 1517SOL    HW216011   2.853   2.871  12.841 -0.1275  1.3400  2.3825
 1518SOL     OW16012   2.205   3.215   7.063 -0.2488  0.2808 -0.5619
 1518SOL    HW116013   2.146   3.198   7.136 -1.0119  0.7361 -1.0700
 1518SOL    HW216014   2.254   3.282   7.110  0.9302 -0.8700 -0.1607
 1519SOL     OW16015   0.301   3.723  16.211  0.4261 -0.1386 -0.4584
 1519SOL    HW116016   0.236   3.788  16.184  1.0725  0.4841 -0.4802
 1519SOL    HW216017   0.317   3.744  16.302 -1.8596  4.8438 -1.2408
 1520SOL     OW16018   3.436   4.276  16.526 -0.0581  0.1731 -0.4195
 1520SOL    HW116019   3.377   4.349  16.509  1.9251  1.6933 -0.7388
 1520SOL    HW216020   3.405   4.260  16.615  3.3839  0.4104  0.8213
 1521SOL     OW16021   3.931   4.497   0.975 -0.0551  0.1258 -0.1962
 1521SOL    HW116022   3.939   4.580   1.022  0.0767 -0.0552  0.1019
 1521SOL    HW216023   3.900   4.435   1.041 -0.7671  0.4642 -0.2140
 1522SOL     OW16024   4.235   0.379  15.037 -0.5275 -0.4380 -0.2956
 1522SOL    HW116025   4.240   0.387  15.133 -1.0864  0.7188 -0.3627
 1522SOL    HW216026   4.265   0.288  15.034  1.2696  0.2161 -2.0746
 1523SOL     OW16027   3.493   0.921   3.578  0.0915 -0.5772  0.3685
 1523SOL    HW116028   3.413   0.961   3.544  0.3709 -0.4465 -0.1271
 1523SOL    HW216029   3.558   0.935   3.509  2.5954 -1.1058  2.6256
 1524SOL     OW16030   0.135   1.630   9.416 -0.6197 -0.0444 -0.1453
 1524SOL    HW116031   0.160   1.661   9.503  1.2801  0.5439 -0.8924
 1524SOL    HW216032   0.170   1.541   9.429 -1.9707 -0.1834  2.4541
 1525SOL     OW16033   4.706   1.015   5.509  0.7136  0.2083 -0.3853
 1525SOL    HW116034   4.690   0.921   5.502  0.8487  0.2156 -0.8552
 1525SOL    HW216035   4.685   1.026   5.601 -0.2067  0.5583 -0.6381
 1526SOL     OW16036   0.465   3.415   7.128  0.0372  0.0552  0.1016
 1526SOL    HW116037   0.385   3.373   7.158 -0.2981  1.7003  1.5008
 1526SOL    HW216038   0.468   3.483   7.195  1.6617 -0.4172  0.5099
 1527SOL     OW16039   3.553   4.004   0.382  0.3866 -0.9653 -0.4459
 1527SOL    HW116040   3.626   4.065   0.388  0.3127 -0.8506 -0.6920
 1527SOL    HW216041   3.489   4.075   0.386  0.7704 -0.5221 -2.1705
 1528SOL     OW16042   0.227   2.157  14.228 -0.0437 -0.3056  0.0925
 1528SOL    HW116043   0.315   2.172  14.192  0.2649 -0.4771  0.7742
 1528SOL    HW216044   0.196   2.239  14.265  0.5181 -0.8339  1.7290
 1529SOL     OW16045   4.367   2.609  16.755 -0.4704  0.9006 -0.0960
 1529SOL    HW116046   4.292   2.570  16.711 -0.8205  1.1322  0.3014
 1529SOL    HW216047   4.376   2.697  16.720  0.1098 -0.1831 -2.7481
 1530SOL     OW16048   3.736   1.277  14.325 -0.5283 -0.1118  0.4256
 1530SOL    HW116049   3.693   1.343  14.380  1.8893  1.8988 -0.0667
 1530SOL    HW216050   3.733   1.199  14.380  1.0401 -0.8081 -0.4868
 1531SOL     OW16051   0.968   3.983   3.510  0.3287  0.7330 -0.6432
 1531SOL    HW116052   0.907   3.957   3.441 -0.5323 -1.1444  0.7987
 1531SOL    HW216053   0.965   4.078   3.503  0.9498  0.8374  0.4313
 1532SOL     OW16054   4.386   0.514  13.850 -0.0940  0.4661  0.1974
 1532SOL    HW116055   4.376   0.599  13.892  1.1872 -0.2689  2.0060
 1532SOL    HW216056   4.423   0.464  13.923 -0.2585 -0.7144 -0.5276
 1533SOL     OW16057   2.131   2.248   9.389  0.4000  0.1461 -0.5328
 1533SOL    HW116058   2.068   2.274   9.456  0.4436 -0.6393 -0.1909
 1533SOL    HW216059   2.140   2.328   9.337  1.6316  0.0632 -0.4460
 1534SOL     OW16060   2.394   3.028   1.963  0.1185 -0.0958 -0.7099
 1534SOL    HW116061   2.351   2.947   1.935  0.2895 -0.0368 -1.1474
 1534SOL    HW216062   2.382   3.085   1.887  0.2890 -0.4432 -0.9973
 1535SOL     OW16063   2.503   3.040   2.249 -0.3292  0.4802 -0.0929
 1535SOL    HW116064   2.578   3.036   2.190  0.0429 -0.0658  0.4143
 1535SOL    HW216065   2.425   3.026   2.194  0.5277 -1.1646 -0.8904
 1536SOL     OW16066   3.037   3.801   9.723  0.0894 -1.0583 -0.4671
 1536SOL    HW116067   3.078   3.840   9.646 -0.5767  0.6643  0.0444
 1536SOL    HW216068   2.967   3.864   9.740  0.8502  0.1913 -1.9541
 1537SOL     OW16069   1.884   3.075   1.257 -0.5108 -0.0521  0.3011
 1537SOL    HW116070   1.889   3.012   1.186  0.1421  2.3475 -1.7959
 1537SOL    HW216071   1.978   3.090   1.269 -0.5985  2.1474 -1.7640
 1538SOL     OW16072   0.240   3.435   7.983  0.1531  0.1364  0.2343
 1538SOL    HW116073   0.174   3.464   7.919  1.0874  1.0903 -0.2972
 1538SOL    HW216074   0.190   3.420   8.063  0.2726 -0.5061  0.1844
 1539SOL     OW16075   1.523   2.063   5.603 -0.4373  0.6396  0.3604
 1539SOL    HW116076   1.593   2.127   5.593  1.3516 -1.1061  1.8738
 1539SOL    HW216077   1.576   1.986   5.620 -2.5195 -1.1134 -1.0046
 1540SOL     OW16078   3.457   1.610   2.585  0.0200 -0.0597  0.6746
 1540SOL    HW116079   3.379   1.644   2.628  0.5568  0.4171  1.2729
 1540SOL    HW216080   3.421   1.607   2.496 -0.8385 -3.0074  1.0977
 1541SOL     OW16081   0.748   0.282   1.280  0.1085 -0.1418  0.5979
 1541SOL    HW116082   0.705   0.306   1.362 -1.7682  0.7098 -0.6389
 1541SOL    HW216083   0.794   0.363   1.256  0.0835 -0.6944 -1.3793
 1542SOL     OW16084   0.074   0.630  15.972  0.4658 -0.0232 -0.2809
 1542SOL    HW116085   0.138   0.627  15.902  1.2498 -0.0993  0.4331
 1542SOL    HW216086   0.056   0.724  15.976 -1.6584 -0.3943 -1.1022
 1543SOL     OW16087   3.491   4.022   1.699 -0.5239  0.7572 -0.1006
 1543SOL    HW116088   3.526   3.943   1.740 -2.5326  0.6207  1.3252
 1543SOL    HW216089   3.578   4.060   1.686 -0.9798  2.2584  1.2266
 1544SOL     OW16090   1.291   4.455  12.635 -0.6323 -0.1526  0.0707
 1544SOL    HW116091   1.288   4.378  12.691  0.0107  2.0374  3.1127
 1544SOL    HW216092   1.331   4.412  12.559  1.0987  2.6214 -0.6155
 1545SOL     OW16093   2.827   3.919   5.960 -0.1059 -0.4033  0.1662
 1545SOL    HW116094   2.774   3.999   5.959 -1.6923 -1.4580 -0.0701
 1545SOL    HW216095   2.853   3.920   6.052 -1.4385 -1.8334  0.5523
 1546SOL     OW16096   0.328   1.492  13.453 -0.2843 -0.0575 -0.4925
 1546SOL    HW116097   0.296   1.558  13.514  3.5074  1.6203 -0.3117
 1546SOL    HW216098   0.401   1.454  13.502 -2.5745 -0.8433  2.3316
 1547SOL     OW16099   3.125   3.890   8.769  0.0567  0.1948  0.5698
 1547SOL    HW116100   3.166   3.971   8.797  3.5021 -0.7127 -1.9714
 1547SOL    HW216101   3.039   3.890   8.813  0.1233 -2.1402  0.7448
 1548SOL     OW16102   4.254   3.085   2.567 -0.2296 -0.7146  0.2377
 1548SOL    HW116103   4.243   2.990   2.560 -1.1022 -0.5297 -1.0266
 1548SOL    HW216104   4.321   3.080   2.634  1.0234  1.3636 -0.8682
 1549SOL     OW16105   0.310   1.677   7.369  0.4350 -0.3921 -0.3815
 1549SOL    HW116106   0.280   1.705   7.283 -1.0645 -0.6688  0.0552
 1549SOL    HW216107   0.305   1.754   7.427  3.0727 -0.8263  0.4649
 1550SOL     OW16108   2.445   0.003   0.779 -0.3288  0.3482  0.4911
 1550SOL    HW116109   2.532   0.011   0.816  0.0001 -2.5378  0.3256
 1550SOL    HW216110   2.408   0.079   0.824 -0.3543 -0.7556  2.2938
 1551SOL     OW16111   1.958   2.954   0.180  0.1029 -0.1551 -0.2501
 1551SOL    HW116112   1.888   2.889   0.171 -0.0786  0.2815 -1.9887
 1551SOL    HW216113   1.955   3.011   0.103  1.8527  0.4477  0.1387
 1552SOL     OW16114   0.016   0.762   6.239 -0.5518 -0.1311  0.9385
 1552SOL    HW116115   4.702   0.770   6.328 -0.6444 -2.1691  1.0828
 1552SOL    HW216116   0.072   0.685   6.246  0.3417  0.2286 -2.0360
 1553SOL     OW16117   4.701   1.644   8.961  0.1068  0.4064  0.4066
 1553SOL    HW116118   0.073   1.667   8.961  0.8456 -2.5110 -0.2072
 1553SOL    HW216119   4.696   1.555   8.926  0.2149  0.2914  0.6825
 1554SOL     OW16120   0.867   4.134   2.417  0.3833  0.1946 -0.2187
 1554SOL    HW116121   0.954   4.095   2.417 -0.1191 -0.9369 -0.3892
 1554SOL    HW216122   0.813   4.078   2.473  2.1451 -1.9631 -0.6617
 1555SOL     OW16123   2.946   2.532   8.151 -0.2060  0.6191 -0.2793
 1555SOL    HW116124   3.032   2.490   8.142 -0.1350  0.2601  1.9854
 1555SOL    HW216125   2.974   2.624   8.148  2.7943 -0.2769 -0.2035
 1556SOL     OW16126   4.298   1.428   4.154 -0.0747 -0.5445 -0.3681
 1556SOL    HW116127   4.325   1.399   4.067 -0.9928 -3.2025  0.2413
 1556SOL    HW216128   4.205   1.446   4.148 -0.0954 -0.0346  1.4983
 1557SOL     OW16129   2.474   2.608   5.852  0.0082  0.0501 -0.4524
 1557SOL    HW116130   2.403   2.584   5.911  1.3536 -1.1833  0.6886
 1557SOL    HW216131   2.508   2.521   5.831 -0.2440 -0.7153  2.3421
 1558SOL     OW16132   2.469   1.218   2.469  0.7633 -0.1121  0.2302
 1558SOL    HW116133   2.502   1.275   2.399  3.4602 -1.3832  0.4753
 1558SOL    HW216134   2.525   1.225   2.546  0.1347  2.3327  0.4675
 1559SOL     OW16135   1.701   2.727   6.482  0.4015 -0.1056 -0.0522
 1559SOL    HW116136   1.781   2.755   6.437 -0.0742 -1.0617 -1.4935
 1559SOL    HW216137   1.680   2.802   6.537  0.3623 -0.3587  0.2760
 1560SOL     OW16138   1.187   4.039   3.747 -0.0351  0.1063 -0.3377
 1560SOL    HW116139   1.197   3.958   3.797 -1.9127  1.1245  1.6608
 1560SOL    HW216140   1.255   4.024   3.681 -0.7582 -1.2698 -0.7907
 1561SOL     OW16141   1.026   0.288   3.926 -0.0507  0.2577  0.0973
 1561SOL    HW116142   1.042   0.350   3.855  1.6904 -0.4212 -0.1163
 1561SOL    HW216143   1.014   0.212   3.868 -1.2684 -0.0352  0.7288
 1562SOL     OW16144   2.519   2.735   2.686  0.0803 -0.7068  0.3837
 1562SOL    HW116145   2.486   2.646   2.680 -1.5092 -0.0991  0.2302
 1562SOL    HW216146   2.510   2.750   2.780  1.9405  0.3999  0.4006
 1563SOL     OW16147   3.713   1.083   3.947  0.1912 -0.1780  0.5597
 1563SOL    HW116148   3.636   1.045   3.904 -0.3353 -1.0328  2.2192
 1563SOL    HW216149   3.728   1.157   3.890  1.5421 -0.9128 -0.0316
 1564SOL     OW16150   0.485   2.962   4.588  0.4601  0.1345 -0.1455
 1564SOL    HW116151   0.484   2.915   4.671  2.0368 -1.9421 -1.3214
 1564SOL    HW216152   0.402   3.009   4.589 -0.5021 -1.5777 -0.0530
 1565SOL     OW16153   1.349   3.822   5.323  0.1289 -0.6241 -0.0882
 1565SOL    HW116154   1.384   3.827   5.234 -2.9799  2.0688 -1.1614
 1565SOL    HW216155   1.375   3.732   5.341 -0.2650 -0.5033  1.1209
 1566SOL     OW16156   3.094   1.455  10.185  0.5121 -0.0258 -0.0900
 1566SOL    HW116157   3.186   1.448  10.158  0.1867 -2.3191 -0.6004
 1566SOL    HW216158   3.073   1.548  10.197  1.4028  0.2925 -0.9258
 1567SOL     OW16159   2.332   4.364  14.702 -0.0290  0.4727  0.0853
 1567SOL    HW116160   2.295   4.276  14.710  0.1692  0.2137 -2.0335
 1567SOL    HW216161   2.413   4.357  14.752  1.0483 -0.8293 -1.8567
 1568SOL     OW16162   0.828   2.728   4.120 -0.0187 -0.5000  0.5778
 1568SOL    HW116163   0.742   2.766   4.140 -0.3348  0.8067 -3.2873
 1568SOL    HW216164   0.836   2.727   4.025  2.6851  0.2627  0.8084
 1569SOL     OW16165   4.128   0.136   1.957 -0.3196 -0.0398  0.5851
 1569SOL    HW116166   4.195   0.104   1.896 -0.9425 -0.5517  0.1701
 1569SOL    HW216167   4.051   0.093   1.920  0.0269 -0.8523  0.7956
 1570SOL     OW16168   4.638   3.553   0.646  0.0397 -0.1091  0.2754
 1570SOL    HW116169   4.566   3.609   0.617 -0.3078 -1.2222 -1.0262
 1570SOL    HW216170   4.630   3.562   0.741  0.3114 -0.5932  0.3447
 1571SOL     OW16171   4.189   2.146  10.542  0.0413 -0.6610  0.2457
 1571SOL    HW116172   4.104   2.186  10.528  0.6485  0.7100  0.5420
 1571SOL    HW216173   4.216   2.123  10.453  1.3998  2.8261 -0.2482
 1572SOL     OW16174   0.194   1.755   6.247  0.3764 -0.0518 -0.0792
 1572SOL    HW116175   0.163   1.844   6.227 -2.0356 -0.3194  2.5349
 1572SOL    HW216176   0.136   1.719   6.181  0.1039  0.0863  0.0839
 1573SOL     OW16177   2.202   0.952   9.651 -0.3860  0.1290 -0.4003
 1573SOL    HW116178   2.188   1.041   9.681  0.2306  0.0243  0.1947
 1573SOL    HW216179   2.291   0.931   9.678 -1.3024 -0.0735  2.4354
 1574SOL     OW16180   0.838   1.230   7.588  0.2397  0.0507 -0.2111
 1574SOL    HW116181   0.823   1.138   7.608 -2.1004  0.4743 -0.1042
 1574SOL    HW216182   0.759   1.263   7.546  0.0462  0.3004  0.3481
 1575SOL     OW16183   1.198   2.590   9.222  0.1429  0.6935 -0.0952
 1575SOL    HW116184   1.285   2.558   9.201 -1.5461 -2.4214 -2.2611
 1575SOL    HW216185   1.210   2.593   9.317  0.2410  1.3967 -0.1292
 1576SOL     OW16186   2.509   0.384   0.588  0.7547  0.0717  0.3644
 1576SOL    HW116187   2.447   0.319   0.622  0.6749 -0.2730 -0.4378
 1576SOL    HW216188   2.481   0.464   0.632 -0.1128  0.2700 -0.5544
 1577SOL     OW16189   2.060   1.972  17.134 -0.2415 -0.7539 -0.1887
 1577SOL    HW116190   1.992   2.023  17.090  0.6101  1.1633  0.7244
 1577SOL    HW216191   2.028   1.972  17.224  1.7667 -3.3781  0.5163
 1578SOL     OW16192   0.217   0.276  10.276 -0.2193  0.3570 -0.4809
 1578SOL    HW116193   0.271   0.321  10.342  2.0555 -0.2658 -1.9207
 1578SOL    HW216194   0.199   0.344  10.212 -3.6244  0.2259  0.3055
 1579SOL     OW16195   0.763   2.185   7.543 -0.3241 -0.2087  0.5180
 1579SOL    HW116196   0.762   2.277   7.517 -3.5086  0.0410  1.5046
 1579SOL    HW216197   0.842   2.162   7.495 -0.6908 -0.0368 -0.1669
 1580SOL     OW16198   0.790   1.967   4.403  0.3933  0.7162  0.3993
 1580SOL    HW116199   0.842   1.898   4.443  1.7588  2.0962  1.0031
 1580SOL    HW216200   0.728   1.983   4.474 -0.4880  2.1818 -0.6871
 1581SOL     OW16201   1.091   2.724  12.231 -0.2198  1.1421 -0.4093
 1581SOL    HW116202   1.001   2.697  12.247  0.1777 -1.2053 -2.1437
 1581SOL    HW216203   1.083   2.819  12.232  4.9988  1.5723  0.7937
 1582SOL     OW16204   1.219   3.632   7.467  0.3344 -0.0675 -0.1275
 1582SOL    HW116205   1.139   3.629   7.413 -0.8230  2.6602  1.4156
 1582SOL    HW216206   1.241   3.539   7.463 -0.1792 -0.1530 -1.2575
 1583SOL     OW16207   2.666   3.828  11.027 -1.1144  0.1466  0.8433
 1583SOL    HW116208   2.657   3.913  11.071  0.0201 -0.6888  2.6913
 1583SOL    HW216209   2.578   3.790  11.037 -1.4589  0.7522  0.1567
 1584SOL     OW16210   0.346   2.057   2.786 -0.0119 -0.6738 -0.4808
 1584SOL    HW116211   0.417   2.080   2.726  0.2719 -1.3156 -0.3961
 1584SOL    HW216212   0.304   2.139   2.812 -0.0032 -1.1828  1.1389
 1585SOL     OW16213   1.124   1.769   9.687 -0.3689  0.1391  0.3244
 1585SOL    HW116214   1.077   1.695   9.650 -1.6881  1.2054 -0.1287
 1585SOL    HW216215   1.158   1.819   9.613  0.8932 -0.1298  0.7222
 1586SOL     OW16216   0.669   3.829   7.736 -0.0719  0.1852  0.4880
 1586SOL    HW116217   0.612   3.870   7.802 -2.5356 -2.6412  0.1256
 1586SOL    HW216218   0.634   3.878   7.662  2.5321 -1.3859 -1.7472
 1587SOL     OW16219   1.837   1.041   5.901 -0.6224  0.3704 -0.5445
 1587SOL    HW116220   1.906   1.080   5.954 -1.2376  0.2675  0.3216
 1587SOL    HW216221   1.776   1.113   5.923 -1.7413 -0.0128 -2.3502
 1588SOL     OW16222   0.716   2.739   4.699  0.0319  0.0045  0.0232
 1588SOL    HW116223   0.734   2.687   4.621  0.7552  0.3967 -0.0697
 1588SOL    HW216224   0.621   2.725   4.701 -0.0532  0.4694 -0.5982
 1589SOL     OW16225   0.505   0.635   8.077 -0.1479 -0.1528 -0.3252
 1589SOL    HW116226   0.564   0.656   8.150  0.8916  0.5506 -1.3666
 1589SOL    HW216227   0.565   0.582   8.024  1.0723  0.9139 -0.0053
 1590SOL     OW16228   0.597   3.543   3.403  0.0969 -0.2288 -0.0703
 1590SOL    HW116229   0.523   3.537   3.344 -0.1695 -0.3951  0.2807
 1590SOL    HW216230   0.578   3.470   3.461 -0.0136 -0.1459 -0.0015
 1591SOL     OW16231   3.663   1.218   2.762 -0.3167  0.0896 -0.2319
 1591SOL    HW116232   3.589   1.230   2.702 -0.4154 -0.2347 -0.1775
 1591SOL    HW216233   3.708   1.301   2.748 -1.6316  0.8467  0.0784
 1592SOL     OW16234   0.574   0.758   8.319 -0.2528 -0.1891 -0.4374
 1592SOL    HW116235   0.523   0.832   8.287 -3.3127 -2.2453 -0.3309
 1592SOL    HW216236   0.611   0.804   8.395  0.9049 -1.0334 -0.4942
 1593SOL     OW16237   0.326   0.838   4.544  0.3324 -0.2462 -0.7862
 1593SOL    HW116238   0.375   0.913   4.510  0.1642 -0.2570 -1.0535
 1593SOL    HW216239   0.233   0.862   4.534  0.4382  1.3799  2.0157
 1594SOL     OW16240   1.856   3.202   7.545  0.4520  0.3122  0.0594
 1594SOL    HW116241   1.771   3.246   7.542 -0.2361 -0.9972  0.2276
 1594SOL    HW216242   1.909   3.272   7.584  0.7575  0.8864 -1.4000
 1595SOL     OW16243   0.924   4.096   1.171  0.0792  0.0441 -0.1471
 1595SOL    HW116244   0.949   4.005   1.156  0.2082  0.1754 -0.7285
 1595SOL    HW216245   0.976   4.107   1.251 -0.6661  0.3064  0.3000
 1596SOL     OW16246   4.536   0.060   6.049 -0.5165 -0.4028  0.0202
 1596SOL    HW116247   4.504   4.695   6.021  1.1139 -0.1937 -2.4963
 1596SOL    HW216248   4.510   0.108   5.970  0.4089  2.0455  1.1969
 1597SOL     OW16249   3.332   3.486   3.678  0.0856  0.5571 -0.0336
 1597SOL    HW116250   3.262   3.486   3.613  0.6972  0.9169 -0.6969
 1597SOL    HW216251   3.371   3.572   3.666 -0.5329  0.9679  0.9296
 1598SOL     OW16252   0.069   3.116   9.395  0.0297 -0.5169  0.2368
 1598SOL    HW116253   0.113   3.160   9.468  2.5374 -0.8206 -1.0712
 1598SOL    HW216254   0.005   3.184   9.373  1.5099  1.5738  2.3008
 1599SOL     OW16255   2.410   2.165   7.326 -0.1460 -0.5549 -0.1027
 1599SOL    HW116256   2.353   2.159   7.249 -0.1004 -0.3579 -0.1513
 1599SOL    HW216257   2.391   2.081   7.369 -0.5027 -0.7557 -0.6443
 1600SOL     OW16258   1.979   1.942  14.094 -0.3344 -0.2232 -0.2715
 1600SOL    HW116259   1.912   1.874  14.103 -0.4836 -0.0267  0.1057
 1600SOL    HW216260   1.932   2.000  14.154 -0.1340 -0.7764  0.4236
 1601SOL     OW16261   4.636   0.449  12.250 -0.1826 -0.1092 -0.1236
 1601SOL    HW116262   4.588   0.372  12.219 -0.6531  0.4041 -0.6884
 1601SOL    HW216263   0.004   0.442  12.214 -0.2546  2.2793 -0.8043
 1602SOL     OW16264   2.408   4.091   3.140  0.0500 -0.2441 -0.7456
 1602SOL    HW116265   2.351   4.094   3.062 -1.9027  1.0100  0.7342
 1602SOL    HW216266   2.355   4.140   3.202  1.0781  1.3935 -1.1662
 1603SOL     OW16267   2.831   0.949   3.415  1.6413  0.4178  0.3861
 1603SOL    HW116268   2.861   0.959   3.505  1.1778  2.1546  0.3444
 1603SOL    HW216269   2.850   1.037   3.383 -0.1647  0.9342  0.7105
 1604SOL     OW16270   2.633   4.663   3.438 -0.0938  0.3876 -0.0567
 1604SOL    HW116271   2.642   4.587   3.496  2.0825 -1.2659 -2.5040
 1604SOL    HW216272   2.657   4.616   3.357 -2.7367  0.2551 -0.7487
 1605SOL     OW16273   0.940   2.255   9.181  1.0061 -0.4372 -0.1213
 1605SOL    HW116274   1.011   2.283   9.239  0.8403  0.6885 -0.4638
 1605SOL    HW216275   0.950   2.321   9.112  1.1304 -1.0332 -0.6866
 1606SOL     OW16276   2.518   2.333   9.650 -0.0048  0.2505  0.1843
 1606SOL    HW116277   2.548   2.369   9.733  1.2772 -0.7401  0.1747
 1606SOL    HW216278   2.576   2.257   9.638  0.9208  1.2030 -1.4950
 1607SOL     OW16279   1.773   3.109   5.585  0.4520 -0.2816  0.6324
 1607SOL    HW116280   1.744   3.147   5.502  1.5196 -0.1449  0.3231
 1607SOL    HW216281   1.739   3.170   5.651 -0.1848 -0.2374  0.2593
 1608SOL     OW16282   3.786   2.770   5.536 -0.1376  0.0167 -0.1357
 1608SOL    HW116283   3.737   2.704   5.488 -0.4292  1.3618 -1.7086
 1608SOL    HW216284   3.875   2.752   5.507 -0.4984 -0.0219 -1.2255
 1609SOL     OW16285   1.980   3.127   8.596  0.2425 -0.1884 -0.4581
 1609SOL    HW116286   1.950   3.037   8.608 -0.1859 -0.2512 -2.0145
 1609SOL    HW216287   2.075   3.116   8.600  0.5014  1.6409 -1.7787
 1610SOL     OW16288   1.996   2.438  12.581 -0.3083  0.9914  0.6709
 1610SOL    HW116289   2.023   2.474  12.665 -0.6522  1.0129  0.7713
 1610SOL    HW216290   1.928   2.504  12.563 -0.7011  0.4467  0.1590
 1611SOL     OW16291   1.717   1.680   1.106  0.8320  0.5989  0.6424
 1611SOL    HW116292   1.635   1.642   1.137  1.4720 -1.9240 -0.8025
 1611SOL    HW216293   1.686   1.728   1.029  0.7260  0.7766  0.7963
 1612SOL     OW16294   2.127   3.400  10.529 -0.3641  0.4328  0.2751
 1612SOL    HW116295   2.055   3.410  10.467 -1.3534  0.1099  1.3750
 1612SOL    HW216296   2.095   3.454  10.601  1.2276  0.9597  0.6027
 1613SOL     OW16297   4.647   0.572   6.012  0.1236  0.2166 -0.3849
 1613SOL    HW116298   4.596   0.491   6.015 -0.5230  0.6494  0.3502
 1613SOL    HW216299   4.695   0.561   6.094 -0.9865 -1.5410  0.0289
 1614SOL     OW16300   3.817   4.291   3.582 -0.3238  0.5399  0.1080
 1614SOL    HW116301   3.885   4.313   3.518 -2.3279 -0.8532 -2.5016
 1614SOL    HW216302   3.771   4.222   3.535 -0.6428  1.6411 -1.1777
 1615SOL     OW16303   1.310   4.240   3.375  0.2748 -0.5710 -0.4053
 1615SOL    HW116304   1.290   4.269   3.286 -0.5675 -0.0400 -0.0402
 1615SOL    HW216305   1.287   4.149   3.356 -0.0560 -0.5764  0.0297
 1616SOL     OW16306   3.860   4.169   4.409 -0.1646 -0.3181  0.0445
 1616SOL    HW116307   3.792   4.217   4.456  0.7372  2.1794 -1.2122
 1616SOL    HW216308   3.881   4.228   4.337 -0.9269  1.0026  0.8872
 1617SOL     OW16309   3.633   3.808   3.363  0.5235 -0.5614 -0.1007
 1617SOL    HW116310   3.553   3.782   3.318  0.1771  0.8049 -0.2819
 1617SOL    HW216311   3.684   3.821   3.283 -0.8716  1.0883 -0.7340
 1618SOL     OW16312   0.862   4.064  15.035  0.5517 -0.1366  0.0251
 1618SOL    HW116313   0.913   4.017  14.969  2.3258  0.4357  1.0042
 1618SOL    HW216314   0.880   4.156  15.015 -0.1671  0.3201  1.5313
 1619SOL     OW16315   3.048   0.694   5.385 -0.5495 -0.0534 -0.2953
 1619SOL    HW116316   3.042   0.771   5.329 -2.4816 -1.1883 -1.6166
 1619SOL    HW216317   3.081   0.623   5.330  2.4139  3.8110 -3.5062
 1620SOL     OW16318   2.389   3.190   7.387  0.0428 -0.2553  0.1807
 1620SOL    HW116319   2.421   3.128   7.451  1.0969 -0.1164 -0.2087
 1620SOL    HW216320   2.447   3.174   7.312  0.9061  0.6112  0.6537
 1621SOL     OW16321   2.178   2.862  12.795 -0.0244  0.1878 -0.7392
 1621SOL    HW116322   2.085   2.877  12.813 -0.0281  0.6092 -1.1165
 1621SOL    HW216323   2.212   2.945  12.762 -0.0977  0.7297  0.5285
 1622SOL     OW16324   2.146   4.149   4.776  0.3355 -0.3733  0.0667
 1622SOL    HW116325   2.170   4.057   4.787 -0.0047 -0.4127  0.5165
 1622SOL    HW216326   2.071   4.158   4.836 -0.9586  1.5963 -1.8431
 1623SOL     OW16327   1.318   3.695   6.513  0.0923  0.0295  0.5106
 1623SOL    HW116328   1.293   3.784   6.537 -1.7440 -0.2699 -0.2737
 1623SOL    HW216329   1.239   3.643   6.529 -0.5753  0.2717 -1.9273
 1624SOL     OW16330   2.092   1.622   5.149 -0.1737  0.0807 -0.0995
 1624SOL    HW116331   2.144   1.542   5.139  1.8898  1.3298  0.6176
 1624SOL    HW216332   2.128   1.688   5.090  0.1428 -1.6544 -1.8831
 1625SOL     OW16333   0.674   1.746   7.591  0.2005  0.0793  0.5248
 1625SOL    HW116334   0.622   1.817   7.555  2.1723  1.8239  1.1287
 1625SOL    HW216335   0.672   1.765   7.685  0.7416  1.1740  0.3137
 1626SOL     OW16336   0.425   4.355   4.086 -0.4150 -0.2617  0.5075
 1626SOL    HW116337   0.399   4.263   4.077 -6.5705  1.2144  2.7037
 1626SOL    HW216338   0.345   4.401   4.112 -0.5081 -1.2380  1.9307
 1627SOL     OW16339   2.726   2.690   2.521 -0.1047 -0.6308 -0.1822
 1627SOL    HW116340   2.638   2.692   2.558 -0.3532  0.5839 -0.8274
 1627SOL    HW216341   2.701   2.638   2.445  2.4542  0.1054 -1.5428
 1628SOL     OW16342   0.054   1.531   1.084 -0.2543 -0.0035 -0.0218
 1628SOL    HW116343   0.118   1.498   1.147  0.4199 -1.3173 -1.3755
 1628SOL    HW216344   0.061   1.626   1.076  1.7283 -0.1808 -0.5433
 1629SOL     OW16345   2.099   3.217  16.603  0.2207  0.2912 -0.6739
 1629SOL    HW116346   2.059   3.222  16.690  2.1894 -1.4384  0.3553
 1629SOL    HW216347   2.029   3.179  16.550  0.2203 -1.2872  0.4540
 1630SOL     OW16348   3.582   1.337  16.465 -0.1242  0.3713  0.1021
 1630SOL    HW116349   3.499   1.293  16.445 -0.4406  1.0854 -0.1825
 1630SOL    HW216350   3.634   1.257  16.474 -2.6900 -1.1724  1.1162
 1631SOL     OW16351   2.120   0.795   3.199 -0.0649 -0.1144 -0.0370
 1631SOL    HW116352   2.099   0.743   3.122  0.6493 -0.9472  0.3278
 1631SOL    HW216353   2.136   0.727   3.264  1.3660 -0.0944 -0.3583
 1632SOL     OW16354   3.494   3.483   8.053 -0.7359 -0.4139 -0.1778
 1632SOL    HW116355   3.538   3.568   8.064  0.7835 -0.7944 -3.3462
 1632SOL    HW216356   3.428   3.487   8.122 -0.8683 -0.4870 -0.2997
 1633SOL     OW16357   4.425   4.227  15.359  0.6006  0.0441 -0.3427
 1633SOL    HW116358   4.408   4.170  15.284 -1.1094  0.9686 -0.6513
 1633SOL    HW216359   4.515   4.204  15.383 -0.1975 -2.2183  0.5139
 1634SOL     OW16360   2.599   3.244   6.143  0.1949 -0.0015 -0.1173
 1634SOL    HW116361   2.578   3.216   6.054 -1.7708  0.5566  0.1886
 1634SOL    HW216362   2.521   3.227   6.195 -0.9261  4.7183 -0.2922
 1635SOL     OW16363   2.250   0.546  13.766 -0.2647 -0.5698  0.3797
 1635SOL    HW116364   2.288   0.482  13.825 -2.8935 -3.0533 -0.6052
 1635SOL    HW216365   2.161   0.512  13.754  0.0159 -2.2422  3.1254
 1636SOL     OW16366   3.623   3.537   4.025  0.1274 -0.5841  1.1148
 1636SOL    HW116367   3.572   3.544   4.105  0.7879  1.2461  1.3722
 1636SOL    HW216368   3.631   3.442   4.018 -0.6762 -0.7130  1.9542
 1637SOL     OW16369   2.940   0.671   2.437 -0.6226  0.6299 -0.5286
 1637SOL    HW116370   2.960   0.748   2.384  0.3758  0.0941 -0.9180
 1637SOL    HW216371   2.964   0.598   2.380  0.4674  0.3240  0.3337
 1638SOL     OW16372   1.401   4.027   3.568  0.4284 -0.3486  0.1303
 1638SOL    HW116373   1.374   3.936   3.556  1.1184 -0.7463  1.5880
 1638SOL    HW216374   1.471   4.027   3.502 -0.1282 -0.3441 -0.4557
 1639SOL     OW16375   0.137   1.715   3.147 -0.2624 -0.1663 -0.2336
 1639SOL    HW116376   0.213   1.673   3.108  0.5726  1.0198  0.1198
 1639SOL    HW216377   0.080   1.726   3.070  0.0740  0.5480 -0.3746
 1640SOL     OW16378   1.402   2.165   7.263  0.5884 -0.0421  0.5005
 1640SOL    HW116379   1.473   2.141   7.323  0.5876 -0.4288  0.3466
 1640SOL    HW216380   1.419   2.130   7.175 -1.5471 -0.4448  0.2406
 1641SOL     OW16381   1.017   0.322  17.174  0.2416  0.0148  0.2668
 1641SOL    HW116382   0.989   0.268  17.101 -0.1302 -0.1198  0.5114
 1641SOL    HW216383   1.059   0.394  17.126 -0.9259 -0.1536 -0.9888
 1642SOL     OW16384   4.495   1.911   9.348 -0.1355  0.1923  0.5830
 1642SOL    HW116385   4.569   1.963   9.378  1.0390 -0.9101 -0.4146
 1642SOL    HW216386   4.424   1.961   9.389 -1.5276 -1.8913  0.7100
 1643SOL     OW16387   1.991   1.526  11.108  0.7012  0.3636 -0.5371
 1643SOL    HW116388   1.918   1.505  11.167 -1.1606  0.9575 -2.6266
 1643SOL    HW216389   2.063   1.544  11.168 -0.0871  1.0901  0.1893
 1644SOL     OW16390   1.381   4.071   4.661 -0.0015  0.3353  0.2958
 1644SOL    HW116391   1.433   4.055   4.582  0.1591 -0.5577  0.5816
 1644SOL    HW216392   1.297   4.089   4.620  0.3308 -0.1098 -0.5816
 1645SOL     OW16393   4.260   3.503   0.709  0.6748 -0.0751  0.0200
 1645SOL    HW116394   4.313   3.430   0.742  1.8347  0.7474 -0.0270
 1645SOL    HW216395   4.324   3.573   0.700  1.8382 -1.3352 -1.6421
 1646SOL     OW16396   1.160   3.896   2.040  0.4436  0.3410 -0.2345
 1646SOL    HW116397   1.123   3.981   2.017 -1.0042 -0.5519 -1.2045
 1646SOL    HW216398   1.103   3.870   2.112  1.0764 -2.5178 -0.7969
 1647SOL     OW16399   1.200   2.921   2.371 -0.0836  0.1835  0.2079
 1647SOL    HW116400   1.161   2.849   2.321  1.6737  1.8716 -3.5994
 1647SOL    HW216401   1.289   2.936   2.340 -0.5804  0.7700 -0.9338
 1648SOL     OW16402   4.513   1.068   7.208  0.2161 -0.0123  0.7528
 1648SOL    HW116403   4.592   1.027   7.173 -0.2736  0.8411 -1.2976
 1648SOL    HW216404   4.544   1.128   7.276 -0.6659  1.4096 -0.0943
 1649SOL     OW16405   1.720   0.030   3.064  0.4283  0.0549  0.2888
 1649SOL    HW116406   1.715   4.691   2.989 -0.1082 -0.0925  0.4493
 1649SOL    HW216407   1.702   4.695   3.140  1.8328 -4.4007 -2.5826
 1650SOL     OW16408   3.359   2.242   6.819 -0.3788  0.3612 -0.1484
 1650SOL    HW116409   3.333   2.304   6.751 -2.4051  1.4849  1.6400
 1650SOL    HW216410   3.300   2.257   6.893 -2.0793 -1.6983 -1.0979
 1651SOL     OW16411   0.963   2.690   1.187  0.0382  0.1052 -1.1602
 1651SOL    HW116412   0.880   2.646   1.206 -0.0254 -0.1516 -2.0437
 1651SOL    HW216413   0.977   2.734   1.270  1.5048 -1.3523 -0.6208
 1652SOL     OW16414   1.664   0.606   8.583 -0.1293  0.5411 -0.2032
 1652SOL    HW116415   1.609   0.529   8.574  1.0761 -0.1918 -1.3338
 1652SOL    HW216416   1.595   0.672   8.594 -1.5048 -1.1514  1.2493
 1653SOL     OW16417   0.760   4.295   9.497 -0.1406 -0.0049  0.1217
 1653SOL    HW116418   0.842   4.341   9.479  0.7248 -1.8064 -0.4749
 1653SOL    HW216419   0.730   4.330   9.581  1.3100  0.0730  0.6026
 1654SOL     OW16420   0.632   3.050   4.350 -0.2366  0.4350 -0.0708
 1654SOL    HW116421   0.590   3.014   4.429  0.2408  1.0681  0.4715
 1654SOL    HW216422   0.577   2.998   4.292 -1.2622  0.7600  0.5985
 1655SOL     OW16423   3.834   3.242   2.967 -0.6023  0.9266 -0.5764
 1655SOL    HW116424   3.863   3.152   2.953 -2.8329  0.1231 -0.0865
 1655SOL    HW216425   3.754   3.206   3.005  0.1681  0.5890  0.7299
 1656SOL     OW16426   4.018   3.206   8.565 -0.2203  0.1512 -0.4920
 1656SOL    HW116427   3.998   3.159   8.484 -2.4974  0.7604 -0.3001
 1656SOL    HW216428   4.092   3.256   8.531 -0.7491  0.0038 -1.8638
 1657SOL     OW16429   1.636   4.381  12.663 -0.1767  0.1629  0.1941
 1657SOL    HW116430   1.670   4.436  12.592 -2.2460  1.3798  0.1435
 1657SOL    HW216431   1.558   4.343  12.623 -0.3604  0.9403 -0.1877
 1658SOL     OW16432   0.271   3.447   4.126 -0.0274 -0.1809 -0.5271
 1658SOL    HW116433   0.330   3.493   4.186 -1.1836 -1.6081  1.7139
 1658SOL    HW216434   0.338   3.394   4.084  0.5065  1.3411 -1.5880
 1659SOL     OW16435   0.534   1.354  13.573 -0.0306 -0.7549  0.3353
 1659SOL    HW116436   0.547   1.262  13.550 -0.1994 -0.6432 -0.2153
 1659SOL    HW216437   0.620   1.386  13.546  0.0472 -1.9075 -0.8059
 1660SOL     OW16438   4.546   3.313   1.213 -0.0554 -0.0911  0.3334
 1660SOL    HW116439   4.515   3.236   1.261 -1.3500  1.5060  2.0079
 1660SOL    HW216440   4.629   3.279   1.177  0.8942  2.1482  0.4332
 1661SOL     OW16441   2.656   3.523   3.577 -0.0263  0.1774  0.7044
 1661SOL    HW116442   2.637   3.591   3.513  0.1211 -0.0573  0.4079
 1661SOL    HW216443   2.692   3.567   3.654 -1.5219  0.5864  1.1741
 1662SOL     OW16444   3.389   1.001   4.446 -0.2671 -0.3598  0.2326
 1662SOL    HW116445   3.460   0.979   4.385 -0.5121 -1.2838  0.2799
 1662SOL    HW216446   3.403   0.925   4.503  3.0165 -0.6456 -0.9241
 1663SOL     OW16447   3.208   2.986  12.978  0.1314  1.0774  0.0016
 1663SOL    HW116448   3.274   2.933  13.023 -0.9060  2.1192  2.7611
 1663SOL    HW216449   3.176   3.038  13.052  2.6180  4.0229 -1.0191
 1664SOL     OW16450   2.497   3.609   1.657 -0.1684  0.6689  0.2399
 1664SOL    HW116451   2.481   3.612   1.563  1.3717  0.4722 -0.0316
 1664SOL    HW216452   2.473   3.519   1.676 -0.6826  0.3519 -1.9771
 1665SOL     OW16453   0.416   0.778   3.930  0.6697 -0.4944 -0.0498
 1665SOL    HW116454   0.478   0.705   3.938  0.2126 -0.8481  0.2755
 1665SOL    HW216455   0.466   0.857   3.950  1.1381 -1.1128  1.1996
 1666SOL     OW16456   1.748   2.161   2.356  0.0446 -0.0497  0.6097
 1666SOL    HW116457   1.781   2.079   2.321 -1.6852 -0.5395  0.1226
 1666SOL    HW216458   1.738   2.210   2.274 -0.5741  2.3685  2.1156
 1667SOL     OW16459   1.907   4.473   2.453  0.3584  0.2286  0.2855
 1667SOL    HW116460   1.835   4.429   2.499  0.7550  0.2681  0.9411
 1667SOL    HW216461   1.863   4.498   2.371 -0.0111  0.5534  0.5816
 1668SOL     OW16462   3.546   3.452   5.986 -0.4927 -0.1516 -0.4232
 1668SOL    HW116463   3.485   3.379   5.996  0.7281 -1.2401 -0.9014
 1668SOL    HW216464   3.631   3.410   5.971 -0.6551 -0.4919 -0.4029
 1669SOL     OW16465   1.899   2.884   9.436 -0.2551  0.2286  0.2074
 1669SOL    HW116466   1.938   2.835   9.364  1.7807  1.2077  0.6507
 1669SOL    HW216467   1.972   2.942   9.456  0.3704 -0.4701 -0.0505
 1670SOL     OW16468   0.690   3.251   0.181  0.7426 -0.3611  0.5615
 1670SOL    HW116469   0.679   3.167   0.137 -0.3240  0.6540 -1.1263
 1670SOL    HW216470   0.719   3.307   0.109 -0.6897 -0.7162 -0.3022
 1671SOL     OW16471   3.034   4.716   3.316 -0.0531 -0.0466 -0.5671
 1671SOL    HW116472   2.953   0.021   3.271  1.5717  0.7748 -3.0211
 1671SOL    HW216473   3.031   4.622   3.301  2.0360 -0.2524  0.3590
 1672SOL     OW16474   0.945   3.203   0.332 -0.2945 -0.2907 -0.1601
 1672SOL    HW116475   1.035   3.208   0.301 -0.2448 -0.1087  0.0139
 1672SOL    HW216476   0.903   3.173   0.252 -1.4808  1.0770 -0.0538
 1673SOL     OW16477   3.795   1.990   4.510 -0.5981 -0.1498 -0.0712
 1673SOL    HW116478   3.870   2.046   4.493  0.7584 -1.6348  1.0644
 1673SOL    HW216479   3.829   1.910   4.549 -1.7223  0.1256  1.4732
 1674SOL     OW16480   0.926   3.557   9.345  0.0624  0.2796 -0.1995
 1674SOL    HW116481   1.003   3.523   9.390  0.0966  0.9361  0.2278
 1674SOL    HW216482   0.866   3.569   9.419 -1.2492 -0.4114 -1.1343
 1675SOL     OW16483   3.658   0.771   1.716  0.0420  0.1249 -0.2391
 1675SOL    HW116484   3.581   0.714   1.711 -0.1280  0.3017  0.3253
 1675SOL    HW216485   3.713   0.721   1.655 -1.5559  0.2564 -1.7884
 1676SOL     OW16486   1.062   0.758   2.788 -0.3415  0.5898 -0.1680
 1676SOL    HW116487   1.149   0.798   2.787 -0.5092  0.9575  0.1449
 1676SOL    HW216488   1.018   0.835   2.753  2.8838  1.8219 -1.5442
 1677SOL     OW16489   0.753   1.748   5.433  0.0812  0.4673 -0.2828
 1677SOL    HW116490   0.741   1.817   5.497  4.2767 -0.8059  1.9466
 1677SOL    HW216491   0.674   1.700   5.457 -0.9159  1.5026 -1.5259
 1678SOL     OW16492   0.759   2.534   6.466 -0.2782 -0.3419  0.1034
 1678SOL    HW116493   0.742   2.609   6.523 -3.1017  0.7055 -2.1126
 1678SOL    HW216494   0.681   2.543   6.411  1.6114  2.8972 -2.1006
 1679SOL     OW16495   0.825   3.413  16.311  1.0223 -0.1735  0.7707
 1679SOL    HW116496   0.847   3.504  16.289  0.3428 -0.1857  0.0141
 1679SOL    HW216497   0.908   3.375  16.281 -0.2525 -1.2038 -1.5131
 1680SOL     OW16498   2.079   2.812   1.287 -0.9239 -0.1246 -0.7431
 1680SOL    HW116499   2.072   2.718   1.272 -1.2295 -0.1896 -0.2079
 1680SOL    HW216500   2.043   2.838   1.202 -0.3844  2.6922 -0.1211
 1681SOL     OW16501   1.564   2.091   6.076  0.7418  0.5956 -0.3510
 1681SOL    HW116502   1.636   2.113   6.134  1.4804  0.6467 -1.2898
 1681SOL    HW216503   1.608   2.108   5.993  0.4526  1.1872 -0.3873
 1682SOL     OW16504   1.520   3.831   3.897  1.1103  0.2246 -0.0375
 1682SOL    HW116505   1.542   3.924   3.906  0.7052  0.1545  1.6225
 1682SOL    HW216506   1.467   3.821   3.976  2.1305 -0.8728  0.5119
 1683SOL     OW16507   2.706   0.380   1.636  0.0296  0.0041 -0.1099
 1683SOL    HW116508   2.673   0.296   1.604 -1.6550  0.9776 -0.9677
 1683SOL    HW216509   2.791   0.357   1.671 -0.2663 -0.4204  0.3259
 1684SOL     OW16510   1.254   2.704   9.495  0.5859 -0.4503  0.4066
 1684SOL    HW116511   1.337   2.662   9.474  0.2391 -1.0658  0.2367
 1684SOL    HW216512   1.292   2.786   9.525 -0.4802 -0.7760  2.6095
 1685SOL     OW16513   2.000   2.326   4.372 -0.2886 -0.2164  0.7230
 1685SOL    HW116514   2.000   2.249   4.315  1.3700 -0.4279  1.0094
 1685SOL    HW216515   2.059   2.296   4.440  0.3950 -0.1952  0.1359
 1686SOL     OW16516   0.340   3.034   8.756 -0.2163  0.1285  0.0757
 1686SOL    HW116517   0.376   2.949   8.782 -0.8218 -0.2294 -0.2593
 1686SOL    HW216518   0.251   3.031   8.791 -0.9699  0.6593 -1.7525
 1687SOL     OW16519   1.154   2.831   7.478 -0.1228  0.4396  0.5793
 1687SOL    HW116520   1.147   2.749   7.527  0.7721  1.1538  1.9241
 1687SOL    HW216521   1.101   2.879   7.542  0.2562  0.4554  0.8842
 1688SOL     OW16522   2.890   3.989   3.871  0.6223 -0.0448  0.0131
 1688SOL    HW116523   2.822   3.994   3.938  0.6906 -0.5462  0.1234
 1688SOL    HW216524   2.840   4.002   3.790 -0.5854  1.4983  1.0067
 1689SOL     OW16525   0.510   0.144  10.381 -0.4521  0.3065 -0.7826
 1689SOL    HW116526   0.563   0.068  10.355 -1.6143 -0.7461 -0.0320
 1689SOL    HW216527   0.496   0.167  10.289  1.1213  1.0264 -0.8467
 1690SOL     OW16528   1.049   2.746  16.929  0.4264  0.1862  0.3550
 1690SOL    HW116529   1.026   2.672  16.873 -1.0198 -0.3794  1.6794
 1690SOL    HW216530   0.968   2.797  16.930 -0.3746 -1.0669 -1.3655
 1691SOL     OW16531   3.275   0.901   6.736  0.3278 -0.1185  0.4723
 1691SOL    HW116532   3.261   0.956   6.813  0.9372  0.1768  0.3743
 1691SOL    HW216533   3.194   0.857   6.711  0.1063  0.5067  0.1089
 1692SOL     OW16534   2.334   2.951  14.209 -0.0303 -0.3071  0.3388
 1692SOL    HW116535   2.268   3.018  14.187 -0.1726 -0.9552 -1.1500
 1692SOL    HW216536   2.405   3.015  14.219 -1.7556  1.6997 -0.1382
 1693SOL     OW16537   1.971   3.018  11.568 -0.2852 -0.2552 -0.7470
 1693SOL    HW116538   1.942   2.988  11.482 -2.3012 -1.6355  0.4107
 1693SOL    HW216539   1.920   3.097  11.587 -1.8120 -1.5264  0.5439
 1694SOL     OW16540   0.856   2.098   2.666  0.5445 -0.4195  0.0530
 1694SOL    HW116541   0.947   2.130   2.662 -0.1960  2.0899  3.0823
 1694SOL    HW216542   0.825   2.119   2.578  1.1445 -0.5022 -0.1811
 1695SOL     OW16543   1.703   2.195   5.864 -0.4626 -0.0177  0.0036
 1695SOL    HW116544   1.659   2.274   5.835 -1.0071 -0.4471 -0.3354
 1695SOL    HW216545   1.742   2.173   5.779 -1.7731 -0.4417 -0.4936
 1696SOL     OW16546   3.138   1.210  16.491 -0.2739 -0.4114  0.5044
 1696SOL    HW116547   3.111   1.123  16.460 -0.1619 -1.6207  3.7265
 1696SOL    HW216548   3.094   1.264  16.426 -1.0351 -1.7901 -0.1344
 1697SOL     OW16549   3.267   3.370   5.066 -0.3297  0.5051  0.1733
 1697SOL    HW116550   3.293   3.459   5.091  0.3163  0.8844 -1.8206
 1697SOL    HW216551   3.191   3.352   5.121  0.6759  0.2658  1.4780
 1698SOL     OW16552   0.183   2.177   3.451  0.1823  0.3096 -0.7536
 1698SOL    HW116553   0.151   2.088   3.432  1.2986  0.0597 -1.4485
 1698SOL    HW216554   0.270   2.150   3.482 -0.0692  0.6019  0.2313
 1699SOL     OW16555   3.675   0.383   0.694  0.4930 -0.2517  0.3382
 1699SOL    HW116556   3.606   0.416   0.751 -0.3885  1.3437 -1.6497
 1699SOL    HW216557   3.670   0.452   0.627 -0.3791 -0.1328  0.5325
 1700SOL     OW16558   2.876   0.764   7.580 -0.2552 -0.6767 -0.2050
 1700SOL    HW116559   2.947   0.778   7.517 -0.3255 -2.2138 -0.6210
 1700SOL    HW216560   2.832   0.690   7.539  0.3016 -1.4908  0.6686
 1701SOL     OW16561   1.523   2.584   9.508  0.6176  0.5194  0.4414
 1701SOL    HW116562   1.576   2.562   9.585  1.5207 -1.5900 -0.8043
 1701SOL    HW216563   1.573   2.661   9.481  1.8162  0.2011  1.7512
 1702SOL     OW16564   1.200   1.797  16.856  0.2324  0.0342  0.3361
 1702SOL    HW116565   1.271   1.735  16.874 -0.5970 -0.0230  3.3449
 1702SOL    HW216566   1.142   1.738  16.807 -1.1882 -0.8139  3.0380
 1703SOL     OW16567   3.739   1.872   4.283 -0.6477  0.0128 -0.8788
 1703SOL    HW116568   3.662   1.819   4.303 -1.7364  1.7905 -0.3775
 1703SOL    HW216569   3.745   1.926   4.362 -0.5967 -0.3510 -0.6310
 1704SOL     OW16570   4.065   2.847   7.762  0.1177  0.8135 -0.2992
 1704SOL    HW116571   4.090   2.758   7.784 -0.9656  0.5146 -0.2487
 1704SOL    HW216572   3.989   2.821   7.709  1.3081  0.6073 -1.9304
 1705SOL     OW16573   3.869   4.538  15.495 -0.4766  0.0326  0.0497
 1705SOL    HW116574   3.861   4.582  15.580 -0.2341 -0.5145  0.3577
 1705SOL    HW216575   3.936   4.477  15.525  0.2373  0.0138 -1.5845
 1706SOL     OW16576   2.924   3.457  15.975  0.0895  0.2494 -0.4010
 1706SOL    HW116577   2.965   3.510  16.043  0.7915 -1.6241  0.6436
 1706SOL    HW216578   2.838   3.443  16.015  0.8308 -2.1121  0.3678
 1707SOL     OW16579   1.950   3.282   2.788  0.2231 -0.1879 -0.6497
 1707SOL    HW116580   1.949   3.330   2.871  0.2415 -0.2596 -0.6084
 1707SOL    HW216581   1.953   3.356   2.727 -2.1925 -1.3440 -2.1656
 1708SOL     OW16582   4.533   1.077   4.917 -0.0642 -0.9207  0.1145
 1708SOL    HW116583   4.586   1.106   4.843  0.1666  1.4944  1.2489
 1708SOL    HW216584   4.504   0.994   4.879 -2.9557  0.0277  0.2746
 1709SOL     OW16585   1.916   0.718   6.958  0.1294  0.4559 -0.9700
 1709SOL    HW116586   1.915   0.709   7.054 -1.0376 -0.7178 -1.0965
 1709SOL    HW216587   1.861   0.795   6.943  0.9121  0.6963 -2.5455
 1710SOL     OW16588   0.390   3.757  17.116 -0.4462 -0.1364 -0.3007
 1710SOL    HW116589   0.373   3.729  17.206 -0.9860 -1.3933 -0.7831
 1710SOL    HW216590   0.471   3.806  17.127  1.2272 -3.0256  0.3369
 1711SOL     OW16591   2.431   4.447   4.969  0.4250  0.3311  0.0166
 1711SOL    HW116592   2.342   4.429   5.000  1.1812 -2.2292  0.7494
 1711SOL    HW216593   2.438   4.538   4.996 -1.4261  0.4683  0.0241
 1712SOL     OW16594   0.023   2.325   5.489 -0.5949 -0.7391 -0.0180
 1712SOL    HW116595   0.076   2.382   5.433  0.7820 -1.5678  0.4480
 1712SOL    HW216596   4.657   2.330   5.447 -0.9208  1.8284  0.9375
 1713SOL     OW16597   3.055   0.981   5.830 -0.4016 -0.2908 -0.1919
 1713SOL    HW116598   2.980   0.955   5.884 -1.8649  3.5615 -0.3880
 1713SOL    HW216599   3.100   0.897   5.820 -1.2232 -0.6849 -0.5634
 1714SOL     OW16600   3.490   1.403   5.608 -0.4098 -0.0197  0.5514
 1714SOL    HW116601   3.414   1.372   5.560 -1.2334  0.4089  1.5692
 1714SOL    HW216602   3.560   1.412   5.543 -1.6025 -1.9424 -0.9992
 1715SOL     OW16603   1.863   0.780   7.467  0.7323  0.1421  0.0268
 1715SOL    HW116604   1.884   0.864   7.426  1.9561 -0.2727 -0.1966
 1715SOL    HW216605   1.872   0.720   7.393 -0.5063  0.1642 -0.1412
 1716SOL     OW16606   4.166   3.381  12.926  0.6867  0.1125  0.2772
 1716SOL    HW116607   4.200   3.458  12.881 -1.4699  1.6019  1.1652
 1716SOL    HW216608   4.221   3.386  13.004  0.5737  1.7223  0.2551
 1717SOL     OW16609   2.474   3.525  12.044  0.6290  0.1246  0.3492
 1717SOL    HW116610   2.405   3.529  11.978  0.8736 -0.8378  0.0410
 1717SOL    HW216611   2.529   3.464  11.995 -0.9243 -1.0539  0.0549
 1718SOL     OW16612   0.670   1.116  10.083 -0.0723  0.0803  0.1534
 1718SOL    HW116613   0.605   1.060  10.125 -0.3622  0.0729 -0.3110
 1718SOL    HW216614   0.611   1.179  10.041 -0.9343 -0.7286  0.1556
 1719SOL     OW16615   2.963   0.669   7.812  0.0634  0.1150  0.0777
 1719SOL    HW116616   2.931   0.743   7.864  0.0812 -0.4416  0.8827
 1719SOL    HW216617   2.918   0.674   7.728  0.1589 -2.4821 -0.1240
 1720SOL     OW16618   0.577   0.297   1.508  0.1197 -0.3858  0.2856
 1720SOL    HW116619   0.593   0.356   1.582  1.3031 -1.5019  0.9045
 1720SOL    HW216620   0.488   0.328   1.493  1.0959  2.8366  1.0319
 1721SOL     OW16621   2.596   2.807   9.981 -0.3488 -0.0232  0.1705
 1721SOL    HW116622   2.511   2.838  10.013 -0.6813  0.2152 -0.9522
 1721SOL    HW216623   2.652   2.853  10.044 -0.0323 -0.1659 -0.0055
 1722SOL     OW16624   4.613   2.993  14.563  0.3085  0.5864  0.6407
 1722SOL    HW116625   4.605   2.985  14.468  2.0852  0.9079  0.4826
 1722SOL    HW216626   4.524   3.009  14.595  0.7980  1.2163  1.6757
 1723SOL     OW16627   0.903   0.412   6.477  0.4052  0.2425  0.0354
 1723SOL    HW116628   0.814   0.437   6.449  1.6812  0.6654 -3.6152
 1723SOL    HW216629   0.953   0.493   6.473 -0.0688  0.4668 -1.3283
 1724SOL     OW16630   3.194   1.731  15.658 -0.4979 -0.7152  0.0944
 1724SOL    HW116631   3.201   1.821  15.626  1.0496 -1.1853 -0.9140
 1724SOL    HW216632   3.125   1.689  15.605 -0.5519 -1.8279  1.0403
 1725SOL     OW16633   3.947   2.024   5.877 -0.8164  0.0115 -0.5492
 1725SOL    HW116634   4.017   2.046   5.939 -3.4180  0.0627  2.4052
 1725SOL    HW216635   3.918   1.939   5.910  1.3231 -0.3157  0.4795
 1726SOL     OW16636   1.258   4.078   9.257  0.0483  0.8222  0.1068
 1726SOL    HW116637   1.275   4.101   9.166 -0.1944 -0.3097 -0.2259
 1726SOL    HW216638   1.263   3.982   9.254 -1.8358  0.6578  2.2021
 1727SOL     OW16639   4.053   1.567   3.548  0.1533  0.2499  0.4398
 1727SOL    HW116640   4.002   1.510   3.606 -0.7898 -0.0071 -0.6530
 1727SOL    HW216641   3.992   1.638   3.528 -2.2482 -0.8222  4.0036
 1728SOL     OW16642   0.838   2.647   7.305  0.0641  0.3735 -0.3336
 1728SOL    HW116643   0.806   2.597   7.229 -2.5908  1.1796  0.2459
 1728SOL    HW216644   0.871   2.728   7.267 -0.0417  1.1646  1.2956
 1729SOL     OW16645   1.367   3.973   2.211 -0.0387 -0.6241 -0.3590
 1729SOL    HW116646   1.296   3.954   2.150  0.2932 -1.7264 -0.3961
 1729SOL    HW216647   1.358   3.892   2.262 -1.5724 -1.1133 -1.4204
 1730SOL     OW16648   0.176   3.831   6.082 -0.4175 -0.7861 -0.0951
 1730SOL    HW116649   0.168   3.766   6.011 -2.9353 -0.2688 -0.2619
 1730SOL    HW216650   0.086   3.859   6.093 -0.3462 -0.3299 -0.6535
 1731SOL     OW16651   2.648   3.046   9.429 -0.0884 -0.1420 -0.4424
 1731SOL    HW116652   2.677   2.967   9.384  2.0551 -1.7178  3.7129
 1731SOL    HW216653   2.689   3.036   9.515 -1.1256  1.6205  0.2616
 1732SOL     OW16654   4.573   0.087   4.285 -0.1407 -0.0930  0.2501
 1732SOL    HW116655   4.519   0.074   4.207  2.7627 -0.3841 -1.7398
 1732SOL    HW216656   4.622   0.005   4.285  1.7272  1.0214 -1.0407
 1733SOL     OW16657   1.597   2.733  17.324  0.7005 -0.4347 -0.6278
 1733SOL    HW116658   1.556   2.789  17.389  1.8031  0.1540 -0.4407
 1733SOL    HW216659   1.537   2.732  17.249 -0.0680  0.3151 -0.0243
 1734SOL     OW16660   4.540   2.409  14.947 -0.1416  0.3596  0.5292
 1734SOL    HW116661   4.598   2.486  14.947  0.7455 -0.2903  2.5780
 1734SOL    HW216662   4.518   2.421  14.855 -0.3623 -1.9861  0.2832
 1735SOL     OW16663   2.927   3.209   1.201  0.6392  0.1627  0.0179
 1735SOL    HW116664   2.884   3.242   1.279  1.7685  0.2402  0.6149
 1735SOL    HW216665   2.854   3.219   1.141  0.8922 -1.6814 -0.5990
 1736SOL     OW16666   4.595   1.824   8.793 -0.4491  0.2164  0.2895
 1736SOL    HW116667   4.667   1.887   8.790 -1.7908  1.7176 -0.5133
 1736SOL    HW216668   4.598   1.795   8.884  0.5958 -1.8221 -0.4145
 1737SOL     OW16669   3.279   3.721   3.996  0.5992  0.8073  0.8514
 1737SOL    HW116670   3.238   3.635   3.990  1.3431  0.3054  2.8987
 1737SOL    HW216671   3.337   3.714   3.920  0.3731  0.3439  0.7181
 1738SOL     OW16672   4.624   0.239   3.775  0.1722 -0.1536  0.0480
 1738SOL    HW116673   4.652   0.330   3.780 -1.7380  0.5197 -1.5726
 1738SOL    HW216674   4.700   0.207   3.823 -0.4904  1.3118  2.0528
 1739SOL     OW16675   0.876   2.693  13.830 -0.6673  0.1524 -0.0225
 1739SOL    HW116676   0.847   2.752  13.900  0.4683  0.4141  0.2242
 1739SOL    HW216677   0.971   2.693  13.840 -0.7073  1.6838  0.3214
 1740SOL     OW16678   2.624   3.687  15.936 -0.0131 -0.7166  0.4397
 1740SOL    HW116679   2.622   3.765  15.991 -3.4376  0.8005 -1.9112
 1740SOL    HW216680   2.675   3.723  15.863  0.0359 -0.0761  0.7961
 1741SOL     OW16681   1.645   3.354  13.356 -0.3719 -0.1757  0.1731
 1741SOL    HW116682   1.601   3.426  13.402  0.2039  0.1279  0.2579
 1741SOL    HW216683   1.569   3.314  13.315  0.9082  1.3326 -3.6767
 1742SOL     OW16684   2.248   0.401   7.118  0.1809  0.4080 -0.0930
 1742SOL    HW116685   2.238   0.467   7.187 -0.3482  2.2820 -1.9465
 1742SOL    HW216686   2.266   0.459   7.044 -2.1872  1.0846 -0.1249
 1743SOL     OW16687   0.430   1.319   5.195  0.5506  0.2749  0.3697
 1743SOL    HW116688   0.502   1.258   5.181  1.8858  1.6869  1.1662
 1743SOL    HW216689   0.358   1.268   5.157 -1.5498  1.0082  3.3452
 1744SOL     OW16690   0.042   4.365   1.196 -0.0747 -0.4948  0.0557
 1744SOL    HW116691   4.669   4.382   1.183  0.3021 -0.2891 -2.4909
 1744SOL    HW216692   0.042   4.328   1.284 -1.2512  1.5113  0.8931
 1745SOL     OW16693   2.481   0.347  10.743  0.0083  0.3312 -0.1301
 1745SOL    HW116694   2.553   0.402  10.712 -0.8377  2.4115  1.6521
 1745SOL    HW216695   2.457   0.395  10.822 -0.3267  0.5771 -0.3809
 1746SOL     OW16696   4.065   0.938  14.668 -0.0324 -1.0324 -0.4420
 1746SOL    HW116697   4.095   0.999  14.736 -1.7561  0.3522 -0.9096
 1746SOL    HW216698   3.974   0.950  14.695 -0.0019  2.1019 -1.7481
 1747SOL     OW16699   0.190   3.535  13.626 -0.3773 -0.0302 -0.0101
 1747SOL    HW116700   0.137   3.613  13.611  0.7811  0.6107 -0.7765
 1747SOL    HW216701   0.255   3.553  13.558  1.7336 -3.5851  1.0490
 1748SOL     OW16702   3.297   2.096   5.552 -0.3903  0.1690 -0.1195
 1748SOL    HW116703   3.346   2.128   5.477 -2.6731 -0.1632 -1.7591
 1748SOL    HW216704   3.233   2.036   5.513 -0.5246 -1.1332  2.0937
 1749SOL     OW16705   1.649   4.476   3.219 -0.9370  0.2724 -0.1076
 1749SOL    HW116706   1.560   4.483   3.185 -1.0690 -1.1767 -0.0425
 1749SOL    HW216707   1.619   4.464   3.309  3.3391 -1.9032  1.0262
 1750SOL     OW16708   4.253   1.479   2.819 -0.0751  0.4882 -0.1198
 1750SOL    HW116709   4.255   1.392   2.860 -2.5925  0.8631  0.8384
 1750SOL    HW216710   4.164   1.472   2.784  0.1151 -1.1081 -0.2824
 1751SOL     OW16711   3.257   0.771   7.278 -0.1017 -0.3761  0.4429
 1751SOL    HW116712   3.207   0.806   7.204  1.8439  0.6007 -0.3930
 1751SOL    HW216713   3.308   0.705   7.232 -0.0440 -0.5021  0.6897
 1752SOL     OW16714   0.247   1.395   9.425 -0.2258 -0.9801  0.0065
 1752SOL    HW116715   0.221   1.331   9.492  0.9677 -0.2653  1.1658
 1752SOL    HW216716   0.335   1.365   9.401  0.9188  1.0826  1.6709
 1753SOL     OW16717   4.666   2.351   6.715 -0.2769 -0.0322 -0.0129
 1753SOL    HW116718   4.579   2.361   6.753 -0.5379 -2.9092  0.1758
 1753SOL    HW216719   4.655   2.258   6.695 -1.9193  0.3765 -1.0474
 1754SOL     OW16720   0.987   3.968  16.891 -0.3741 -0.2909 -0.0007
 1754SOL    HW116721   1.017   4.042  16.838 -3.8822 -0.7787 -2.6989
 1754SOL    HW216722   1.054   3.973  16.959  1.0235 -1.6995 -1.2565
 1755SOL     OW16723   0.669   4.621   4.661  0.4772 -0.7156  0.2076
 1755SOL    HW116724   0.627   4.699   4.698  1.0421 -0.4700  0.3295
 1755SOL    HW216725   0.749   4.621   4.713 -0.5150 -5.6905  1.6521
 1756SOL     OW16726   2.030   3.663   6.948 -0.5744 -0.0483  0.1993
 1756SOL    HW116727   2.023   3.759   6.943  1.6644  0.0179 -1.6478
 1756SOL    HW216728   2.061   3.642   6.860  1.0631  3.1373 -0.0099
 1757SOL     OW16729   0.974   3.432   1.929 -0.2028 -0.0249 -0.5034
 1757SOL    HW116730   0.935   3.464   1.848 -1.5902  1.0907  0.6112
 1757SOL    HW216731   0.971   3.342   1.899 -3.4429 -0.8080  2.1167
 1758SOL     OW16732   0.862   3.165   1.470 -0.1453  0.0016  0.3306
 1758SOL    HW116733   0.891   3.178   1.380  0.6658  1.1115  0.7586
 1758SOL    HW216734   0.798   3.095   1.454  0.3430 -0.7650  1.8256
 1759SOL     OW16735   2.066   3.302   8.097  0.2945 -0.3176 -0.0147
 1759SOL    HW116736   2.000   3.364   8.066  1.0851 -0.3424 -1.7392
 1759SOL    HW216737   2.059   3.226   8.039  1.1975  0.5288 -1.2372
 1760SOL     OW16738   0.195   1.963   8.328 -0.9501 -0.3318  0.0740
 1760SOL    HW116739   0.225   2.042   8.374 -0.2831 -0.8745  0.5704
 1760SOL    HW216740   0.271   1.908   8.347 -0.7045 -1.0235 -2.8762
 1761SOL     OW16741   1.170   3.387   7.345  0.2056  0.4566 -0.4986
 1761SOL    HW116742   1.086   3.398   7.301 -0.8017  2.7133  1.9534
 1761SOL    HW216743   1.218   3.327   7.288 -1.6614 -0.2104 -1.3695
 1762SOL     OW16744   2.148   2.813  11.857  0.5116 -0.1119 -0.1738
 1762SOL    HW116745   2.215   2.779  11.798 -0.4981  0.3391 -1.5958
 1762SOL    HW216746   2.093   2.847  11.786 -4.5239 -1.3808  3.1812
 1763SOL     OW16747   0.206   1.049   8.076 -0.3824  0.2219  0.3307
 1763SOL    HW116748   0.256   1.054   8.157 -2.2095 -0.5792  1.5130
 1763SOL    HW216749   0.223   0.958   8.050  2.2018  0.3527  1.5179
 1764SOL     OW16750   2.377   1.336   8.625 -0.3170  0.0912 -0.8531
 1764SOL    HW116751   2.425   1.384   8.692 -2.6340  0.6777  0.3916
 1764SOL    HW216752   2.433   1.259   8.629 -1.0545 -0.3399  1.1413
 1765SOL     OW16753   2.193   0.691   7.174 -0.5966 -0.2446 -0.4075
 1765SOL    HW116754   2.268   0.689   7.115 -0.6661 -1.8995 -0.4432
 1765SOL    HW216755   2.231   0.736   7.249  1.7105  1.1174 -2.4123
 1766SOL     OW16756   2.195   4.202   3.254  0.1846  0.0965  0.3486
 1766SOL    HW116757   2.154   4.266   3.196 -0.4500  0.3160  1.0484
 1766SOL    HW216758   2.138   4.127   3.238  3.3692 -1.7375 -2.4922
 1767SOL     OW16759   4.550   2.876   9.216 -0.2118 -0.2583 -0.0446
 1767SOL    HW116760   4.628   2.932   9.217 -0.2614 -0.2540  3.0444
 1767SOL    HW216761   4.502   2.916   9.287 -0.3563 -0.9183  0.2303
 1768SOL     OW16762   2.654   3.650   2.925 -0.3808  0.3628  1.0615
 1768SOL    HW116763   2.583   3.659   2.862 -1.4303 -2.3816  1.8615
 1768SOL    HW216764   2.603   3.605   2.993 -2.7239  0.3430 -0.7075
 1769SOL     OW16765   2.266   1.962   3.464 -0.3681 -0.1559  0.3826
 1769SOL    HW116766   2.196   1.897   3.463 -1.1549  0.6904 -0.0601
 1769SOL    HW216767   2.222   2.025   3.522 -0.5170 -0.8430  1.0202
 1770SOL     OW16768   2.079   4.097   5.859  0.2623  0.2137 -0.0331
 1770SOL    HW116769   2.036   4.172   5.901 -0.5203 -0.3712  0.2078
 1770SOL    HW216770   2.019   4.026   5.883 -0.4502 -0.1760 -2.9402
 1771SOL     OW16771   1.105   2.155  11.713 -0.4318  0.5807  0.5035
 1771SOL    HW116772   1.080   2.083  11.655  2.4994  1.9720 -2.5047
 1771SOL    HW216773   1.015   2.176  11.739 -1.0432 -1.1828 -0.1520
 1772SOL     OW16774   2.701   3.339   6.786 -0.2671 -0.7098  0.6809
 1772SOL    HW116775   2.735   3.398   6.854  1.1315 -1.1331  0.3640
 1772SOL    HW216776   2.619   3.302   6.816 -0.2023 -0.8408  0.6961
 1773SOL     OW16777   1.128   2.191  12.017  1.0159 -0.3333  0.3527
 1773SOL    HW116778   1.115   2.244  11.938 -0.1657 -1.9772 -0.5664
 1773SOL    HW216779   1.176   2.115  11.982 -0.5630 -1.2296  0.1288
 1774SOL     OW16780   2.020   3.484  14.447  0.0895 -0.0224  0.1816
 1774SOL    HW116781   2.047   3.509  14.535  0.3921 -1.8533  0.5912
 1774SOL    HW216782   2.099   3.446  14.409  0.7120 -0.0744  1.5135
 1775SOL     OW16783   3.554   2.953   2.539  0.6984 -0.1732  0.1364
 1775SOL    HW116784   3.599   2.893   2.480 -1.0514 -1.2429 -0.0894
 1775SOL    HW216785   3.503   3.010   2.482 -1.6490 -0.9411  1.4868
 1776SOL     OW16786   0.916   2.171   5.087 -0.1266 -0.4860  0.2498
 1776SOL    HW116787   0.990   2.194   5.143 -0.1710  4.6371 -1.7688
 1776SOL    HW216788   0.876   2.092   5.123 -1.5008  0.1658  0.1558
 1777SOL     OW16789   3.949   2.647   2.824  0.2287 -0.3141 -0.6762
 1777SOL    HW116790   4.022   2.630   2.884 -1.5107  1.8171  2.0915
 1777SOL    HW216791   3.977   2.728   2.781  0.0420 -0.0674 -0.3327
 1778SOL     OW16792   0.905   4.665   4.814 -0.1920  0.0160 -0.0608
 1778SOL    HW116793   0.912   4.587   4.869 -0.2762  0.4808  0.6083
 1778SOL    HW216794   0.995   4.695   4.807  0.4194 -0.8700  3.9085
 1779SOL     OW16795   0.740   1.900   5.668  0.1102  0.4890  0.2528
 1779SOL    HW116796   0.834   1.916   5.678 -0.2066  2.8927 -0.4555
 1779SOL    HW216797   0.720   1.921   5.759  0.2066  1.6043  0.0246
 1780SOL     OW16798   0.566   0.548   2.512  0.9120  0.5407 -0.6337
 1780SOL    HW116799   0.589   0.622   2.456 -2.2160  0.6216 -1.8553
 1780SOL    HW216800   0.611   0.571   2.593  0.5399 -1.3922  0.1225
 1781SOL     OW16801   1.687   4.557   1.014  0.6512  0.5271 -0.4771
 1781SOL    HW116802   1.781   4.549   0.998  0.7332  0.7955 -0.1358
 1781SOL    HW216803   1.690   4.513   1.099  1.0870  1.8632  0.2099
 1782SOL     OW16804   3.902   2.576   8.306  0.6213 -0.2058  0.1981
 1782SOL    HW116805   3.858   2.610   8.384 -0.4868 -1.1529 -0.0168
 1782SOL    HW216806   3.960   2.648   8.283 -0.4239  0.6037  0.0965
 1783SOL     OW16807   1.359   3.484   5.099  0.1431 -0.9801  0.0486
 1783SOL    HW116808   1.369   3.448   5.188 -1.9134 -0.0183  0.6550
 1783SOL    HW216809   1.400   3.569   5.117 -1.8963  0.1494 -0.7479
 1784SOL     OW16810   0.430   3.106  16.959 -0.4463 -0.3495  0.0026
 1784SOL    HW116811   0.363   3.142  17.018  0.4216  1.2389  0.0087
 1784SOL    HW216812   0.452   3.176  16.898 -0.3993  0.1793  0.6239
 1785SOL     OW16813   3.976   2.912   2.042  0.1894  0.1588 -0.2439
 1785SOL    HW116814   3.933   2.860   1.974 -0.5567 -1.2820  1.3374
 1785SOL    HW216815   4.021   2.967   1.979  1.8027 -2.1594 -1.1007
 1786SOL     OW16816   1.547   3.324   6.924  0.2918  0.6187 -0.3396
 1786SOL    HW116817   1.633   3.354   6.893  0.0383 -0.3967 -1.9955
 1786SOL    HW216818   1.502   3.407   6.939 -1.9329 -0.6004 -0.3046
 1787SOL     OW16819   2.235   1.276   4.802  0.0146 -0.5137  0.3535
 1787SOL    HW116820   2.301   1.215   4.771  0.1397 -0.0299 -0.3386
 1787SOL    HW216821   2.290   1.354   4.792 -0.0012 -0.8770 -2.7310
 1788SOL     OW16822   0.681   2.293   7.275  0.2109 -0.0301 -0.1790
 1788SOL    HW116823   0.628   2.366   7.308  1.0385 -0.2657  1.6314
 1788SOL    HW216824   0.606   2.234   7.263 -0.1987 -0.0319  2.4939
 1789SOL     OW16825   3.473   0.233   2.672  0.0887 -0.6146  0.1500
 1789SOL    HW116826   3.559   0.252   2.711  0.9348 -0.6547 -1.6960
 1789SOL    HW216827   3.447   0.144   2.694 -0.9541  0.3009  2.6140
 1790SOL     OW16828   1.176   3.381   2.988  0.3462  0.5593 -0.4967
 1790SOL    HW116829   1.220   3.395   2.904  0.8431 -2.9909 -0.8364
 1790SOL    HW216830   1.259   3.380   3.036  0.1089 -0.4764 -0.0968
 1791SOL     OW16831   2.312   1.044   3.412  0.1485 -0.6263 -0.3847
 1791SOL    HW116832   2.375   0.973   3.403 -0.5160 -1.0913 -1.3009
 1791SOL    HW216833   2.314   1.095   3.332 -0.5333  1.3310  0.8330
 1792SOL     OW16834   1.598   3.200   2.991 -0.4956 -0.1262 -0.0819
 1792SOL    HW116835   1.528   3.139   2.969  0.7079 -1.2500 -0.7957
 1792SOL    HW216836   1.662   3.133   3.013  0.4053 -0.0363 -2.4334
 1793SOL     OW16837   2.354   2.200   0.953 -0.1729  0.2826 -0.1120
 1793SOL    HW116838   2.313   2.227   0.871  0.1561  0.5716 -0.1849
 1793SOL    HW216839   2.427   2.145   0.924 -0.1195 -0.7143  1.9585
 1794SOL     OW16840   3.657   2.222   1.838 -0.0742  0.3095 -0.0128
 1794SOL    HW116841   3.571   2.258   1.858 -0.5815  0.4862 -2.4914
 1794SOL    HW216842   3.678   2.170   1.916  1.0726 -0.5641 -0.8977
 1795SOL     OW16843   0.273   2.565  12.418  0.6657 -0.2267 -1.2575
 1795SOL    HW116844   0.235   2.481  12.394  0.3578 -0.2828 -0.5650
 1795SOL    HW216845   0.352   2.541  12.467  0.9779  1.4922 -0.9302
 1796SOL     OW16846   1.995   0.726   9.092 -0.5378 -0.3646 -0.4548
 1796SOL    HW116847   2.006   0.682   9.176  2.0197  0.9033 -0.1303
 1796SOL    HW216848   2.073   0.781   9.083 -0.9244  0.1407 -0.7256
 1797SOL     OW16849   2.730   2.777   4.703  0.1474 -0.0604  0.1664
 1797SOL    HW116850   2.641   2.797   4.731  0.0974 -0.1747  0.0874
 1797SOL    HW216851   2.706   2.742   4.617 -0.1790  0.2747  0.1220
 1798SOL     OW16852   0.722   3.346  17.615  0.1758  0.0182  0.0287
 1798SOL    HW116853   0.794   3.409  17.604  0.2534  0.1199  1.1249
 1798SOL    HW216854   0.707   3.324  17.523 -2.2111  0.1830  0.3814
 1799SOL     OW16855   4.686   1.316   9.629  1.1850  0.6445  0.1680
 1799SOL    HW116856   4.646   1.377   9.691  1.2030  0.0064  0.8112
 1799SOL    HW216857   4.672   1.367   9.549 -1.3779  0.0567  0.2553
 1800SOL     OW16858   1.304   4.463   9.090  0.4560 -0.7989 -0.3876
 1800SOL    HW116859   1.392   4.494   9.111 -0.5560  1.1868  0.9490
 1800SOL    HW216860   1.325   4.390   9.032  0.7094 -0.9894 -0.0579
 1801SOL     OW16861   1.617   0.293   2.943  0.1495  0.6508 -0.9181
 1801SOL    HW116862   1.641   0.215   2.992 -1.6658 -0.7154 -2.2307
 1801SOL    HW216863   1.671   0.291   2.864 -2.4881 -1.3216 -2.6447
 1802SOL     OW16864   3.898   1.654   0.540  0.0619 -0.2122  0.2207
 1802SOL    HW116865   3.842   1.713   0.490 -1.3356 -1.0666  0.7541
 1802SOL    HW216866   3.847   1.573   0.542  1.0577 -0.8127  1.2521
 1803SOL     OW16867   3.332   4.575   8.581  0.2662  0.0389  0.1403
 1803SOL    HW116868   3.381   4.596   8.660  0.8280  0.4339 -0.3073
 1803SOL    HW216869   3.252   4.615   8.614 -0.2482 -2.1564  1.5539
 1804SOL     OW16870   3.449   1.972  15.508 -0.7488 -0.3581 -0.1830
 1804SOL    HW116871   3.438   2.003  15.598  1.1788 -3.4107  1.1088
 1804SOL    HW216872   3.424   1.881  15.522  0.1355 -0.6099 -0.2737
 1805SOL     OW16873   2.314   4.457   2.783 -0.6047  0.1014  0.9036
 1805SOL    HW116874   2.258   4.521   2.740 -0.2281 -1.1341 -1.4383
 1805SOL    HW216875   2.265   4.378   2.762  0.8425 -0.5998  0.1125
 1806SOL     OW16876   3.117   1.124   2.635  0.1396 -0.1457  0.1986
 1806SOL    HW116877   3.144   1.169   2.555 -2.4352  1.9162  0.4593
 1806SOL    HW216878   3.048   1.070   2.595 -1.1543  0.2160  1.9427
 1807SOL     OW16879   3.510   1.945  12.610 -0.1898  0.2491  0.3542
 1807SOL    HW116880   3.462   2.019  12.647 -3.1150 -0.7238 -1.4691
 1807SOL    HW216881   3.448   1.922  12.540  0.9640  0.2606 -0.6770
 1808SOL     OW16882   0.395   1.314   2.857  0.6543 -0.4924  0.1373
 1808SOL    HW116883   0.427   1.363   2.781  0.9587  1.8949  1.7819
 1808SOL    HW216884   0.345   1.248   2.810  2.3032  0.0383 -2.4055
 1809SOL     OW16885   3.926   3.232   4.721  0.0248  0.2299  0.2382
 1809SOL    HW116886   3.834   3.227   4.746 -0.2645 -0.4913 -0.9653
 1809SOL    HW216887   3.966   3.253   4.805 -1.3049 -0.2917  0.9998
 1810SOL     OW16888   1.886   3.912  15.605  0.3816 -0.0766  0.1566
 1810SOL    HW116889   1.816   3.874  15.659  0.4946 -0.0614  0.3163
 1810SOL    HW216890   1.958   3.854  15.631  0.5333  0.7444  1.5995
 1811SOL     OW16891   4.592   0.507   5.226  0.3475 -0.3529  0.1664
 1811SOL    HW116892   4.516   0.535   5.176  0.3181 -0.4764  0.1411
 1811SOL    HW216893   4.667   0.534   5.174  0.2910  1.2395  0.9076
 1812SOL     OW16894   0.336   0.249   6.728  0.0508  0.3878  0.2656
 1812SOL    HW116895   0.274   0.228   6.658  0.4264 -0.1040  0.0824
 1812SOL    HW216896   0.301   0.333   6.758 -0.3953  1.9709 -4.5387
 1813SOL     OW16897   4.462   3.802   4.007  0.3317 -0.2339 -0.4865
 1813SOL    HW116898   4.479   3.711   4.029  1.2150 -0.2676 -1.3324
 1813SOL    HW216899   4.469   3.795   3.912  1.5441 -1.5784 -0.2854
 1814SOL     OW16900   2.253   1.345   5.168 -0.2437  0.4869 -0.0365
 1814SOL    HW116901   2.269   1.256   5.138 -2.0661 -0.8099  2.7851
 1814SOL    HW216902   2.344   1.371   5.185  0.4859 -0.0284 -3.1172
 1815SOL     OW16903   4.667   3.835   3.036 -1.1248 -0.1175  0.1148
 1815SOL    HW116904   0.006   3.886   2.981 -0.9233  0.9595  1.3372
 1815SOL    HW216905   4.663   3.875   3.122  1.3633  0.9424 -0.2776
 1816SOL     OW16906   0.868   2.392   3.002 -0.3160  0.1280 -0.2627
 1816SOL    HW116907   0.891   2.485   3.015 -2.1050  0.9569 -3.0313
 1816SOL    HW216908   0.780   2.414   2.972 -0.7503 -0.9056  0.2641
 1817SOL     OW16909   3.972   1.578   3.250  0.0214  0.4187 -0.1669
 1817SOL    HW116910   4.012   1.600   3.166 -0.1546 -1.9691 -0.8641
 1817SOL    HW216911   4.051   1.541   3.290  1.4341  2.7599 -0.8089
 1818SOL     OW16912   3.777   4.620   1.612  0.1318  0.5684  0.6269
 1818SOL    HW116913   3.683   4.605   1.618  0.3383 -2.7526 -4.1518
 1818SOL    HW216914   3.777   4.715   1.621 -0.6037  0.5163  1.1593
 1819SOL     OW16915   2.383   4.522  17.467 -0.0125  0.2791 -0.4616
 1819SOL    HW116916   2.301   4.568  17.482  0.8274  0.8565  2.2491
 1819SOL    HW216917   2.429   4.546  17.548  0.0362  0.6728 -0.6054
 1820SOL     OW16918   0.774   2.621   5.262  0.3013  0.2034 -0.3618
 1820SOL    HW116919   0.767   2.529   5.241 -0.4295  0.1343  0.1795
 1820SOL    HW216920   0.688   2.636   5.301  0.3020  0.3784 -0.4284
 1821SOL     OW16921   3.972   2.130  14.895 -0.4472 -0.0915 -0.0860
 1821SOL    HW116922   4.034   2.203  14.890 -0.0713 -0.4212 -0.2223
 1821SOL    HW216923   4.022   2.069  14.949  1.1861  1.8735  0.6339
 1822SOL     OW16924   1.465   0.064   4.775  0.0753 -0.1276 -0.2433
 1822SOL    HW116925   1.490   0.110   4.695  0.2197  1.1324  0.5311
 1822SOL    HW216926   1.507   4.700   4.764 -1.9121 -1.1167 -0.3791
 1823SOL     OW16927   1.041   1.067   7.434  0.4645  0.0881  0.2366
 1823SOL    HW116928   1.015   0.995   7.492  0.4563 -1.4417 -1.6689
 1823SOL    HW216929   0.972   1.127   7.465  1.8896  1.4760  0.7273
 1824SOL     OW16930   1.191   3.964  11.953  0.3808 -0.1148  0.1298
 1824SOL    HW116931   1.180   3.873  11.926 -1.0046  0.1365 -0.1516
 1824SOL    HW216932   1.281   3.980  11.925  0.0234  0.2934 -0.7619
 1825SOL     OW16933   2.564   2.136  10.950 -0.3722  0.3966 -0.1515
 1825SOL    HW116934   2.632   2.141  11.017 -0.1250 -2.2810 -0.1640
 1825SOL    HW216935   2.484   2.130  11.003  1.0217  0.9832  2.0230
 1826SOL     OW16936   2.909   4.108   8.414 -0.5986 -0.2252  0.1002
 1826SOL    HW116937   2.912   4.081   8.505  1.4977  1.8723  0.6661
 1826SOL    HW216938   2.991   4.159   8.412 -0.9157  0.2998  0.6765
 1827SOL     OW16939   3.915   0.711   7.479  0.0263 -0.5782  0.3332
 1827SOL    HW116940   3.967   0.783   7.441 -2.6792  2.1072  1.7028
 1827SOL    HW216941   3.874   0.681   7.398  0.5605  0.1409 -0.2107
 1828SOL     OW16942   1.671   1.612   8.161  0.0655 -0.0253 -0.0643
 1828SOL    HW116943   1.589   1.583   8.121  0.7358 -0.0047 -1.4376
 1828SOL    HW216944   1.633   1.611   8.249  0.9223 -0.1213  0.3073
 1829SOL     OW16945   2.134   1.342  12.759 -0.0624 -0.1854 -0.0296
 1829SOL    HW116946   2.187   1.264  12.746 -1.3833 -0.6073 -2.7277
 1829SOL    HW216947   2.114   1.362  12.668 -0.8451  3.6935  0.9826
 1830SOL     OW16948   3.532   4.171   8.560  0.2899  0.7702 -0.0220
 1830SOL    HW116949   3.491   4.213   8.635 -1.9329 -1.1603 -0.1552
 1830SOL    HW216950   3.486   4.223   8.493 -0.3528 -0.2558 -0.3721
 1831SOL     OW16951   0.683   4.624   5.184  0.2660  0.5669  0.4640
 1831SOL    HW116952   0.724   4.549   5.140 -2.8582 -1.3185  0.7291
 1831SOL    HW216953   0.656   4.577   5.263  2.3919  0.9625  1.4044
 1832SOL     OW16954   0.871   2.683   1.452 -0.5735 -0.2523 -0.1764
 1832SOL    HW116955   0.831   2.769   1.437  0.2789  0.0842 -0.5488
 1832SOL    HW216956   0.852   2.664   1.544  2.1813  1.0794  0.6944
 1833SOL     OW16957   4.073   0.948   1.095 -0.2246  0.0936 -0.6716
 1833SOL    HW116958   4.140   0.887   1.066 -0.9812 -1.3078  0.4892
 1833SOL    HW216959   4.034   0.893   1.164  1.2886  0.3360  0.3663
 1834SOL     OW16960   3.333   4.441   7.367 -0.4205 -0.0249  0.0353
 1834SOL    HW116961   3.311   4.453   7.275  2.4276 -2.8255 -1.0278
 1834SOL    HW216962   3.281   4.364   7.393 -2.0283  1.2799  0.6747
 1835SOL     OW16963   1.038   4.135   1.980  0.0316 -0.0805 -0.0863
 1835SOL    HW116964   0.987   4.161   1.903 -1.0978 -3.0014 -0.3156
 1835SOL    HW216965   1.013   4.206   2.040  1.2238 -0.0587  0.3859
 1836SOL     OW16966   2.784   3.200   2.409 -0.3587 -0.0239  0.6006
 1836SOL    HW116967   2.817   3.115   2.438  0.9175 -0.3551 -1.8533
 1836SOL    HW216968   2.693   3.196   2.439 -0.3125 -0.0538  0.7379
 1837SOL     OW16969   4.353   1.811   6.795  0.1529  0.2612  0.3074
 1837SOL    HW116970   4.413   1.854   6.857  1.7069  0.4641 -1.3373
 1837SOL    HW216971   4.310   1.746   6.851  0.4283  0.8781  1.2485
 1838SOL     OW16972   2.653   2.244   4.671 -0.4088  0.0307 -0.1990
 1838SOL    HW116973   2.711   2.246   4.595 -2.1036 -2.8562 -1.6047
 1838SOL    HW216974   2.703   2.302   4.727 -1.8999 -0.8661  2.0585
 1839SOL     OW16975   3.898   1.385   1.436  0.0943  0.2805 -0.6384
 1839SOL    HW116976   3.945   1.307   1.405 -1.4234 -0.2452 -1.6338
 1839SOL    HW216977   3.913   1.374   1.530  2.2792 -0.8726 -1.1115
 1840SOL     OW16978   3.057   2.394   2.779 -0.0643  0.2439  0.6248
 1840SOL    HW116979   3.048   2.478   2.733  1.2523 -0.3300 -0.6629
 1840SOL    HW216980   3.129   2.351   2.735 -0.7074  0.2940 -0.4889
 1841SOL     OW16981   3.651   4.717   8.558 -0.0498 -0.0682 -0.7469
 1841SOL    HW116982   3.710   0.026   8.488 -0.6643  1.7468 -0.4910
 1841SOL    HW216983   3.576   4.704   8.501 -0.2640 -0.1642 -0.4431
 1842SOL     OW16984   0.951   3.180  13.105  0.3862 -0.8219 -0.0095
 1842SOL    HW116985   0.962   3.271  13.080  0.6153 -0.9420 -0.3511
 1842SOL    HW216986   0.933   3.170  13.198  0.2215 -0.5175 -0.0086
 1843SOL     OW16987   3.198   2.854  11.832 -0.2370  0.4771 -0.7179
 1843SOL    HW116988   3.225   2.841  11.923  1.2073  0.9313 -1.0774
 1843SOL    HW216989   3.279   2.885  11.792 -0.3460 -0.4254 -1.6283
 1844SOL     OW16990   3.997   1.391   9.788 -0.3575 -0.3176 -0.8033
 1844SOL    HW116991   4.075   1.335   9.783  0.3941  0.5265  1.1270
 1844SOL    HW216992   4.013   1.434   9.705 -0.6547  1.4268  0.0383
 1845SOL     OW16993   3.718   1.086   4.248  0.1034 -0.1543 -0.1485
 1845SOL    HW116994   3.710   1.115   4.157  1.9118 -3.1254 -1.2498
 1845SOL    HW216995   3.731   0.994   4.223 -0.3072 -0.3561  0.3769
 1846SOL     OW16996   4.286   0.581   2.011  0.1095 -0.4975 -0.3651
 1846SOL    HW116997   4.247   0.576   1.923  2.3075 -0.8822 -1.3237
 1846SOL    HW216998   4.272   0.491   2.041  1.0001 -0.9287 -1.2388
 1847SOL     OW16999   3.118   4.406   3.332  0.7474 -0.4034  0.5923
 1847SOL    HW117000   3.202   4.447   3.348 -0.3514  2.0248  0.1110
 1847SOL    HW217001   3.151   4.367   3.251  3.1657 -0.6045  1.6658
 1848SOL     OW17002   4.332   4.191   7.003 -0.2690  0.0986 -0.1101
 1848SOL    HW117003   4.367   4.220   6.918 -0.7644  0.8427 -0.0590
 1848SOL    HW217004   4.414   4.179   7.051 -1.5247  1.9608  2.4878
 1849SOL     OW17005   3.253   2.265   0.274 -0.0677  0.0611  0.2149
 1849SOL    HW117006   3.337   2.237   0.238  0.6399  5.8234 -2.6271
 1849SOL    HW217007   3.191   2.202   0.237 -0.8543  0.6601  0.5330
 1850SOL     OW17008   1.056   0.558   6.972  0.0350 -0.1474 -0.5650
 1850SOL    HW117009   1.148   0.545   6.994 -0.3018  0.5985  1.2719
 1850SOL    HW217010   1.023   0.470   6.956  1.6688 -0.8409 -0.1510
 1851SOL     OW17011   1.338   2.581   7.510  0.6434  0.2695 -0.9249
 1851SOL    HW117012   1.242   2.574   7.512  0.5531  1.9676  0.7408
 1851SOL    HW217013   1.362   2.493   7.537  0.1684 -0.3263 -2.4082
 1852SOL     OW17014   3.063   3.453   3.144 -0.0340  0.0172 -0.3921
 1852SOL    HW117015   3.050   3.388   3.074  1.2181 -1.1433  0.4506
 1852SOL    HW217016   3.140   3.429   3.195  0.7333  2.5244 -0.3840
 1853SOL     OW17017   2.386   2.849   7.397  0.0797  0.5041 -0.1055
 1853SOL    HW117018   2.454   2.806   7.449  0.3679  0.1544 -0.7677
 1853SOL    HW217019   2.322   2.877   7.463  0.3245  1.5432 -0.3260
 1854SOL     OW17020   4.498   4.661  14.278  0.5864  0.5021 -0.1804
 1854SOL    HW117021   4.413   4.699  14.256  1.2458  0.5337 -2.6690
 1854SOL    HW217022   4.478   4.628  14.366  1.0957 -1.6506 -0.8727
 1855SOL     OW17023   2.179   3.879  10.425 -0.2920 -0.0703  0.4090
 1855SOL    HW117024   2.233   3.818  10.375 -1.2547 -0.7370  0.1935
 1855SOL    HW217025   2.107   3.888  10.362 -0.8669 -2.7803  0.6968
 1856SOL     OW17026   0.552   1.563   7.412 -0.9417 -0.0099  0.4062
 1856SOL    HW117027   0.587   1.627   7.474 -2.4022  0.4265  0.7936
 1856SOL    HW217028   0.486   1.617   7.368  0.1019 -0.7404 -2.0047
 1857SOL     OW17029   2.068   4.321   4.511  0.0447 -0.0942 -0.1270
 1857SOL    HW117030   2.024   4.254   4.459  0.2033 -1.9603  2.1273
 1857SOL    HW217031   1.991   4.376   4.522 -1.4166 -2.1387 -0.1620
 1858SOL     OW17032   1.060   0.629   4.408  0.2317  0.4477 -0.1885
 1858SOL    HW117033   1.131   0.565   4.399  0.9515  1.1823  0.2703
 1858SOL    HW217034   1.029   0.634   4.317 -0.2876 -1.8708 -0.1485
 1859SOL     OW17035   3.042   2.066   9.574  0.5028 -0.2548  0.5597
 1859SOL    HW117036   2.994   1.986   9.555 -1.9055  0.7160  2.6603
 1859SOL    HW217037   3.128   2.040   9.607  0.4637  1.6471  2.1670
 1860SOL     OW17038   4.264   2.365  11.531  0.4442 -0.2962 -0.7436
 1860SOL    HW117039   4.341   2.314  11.557 -1.2913 -2.0504  0.9291
 1860SOL    HW217040   4.205   2.350  11.604  0.3356 -1.1126 -0.9953
 1861SOL     OW17041   0.005   2.666  14.659 -0.6879  0.4322  0.5636
 1861SOL    HW117042   4.656   2.634  14.716 -1.9204  2.3690  0.1229
 1861SOL    HW217043   4.693   2.752  14.631 -3.1043 -0.7128 -0.1460
 1862SOL     OW17044   4.359   3.122  16.836  0.1577  0.0060 -0.1183
 1862SOL    HW117045   4.355   3.086  16.924 -1.1730  1.9459  0.6004
 1862SOL    HW217046   4.451   3.100  16.826  0.3408  0.6661  0.1105
 1863SOL     OW17047   0.377   0.867   6.905 -0.3221  0.1137 -0.0849
 1863SOL    HW117048   0.451   0.918   6.937 -2.5947  3.3928 -0.0363
 1863SOL    HW217049   0.350   0.845   6.994 -0.0575  2.6848  0.6280
 1864SOL     OW17050   1.956   4.218  11.996 -0.0590 -0.2695  0.6673
 1864SOL    HW117051   1.864   4.192  11.990  0.2608 -1.5214  1.3309
 1864SOL    HW217052   2.000   4.136  12.017 -0.8923 -0.7082  0.6608
 1865SOL     OW17053   4.572   2.363   6.214 -0.0746 -0.0540 -0.0682
 1865SOL    HW117054   4.654   2.328   6.248 -1.0041 -0.4389  1.7870
 1865SOL    HW217055   4.596   2.425   6.145  0.0603  0.9546  0.8852
 1866SOL     OW17056   4.673   2.724   4.647  0.2264  0.0533 -0.5908
 1866SOL    HW117057   4.678   2.631   4.667 -1.5677 -0.4969 -2.7121
 1866SOL    HW217058   0.044   2.750   4.658 -0.2797  1.0017  1.5078
 1867SOL     OW17059   0.767   2.397  13.193 -0.8748 -0.0969  1.2927
 1867SOL    HW117060   0.719   2.427  13.116  0.7112 -3.8964 -1.1928
 1867SOL    HW217061   0.781   2.470  13.253 -0.3848 -0.4325  1.5895
 1868SOL     OW17062   4.141   4.258   8.073 -0.0211  0.2738 -0.3051
 1868SOL    HW117063   4.097   4.326   8.023 -0.1052 -1.4311 -2.5735
 1868SOL    HW217064   4.222   4.298   8.103  0.8976 -0.9742 -1.1021
 1869SOL     OW17065   2.809   3.636   9.246 -0.2159  0.4663  0.1512
 1869SOL    HW117066   2.728   3.686   9.231 -1.1547 -1.1643 -0.2275
 1869SOL    HW217067   2.810   3.643   9.341  3.2444 -1.3360  0.2269
 1870SOL     OW17068   0.756   4.239   0.004 -0.7748 -0.1982 -0.0071
 1870SOL    HW117069   0.662   4.249  17.675 -0.8289  1.8534  1.8149
 1870SOL    HW217070   0.781   4.331  17.682  1.1249 -0.9038 -2.6651
 1871SOL     OW17071   3.133   4.683  11.783  0.5423 -0.0862  0.5529
 1871SOL    HW117072   3.145   4.693  11.878 -0.2846  2.3767  0.4041
 1871SOL    HW217073   3.114   4.590  11.771  3.5916 -0.2426 -3.2812
 1872SOL     OW17074   4.692   3.654  12.865  0.3218 -0.3295 -0.0735
 1872SOL    HW117075   4.662   3.662  12.775 -0.0363 -1.5881 -0.0763
 1872SOL    HW217076   0.041   3.719  12.862 -0.5896  0.4551 -3.3218
 1873SOL     OW17077   2.217   1.484  15.829 -0.3249 -0.4707 -0.4611
 1873SOL    HW117078   2.209   1.573  15.862 -0.7821 -0.1051 -1.5665
 1873SOL    HW217079   2.125   1.460  15.815 -0.9526  0.1896  2.4967
 1874SOL     OW17080   0.193   3.518   0.429 -0.2404  0.0743 -0.1711
 1874SOL    HW117081   0.257   3.581   0.395 -0.1056  0.2773  0.4529
 1874SOL    HW217082   0.173   3.467   0.350 -0.6351  1.2667 -0.8460
 1875SOL     OW17083   1.081   0.959   3.365 -0.1858  0.7163  0.1316
 1875SOL    HW117084   1.044   0.870   3.369 -1.8793  1.4260  0.3088
 1875SOL    HW217085   1.164   0.937   3.323 -0.0098  2.6928 -0.5354
 1876SOL     OW17086   0.056   4.292   8.903  0.5608 -0.1979  0.0895
 1876SOL    HW117087   0.028   4.330   8.819  0.7137 -1.6116 -0.6093
 1876SOL    HW217088   0.017   4.205   8.890  2.3354 -1.1521  1.2351
 1877SOL     OW17089   2.250   2.501   6.163  0.3270 -0.4360 -0.2403
 1877SOL    HW117090   2.243   2.588   6.203  1.4343 -0.7297  0.5884
 1877SOL    HW217091   2.273   2.458   6.245 -2.6433 -0.0077  0.8386
 1878SOL     OW17092   3.895   3.871   1.501 -0.0276 -0.1036  0.1626
 1878SOL    HW117093   3.821   3.856   1.559  0.2258  3.2905  1.2992
 1878SOL    HW217094   3.964   3.830   1.554  2.2064  1.5214 -1.4445
 1879SOL     OW17095   3.276   3.531  14.786  0.4016  0.0388  0.1518
 1879SOL    HW117096   3.232   3.521  14.870 -0.0510  2.3448  0.1860
 1879SOL    HW217097   3.275   3.627  14.784  0.5999  0.0306 -0.2781
 1880SOL     OW17098   3.877   0.885  12.528 -0.1719 -0.2457 -0.4596
 1880SOL    HW117099   3.845   0.798  12.504  0.5783 -1.2618  2.2175
 1880SOL    HW217100   3.941   0.894  12.458  1.5491  2.2121  1.4669
 1881SOL     OW17101   3.001   3.091   3.883  0.1690  0.1528  0.0130
 1881SOL    HW117102   2.957   3.175   3.897  2.1998  0.8024  2.3433
 1881SOL    HW217103   3.051   3.084   3.964  2.3968  1.1305 -1.2923
 1882SOL     OW17104   1.816   2.405   6.156 -0.1469  0.4190 -0.2531
 1882SOL    HW117105   1.832   2.479   6.214 -2.9142 -0.9143  2.1806
 1882SOL    HW217106   1.813   2.451   6.072  0.6244  1.7100  0.4309
 1883SOL     OW17107   1.623   2.970   6.573  0.3054 -0.2594  0.6703
 1883SOL    HW117108   1.552   2.953   6.636 -1.1146 -1.4496 -1.2383
 1883SOL    HW217109   1.664   3.051   6.603 -0.5818 -0.3964  2.3161
 1884SOL     OW17110   1.947   3.724   3.886 -0.1753 -0.1569 -0.0481
 1884SOL    HW117111   2.004   3.801   3.890  0.8117 -0.7460 -2.8492
 1884SOL    HW217112   2.001   3.679   3.821 -0.5955 -0.8480  0.0731
 1885SOL     OW17113   1.018   2.459   6.307 -0.1483  0.3826  0.4117
 1885SOL    HW117114   1.067   2.429   6.384  0.7040  0.5816 -0.0585
 1885SOL    HW217115   0.927   2.454   6.337 -0.1501  1.4651  0.5848
 1886SOL     OW17116   2.522   2.260   9.135  0.2332  0.0831 -0.3711
 1886SOL    HW117117   2.556   2.177   9.103  0.7886 -0.1577  0.8684
 1886SOL    HW217118   2.459   2.224   9.197 -0.0944  1.2212 -0.0335
 1887SOL     OW17119   1.070   3.044   4.471 -0.1892  0.4303  0.2159
 1887SOL    HW117120   1.002   3.070   4.408 -1.8378  0.9531  2.2082
 1887SOL    HW217121   1.080   3.122   4.525  2.1989  0.1620  0.1556
 1888SOL     OW17122   0.914   4.641   4.400 -0.5667  0.1828  0.4474
 1888SOL    HW117123   0.955   4.648   4.487 -1.2100 -0.2258  0.7817
 1888SOL    HW217124   0.896   0.012   4.377 -0.8036 -0.2799 -1.1591
 1889SOL     OW17125   0.455   1.101   5.999  0.3292 -0.7775 -0.1790
 1889SOL    HW117126   0.402   1.078   5.922 -2.4165  1.1982  1.1055
 1889SOL    HW217127   0.394   1.090   6.072 -1.0221 -0.7871 -1.3052
 1890SOL     OW17128   3.736   3.216  10.810  0.5913 -0.4954 -0.2677
 1890SOL    HW117129   3.740   3.310  10.794  0.4755 -0.2451  1.1648
 1890SOL    HW217130   3.791   3.213  10.889  0.9844 -1.8411 -0.5888
 1891SOL     OW17131   2.149   2.022   2.789 -0.1033 -0.0243  0.0840
 1891SOL    HW117132   2.188   1.985   2.710  2.4732  0.7857  0.9526
 1891SOL    HW217133   2.059   1.997   2.769  0.0935 -0.4968 -0.2168
 1892SOL     OW17134   2.381   4.272   6.441 -0.2428  0.3290  0.1547
 1892SOL    HW117135   2.442   4.235   6.376 -1.6065 -1.5132 -0.0839
 1892SOL    HW217136   2.434   4.287   6.519  0.8908  2.3887 -1.0312
 1893SOL     OW17137   0.009   4.334   3.596  0.3436 -0.2221 -0.1903
 1893SOL    HW117138   0.046   4.356   3.510  0.0466 -1.3540 -0.6074
 1893SOL    HW217139   0.081   4.290   3.642 -0.0379 -1.1222 -0.4673
 1894SOL     OW17140   1.586   1.332   6.933  0.1271 -0.0068  0.1309
 1894SOL    HW117141   1.613   1.370   7.016  0.6199  0.6312 -0.3186
 1894SOL    HW217142   1.620   1.409   6.888  0.4573 -0.1019  0.2110
 1895SOL     OW17143   1.919   1.239  15.001 -0.0049 -0.5188 -0.0065
 1895SOL    HW117144   1.840   1.279  15.037 -1.2042 -1.1169 -2.0402
 1895SOL    HW217145   1.953   1.193  15.078  0.5111  2.5899  1.6414
 1896SOL     OW17146   0.937   1.392   6.741  0.5148 -0.0420 -0.8022
 1896SOL    HW117147   0.876   1.355   6.678 -0.9488 -1.0446  1.1730
 1896SOL    HW217148   1.016   1.344   6.718  1.4976  1.1998  0.0081
 1897SOL     OW17149   0.952   4.015  16.017  0.0483 -0.0983  0.3776
 1897SOL    HW117150   1.022   4.079  16.031  1.8492 -2.4951  2.4513
 1897SOL    HW217151   0.878   4.072  16.034 -0.3825 -0.9053  1.1992
 1898SOL     OW17152   3.224   1.091  16.119  0.1679  0.0043  0.3391
 1898SOL    HW117153   3.290   1.054  16.060  0.5383  0.7599  0.2830
 1898SOL    HW217154   3.165   1.016  16.121 -0.0755  0.2630  2.2476
 1899SOL     OW17155   3.780   2.264   8.993 -0.3845  0.1432  0.1238
 1899SOL    HW117156   3.745   2.259   8.904 -1.2819  2.3739  0.3499
 1899SOL    HW217157   3.860   2.215   8.975 -1.3255 -0.5653 -2.1007
 1900SOL     OW17158   3.968   0.841   6.103  0.2579 -0.0642 -0.3527
 1900SOL    HW117159   4.032   0.867   6.170 -0.8735  0.3259  0.5716
 1900SOL    HW217160   3.885   0.829   6.149  0.9132 -2.7233  0.1548
 1901SOL     OW17161   1.436   4.262   9.348 -0.3885  0.4313 -0.6543
 1901SOL    HW117162   1.363   4.210   9.314 -0.6263  0.4188 -0.1201
 1901SOL    HW217163   1.441   4.233   9.439  0.1214  2.2184 -0.1251
 1902SOL     OW17164   4.425   4.302   4.990  0.1373  0.6686  0.5119
 1902SOL    HW117165   4.335   4.334   4.986 -1.0491 -2.7444  0.1617
 1902SOL    HW217166   4.479   4.374   4.957 -0.1380  1.3347  1.5305
 1903SOL     OW17167   2.356   0.605   1.722 -0.5180 -0.0858 -0.8215
 1903SOL    HW117168   2.386   0.695   1.712  0.1917 -0.4696 -2.0727
 1903SOL    HW217169   2.377   0.597   1.629  1.0886 -0.8438 -0.3866
 1904SOL     OW17170   3.387   0.870  15.417  0.1454 -0.0260 -0.0100
 1904SOL    HW117171   3.340   0.886  15.499  2.0160  0.1228  1.0361
 1904SOL    HW217172   3.470   0.863  15.464 -0.1452 -2.0398  0.2262
 1905SOL     OW17173   0.209   4.020   4.535 -0.0145  0.5927 -0.0126
 1905SOL    HW117174   0.280   4.082   4.551  0.5908 -0.5848  1.7413
 1905SOL    HW217175   0.134   4.065   4.575  0.4547  0.9530  0.4540
 1906SOL     OW17176   2.647   1.563   3.514 -0.1903 -0.1898 -0.2316
 1906SOL    HW117177   2.604   1.479   3.496 -1.4016  0.2723  0.4904
 1906SOL    HW217178   2.663   1.566   3.608  0.7044  0.5623 -0.4047
 1907SOL     OW17179   0.668   3.970  14.841  0.2223  0.3693 -0.4863
 1907SOL    HW117180   0.694   3.906  14.907  1.1256  0.3327 -0.8784
 1907SOL    HW217181   0.749   4.016  14.820  0.8128 -1.2070 -1.6977
 1908SOL     OW17182   2.772   4.112   5.126  0.0230 -0.1624 -0.0623
 1908SOL    HW117183   2.761   4.050   5.055 -2.6417 -1.1614  1.2202
 1908SOL    HW217184   2.767   4.196   5.079  3.8599  1.0636  1.6942
 1909SOL     OW17185   1.289   1.160   9.929  0.2406  0.1651 -0.4211
 1909SOL    HW117186   1.226   1.178   9.999 -0.0434  2.0092 -1.1402
 1909SOL    HW217187   1.335   1.080   9.955 -1.1542 -0.7254 -0.6746
 1910SOL     OW17188   1.461   4.622  11.827  0.2993  0.3481 -0.1729
 1910SOL    HW117189   1.531   4.633  11.763 -0.6004 -1.1865 -1.4332
 1910SOL    HW217190   1.498   4.670  11.901  2.5162 -1.4797 -0.1125
 1911SOL     OW17191   1.855   1.479  10.869 -0.2091  0.0533  0.2154
 1911SOL    HW117192   1.913   1.413  10.831  1.7368  2.2757 -0.6921
 1911SOL    HW217193   1.905   1.490  10.950 -3.1730  0.8166  1.9365
 1912SOL     OW17194   3.618   2.480  12.460  0.0030 -0.6560  0.1698
 1912SOL    HW117195   3.632   2.512  12.549 -0.1997  1.8669 -0.7015
 1912SOL    HW217196   3.540   2.425  12.469 -0.1069 -0.5001  0.1654
 1913SOL     OW17197   2.864   1.666   6.298  0.6492  0.0695 -0.1281
 1913SOL    HW117198   2.800   1.605   6.260 -0.0245 -0.4315  1.7551
 1913SOL    HW217199   2.846   1.661   6.392 -0.2386 -2.0271 -0.4036
 1914SOL     OW17200   1.898   2.994   1.724 -0.5496  0.7517  0.0879
 1914SOL    HW117201   1.862   2.914   1.686 -0.2431 -0.4747  2.3317
 1914SOL    HW217202   1.834   3.053   1.683 -0.2213 -0.3771 -1.9960
 1915SOL     OW17203   3.047   3.894  11.215  0.0366 -0.5237 -0.1062
 1915SOL    HW117204   3.106   3.868  11.286 -0.7643  2.7712  1.7497
 1915SOL    HW217205   2.969   3.838  11.222 -0.2673 -0.0998 -0.1411
 1916SOL     OW17206   2.868   1.497   5.248  0.0618  0.4998 -0.1881
 1916SOL    HW117207   2.805   1.460   5.310 -0.2434  3.1651  1.0764
 1916SOL    HW217208   2.913   1.419   5.214  1.7045  0.4737  2.0433
 1917SOL     OW17209   2.312   2.693  14.104  0.1367  0.2595 -0.0992
 1917SOL    HW117210   2.312   2.777  14.148  0.8918  1.0789 -1.6281
 1917SOL    HW217211   2.235   2.655  14.144  0.0757  0.8530  0.3417
 1918SOL     OW17212   1.463   1.767   4.342 -0.2696  0.1195  0.2571
 1918SOL    HW117213   1.494   1.856   4.355 -2.2002  0.6565  1.2672
 1918SOL    HW217214   1.513   1.718   4.407  0.1838 -0.6401 -0.6620
 1919SOL     OW17215   3.582   4.579   5.614 -0.0596  0.0402 -0.4650
 1919SOL    HW117216   3.494   4.552   5.639 -0.8596 -0.0257 -3.3451
 1919SOL    HW217217   3.608   4.497   5.572 -0.0413 -0.8164  1.2158
 1920SOL     OW17218   0.667   2.074  16.928  0.3234  0.5270 -0.2705
 1920SOL    HW117219   0.753   2.041  16.901  0.9081  0.3230  1.8192
 1920SOL    HW217220   0.668   2.046  17.019 -2.4960 -0.3912 -0.5216
 1921SOL     OW17221   0.224   1.497   5.805  0.3674  0.6602  0.0516
 1921SOL    HW117222   0.201   1.590   5.806 -1.2194  0.2527  0.1256
 1921SOL    HW217223   0.228   1.487   5.710  1.9992  0.6060  0.1217
 1922SOL     OW17224   4.158   2.194   5.159 -0.4799 -0.8187  0.5514
 1922SOL    HW117225   4.161   2.193   5.063  1.7717 -0.8666  0.6290
 1922SOL    HW217226   4.144   2.287   5.175  0.3064 -0.5783 -0.1121
 1923SOL     OW17227   0.834   2.479   8.766 -0.2351  0.7219 -0.4515
 1923SOL    HW117228   0.899   2.531   8.813 -0.4857  0.5261  0.1156
 1923SOL    HW217229   0.784   2.433   8.833  0.6531 -0.9945 -0.9738
 1924SOL     OW17230   3.897   4.422   8.002 -0.4951 -0.0245  0.3965
 1924SOL    HW117231   3.916   4.495   8.061 -1.5860 -0.4755  1.3091
 1924SOL    HW217232   3.827   4.453   7.944 -0.0116 -1.7278 -1.0899
 1925SOL     OW17233   2.454   1.752   5.103 -0.2662  0.5136  0.3144
 1925SOL    HW117234   2.529   1.794   5.146  0.0047  0.6425 -0.2797
 1925SOL    HW217235   2.405   1.824   5.063 -0.1643  0.8878  0.8563
 1926SOL     OW17236   4.588   2.541   3.226 -0.1554 -0.0788 -0.2949
 1926SOL    HW117237   4.651   2.507   3.163 -1.1180  0.6702 -1.6527
 1926SOL    HW217238   4.571   2.622   3.179  0.5009  0.0925 -0.2391
 1927SOL     OW17239   3.117   1.713   8.444  0.4789 -0.0580 -0.2226
 1927SOL    HW117240   3.044   1.770   8.466 -0.1627 -0.3944 -1.4687
 1927SOL    HW217241   3.076   1.640   8.397 -0.3509 -0.2767  0.8551
 1928SOL     OW17242   4.093   3.795   4.085  0.0352 -0.6833  0.0735
 1928SOL    HW117243   4.153   3.724   4.110  0.5096  0.2507  1.5622
 1928SOL    HW217244   4.002   3.774   4.107  0.2602 -0.6722  1.0088
 1929SOL     OW17245   2.356   1.616   2.810 -0.2516  0.3784  0.4737
 1929SOL    HW117246   2.276   1.669   2.814 -0.7569 -0.3520 -0.0615
 1929SOL    HW217247   2.351   1.579   2.722  0.8446  0.5129  0.3592
 1930SOL     OW17248   4.486   2.899   6.631 -0.0770 -0.5289 -0.1121
 1930SOL    HW117249   4.468   2.958   6.704 -0.4317 -2.0134  1.0096
 1930SOL    HW217250   4.478   2.808   6.661  0.3158 -0.5016  0.0806
 1931SOL     OW17251   0.661   2.483   9.213 -0.3359 -0.3090  0.3363
 1931SOL    HW117252   0.679   2.445   9.127 -2.7642 -2.1047  0.5960
 1931SOL    HW217253   0.746   2.492   9.255 -0.6100  1.4209  0.4935
 1932SOL     OW17254   1.430   0.787  16.334  0.7042  0.0787 -0.2919
 1932SOL    HW117255   1.392   0.708  16.372  0.1689  0.9536  1.0011
 1932SOL    HW217256   1.522   0.761  16.334 -0.5795 -4.4382  0.1686
 1933SOL     OW17257   1.325   0.484   7.356 -0.3088 -0.3361 -0.1023
 1933SOL    HW117258   1.259   0.426   7.317 -0.8031  0.5371 -0.5521
 1933SOL    HW217259   1.284   0.570   7.344 -0.1244 -0.2174  0.1291
 1934SOL     OW17260   1.775   2.369   2.146 -0.5610 -0.4826 -0.4275
 1934SOL    HW117261   1.740   2.446   2.191  0.6666 -0.4241  0.4477
 1934SOL    HW217262   1.866   2.392   2.167 -1.0810  0.1455  1.1558
 1935SOL     OW17263   3.546   1.695   0.054 -0.0828 -0.1414  1.1841
 1935SOL    HW117264   3.514   1.731   0.136 -0.8986 -4.2077  2.6727
 1935SOL    HW217265   3.597   1.619   0.082 -0.2867 -0.3448  1.0027
 1936SOL     OW17266   4.265   0.963   5.503 -0.0044 -0.7549 -0.1892
 1936SOL    HW117267   4.313   0.885   5.531 -1.3187 -0.9161  1.6045
 1936SOL    HW217268   4.174   0.935   5.513  0.4121 -2.2914 -0.5802
 1937SOL     OW17269   0.080   0.679   1.314  0.2653 -0.3985  0.0786
 1937SOL    HW117270   0.149   0.682   1.248 -0.2796  0.9731 -0.4272
 1937SOL    HW217271   4.720   0.679   1.263 -0.3674 -1.4666  1.0693
 1938SOL     OW17272   1.094   1.350   7.928  0.5642  0.1517 -0.3374
 1938SOL    HW117273   1.153   1.327   8.000 -0.5234 -1.1991  0.1386
 1938SOL    HW217274   1.136   1.295   7.863 -0.9053 -0.9645 -0.3421
 1939SOL     OW17275   0.073   0.325   5.295  0.2922 -0.6872  0.2206
 1939SOL    HW117276   0.115   0.317   5.210  2.0691  0.9425  0.9554
 1939SOL    HW217277   4.708   0.354   5.262  1.1444 -0.2877 -1.6226
 1940SOL     OW17278   3.452   4.012   6.873  0.1047  0.1391 -0.1413
 1940SOL    HW117279   3.526   4.051   6.827 -0.8615 -0.0722 -1.8344
 1940SOL    HW217280   3.458   3.925   6.835  0.3844 -1.0489  2.6167
 1941SOL     OW17281   1.978   2.379   4.971  0.1770  0.2716 -0.0404
 1941SOL    HW117282   2.051   2.413   4.918  0.7970 -1.4613 -0.3004
 1941SOL    HW217283   1.951   2.305   4.916  3.7693 -1.2028  0.1465
 1942SOL     OW17284   3.200   2.222   8.332  0.2542  0.1676 -0.7399
 1942SOL    HW117285   3.218   2.217   8.426 -1.8680 -0.2819 -0.3582
 1942SOL    HW217286   3.115   2.179   8.336 -0.4770  1.6702  0.1596
 1943SOL     OW17287   3.907   4.172   2.267  0.0388 -0.7846 -0.5519
 1943SOL    HW117288   3.968   4.101   2.285  0.6727  0.1391  0.9375
 1943SOL    HW217289   3.923   4.188   2.174 -0.0252 -0.0537 -0.4333
 1944SOL     OW17290   1.556   4.247   8.519 -0.2515 -0.1871  0.0142
 1944SOL    HW117291   1.470   4.252   8.561 -1.1513 -3.2257 -1.4825
 1944SOL    HW217292   1.614   4.219   8.589  0.1965  0.0925 -0.2474
 1945SOL     OW17293   4.603   1.119   4.480  0.2048  0.1329 -0.1483
 1945SOL    HW117294   4.591   1.194   4.422  2.0829  1.5386  1.2687
 1945SOL    HW217295   4.527   1.072   4.446  1.0897 -1.6504  0.3241
 1946SOL     OW17296   4.392   3.286  10.947 -0.1831  0.4604  0.5737
 1946SOL    HW117297   4.475   3.276  10.900 -0.2097  2.0204  0.1969
 1946SOL    HW217298   4.389   3.197  10.984  0.1217 -0.8229 -2.4565
 1947SOL     OW17299   0.797   1.454   4.608  0.0179  0.3777 -0.1837
 1947SOL    HW117300   0.844   1.397   4.548  2.8076  1.6687  0.7853
 1947SOL    HW217301   0.725   1.492   4.558 -0.8980 -1.1910 -0.0481
 1948SOL     OW17302   1.102   3.682   3.243  0.2196 -0.0798  0.1996
 1948SOL    HW117303   1.026   3.626   3.254  1.4985 -1.6248  1.1710
 1948SOL    HW217304   1.063   3.747   3.184 -0.9479 -1.3405 -0.4026
 1949SOL     OW17305   3.861   4.023   6.121 -0.0133 -0.1498  0.3848
 1949SOL    HW117306   3.813   3.976   6.053 -2.8968 -1.0818  3.0667
 1949SOL    HW217307   3.939   3.972   6.141  0.2480 -0.1700 -0.7143
 1950SOL     OW17308   0.473   3.566   3.874 -0.5828  0.3196 -0.1671
 1950SOL    HW117309   0.528   3.490   3.858 -1.0555 -0.1308  0.3520
 1950SOL    HW217310   0.542   3.633   3.878 -0.1244 -0.1719  0.1485
 1951SOL     OW17311   2.068   2.027   3.916  0.1386 -0.0823 -0.9623
 1951SOL    HW117312   2.052   2.039   4.010 -3.0156 -0.8283 -1.4059
 1951SOL    HW217313   2.010   1.951   3.906 -0.1906  0.1869 -1.1045
 1952SOL     OW17314   3.010   2.375   7.323 -0.0515 -0.1214 -0.5541
 1952SOL    HW117315   2.919   2.377   7.293 -0.8578 -1.3582  1.7643
 1952SOL    HW217316   3.011   2.432   7.400  1.9760 -1.6875  0.5872
 1953SOL     OW17317   1.388   3.737  13.458 -0.3655  0.1316  0.1979
 1953SOL    HW117318   1.326   3.680  13.503  0.4576 -1.6767 -0.9681
 1953SOL    HW217319   1.466   3.705  13.503 -0.5945 -2.2473 -1.1154
 1954SOL     OW17320   4.409   0.320   7.051 -0.7369 -0.2448 -0.0459
 1954SOL    HW117321   4.442   0.286   7.134  1.8106  0.8635 -0.6156
 1954SOL    HW217322   4.319   0.289   7.041 -1.2376  0.9419  0.7136
 1955SOL     OW17323   2.723   3.260   2.149 -0.7869 -0.2136  0.2672
 1955SOL    HW117324   2.783   3.333   2.133 -1.6714  0.4859  0.1552
 1955SOL    HW217325   2.743   3.240   2.240 -0.2131  0.6558  0.3344
 1956SOL     OW17326   1.540   1.279   1.548  0.3098 -0.5834  0.2589
 1956SOL    HW117327   1.517   1.187   1.566  0.5669 -0.4149  1.4433
 1956SOL    HW217328   1.635   1.268   1.537  0.2738  0.1208 -0.6679
 1957SOL     OW17329   1.247   2.404   1.977  0.0909 -0.5570  0.0974
 1957SOL    HW117330   1.251   2.312   1.953 -0.7690 -0.4362 -0.5295
 1957SOL    HW217331   1.154   2.413   1.997 -0.0062  0.3948 -0.7636
 1958SOL     OW17332   2.067   4.442   7.408  0.4558  0.0214  0.2601
 1958SOL    HW117333   2.064   4.401   7.322 -0.7707  1.6607 -0.4958
 1958SOL    HW217334   2.133   4.511   7.402 -0.9353  1.5300  2.0185
 1959SOL     OW17335   0.575   1.298   7.469 -0.3161  0.2281 -0.4905
 1959SOL    HW117336   0.565   1.390   7.446 -2.3455  0.4227  1.1681
 1959SOL    HW217337   0.484   1.270   7.467 -0.2847  0.0987 -0.1070
 1960SOL     OW17338   1.277   2.924   6.977  0.4250 -0.0247  0.1699
 1960SOL    HW117339   1.354   2.975   6.999  0.3633 -0.4905  1.4640
 1960SOL    HW217340   1.209   2.963   7.033 -0.0217  0.9062 -1.0240
 1961SOL     OW17341   3.138   4.507  14.983  0.0332 -0.3275  0.1741
 1961SOL    HW117342   3.173   4.563  14.913 -0.6553 -0.1313 -0.0146
 1961SOL    HW217343   3.114   4.421  14.947  0.4236 -0.7886  1.0343
 1962SOL     OW17344   3.354   2.747   3.291  0.0942 -0.0747 -0.0950
 1962SOL    HW117345   3.322   2.836   3.303  1.0747  0.2879 -0.1124
 1962SOL    HW217346   3.448   2.761   3.306 -0.6565  2.7767  1.8283
 1963SOL     OW17347   3.293   2.776   7.151 -0.2801 -0.2451  0.0605
 1963SOL    HW117348   3.211   2.744   7.188 -0.1247 -0.8975 -0.1708
 1963SOL    HW217349   3.299   2.722   7.073  0.4462  0.5000 -0.4004
 1964SOL     OW17350   0.548   0.732  12.427 -0.0660  0.0767 -0.1759
 1964SOL    HW117351   0.472   0.675  12.420 -0.7156  0.8620  0.5114
 1964SOL    HW217352   0.622   0.689  12.384  0.8110  0.5357  0.8855
 1965SOL     OW17353   1.835   3.013   6.856 -0.5146  0.1891  0.0054
 1965SOL    HW117354   1.848   3.106   6.837  1.3327 -0.3803 -1.4879
 1965SOL    HW217355   1.898   2.979   6.792  2.2216  1.3458  2.0674
 1966SOL     OW17356   1.813   1.152   8.175 -0.3845 -0.2683  0.1271
 1966SOL    HW117357   1.739   1.172   8.117  0.0960  0.3990 -0.2628
 1966SOL    HW217358   1.807   1.237   8.220  0.3733 -1.6193  2.7919
 1967SOL     OW17359   4.679   0.263  11.600 -0.0913  0.7632 -0.6321
 1967SOL    HW117360   4.599   0.278  11.549  0.0518  1.3092 -0.6980
 1967SOL    HW217361   4.648   0.306  11.681 -2.0873  2.0458 -2.0711
 1968SOL     OW17362   3.319   4.242  10.498  0.2314 -0.3972 -0.0645
 1968SOL    HW117363   3.369   4.270  10.422 -1.0850  1.1451 -0.3507
 1968SOL    HW217364   3.368   4.289  10.567 -0.0070  1.7160 -1.3392
 1969SOL     OW17365   2.191   2.218   7.684  0.0361 -0.1290 -0.1103
 1969SOL    HW117366   2.108   2.176   7.660  0.0272 -0.2159  0.0739
 1969SOL    HW217367   2.177   2.243   7.775  5.0765 -0.1148  0.6519
 1970SOL     OW17368   1.849   2.524   6.627  0.1132 -0.2136 -0.0489
 1970SOL    HW117369   1.771   2.576   6.608 -0.0479 -0.5664 -0.3368
 1970SOL    HW217370   1.910   2.597   6.643 -2.4489  2.1537 -1.0814
 1971SOL     OW17371   4.210   1.950   3.345 -0.5128  0.3540  0.1488
 1971SOL    HW117372   4.214   2.046   3.354  1.5319  0.3194 -0.5519
 1971SOL    HW217373   4.132   1.922   3.394 -0.5797  0.6540  0.2151
 1972SOL     OW17374   4.435   3.274  17.132 -0.0521 -0.5882  0.1316
 1972SOL    HW117375   4.471   3.191  17.161  0.3077  0.3141  2.2733
 1972SOL    HW217376   4.481   3.343  17.181 -0.2389 -0.0251 -0.4753
 1973SOL     OW17377   1.067   2.133   1.778 -0.2161 -0.0741 -0.4575
 1973SOL    HW117378   1.135   2.149   1.844 -2.1762  0.6254  1.3700
 1973SOL    HW217379   1.101   2.052   1.740 -0.7142  0.4279 -1.9667
 1974SOL     OW17380   3.575   4.698   7.623 -0.0746  0.3110  0.4414
 1974SOL    HW117381   3.584   4.625   7.685  1.1525  0.2122  0.1374
 1974SOL    HW217382   3.637   0.042   7.655  0.9927 -1.0476  1.1026
 1975SOL     OW17383   4.031   2.239  13.781  0.2538 -0.0114  0.0421
 1975SOL    HW117384   4.099   2.282  13.834 -0.4403  1.2422 -0.0718
 1975SOL    HW217385   4.025   2.157  13.829 -0.6378  0.9939  1.6504
 1976SOL     OW17386   3.975   3.346  15.309  0.0457 -0.1472 -0.5083
 1976SOL    HW117387   3.912   3.311  15.371 -0.1142  1.4632  0.2401
 1976SOL    HW217388   4.055   3.319  15.355 -0.0961  2.8355  1.4606
 1977SOL     OW17389   3.628   4.064  17.153  0.1933 -0.3141 -0.4875
 1977SOL    HW117390   3.588   4.151  17.156  3.0530  0.9760 -0.6354
 1977SOL    HW217391   3.672   4.069  17.238 -0.3279  1.1034 -0.2983
 1978SOL     OW17392   2.229   1.983   6.482  0.1521 -0.2779  1.0571
 1978SOL    HW117393   2.259   2.054   6.426  1.2660 -1.1547  0.5219
 1978SOL    HW217394   2.225   2.028   6.567 -0.3813  2.2759 -0.3252
 1979SOL     OW17395   3.971   0.936  17.206 -0.2235 -0.1322 -0.3076
 1979SOL    HW117396   3.888   0.891  17.190 -1.3060  1.1171  1.8496
 1979SOL    HW217397   4.010   0.941  17.118  2.4745 -1.2785  0.8116
 1980SOL     OW17398   3.798   0.548  16.384 -0.0633  0.1884  0.3522
 1980SOL    HW117399   3.863   0.594  16.331 -0.6341  1.1020  0.4377
 1980SOL    HW217400   3.739   0.504  16.323 -0.3995  1.1949 -0.0521
 1981SOL     OW17401   1.189   1.711  15.314  0.1086 -0.1491 -0.1692
 1981SOL    HW117402   1.199   1.619  15.289 -0.9896  0.2639 -2.2200
 1981SOL    HW217403   1.183   1.691  15.407  0.5398  1.5371  0.2137
 1982SOL     OW17404   1.186   3.353   4.725 -0.4095 -0.0511  0.1125
 1982SOL    HW117405   1.224   3.318   4.644 -3.0424 -1.9257 -0.3113
 1982SOL    HW217406   1.097   3.375   4.698 -1.1532 -0.9069  1.8755
 1983SOL     OW17407   2.556   1.390  14.788 -0.1945  0.3202  0.0867
 1983SOL    HW117408   2.550   1.393  14.693 -2.5956 -1.5019  0.1928
 1983SOL    HW217409   2.586   1.302  14.810  0.8430  0.8650  0.8402
 1984SOL     OW17410   3.914   1.274   4.026  0.4071  0.2166 -0.2097
 1984SOL    HW117411   3.910   1.270   4.122 -1.4998  0.9313 -0.2590
 1984SOL    HW217412   3.911   1.369   4.021 -1.7389  0.1315 -0.3742
 1985SOL     OW17413   2.115   2.402  16.878  0.0068  0.2163  0.1988
 1985SOL    HW117414   2.028   2.430  16.909  0.1455  1.5948 -0.6727
 1985SOL    HW217415   2.136   2.358  16.961 -2.3633 -0.2897  0.5254
 1986SOL     OW17416   3.920   3.593  10.781  0.7257 -1.0134 -0.3426
 1986SOL    HW117417   4.011   3.622  10.774 -0.6990  3.3593 -0.7509
 1986SOL    HW217418   3.894   3.629  10.866  2.2620 -0.4595 -0.1063
 1987SOL     OW17419   3.455   0.791   4.640  0.2455 -0.1657  0.1487
 1987SOL    HW117420   3.438   0.731   4.712  0.5687  0.5905  0.8446
 1987SOL    HW217421   3.537   0.758   4.603 -0.4296 -1.8903  0.2090
 1988SOL     OW17422   0.669   0.853  11.157 -0.6973  0.2774 -0.0575
 1988SOL    HW117423   0.654   0.819  11.069  1.7255 -0.2174 -0.2772
 1988SOL    HW217424   0.714   0.780  11.201  0.5294  1.3064  0.4083
 1989SOL     OW17425   4.253   4.488   3.441 -0.0633  0.0134  0.2120
 1989SOL    HW117426   4.324   4.509   3.381  0.2912  0.3302  0.7475
 1989SOL    HW217427   4.215   4.576   3.439 -1.1214 -0.4015  1.9033
 1990SOL     OW17428   0.814   4.277   6.759  0.2302 -0.1493 -0.1981
 1990SOL    HW117429   0.871   4.339   6.713  2.5400 -2.0010  0.1375
 1990SOL    HW217430   0.763   4.241   6.686  3.5576 -1.8485 -1.6992
 1991SOL     OW17431   0.022   2.447  12.649 -0.1123  0.8056  0.8312
 1991SOL    HW117432   4.702   2.433  12.563  0.5476  1.8207  0.3519
 1991SOL    HW217433   4.672   2.421  12.708  1.7163 -0.0709  2.6456
 1992SOL     OW17434   2.116   3.191   7.306  0.3298 -0.5358  0.1047
 1992SOL    HW117435   2.112   3.131   7.380  0.5073 -0.7461 -0.0567
 1992SOL    HW217436   2.211   3.198   7.312  0.2512  0.5046  0.2103
 1993SOL     OW17437   4.053   1.642   6.657  0.3681  0.0734 -0.0401
 1993SOL    HW117438   4.110   1.596   6.595  2.3188  1.5302  0.6501
 1993SOL    HW217439   4.081   1.617   6.745  0.6344 -1.0832 -0.4483
 1994SOL     OW17440   2.714   4.368   8.376 -0.1645 -0.3790  0.3415
 1994SOL    HW117441   2.667   4.384   8.294  0.8259  2.1401  0.2766
 1994SOL    HW217442   2.774   4.294   8.365 -0.5761 -0.6835  0.1576
 1995SOL     OW17443   2.072   0.702   6.745  0.3134 -0.0808  0.3155
 1995SOL    HW117444   2.007   0.678   6.811 -1.4471  2.3107 -0.5834
 1995SOL    HW217445   2.027   0.766   6.691 -0.2420 -1.2191 -0.5765
 1996SOL     OW17446   1.741   4.353  16.658 -0.3282  0.4077 -0.1363
 1996SOL    HW117447   1.647   4.341  16.670 -0.5520  0.4820 -1.7096
 1996SOL    HW217448   1.761   4.290  16.588  2.1427 -0.0640  0.9995
 1997SOL     OW17449   0.460   2.608   6.604 -0.1096 -0.3804 -0.2604
 1997SOL    HW117450   0.439   2.602   6.511 -2.0182 -1.8220  0.2730
 1997SOL    HW217451   0.404   2.545   6.650 -1.6042  1.9527  1.1008
 1998SOL     OW17452   1.431   2.623   2.219 -0.4897 -0.1859  0.5999
 1998SOL    HW117453   1.502   2.581   2.267  0.9295  1.5965  0.0497
 1998SOL    HW217454   1.462   2.606   2.129  2.0700 -0.7122  1.5729
 1999SOL     OW17455   3.726   0.272  14.213  0.4449 -0.3978 -0.0641
 1999SOL    HW117456   3.682   0.250  14.295  0.7093  1.1275  0.4868
 1999SOL    HW217457   3.653   0.314  14.168 -0.6445 -0.0895  2.0052
 2000SOL     OW17458   4.516   1.981   2.507  0.1403  0.0562  0.6587
 2000SOL    HW117459   4.469   2.050   2.460 -0.8959 -1.9717 -1.2209
 2000SOL    HW217460   4.588   2.038   2.534  0.9367  0.2766 -1.9657
 2001SOL     OW17461   2.501   1.929   1.576 -0.2098 -0.2482  0.8021
 2001SOL    HW117462   2.428   1.986   1.600  1.2167  2.5954 -1.6229
 2001SOL    HW217463   2.462   1.896   1.495 -2.5254 -0.7765  2.1232
 2002SOL     OW17464   1.722   0.898   6.100 -0.4518 -0.0214  0.1103
 2002SOL    HW117465   1.756   0.894   6.011  0.4371 -0.9472  0.5008
 2002SOL    HW217466   1.738   0.990   6.122  0.6620  0.3103 -2.1351
 2003SOL     OW17467   3.627   3.811   2.505  0.2636 -0.1669 -0.2810
 2003SOL    HW117468   3.675   3.749   2.449 -0.8627 -0.7707 -0.5818
 2003SOL    HW217469   3.684   3.817   2.582 -0.9284  0.4047  0.5497
 2004SOL     OW17470   0.486   4.603   3.960  0.1381 -0.6643  0.0866
 2004SOL    HW117471   0.570   4.606   3.915 -1.0503 -1.4314 -2.1889
 2004SOL    HW217472   0.485   4.518   4.005  1.4441 -1.8185 -2.0452
 2005SOL     OW17473   3.232   0.878   2.516  0.2328 -0.0568 -0.1714
 2005SOL    HW117474   3.150   0.873   2.467 -0.3652 -5.3677  1.3138
 2005SOL    HW217475   3.201   0.929   2.590  1.6329 -0.5025  0.7259
 2006SOL     OW17476   2.303   3.112   3.911  0.6329  0.4088  0.3299
 2006SOL    HW117477   2.305   3.025   3.869  3.5799 -0.1679  1.6183
 2006SOL    HW217478   2.330   3.080   3.998  2.0019 -0.6785 -0.4854
 2007SOL     OW17479   2.907   4.485   7.928  0.7790  0.0883 -0.2173
 2007SOL    HW117480   2.970   4.416   7.948  0.2367 -0.9133 -2.0148
 2007SOL    HW217481   2.823   4.451   7.956  0.0297  0.7780 -1.6490
 2008SOL     OW17482   2.887   0.700   4.708 -0.1759 -0.9256  0.0227
 2008SOL    HW117483   2.973   0.719   4.669 -0.6012 -0.2464 -0.5722
 2008SOL    HW217484   2.843   0.667   4.630  0.0544  1.6201 -1.2111
 2009SOL     OW17485   4.289   2.865  17.302  0.4619 -0.4113  1.0399
 2009SOL    HW117486   4.363   2.810  17.327  1.0525 -0.5920 -1.1610
 2009SOL    HW217487   4.324   2.950  17.330 -2.0818  1.2370 -0.6998
 2010SOL     OW17488   2.328   3.377   9.838  0.3076  0.5548  0.1523
 2010SOL    HW117489   2.423   3.380   9.844  0.2693  0.4607  0.8354
 2010SOL    HW217490   2.319   3.282   9.827  0.0729  0.4468  1.3020
 2011SOL     OW17491   2.012   2.722   6.724  0.2045  0.2030  0.3949
 2011SOL    HW117492   2.080   2.739   6.789 -0.6159 -0.0392  1.3175
 2011SOL    HW217493   1.978   2.809   6.701 -1.0528 -0.5164 -0.5196
 2012SOL     OW17494   4.465   2.567  13.034 -0.4904 -0.8465  0.8003
 2012SOL    HW117495   4.472   2.623  12.956  2.4851 -1.1829  0.7995
 2012SOL    HW217496   4.387   2.600  13.078 -0.2361 -0.3562  0.8929
 2013SOL     OW17497   4.585   3.540   5.524 -0.2515 -0.0139  0.5961
 2013SOL    HW117498   4.669   3.580   5.505 -0.2099  0.6195  2.1512
 2013SOL    HW217499   4.603   3.496   5.607  0.7260 -0.3217  0.2186
 2014SOL     OW17500   1.278   1.959   4.535  0.2001  0.0442 -0.0093
 2014SOL    HW117501   1.275   1.993   4.446 -1.7154  1.1499  0.4797
 2014SOL    HW217502   1.217   1.886   4.527 -0.6117  0.5240  1.8887
 2015SOL     OW17503   0.008   3.462   0.914 -0.0639  0.2534 -0.5359
 2015SOL    HW117504   0.038   3.392   0.973  1.4392  0.4392 -1.0579
 2015SOL    HW217505   0.091   3.494   0.878 -0.6273  3.8988  1.4643
 2016SOL     OW17506   1.632   0.787  14.269 -0.3736  0.2289  0.0186
 2016SOL    HW117507   1.670   0.723  14.330 -0.5708  1.2257  1.1941
 2016SOL    HW217508   1.538   0.768  14.272 -0.3122 -0.2987 -1.3184
 2017SOL     OW17509   0.631   2.718  11.514  0.2936  0.0692  0.6506
 2017SOL    HW117510   0.592   2.791  11.467 -0.6377 -1.0973 -0.4031
 2017SOL    HW217511   0.581   2.642  11.483  0.7226 -0.0447  0.2318
 2018SOL     OW17512   3.711   1.933   7.507 -0.5241 -0.3186  0.0040
 2018SOL    HW117513   3.784   1.887   7.465  0.0750 -0.0878  0.7868
 2018SOL    HW217514   3.759   1.985   7.571 -0.3504 -1.0761  0.4867
 2019SOL     OW17515   4.572   0.210   1.367 -0.2482 -0.2491 -0.4397
 2019SOL    HW117516   4.603   0.150   1.435  1.2605  1.8491  0.7252
 2019SOL    HW217517   4.496   0.166   1.329 -0.2460 -1.5378  1.0092
 2020SOL     OW17518   0.437   2.101   6.602 -0.1174 -0.3197  0.3460
 2020SOL    HW117519   0.463   2.013   6.629  0.7130  0.3748  1.7899
 2020SOL    HW217520   0.519   2.133   6.564 -0.3454 -0.5057 -0.3131
 2021SOL     OW17521   0.110   4.683   8.298 -0.0524  0.4625 -0.1089
 2021SOL    HW117522   0.034   0.018   8.318 -0.5826  0.0268 -0.8995
 2021SOL    HW217523   0.182   0.024   8.287  1.0602 -1.3533 -2.8257
 2022SOL     OW17524   3.640   0.294   2.979 -0.3489 -0.2218 -0.5628
 2022SOL    HW117525   3.723   0.294   2.931  0.2958 -0.7530  0.5567
 2022SOL    HW217526   3.650   0.342   3.061  0.2699 -1.9394  0.3661
 2023SOL     OW17527   4.078   1.188  17.174 -0.4132 -0.0071 -0.1274
 2023SOL    HW117528   4.001   1.243  17.155  1.3362  2.2166 -0.7360
 2023SOL    HW217529   4.041   1.103  17.196 -0.0929  0.7994  3.5442
 2024SOL     OW17530   3.365   2.861   3.904 -0.2738  0.9842 -0.0372
 2024SOL    HW117531   3.352   2.767   3.920  0.9492  0.3353 -2.9021
 2024SOL    HW217532   3.290   2.890   3.956 -1.0810 -1.4203  0.1352
 2025SOL     OW17533   4.362   1.345   5.421 -0.1091  0.2343  0.2357
 2025SOL    HW117534   4.387   1.304   5.504 -0.6186  2.0190  1.2646
 2025SOL    HW217535   4.426   1.415   5.408 -1.7527  1.3268 -1.8648
 2026SOL     OW17536   0.062   2.473  11.090  0.3696 -0.2337  0.2658
 2026SOL    HW117537   0.149   2.490  11.055 -0.5533  1.4159 -1.2633
 2026SOL    HW217538   0.074   2.416  11.165  0.0237  0.1001  0.5787
 2027SOL     OW17539   2.442   2.627   8.132 -0.6654  0.0390 -0.0906
 2027SOL    HW117540   2.400   2.683   8.066 -2.3473 -1.1145  0.0167
 2027SOL    HW217541   2.516   2.685   8.150  1.6993 -2.6913 -1.1338
 2028SOL     OW17542   2.219   3.001   5.436 -0.1554  0.2498  0.2539
 2028SOL    HW117543   2.267   2.982   5.517 -1.1600 -1.0470  0.5350
 2028SOL    HW217544   2.177   2.917   5.417 -0.7554  0.4503  0.7173
 2029SOL     OW17545   0.435   2.949   4.869  0.7758 -0.7041 -0.3786
 2029SOL    HW117546   0.499   3.020   4.855  0.7473 -0.6619 -0.2921
 2029SOL    HW217547   0.461   2.922   4.957 -0.3083  0.3233  0.2577
 2030SOL     OW17548   2.024   1.095  13.049  0.4125 -0.2266 -0.6455
 2030SOL    HW117549   2.068   1.162  13.102 -1.3756  0.6108 -0.2191
 2030SOL    HW217550   2.103   1.049  13.022  1.3148  0.6471  0.5107
 2031SOL     OW17551   3.395   4.348   8.002  0.4656 -0.2054 -0.1957
 2031SOL    HW117552   3.421   4.423   8.055  1.5598 -1.2943  0.8252
 2031SOL    HW217553   3.398   4.281   8.070 -0.2304  2.6934  2.7008
 2032SOL     OW17554   2.976   3.668   7.652  0.2037 -0.5178 -0.7019
 2032SOL    HW117555   3.024   3.653   7.733 -1.0472  3.2819  0.7600
 2032SOL    HW217556   2.910   3.599   7.657 -1.3040  1.0542  1.1280
 2033SOL     OW17557   3.140   2.124   1.811  0.6384  0.4116 -0.0434
 2033SOL    HW117558   3.066   2.067   1.789  1.0537 -1.1080  2.4606
 2033SOL    HW217559   3.100   2.209   1.825  1.2855  0.1158  3.5968
 2034SOL     OW17560   4.678   1.738   2.940 -0.7806 -0.0753 -0.3628
 2034SOL    HW117561   4.655   1.830   2.939 -0.7371 -0.0671 -0.5335
 2034SOL    HW217562   4.611   1.704   2.881  0.0690  1.7653 -2.3371
 2035SOL     OW17563   2.486   2.822   4.796  0.2361  0.7973 -0.2610
 2035SOL    HW117564   2.434   2.871   4.860 -0.7484 -0.3719 -0.1800
 2035SOL    HW217565   2.506   2.738   4.837 -1.2009  0.6088  0.0428
 2036SOL     OW17566   2.453   2.717  10.849 -0.0750  0.6986  0.9737
 2036SOL    HW117567   2.536   2.758  10.876 -0.0532  1.5153 -0.3555
 2036SOL    HW217568   2.418   2.789  10.796  1.0481  2.0537  2.0580
 2037SOL     OW17569   1.190   1.415   3.010  0.7767  0.1385 -0.2041
 2037SOL    HW117570   1.252   1.472   2.964  1.2533 -0.7676 -0.6967
 2037SOL    HW217571   1.198   1.333   2.961 -0.1303  0.0864 -0.2644
 2038SOL     OW17572   3.363   4.204   7.059 -0.1313  0.4869  0.0029
 2038SOL    HW117573   3.369   4.161   7.144 -1.3487 -1.9132 -1.1240
 2038SOL    HW217574   3.400   4.134   7.006 -0.9308 -0.0600  0.1544
 2039SOL     OW17575   0.943   1.699   2.898  0.1963 -0.1693 -0.1336
 2039SOL    HW117576   1.027   1.716   2.857 -0.5960  0.6410 -1.4079
 2039SOL    HW217577   0.944   1.751   2.979 -1.4630  2.8475 -2.0521
 2040SOL     OW17578   3.358   1.229   7.354  0.4547 -0.5673 -0.8389
 2040SOL    HW117579   3.320   1.219   7.442  0.6114 -2.5452 -0.9942
 2040SOL    HW217580   3.317   1.311   7.327  2.7438  0.7599 -0.2775
 2041SOL     OW17581   3.088   2.754   0.712 -0.3495  0.1098  0.1083
 2041SOL    HW117582   3.104   2.844   0.683  0.1951  0.6782  2.1244
 2041SOL    HW217583   3.176   2.733   0.744 -0.5937 -0.7306  0.2342
 2042SOL     OW17584   0.130   3.940   2.378  0.7953 -0.7818  0.8838
 2042SOL    HW117585   0.164   3.937   2.468 -0.5253 -2.2553  1.3389
 2042SOL    HW217586   0.092   3.854   2.362  0.3933 -0.5878  0.7760
 2043SOL     OW17587   1.974   2.374  14.046 -0.4639 -0.0116 -0.4950
 2043SOL    HW117588   2.058   2.328  14.042 -0.8948 -0.6609 -2.0265
 2043SOL    HW217589   1.996   2.457  14.090 -2.2924  0.1929  0.0047
 2044SOL     OW17590   0.777   4.097  12.746 -0.0417 -0.5154 -0.3473
 2044SOL    HW117591   0.857   4.114  12.696 -0.6575  2.5313 -0.2896
 2044SOL    HW217592   0.810   4.012  12.774  1.0088  0.4020  1.1922
 2045SOL     OW17593   3.730   0.125   0.595  1.1354 -0.3256 -0.4725
 2045SOL    HW117594   3.740   0.220   0.605  1.1386 -0.3497 -0.2661
 2045SOL    HW217595   3.773   0.109   0.511  0.2426 -1.8684 -0.6332
 2046SOL     OW17596   1.624   3.229   0.110  1.1426 -0.4492  0.5235
 2046SOL    HW117597   1.538   3.188   0.115  0.9829 -0.0776  0.8120
 2046SOL    HW217598   1.618   3.289   0.184  1.6414 -0.5194  0.6184
 2047SOL     OW17599   1.438   2.310   3.281 -0.4908 -0.3023  0.2572
 2047SOL    HW117600   1.476   2.364   3.212 -0.9181 -0.4017 -0.0533
 2047SOL    HW217601   1.511   2.296   3.341  0.3090  0.5736 -0.5102
 2048SOL     OW17602   3.200   0.838   4.984 -0.4940 -0.9237  0.1669
 2048SOL    HW117603   3.181   0.805   4.896  0.6718  0.9637 -0.7802
 2048SOL    HW217604   3.129   0.793   5.029 -0.2534  0.3931  1.8376
 2049SOL     OW17605   3.871   1.257   9.408 -0.5028 -0.4354  0.0622
 2049SOL    HW117606   3.869   1.222   9.497  0.6207  0.8049  0.5774
 2049SOL    HW217607   3.875   1.180   9.352  2.2779 -1.7238  2.0578
 2050SOL     OW17608   3.376   4.122   7.422 -0.4269 -0.5092  0.4213
 2050SOL    HW117609   3.283   4.139   7.414 -0.4181  0.0170  1.3387
 2050SOL    HW217610   3.398   4.180   7.496 -0.9849  1.0357 -0.6276
 2051SOL     OW17611   1.580   1.337  15.476 -0.2952 -0.0354  0.0408
 2051SOL    HW117612   1.527   1.260  15.453  1.2818 -0.0457 -3.6245
 2051SOL    HW217613   1.650   1.285  15.516 -1.9345 -1.5694  0.8968
 2052SOL     OW17614   2.023   3.077   5.786 -0.0528 -0.3862 -0.3613
 2052SOL    HW117615   2.024   3.003   5.725  0.1669 -0.0232 -0.8031
 2052SOL    HW217616   1.991   3.035   5.865 -0.9078 -1.6891 -1.4038
 2053SOL     OW17617   2.101   3.240   5.384 -0.0447 -0.3466  0.6434
 2053SOL    HW117618   2.123   3.151   5.413 -1.2151 -0.4907  1.0965
 2053SOL    HW217619   2.141   3.285   5.458  0.1222 -0.4661  0.6269
 2054SOL     OW17620   0.297   3.144   4.579  0.2901 -0.1019 -0.2131
 2054SOL    HW117621   0.303   3.206   4.652  0.0965  0.2271 -0.4762
 2054SOL    HW217622   0.229   3.181   4.524 -0.5661  0.4463  1.2266
 2055SOL     OW17623   0.921   4.702   6.567  0.4578  0.2313 -0.5184
 2055SOL    HW117624   0.898   0.060   6.618 -2.1465 -1.1876  0.5173
 2055SOL    HW217625   1.000   0.014   6.526  2.4227 -1.0750  2.2348
 2056SOL     OW17626   2.499   0.612   7.939 -0.5221  0.1012 -0.3968
 2056SOL    HW117627   2.475   0.704   7.937 -2.2894 -0.3314  0.9871
 2056SOL    HW217628   2.585   0.613   7.982 -0.5872  3.7893 -0.3512
 2057SOL     OW17629   3.604   3.346   3.637  0.4822 -0.1916 -0.6554
 2057SOL    HW117630   3.555   3.330   3.718  1.9638 -0.2456  0.2384
 2057SOL    HW217631   3.563   3.285   3.576 -0.6174 -1.3141  1.1816
 2058SOL     OW17632   1.088   1.792   1.376 -0.0921  0.0758 -0.4614
 2058SOL    HW117633   1.075   1.741   1.296  2.0906 -1.2064  0.0092
 2058SOL    HW217634   1.141   1.864   1.339 -0.3477  0.4989  0.0060
 2059SOL     OW17635   4.010   3.494   8.390  0.1288 -0.3094 -0.1034
 2059SOL    HW117636   3.924   3.457   8.405 -0.0217  0.5158  1.0174
 2059SOL    HW217637   4.005   3.581   8.431 -1.1450  0.3901 -1.7231
 2060SOL     OW17638   2.470   0.382   3.730 -0.2875  0.0109  0.1570
 2060SOL    HW117639   2.454   0.314   3.665 -1.6471  2.0705 -1.6837
 2060SOL    HW217640   2.535   0.431   3.678  0.8814  0.6771  2.2597
 2061SOL     OW17641   3.062   4.199  12.897 -0.6942 -0.7761 -0.3917
 2061SOL    HW117642   3.151   4.195  12.863  0.2753  1.8719  1.8515
 2061SOL    HW217643   3.040   4.106  12.889  1.3204 -1.3176  0.3911
 2062SOL     OW17644   4.001   1.237   8.771 -0.0285 -0.1884 -0.4766
 2062SOL    HW117645   4.077   1.265   8.720  1.0759  1.0531  1.8874
 2062SOL    HW217646   4.008   1.300   8.843  2.2541 -2.6178  1.4179
 2063SOL     OW17647   0.987   2.524  10.000 -0.2982 -0.1376  0.4828
 2063SOL    HW117648   0.968   2.597   9.941  1.0330 -0.0737  0.1131
 2063SOL    HW217649   1.060   2.477   9.959  0.5649  0.2819  1.5505
 2064SOL     OW17650   1.317   0.998   6.826  0.6839 -0.0821 -0.1945
 2064SOL    HW117651   1.271   0.951   6.757 -0.9603  0.5207  0.4917
 2064SOL    HW217652   1.342   1.073   6.773  0.3601  0.2736  0.1587
 2065SOL     OW17653   4.213   4.286   6.609 -0.2475  0.3065 -0.6226
 2065SOL    HW117654   4.308   4.289   6.599 -0.0856  0.5677  1.0172
 2065SOL    HW217655   4.198   4.202   6.565  2.7229 -1.0210  0.9297
 2066SOL     OW17656   3.363   4.656   1.402  0.3144 -0.6385  0.6666
 2066SOL    HW117657   3.352   4.608   1.320  1.1053 -1.0903  0.8226
 2066SOL    HW217658   3.451   4.633   1.430  0.4993 -1.7709 -0.8697
 2067SOL     OW17659   4.123   0.857   6.323  0.1073  0.0947 -0.2962
 2067SOL    HW117660   4.148   0.777   6.367 -1.7127 -0.8990 -1.0638
 2067SOL    HW217661   4.142   0.918   6.394 -0.4132  1.4055 -1.2631
 2068SOL     OW17662   4.223   4.008   0.925 -0.3992  0.2646 -0.3484
 2068SOL    HW117663   4.186   3.965   1.002  2.5819 -0.4426  0.6983
 2068SOL    HW217664   4.249   4.095   0.954  0.8728 -0.4152  0.5787
 2069SOL     OW17665   4.443   1.173  11.190 -0.0865  0.2501 -0.7004
 2069SOL    HW117666   4.386   1.111  11.236 -0.3346  0.1404 -1.1593
 2069SOL    HW217667   4.389   1.245  11.159 -0.5595  0.1943 -0.0126
 2070SOL     OW17668   3.725   1.009   5.427 -0.7722 -0.1159  0.4902
 2070SOL    HW117669   3.733   1.036   5.336  1.5190  0.9946  1.0231
 2070SOL    HW217670   3.653   1.071   5.441 -2.3162 -2.5866  3.7332
 2071SOL     OW17671   0.411   2.296   3.770 -0.1395 -0.0109  0.3148
 2071SOL    HW117672   0.389   2.233   3.840 -2.2251 -2.0346 -2.1668
 2071SOL    HW217673   0.411   2.245   3.690 -1.0826  1.9068 -0.9023
 2072SOL     OW17674   0.955   0.957   5.833 -0.0816 -0.3580  0.4270
 2072SOL    HW117675   0.947   1.047   5.801  0.0703 -0.2582  0.6683
 2072SOL    HW217676   0.859   0.946   5.832 -0.0715 -0.1575 -2.4641
 2073SOL     OW17677   1.096   0.968   2.601  0.3293 -0.3197 -0.2733
 2073SOL    HW117678   1.051   0.899   2.552 -2.6739  0.4740  1.3638
 2073SOL    HW217679   1.029   1.031   2.578 -1.4815 -1.4006  2.0226
 2074SOL     OW17680   1.208   1.472   0.949  0.4276  0.0786 -0.5929
 2074SOL    HW117681   1.134   1.532   0.937  0.0104 -0.7220 -1.9611
 2074SOL    HW217682   1.238   1.513   1.031  1.2130  0.8984 -1.2853
 2075SOL     OW17683   2.144   2.806   0.299  0.2853 -0.2205 -0.3674
 2075SOL    HW117684   2.100   2.880   0.256  0.5436 -0.5647 -1.2266
 2075SOL    HW217685   2.217   2.805   0.237  0.0423 -0.8906 -0.6367
 2076SOL     OW17686   1.387   4.194  17.436 -0.1019  0.6043 -0.3760
 2076SOL    HW117687   1.444   4.270  17.449  0.8405 -0.1374 -0.1029
 2076SOL    HW217688   1.436   4.137  17.496 -2.0738  0.5755  1.2083
 2077SOL     OW17689   1.151   0.969   0.586 -0.1563  0.7511 -0.0338
 2077SOL    HW117690   1.146   0.955   0.491  0.6401  1.7221 -0.2244
 2077SOL    HW217691   1.176   1.061   0.578 -2.0143  0.9394 -3.6894
 2078SOL     OW17692   0.220   0.881   4.900  0.4954 -0.2337  0.5945
 2078SOL    HW117693   0.218   0.805   4.843  0.2649  0.1556  0.0854
 2078SOL    HW217694   0.273   0.847   4.973 -0.8002  0.8502  2.0364
 2079SOL     OW17695   2.424   3.109   8.340 -0.1911 -0.0254 -0.1483
 2079SOL    HW117696   2.518   3.103   8.328 -0.4538  0.7525 -2.5918
 2079SOL    HW217697   2.398   3.179   8.280 -1.6603 -0.0407  0.4476
 2080SOL     OW17698   1.904   3.891  16.303 -0.2945 -0.7476  0.0688
 2080SOL    HW117699   1.916   3.798  16.282  0.4388 -0.1249 -2.2250
 2080SOL    HW217700   1.992   3.920  16.279  0.2795 -2.3751  0.1873
 2081SOL     OW17701   0.743   1.552   9.112  0.2064 -0.1227 -0.5984
 2081SOL    HW117702   0.722   1.484   9.176  1.0695 -1.3426 -1.6071
 2081SOL    HW217703   0.700   1.629   9.150 -0.2986 -1.0820  0.7823
 2082SOL     OW17704   4.319   4.305  14.468 -0.6487  0.3404  0.3302
 2082SOL    HW117705   4.390   4.270  14.522 -1.9245  0.9270  2.4087
 2082SOL    HW217706   4.286   4.235  14.412 -0.7771 -0.3935  1.3264
 2083SOL     OW17707   4.225   4.111   4.305  0.1084  0.4267 -0.4098
 2083SOL    HW117708   4.174   4.172   4.252 -0.0940  0.0679 -0.6210
 2083SOL    HW217709   4.288   4.088   4.237  0.7915  1.3336 -0.0976
 2084SOL     OW17710   1.435   4.306   3.879 -0.3370 -0.0274  0.4430
 2084SOL    HW117711   1.383   4.372   3.924 -0.1052 -0.5831  1.5236
 2084SOL    HW217712   1.395   4.304   3.792 -0.0553  0.9377  0.2897
 2085SOL     OW17713   0.621   3.863   8.839  0.3944  0.1894  0.1777
 2085SOL    HW117714   0.559   3.914   8.787  1.1546 -1.3505 -2.2377
 2085SOL    HW217715   0.628   3.781   8.789 -1.9385 -0.8417  1.5035
 2086SOL     OW17716   0.405   4.699   1.334  0.4392  0.1709  0.2788
 2086SOL    HW117717   0.382   4.717   1.425  0.6924  2.3201 -0.0906
 2086SOL    HW217718   0.393   4.604   1.331  1.6890  0.0149  0.2961
 2087SOL     OW17719   4.695   2.379  11.368  0.2886 -0.4956 -0.3920
 2087SOL    HW117720   4.603   2.401  11.386  0.3294  0.8769 -1.8553
 2087SOL    HW217721   0.020   2.462  11.382  0.2014 -0.9581  2.6150
 2088SOL     OW17722   0.550   1.715  10.993 -0.0815  0.4685 -0.3605
 2088SOL    HW117723   0.609   1.640  10.989 -1.6043 -0.8384  1.9242
 2088SOL    HW217724   0.612   1.771  11.041 -1.1967  1.7730 -0.4238
 2089SOL     OW17725   4.275   0.036  17.501  0.0196  0.3767 -0.5137
 2089SOL    HW117726   4.209   4.701  17.458 -1.1362  1.9236 -0.7238
 2089SOL    HW217727   4.299   0.093  17.428 -0.3124  2.3188  0.9071
 2090SOL     OW17728   2.079   0.474  10.463  0.0544  0.1806 -0.7298
 2090SOL    HW117729   2.100   0.528  10.387 -0.6495  0.2849 -0.8549
 2090SOL    HW217730   2.164   0.435  10.483 -0.8768 -1.3232  0.2971
 2091SOL     OW17731   1.512   4.503  12.886 -0.1650 -0.2917  0.1583
 2091SOL    HW117732   1.485   4.428  12.939  0.0170 -2.6872 -3.1711
 2091SOL    HW217733   1.529   4.462  12.801  0.1010  1.9191 -0.8530
 2092SOL     OW17734   2.923   3.549   7.992 -0.4839 -0.3118 -0.1398
 2092SOL    HW117735   2.961   3.461   7.996  1.1345  0.4348  0.9576
 2092SOL    HW217736   2.979   3.589   8.059  0.2671  1.9561 -2.1163
 2093SOL     OW17737   4.476   2.472  13.945  0.0220  0.2271 -0.0108
 2093SOL    HW117738   4.405   2.510  13.997 -0.5342 -0.2609 -0.4255
 2093SOL    HW217739   4.433   2.417  13.880 -0.1829 -1.4498  1.5238
 2094SOL     OW17740   0.012   1.342   2.132  0.1812 -0.6861  0.0080
 2094SOL    HW117741   4.669   1.274   2.158  0.8003 -1.0278  0.6103
 2094SOL    HW217742   4.663   1.407   2.122  0.5070 -0.0301  2.0782
 2095SOL     OW17743   0.408   1.018  12.826 -0.0081 -0.3739 -0.3796
 2095SOL    HW117744   0.385   1.004  12.735  0.9040 -1.0473 -0.5105
 2095SOL    HW217745   0.486   1.074  12.821  0.1572 -0.3385  2.3914
 2096SOL     OW17746   4.468   2.826  12.049 -0.0224  0.2309 -0.1354
 2096SOL    HW117747   4.493   2.897  12.108 -1.6451 -0.9972  2.0125
 2096SOL    HW217748   4.553   2.798  12.014 -0.0371  0.8203 -0.6464
 2097SOL     OW17749   0.572   3.811  12.070  0.0793  0.2156 -0.0973
 2097SOL    HW117750   0.640   3.779  12.130  0.0860  1.6150  0.6301
 2097SOL    HW217751   0.516   3.851  12.136 -0.6473  0.7941 -1.0640
 2098SOL     OW17752   0.732   1.515   3.278 -0.5009  0.2591 -0.4047
 2098SOL    HW117753   0.725   1.449   3.209  0.2168  0.0088 -0.2353
 2098SOL    HW217754   0.677   1.479   3.348  1.0825 -0.2644  0.5639
 2099SOL     OW17755   0.702   2.276   4.140 -0.0145 -0.4699 -0.2971
 2099SOL    HW117756   0.783   2.231   4.166  0.4533 -1.0195 -2.6917
 2099SOL    HW217757   0.744   2.317   4.064  0.2238 -0.9055 -0.4056
 2100SOL     OW17758   3.206   0.794   7.539  0.0767  0.8334 -0.2053
 2100SOL    HW117759   3.225   0.791   7.445 -0.1697 -1.4746 -0.1852
 2100SOL    HW217760   3.186   0.700   7.537  2.0841  0.3527  1.8782
 2101SOL     OW17761   1.255   0.425  11.758  0.0672 -0.7878 -0.6555
 2101SOL    HW117762   1.205   0.454  11.834 -0.1964  0.6780 -1.3816
 2101SOL    HW217763   1.197   0.355  11.727  3.9740 -4.3112  0.0188
 2102SOL     OW17764   2.731   0.235   4.427  0.0478  0.3206  0.1568
 2102SOL    HW117765   2.639   0.244   4.400  0.1914 -0.7150 -0.6813
 2102SOL    HW217766   2.738   0.145   4.396  3.0680 -0.2669  2.5940
 2103SOL     OW17767   3.867   2.751  12.648 -0.6078 -0.0858 -0.6095
 2103SOL    HW117768   3.801   2.770  12.715 -0.4164  1.5961 -0.9114
 2103SOL    HW217769   3.921   2.827  12.670  0.8847 -1.7794  1.6323
 2104SOL     OW17770   4.475   4.636   1.486  0.3801 -0.1345  0.0715
 2104SOL    HW117771   4.540   4.674   1.545  0.9575  1.4750 -1.6154
 2104SOL    HW217772   4.519   4.554   1.466  1.0501 -0.2880  2.1529
 2105SOL     OW17773   1.241   2.807   1.127 -0.0473 -0.4477  0.9250
 2105SOL    HW117774   1.154   2.771   1.147  0.0754 -1.7474 -0.9101
 2105SOL    HW217775   1.229   2.897   1.158  0.3620  0.2939 -1.0993
 2106SOL     OW17776   2.857   2.780   9.418 -0.1095  0.2275 -0.1167
 2106SOL    HW117777   2.767   2.763   9.390  0.4119  0.0118 -1.6754
 2106SOL    HW217778   2.847   2.798   9.511  2.0087  5.1605 -0.8443
 2107SOL     OW17779   2.280   1.795   3.970 -0.1021  0.2131  0.4671
 2107SOL    HW117780   2.279   1.885   3.938 -2.4282 -0.1032 -0.3672
 2107SOL    HW217781   2.245   1.811   4.058 -0.3812  0.2571  0.3506
 2108SOL     OW17782   2.818   0.878   7.959  0.1633  0.1433 -0.0700
 2108SOL    HW117783   2.850   0.924   8.036  0.7553 -2.4713  1.2421
 2108SOL    HW217784   2.739   0.920   7.926 -0.4942 -0.5298  0.6491
 2109SOL     OW17785   1.957   3.922   2.971  0.1452 -0.3235 -0.8480
 2109SOL    HW117786   1.890   3.982   2.940 -1.4186 -0.9614  1.2428
 2109SOL    HW217787   1.990   3.968   3.048  1.7402  1.0788 -2.4027
 2110SOL     OW17788   1.506   2.029   0.238  0.3622  0.3605 -0.0274
 2110SOL    HW117789   1.424   1.985   0.259 -0.1047  1.0371 -0.4557
 2110SOL    HW217790   1.494   2.122   0.257  2.6833  0.2649  1.8707
 2111SOL     OW17791   0.523   3.221   3.624  0.4984  0.0233 -0.3875
 2111SOL    HW117792   0.432   3.234   3.597  0.5818 -0.4347 -0.8942
 2111SOL    HW217793   0.525   3.259   3.712 -1.3766  0.6892 -0.6444
 2112SOL     OW17794   3.306   2.024   0.073 -0.2479 -0.0735 -1.3092
 2112SOL    HW117795   3.217   2.038   0.040 -0.8939  0.0585  0.5251
 2112SOL    HW217796   3.355   2.062  17.684  0.2902  0.4803 -0.6514
 2113SOL     OW17797   0.697   1.635   4.378 -0.1787 -0.0563 -0.0035
 2113SOL    HW117798   0.733   1.706   4.430 -3.1998  2.2488 -1.0584
 2113SOL    HW217799   0.780   1.595   4.353 -0.6207 -0.0421 -1.4830
 2114SOL     OW17800   0.981   1.812   9.206  0.4317  0.1973  0.4968
 2114SOL    HW117801   0.957   1.898   9.171  0.3011  0.2693  0.7597
 2114SOL    HW217802   0.997   1.762   9.126  2.0116 -0.3807  1.1728
 2115SOL     OW17803   3.338   0.193   4.090 -0.3294  0.2636 -1.0721
 2115SOL    HW117804   3.384   0.272   4.118 -1.4916  1.3890 -2.3831
 2115SOL    HW217805   3.298   0.216   4.006 -3.3324 -0.1654  0.2522
 2116SOL     OW17806   2.042   4.621   3.170 -0.1029 -0.3153  0.2279
 2116SOL    HW117807   1.998   4.688   3.223  0.5055  0.7259 -0.5700
 2116SOL    HW217808   2.104   4.677   3.122  0.2214 -0.3136  0.6516
 2117SOL     OW17809   0.835   1.077   3.614  0.2051  0.2058  0.2327
 2117SOL    HW117810   0.816   0.984   3.610 -1.5795  0.5385  0.9137
 2117SOL    HW217811   0.817   1.112   3.527 -2.4050  1.1089  1.1543
 2118SOL     OW17812   1.862   3.353   9.500  0.3013 -0.2919 -0.0708
 2118SOL    HW117813   1.791   3.295   9.475 -0.8636 -0.0155  2.5893
 2118SOL    HW217814   1.894   3.377   9.413  1.1955  1.5572  0.7482
 2119SOL     OW17815   2.467   4.458   1.367  0.6096  1.0314  0.6585
 2119SOL    HW117816   2.472   4.440   1.273 -0.0863  0.0823  0.7959
 2119SOL    HW217817   2.381   4.499   1.365  0.3399  0.3456 -1.0775
 2120SOL     OW17818   2.060   3.071   4.180  0.5073 -0.5274  0.0465
 2120SOL    HW117819   2.070   2.978   4.161  0.6137 -0.3809 -0.6289
 2120SOL    HW217820   2.146   3.113   4.181  0.0689  0.4133 -0.8254
 2121SOL     OW17821   1.697   2.469   5.374  0.2458  0.8922  0.3503
 2121SOL    HW117822   1.707   2.453   5.280 -1.6098 -1.2078  0.5224
 2121SOL    HW217823   1.777   2.425   5.404 -0.2889 -0.9198 -0.8802
 2122SOL     OW17824   2.760   1.892   3.790 -0.2137  0.2641 -0.0838
 2122SOL    HW117825   2.778   1.923   3.701  1.6413 -1.3036 -0.2361
 2122SOL    HW217826   2.669   1.865   3.777 -0.7399  2.3742 -0.8274
 2123SOL     OW17827   0.819   3.429  15.926  0.3462 -0.5404  0.2173
 2123SOL    HW117828   0.845   3.514  15.962 -0.5564 -0.7463  1.3664
 2123SOL    HW217829   0.899   3.398  15.883  0.2709 -0.6626  0.1659
 2124SOL     OW17830   3.118   3.423   6.786  0.4383 -0.2670  0.0303
 2124SOL    HW117831   3.213   3.423   6.781  0.4597  0.3014  0.5783
 2124SOL    HW217832   3.092   3.421   6.878 -0.1031  1.4890 -0.0964
 2125SOL     OW17833   0.520   1.280   9.948  0.1090  0.1476  0.4913
 2125SOL    HW117834   0.517   1.306   9.856  0.0840  0.7279  0.6614
 2125SOL    HW217835   0.516   1.367   9.985 -2.3474  1.3911 -2.6584
 2126SOL     OW17836   3.079   0.581  11.378  0.2175  0.7830  0.0579
 2126SOL    HW117837   3.076   0.574  11.474 -2.0609 -0.0621 -0.0702
 2126SOL    HW217838   3.051   0.672  11.377  2.5906  1.4522 -3.8657
 2127SOL     OW17839   3.473   0.151   8.953 -0.3017  1.2516 -0.0553
 2127SOL    HW117840   3.564   0.175   8.968 -0.0566  0.9943 -1.1035
 2127SOL    HW217841   3.446   0.141   9.044 -0.1866  0.6694 -0.0805
 2128SOL     OW17842   0.264   3.316  12.898  1.0800  0.0687 -0.0056
 2128SOL    HW117843   0.220   3.358  12.972  0.0142 -0.0504 -0.5827
 2128SOL    HW217844   0.194   3.309  12.834  0.1136  2.7855  0.7555
 2129SOL     OW17845   1.325   0.358   3.947 -0.0859  0.4942 -0.2702
 2129SOL    HW117846   1.407   0.375   3.900  0.9307 -2.3896  0.4535
 2129SOL    HW217847   1.267   0.330   3.876  1.0771 -0.4314 -0.8675
 2130SOL     OW17848   0.047   4.122   0.892  0.3264 -0.0421  0.0828
 2130SOL    HW117849   0.004   4.047   0.933 -0.2010 -0.6250 -1.5618
 2130SOL    HW217850   0.142   4.106   0.899  0.3327 -0.5366 -1.2050
 2131SOL     OW17851   3.842   1.034   8.202 -0.3936  0.2377  0.2360
 2131SOL    HW117852   3.789   1.075   8.271 -1.3056  0.5063 -0.6383
 2131SOL    HW217853   3.885   1.113   8.168 -0.8949  1.0733  1.5284
 2132SOL     OW17854   1.570   1.145  14.336 -0.2249  0.1180  0.2136
 2132SOL    HW117855   1.600   1.223  14.382  1.4580 -1.5092  1.8972
 2132SOL    HW217856   1.477   1.136  14.355  0.0490 -0.5901  1.2470
 2133SOL     OW17857   0.574   2.037   2.953 -0.1156 -0.0791  0.1107
 2133SOL    HW117858   0.494   2.002   2.913  1.2574 -3.6493  0.5248
 2133SOL    HW217859   0.611   1.962   2.999  1.3963  0.8034  0.3396
 2134SOL     OW17860   1.035   0.431   4.210  0.7123  0.1752 -0.2338
 2134SOL    HW117861   0.952   0.397   4.178  0.0952  1.0343  0.4533
 2134SOL    HW217862   1.061   0.495   4.143  1.2245  0.3694  0.1526
 2135SOL     OW17863   4.611   1.739   3.912 -0.2538 -0.2056 -1.0515
 2135SOL    HW117864   4.582   1.710   3.825 -0.4320 -0.6792 -0.8359
 2135SOL    HW217865   4.652   1.824   3.899 -1.2781  0.3014 -0.9969
 2136SOL     OW17866   1.657   3.233   2.696  0.4578  0.4159  0.0355
 2136SOL    HW117867   1.748   3.215   2.721  0.3811  0.9954  0.7338
 2136SOL    HW217868   1.619   3.278   2.771  1.4672  1.6028 -0.1807
 2137SOL     OW17869   1.573   1.859  16.236  0.3887 -0.0726 -0.0199
 2137SOL    HW117870   1.595   1.945  16.272  1.3311 -0.3291  0.0126
 2137SOL    HW217871   1.607   1.856  16.147  1.9988 -0.5858  0.6170
 2138SOL     OW17872   0.515   1.181   6.441  0.0498  0.2238  0.2813
 2138SOL    HW117873   0.529   1.256   6.383  0.5617 -0.4745 -0.4788
 2138SOL    HW217874   0.476   1.220   6.520 -0.9978 -0.2870  0.0170
 2139SOL     OW17875   4.676   3.147  10.319 -0.4709  0.1459 -0.1558
 2139SOL    HW117876   4.716   3.168  10.404  0.0798  0.0080 -0.3775
 2139SOL    HW217877   4.665   3.052  10.325  2.1598 -0.0065  2.4821
 2140SOL     OW17878   0.765   0.865   4.394  0.1666  0.9029  0.0659
 2140SOL    HW117879   0.691   0.921   4.417  0.5858 -0.2093  4.2038
 2140SOL    HW217880   0.787   0.828   4.480 -1.9971 -1.4250 -0.3635
 2141SOL     OW17881   3.900   2.121  11.189  0.2532  0.2532 -0.0063
 2141SOL    HW117882   3.992   2.094  11.191 -0.0476 -0.7835  0.1539
 2141SOL    HW217883   3.914   2.214  11.200 -1.2798  0.5279 -0.3788
 2142SOL     OW17884   1.365   2.114  15.688 -0.0319  0.0672  0.1232
 2142SOL    HW117885   1.444   2.127  15.636  0.6786  1.5388  1.5932
 2142SOL    HW217886   1.303   2.111  15.615  0.3226 -2.2810 -0.0826
 2143SOL     OW17887   3.864   4.083   9.897 -0.1206 -0.1728 -0.0139
 2143SOL    HW117888   3.774   4.077   9.866 -0.2226 -2.4815  0.7761
 2143SOL    HW217889   3.856   4.154   9.960 -0.6436  2.3306 -2.8957
 2144SOL     OW17890   4.559   3.643   6.428  0.0401  0.2155  0.1190
 2144SOL    HW117891   4.502   3.681   6.362  1.4148 -0.3256 -1.3792
 2144SOL    HW217892   4.606   3.574   6.381 -1.1637  0.2128 -1.0573
 2145SOL     OW17893   3.199   1.267   3.351  0.4516 -0.3022  0.1503
 2145SOL    HW117894   3.222   1.244   3.261 -1.7913  0.9929 -0.7365
 2145SOL    HW217895   3.236   1.354   3.365  1.9575 -0.8077 -0.7096
 2146SOL     OW17896   2.622   0.644   5.706  0.6066  0.1567 -0.2533
 2146SOL    HW117897   2.615   0.554   5.738  0.9279  0.7429  1.4916
 2146SOL    HW217898   2.690   0.639   5.639  0.9839 -0.1405  0.1547
 2147SOL     OW17899   2.459   4.283   7.915 -0.1385  0.5795  0.0216
 2147SOL    HW117900   2.444   4.266   7.821  2.9918  0.7575 -0.5075
 2147SOL    HW217901   2.499   4.199   7.937  2.2640  1.9207  0.8518
 2148SOL     OW17902   3.929   0.232   6.815  0.1124 -0.5789 -0.2751
 2148SOL    HW117903   3.988   0.244   6.741  0.4749 -0.5313  0.0263
 2148SOL    HW217904   3.939   0.139   6.838  1.7351 -0.7457 -1.6687
 2149SOL     OW17905   0.727   1.757   1.436 -0.1221 -0.2475  0.1420
 2149SOL    HW117906   0.664   1.785   1.369 -1.4521 -2.9963  0.2502
 2149SOL    HW217907   0.786   1.719   1.370 -5.2408 -3.4358 -2.6128
 2150SOL     OW17908   0.867   3.330  10.834 -0.5553 -0.0619  0.2565
 2150SOL    HW117909   0.845   3.405  10.890 -1.9449 -1.5515  1.6878
 2150SOL    HW217910   0.879   3.375  10.750 -0.5905 -0.5423 -0.0033
 2151SOL     OW17911   3.907   1.363   3.659 -0.0381 -0.1109  0.4765
 2151SOL    HW117912   3.908   1.268   3.673 -1.0483  0.1512  2.3033
 2151SOL    HW217913   3.813   1.378   3.654 -0.3281 -1.4317  1.9700
 2152SOL     OW17914   1.130   2.226  14.848  0.3330 -0.6890 -0.4031
 2152SOL    HW117915   1.106   2.145  14.894  0.8243 -1.0385 -0.7553
 2152SOL    HW217916   1.191   2.191  14.783  1.6173  2.4779 -0.8706
 2153SOL     OW17917   1.191   3.359  12.179  0.8806  0.0873 -0.0236
 2153SOL    HW117918   1.112   3.309  12.160  1.4978 -0.3659 -1.4025
 2153SOL    HW217919   1.173   3.433  12.121  1.0846  0.8396  0.8776
 2154SOL     OW17920   0.008   1.306   5.769 -0.6878  0.0118  0.4569
 2154SOL    HW117921   0.072   1.359   5.817  0.1733 -2.7160  2.3748
 2154SOL    HW217922   0.068   1.277   5.701 -0.0046 -0.8093  1.4077
 2155SOL     OW17923   2.249   1.266  14.754  0.2722 -0.1402 -0.3215
 2155SOL    HW117924   2.253   1.219  14.671  0.7643  1.7925 -1.3887
 2155SOL    HW217925   2.231   1.353  14.720 -0.1528 -0.5580 -1.1821
 2156SOL     OW17926   3.441   3.983   2.365 -0.4569  0.1459  0.3782
 2156SOL    HW117927   3.503   3.923   2.407 -0.4570 -1.0705 -1.3704
 2156SOL    HW217928   3.454   4.064   2.413 -3.0981 -0.0490  1.3950
 2157SOL     OW17929   3.892   1.453   8.550  0.2314  0.4515  0.1790
 2157SOL    HW117930   3.926   1.367   8.575 -1.4578 -0.7560 -1.6175
 2157SOL    HW217931   3.886   1.490   8.638 -1.2965 -0.3144  0.3970
 2158SOL     OW17932   0.164   2.612   7.577 -0.0879 -0.2202 -0.3797
 2158SOL    HW117933   0.089   2.632   7.634 -1.1612 -1.8318 -1.2294
 2158SOL    HW217934   0.218   2.552   7.628  1.3009  0.0219 -1.5812
 2159SOL     OW17935   3.413   4.287   1.620 -0.0331 -0.2916  0.0067
 2159SOL    HW117936   3.429   4.206   1.668  1.9024  1.4900  2.3604
 2159SOL    HW217937   3.402   4.253   1.531  2.3710 -0.4310 -0.2426
 2160SOL     OW17938   4.347   3.028   4.359  0.4646 -0.3400 -0.1779
 2160SOL    HW117939   4.271   2.995   4.407 -0.6620 -0.0778 -1.7707
 2160SOL    HW217940   4.400   2.950   4.341  0.4387  0.3289 -3.2702
 2161SOL     OW17941   1.050   3.746   4.160  0.1861 -0.3583  0.5336
 2161SOL    HW117942   1.075   3.656   4.180 -0.1241 -0.6256 -0.2883
 2161SOL    HW217943   1.022   3.737   4.069  1.3403 -0.1427  0.1636
 2162SOL     OW17944   4.495   0.174   6.811 -0.1369 -0.6652  0.6967
 2162SOL    HW117945   4.406   0.179   6.846 -0.3570 -1.6450  0.2631
 2162SOL    HW217946   4.518   0.267   6.804 -0.9914 -0.4747  0.4721
 2163SOL     OW17947   4.189   1.633   5.456 -0.7542  0.3657 -0.3085
 2163SOL    HW117948   4.095   1.641   5.442 -0.3765 -0.2511 -3.0897
 2163SOL    HW217949   4.209   1.592   5.372 -1.0164 -1.5165  0.5542
 2164SOL     OW17950   3.022   4.603   7.402  0.0848 -0.1611 -1.2504
 2164SOL    HW117951   2.938   4.564   7.426  0.8899 -0.9972  0.1788
 2164SOL    HW217952   3.056   4.524   7.361 -1.1822 -1.1779 -0.3578
 2165SOL     OW17953   2.611   1.741   7.862  0.7033  0.0612  0.1580
 2165SOL    HW117954   2.597   1.664   7.917 -0.7094  0.6822  0.6700
 2165SOL    HW217955   2.705   1.752   7.872  0.0624  1.4982  4.4057
 2166SOL     OW17956   3.515   2.488   2.693 -0.2027  0.1013  0.4906
 2166SOL    HW117957   3.494   2.409   2.743  1.5676 -0.3799  0.4593
 2166SOL    HW217958   3.604   2.473   2.661 -0.4232  0.1300 -0.1443
 2167SOL     OW17959   2.102   4.516  16.495  0.3569  0.3386  0.2132
 2167SOL    HW117960   2.177   4.521  16.554 -0.1095  1.6752  0.6940
 2167SOL    HW217961   2.129   4.552  16.411 -0.0214  0.1536  0.0144
 2168SOL     OW17962   4.556   4.547  12.298 -0.1576  0.3796 -0.2760
 2168SOL    HW117963   4.505   4.533  12.218  0.8200  0.8224 -0.9710
 2168SOL    HW217964   4.550   4.475  12.361 -1.5526 -0.0812 -0.9215
 2169SOL     OW17965   0.852   0.260  13.645  0.6623  0.5341  0.4029
 2169SOL    HW117966   0.813   0.342  13.675 -0.1206  1.2709 -2.6130
 2169SOL    HW217967   0.929   0.290  13.598  1.2978 -2.0287 -0.2170
 2170SOL     OW17968   3.887   3.078   3.433  0.5103 -0.2014 -0.0898
 2170SOL    HW117969   3.885   3.148   3.498 -1.0734  0.0885 -0.4574
 2170SOL    HW217970   3.825   3.119   3.373 -0.4806  1.9868  2.4186
 2171SOL     OW17971   2.087   2.025   3.258 -0.0612 -0.1758 -0.1164
 2171SOL    HW117972   2.128   2.007   3.173 -2.3005 -2.1016 -0.8053
 2171SOL    HW217973   2.166   2.018   3.311 -0.0600  2.1285  0.1869
 2172SOL     OW17974   2.529   0.958  11.764  0.7590 -0.1075  0.6715
 2172SOL    HW117975   2.578   0.958  11.846 -0.6893 -0.9078  1.5357
 2172SOL    HW217976   2.591   1.000  11.704 -0.6819  0.6309 -0.3055
 2173SOL     OW17977   1.880   1.273  11.917  0.0494 -0.6731  0.2223
 2173SOL    HW117978   1.909   1.189  11.953  1.3367  0.2287  1.3084
 2173SOL    HW217979   1.955   1.290  11.861 -1.1816 -0.4306 -1.3351
 2174SOL     OW17980   4.131   4.190   7.793 -0.0431  0.2694 -0.3161
 2174SOL    HW117981   4.196   4.260   7.787  0.4064 -0.1068  0.0735
 2174SOL    HW217982   4.095   4.196   7.882  0.6622 -1.1670  0.0650
 2175SOL     OW17983   3.760   3.862   7.542  0.1028  0.0389  0.0415
 2175SOL    HW117984   3.748   3.843   7.449  1.3016 -0.6272  0.0182
 2175SOL    HW217985   3.724   3.950   7.551  0.6490  0.6714 -3.6811
 2176SOL     OW17986   2.147   2.890   0.564 -0.1349  0.3471  0.0877
 2176SOL    HW117987   2.142   2.868   0.471  0.3769 -2.2588  0.6892
 2176SOL    HW217988   2.222   2.838   0.593 -0.3623 -1.1832 -2.0925
 2177SOL     OW17989   4.035   2.294  10.381  0.1666  0.0264 -0.3465
 2177SOL    HW117990   4.071   2.319  10.296  1.0871 -0.3784 -0.0745
 2177SOL    HW217991   4.035   2.380  10.423 -4.7190 -0.6863  1.0947
 2178SOL     OW17992   1.880   4.170  16.244  0.0472 -0.6292  0.0082
 2178SOL    HW117993   1.929   4.095  16.210  0.4534  0.5701 -2.0728
 2178SOL    HW217994   1.915   4.177  16.332  2.2761  0.0405 -0.9338
 2179SOL     OW17995   0.740   0.620  12.744  0.3342  0.4542 -0.1052
 2179SOL    HW117996   0.704   0.571  12.817 -2.1023  2.5637  0.0986
 2179SOL    HW217997   0.742   0.557  12.672  2.0752 -0.5623  0.8365
 2180SOL     OW17998   1.909   4.593  15.501 -0.0361  1.0669  0.2323
 2180SOL    HW117999   1.904   4.630  15.590 -0.4114 -0.5091  0.8727
 2180SOL    HW218000   1.988   4.540  15.511  0.3820  2.0354  2.0658
 2181SOL     OW18001   3.049   2.064   4.933  1.0404  0.2678  0.1246
 2181SOL    HW118002   3.130   2.014   4.924  0.9232 -0.0636  0.8794
 2181SOL    HW218003   3.012   2.069   4.845  2.4657  1.1462 -0.4245
 2182SOL     OW18004   4.591   0.247   7.656  0.3443  0.4884 -0.8606
 2182SOL    HW118005   4.637   0.326   7.629 -0.2593  0.8477 -0.8322
 2182SOL    HW218006   4.636   0.174   7.613  0.5620 -0.0624  0.3102
 2183SOL     OW18007   0.282   1.925   9.509 -0.4295  0.0173  0.0315
 2183SOL    HW118008   0.243   1.844   9.543 -0.2707 -0.1092 -0.0891
 2183SOL    HW218009   0.258   1.993   9.572  2.0190  1.5221 -0.6948
 2184SOL     OW18010   2.550   1.377   8.363 -0.5580 -0.3876  0.0239
 2184SOL    HW118011   2.457   1.402   8.362 -0.7735 -1.2222 -0.5972
 2184SOL    HW218012   2.570   1.353   8.454 -3.8569 -2.0778  0.3105
 2185SOL     OW18013   0.389   2.018   6.867  0.8116 -0.1867  0.0976
 2185SOL    HW118014   0.393   2.074   6.789  1.4111  2.3869  1.9738
 2185SOL    HW218015   0.481   1.994   6.879  1.0968  0.8317 -0.0269
 2186SOL     OW18016   3.764   2.048   5.680  0.5046 -0.1796 -0.0706
 2186SOL    HW118017   3.712   1.978   5.720  1.6429 -2.3372 -2.3359
 2186SOL    HW218018   3.849   2.027   5.719  0.6033 -0.5805 -0.4974
 2187SOL     OW18019   0.720   2.381   6.758  0.3405  0.3939  0.0126
 2187SOL    HW118020   0.659   2.335   6.815  0.9711 -1.0342 -0.4439
 2187SOL    HW218021   0.721   2.327   6.679  1.6498  1.7832 -0.9368
 2188SOL     OW18022   3.695   0.916   5.695  0.1869  0.8388  0.0919
 2188SOL    HW118023   3.607   0.896   5.664  0.4644  1.0504 -0.8536
 2188SOL    HW218024   3.728   0.950   5.611  0.3511  1.2546  0.3236
 2189SOL     OW18025   2.297   2.365  13.878 -0.5927 -0.8076 -0.8563
 2189SOL    HW118026   2.260   2.309  13.947  0.3307  2.2349  2.0826
 2189SOL    HW218027   2.295   2.300  13.807 -1.9663 -2.7428  0.9666
 2190SOL     OW18028   2.325   2.088   1.206  0.2451 -0.1299  0.3268
 2190SOL    HW118029   2.327   2.094   1.110 -3.3863 -0.8746  0.1926
 2190SOL    HW218030   2.406   2.131   1.233  0.6959 -1.0508  0.4445
 2191SOL     OW18031   4.474   0.256   7.299 -0.0322 -0.1677 -0.0624
 2191SOL    HW118032   4.531   0.191   7.257 -1.5298 -0.9318 -0.9778
 2191SOL    HW218033   4.543   0.313   7.331  0.7067 -0.4743 -1.1008
 2192SOL     OW18034   2.056   1.877   6.831 -0.3548  0.5561 -0.1541
 2192SOL    HW118035   2.024   1.875   6.741  0.5980  2.2037 -0.5355
 2192SOL    HW218036   1.989   1.831   6.881 -0.9929 -0.5919 -2.0584
 2193SOL     OW18037   0.926   0.055   6.209  0.6419  0.4986 -0.4426
 2193SOL    HW118038   0.997   0.005   6.249 -0.0246 -0.1320 -0.0428
 2193SOL    HW218039   0.951   0.058   6.116  0.9687 -0.9532 -0.4036
 2194SOL     OW18040   3.995   3.346  15.674 -0.2161 -0.2123 -0.0967
 2194SOL    HW118041   3.939   3.313  15.604 -0.4070 -0.1349  0.0204
 2194SOL    HW218042   4.076   3.350  15.623 -0.0166 -0.7622  0.1810
 2195SOL     OW18043   4.383   2.795   4.078 -0.2312 -0.1182 -0.3412
 2195SOL    HW118044   4.356   2.714   4.035  0.4346 -1.0012  0.9244
 2195SOL    HW218045   4.405   2.755   4.162 -2.6759  1.5531  1.0721
 2196SOL     OW18046   2.702   2.375   1.703  0.3358  0.1793 -0.9125
 2196SOL    HW118047   2.659   2.426   1.772 -0.2189  1.7965 -2.4655
 2196SOL    HW218048   2.788   2.355   1.741 -0.5801 -0.7395  0.6920
 2197SOL     OW18049   1.137   0.953   5.022  0.0972 -0.1097  0.0356
 2197SOL    HW118050   1.081   1.022   4.985 -1.9354 -1.6519  0.2090
 2197SOL    HW218051   1.212   1.006   5.050 -0.2012 -0.9670  2.4434
 2198SOL     OW18052   0.288   4.647   5.248 -0.2538  0.5003  0.1305
 2198SOL    HW118053   0.353   4.697   5.198  0.2840  0.0243  0.3533
 2198SOL    HW218054   0.326   4.560   5.238  0.3660  0.5312  2.1747
 2199SOL     OW18055   0.121   1.063   1.575 -0.0337  0.0942 -0.1966
 2199SOL    HW118056   0.032   1.095   1.591  0.6956  1.3808  1.3734
 2199SOL    HW218057   0.161   1.056   1.662  0.3823 -0.9794 -0.4767
 2200SOL     OW18058   2.502   0.423  11.547  0.3189 -0.3548 -0.0828
 2200SOL    HW118059   2.517   0.339  11.505  0.5401 -0.1522 -0.4144
 2200SOL    HW218060   2.420   0.449  11.506  0.3597 -0.1992 -0.0674
 2201SOL     OW18061   3.597   3.672   8.392 -0.1283  0.0402 -0.0212
 2201SOL    HW118062   3.524   3.667   8.454  1.3293 -0.8484  1.6420
 2201SOL    HW218063   3.654   3.607   8.434  1.6542  2.5504  1.4207
 2202SOL     OW18064   3.586   2.491   0.142 -0.0482  0.3738  0.2700
 2202SOL    HW118065   3.669   2.506   0.188  1.6797  0.3725 -2.8691
 2202SOL    HW218066   3.562   2.406   0.178  0.3001 -0.4406 -1.4454
 2203SOL     OW18067   0.352   4.378   1.046 -0.0349  0.3226 -0.2629
 2203SOL    HW118068   0.350   4.400   1.140  0.9036 -0.0410 -0.1488
 2203SOL    HW218069   0.274   4.329   1.024 -0.3560  0.7241 -0.0269
 2204SOL     OW18070   2.945   2.713   6.478 -0.3972 -0.1366 -0.2131
 2204SOL    HW118071   2.954   2.621   6.454 -2.6885 -0.2515 -0.6559
 2204SOL    HW218072   3.037   2.737   6.486 -0.2175 -1.2532  1.0134
 2205SOL     OW18073   3.802   3.569   7.506 -0.0586 -0.0645 -0.1763
 2205SOL    HW118074   3.775   3.655   7.538  2.8647  1.1527 -0.9203
 2205SOL    HW218075   3.754   3.550   7.426 -3.2005  0.3489  1.6391
 2206SOL     OW18076   1.473   3.321   5.518  0.0155 -0.1082 -0.2184
 2206SOL    HW118077   1.486   3.378   5.441  0.3298 -0.8576 -0.7210
 2206SOL    HW218078   1.549   3.264   5.506 -0.2498 -0.6399  0.6862
 2207SOL     OW18079   4.392   0.538   3.671 -0.0256 -0.0478  0.1694
 2207SOL    HW118080   4.303   0.564   3.692  0.5234  1.4014  0.6785
 2207SOL    HW218081   4.431   0.529   3.758 -1.7463 -0.6615  0.8667
 2208SOL     OW18082   0.682   1.551   7.152 -0.8888 -0.5590 -0.0594
 2208SOL    HW118083   0.772   1.521   7.168  0.7661  3.6287 -1.3473
 2208SOL    HW218084   0.648   1.559   7.241 -2.6196  1.2797 -0.8788
 2209SOL     OW18085   0.701   1.152   3.356  0.0928  0.0998 -0.2724
 2209SOL    HW118086   0.645   1.229   3.349  1.3984  1.1346  0.7918
 2209SOL    HW218087   0.634   1.086   3.377  0.8678 -1.2719 -2.1649
 2210SOL     OW18088   1.384   4.389   8.837  0.3738  0.3970 -0.5397
 2210SOL    HW118089   1.452   4.326   8.814  1.6243  1.1134  1.1773
 2210SOL    HW218090   1.328   4.394   8.760  0.4286  0.1841 -0.5951
 2211SOL     OW18091   0.848   4.447   5.022 -0.0492  0.2183  0.2820
 2211SOL    HW118092   0.928   4.416   5.064 -0.0637  1.5663  1.3269
 2211SOL    HW218093   0.823   4.371   4.970 -0.9628 -0.6078  1.9327
 2212SOL     OW18094   2.117   0.968   1.692  0.1251 -0.3880 -0.3404
 2212SOL    HW118095   2.119   0.978   1.787  1.6951 -1.7550 -0.2247
 2212SOL    HW218096   2.171   0.891   1.675  0.6002 -0.3984  1.1627
 2213SOL     OW18097   3.715   4.092   7.183 -0.8098  0.1762 -0.0678
 2213SOL    HW118098   3.797   4.101   7.230 -0.5960  0.3262 -0.4734
 2213SOL    HW218099   3.680   4.010   7.217  0.2788 -1.5695 -3.1616
 2214SOL     OW18100   3.833   3.003   7.951 -0.0594  0.8631  1.0012
 2214SOL    HW118101   3.757   3.022   8.006 -1.3201  1.4027 -0.9169
 2214SOL    HW218102   3.831   3.077   7.890  0.4669  0.1668  0.1304
 2215SOL     OW18103   0.888   2.095   0.473 -0.3512 -0.2255  0.0635
 2215SOL    HW118104   0.827   2.083   0.400  0.8924 -1.5264 -0.7557
 2215SOL    HW218105   0.894   2.012   0.519  1.2052  0.0348  0.3513
 2216SOL     OW18106   1.906   3.243  14.345  0.9571  0.7129 -0.0084
 2216SOL    HW118107   1.948   3.301  14.408  2.8946 -1.2079  0.4830
 2216SOL    HW218108   1.944   3.156  14.357 -1.5240 -0.1810  1.3823
 2217SOL     OW18109   2.391   2.095  13.500 -0.2559  0.3240 -0.8248
 2217SOL    HW118110   2.440   2.146  13.436  0.4773  0.9353  0.2144
 2217SOL    HW218111   2.346   2.033  13.443 -1.0716 -0.9105  1.1464
 2218SOL     OW18112   4.373   0.630   0.542 -0.6875 -0.6149  0.2729
 2218SOL    HW118113   4.316   0.628   0.619 -1.0379  1.2948  0.0683
 2218SOL    HW218114   4.416   0.715   0.547 -3.1487  0.6533 -0.1062
 2219SOL     OW18115   0.797   3.597   2.663  0.3442  0.5870  0.6232
 2219SOL    HW118116   0.726   3.629   2.608  0.5662 -0.5234 -0.3138
 2219SOL    HW218117   0.837   3.535   2.601 -1.6149  1.9454 -1.9929
 2220SOL     OW18118   0.894   4.200   7.494  0.7395 -0.0852 -0.1123
 2220SOL    HW118119   0.936   4.259   7.431 -0.2124  0.2998 -0.3871
 2220SOL    HW218120   0.894   4.248   7.576  1.6754 -0.5579  0.1681
 2221SOL     OW18121   2.748   0.112   8.473 -0.0479 -0.4395 -0.0206
 2221SOL    HW118122   2.695   0.176   8.519 -0.2691 -0.4850 -0.2103
 2221SOL    HW218123   2.783   0.169   8.405 -0.8448  1.8499  1.5033
 2222SOL     OW18124   3.091   1.210   2.337 -0.2367  0.2804  0.5974
 2222SOL    HW118125   3.178   1.238   2.365  0.2309  1.4134 -1.9695
 2222SOL    HW218126   3.080   1.256   2.253  3.3169 -0.8619 -0.4749
 2223SOL     OW18127   4.709   2.260   7.307 -0.4231  0.0422 -0.0904
 2223SOL    HW118128   0.020   2.346   7.332 -1.1028 -0.0999  1.2806
 2223SOL    HW218129   4.619   2.276   7.278 -0.2669  2.3265  0.6916
 2224SOL     OW18130   3.737   0.945   2.298 -0.3137  0.6766  0.3579
 2224SOL    HW118131   3.765   0.968   2.386  2.1716  1.5295 -0.6369
 2224SOL    HW218132   3.657   0.895   2.312 -0.1164 -0.2460 -1.7992
 2225SOL     OW18133   2.312   2.112  16.982 -0.2033  0.0577 -0.0237
 2225SOL    HW118134   2.220   2.098  17.004 -0.8958 -0.0963 -3.0387
 2225SOL    HW218135   2.322   2.197  17.023  1.5604 -0.7358  1.2045
 2226SOL     OW18136   1.523   3.716   0.732  0.0515 -0.0409  0.2319
 2226SOL    HW118137   1.462   3.783   0.702 -0.0028  0.5090  1.5695
 2226SOL    HW218138   1.509   3.639   0.678 -1.4419  0.0455  0.5056
 2227SOL     OW18139   2.847   4.473   2.559 -0.2984  0.1565 -0.3904
 2227SOL    HW118140   2.908   4.546   2.547 -0.5762  0.5912  0.7716
 2227SOL    HW218141   2.769   4.523   2.536 -1.5516 -2.0115 -0.8636
 2228SOL     OW18142   2.410   3.956  16.996 -0.1440 -0.4503 -0.0906
 2228SOL    HW118143   2.401   3.926  17.087  2.2828  2.7371  1.1740
 2228SOL    HW218144   2.502   3.930  16.987 -0.2288  0.6815 -3.7594
 2229SOL     OW18145   0.106   1.741   5.773  0.1283  0.3122 -0.7392
 2229SOL    HW118146   0.030   1.730   5.717 -0.3434  1.8007 -0.4010
 2229SOL    HW218147   0.068   1.771   5.856  1.7819  0.5093 -0.0388
 2230SOL     OW18148   1.103   2.368  10.898 -0.1139 -0.5421 -0.2894
 2230SOL    HW118149   1.058   2.439  10.853 -0.6500 -0.9816 -0.4466
 2230SOL    HW218150   1.153   2.325  10.829  0.6429 -0.1500  0.0124
 2231SOL     OW18151   4.093   1.908  15.076  0.4207 -0.1126 -0.1198
 2231SOL    HW118152   4.005   1.871  15.076 -0.0559  1.0419  1.3301
 2231SOL    HW218153   4.121   1.878  15.163  1.0298  0.4345 -0.1282
 2232SOL     OW18154   1.751   1.601  13.125 -0.2556 -0.7683  0.4468
 2232SOL    HW118155   1.687   1.550  13.075 -0.8010 -0.1242  0.4894
 2232SOL    HW218156   1.811   1.608  13.051 -0.9214  0.8110  0.0571
 2233SOL     OW18157   0.782   0.590   4.909  0.1244  0.2795  0.4750
 2233SOL    HW118158   0.810   0.509   4.950 -1.8504 -0.6415  0.0098
 2233SOL    HW218159   0.848   0.653   4.937  0.0178  0.1095  1.1110
 2234SOL     OW18160   4.674   4.680  15.068 -0.2182 -0.6648  0.0945
 2234SOL    HW118161   4.708   0.048  15.079  0.0609 -0.6723 -0.6908
 2234SOL    HW218162   4.669   4.667  14.973 -4.6556  1.7535  0.0305
 2235SOL     OW18163   3.516   4.093   3.774  0.0333  0.3035 -0.6469
 2235SOL    HW118164   3.545   4.012   3.731 -1.8097 -1.0647  0.6533
 2235SOL    HW218165   3.546   4.070   3.861  3.0586  0.0756 -1.7521
 2236SOL     OW18166   2.387   0.070   1.307  0.0014  0.5383  0.3077
 2236SOL    HW118167   2.458   0.066   1.370  0.8480  0.8982 -0.6285
 2236SOL    HW218168   2.332   0.005   1.351 -1.2018 -0.3041 -2.4891
 2237SOL     OW18169   2.381   3.112   9.493  0.1090 -0.0421  0.0612
 2237SOL    HW118170   2.466   3.069   9.498 -0.8050 -1.6852  1.6660
 2237SOL    HW218171   2.415   3.201   9.498  0.6850 -0.2671  0.1472
 2238SOL     OW18172   0.958   4.188   2.811  0.3349  0.0619 -0.4350
 2238SOL    HW118173   0.991   4.104   2.780 -1.7491 -0.5347 -1.0716
 2238SOL    HW218174   1.032   4.244   2.835 -0.1975 -0.8619  3.4008
 2239SOL     OW18175   3.412   1.275  10.573 -0.2804 -0.3623 -0.3128
 2239SOL    HW118176   3.430   1.248  10.663  0.3849 -1.6573 -0.8322
 2239SOL    HW218177   3.493   1.263  10.522  0.5449 -0.7895  1.0928
 2240SOL     OW18178   1.219   0.013  11.833 -0.0877 -0.2871 -0.4379
 2240SOL    HW118179   1.294   4.675  11.844 -0.0063 -0.0813  0.0854
 2240SOL    HW218180   1.145   4.678  11.859 -0.9878  1.9773  1.7827
 2241SOL     OW18181   1.589   4.080   3.823  0.2487  0.2694 -0.7636
 2241SOL    HW118182   1.529   4.061   3.751 -3.5877  2.0189  1.9703
 2241SOL    HW218183   1.533   4.151   3.853 -0.8457  0.2234 -2.7569
 2242SOL     OW18184   0.012   1.679  13.847 -0.0989  0.2385  0.5376
 2242SOL    HW118185   0.031   1.598  13.896 -0.9425  0.0816  0.6088
 2242SOL    HW218186   0.062   1.738  13.902 -0.9242  2.1237 -0.7506
 2243SOL     OW18187   1.391   0.414  11.174  0.0413 -0.0040  0.2437
 2243SOL    HW118188   1.457   0.459  11.227 -0.5423  0.3977  0.6276
 2243SOL    HW218189   1.328   0.401  11.244  0.6507 -0.2713  0.7404
 2244SOL     OW18190   4.572   1.005  16.434 -0.0230 -0.4202 -0.5662
 2244SOL    HW118191   4.617   1.078  16.476  0.4702 -1.7183  1.1112
 2244SOL    HW218192   4.479   1.022  16.451  0.0092 -0.4122 -0.4073
 2245SOL     OW18193   4.265   2.998  17.047 -0.3592 -0.2159  0.0431
 2245SOL    HW118194   4.274   2.935  17.119 -3.6979 -0.3650  0.3231
 2245SOL    HW218195   4.190   2.957  17.005  0.6218 -0.5108 -1.4048
 2246SOL     OW18196   4.444   3.597   8.348  0.3452  0.0668  0.2717
 2246SOL    HW118197   4.513   3.628   8.407 -0.7185  0.7337  1.1804
 2246SOL    HW218198   4.467   3.510   8.318 -1.5636 -0.6119  0.7588
 2247SOL     OW18199   1.983   1.681   7.270  0.2607  0.4332  0.0898
 2247SOL    HW118200   2.011   1.741   7.339  0.0197  0.8501 -0.1772
 2247SOL    HW218201   1.911   1.633   7.311  1.2989  0.6737  2.2351
 2248SOL     OW18202   3.085   1.699   3.410  0.4276 -0.2539 -0.1981
 2248SOL    HW118203   3.020   1.638   3.445 -0.7277  0.4769 -1.0871
 2248SOL    HW218204   3.158   1.641   3.389  0.5814 -0.2203  0.2357
 2249SOL     OW18205   2.317   0.035   8.874  0.5413  0.3189  0.0560
 2249SOL    HW118206   2.364   4.695   8.817  1.6267  0.8795  0.3383
 2249SOL    HW218207   2.232   4.712   8.872  1.5512 -1.6659  0.4520
 2250SOL     OW18208   2.832   1.205  16.010 -0.5296  0.0123  0.0567
 2250SOL    HW118209   2.796   1.294  16.004 -2.0743 -0.5581  0.7126
 2250SOL    HW218210   2.755   1.148  16.005  0.9347 -1.9586  0.2474
 2251SOL     OW18211   2.742   3.351  12.456 -0.1182 -0.4110  0.6492
 2251SOL    HW118212   2.717   3.434  12.497  0.8108  1.3299 -2.3523
 2251SOL    HW218213   2.835   3.345  12.480 -0.5582  0.4607  2.5807
 2252SOL     OW18214   1.213   1.963  15.407 -0.7309 -0.0372  0.0415
 2252SOL    HW118215   1.120   1.974  15.424 -0.4741 -0.9684  1.9793
 2252SOL    HW218216   1.201   1.914  15.325 -1.0748  0.4088 -0.1734
 2253SOL     OW18217   3.626   1.803   2.284  0.6103  0.0693  0.4004
 2253SOL    HW118218   3.693   1.766   2.226  1.0773 -0.1733  1.0871
 2253SOL    HW218219   3.685   1.821   2.358 -2.0648 -0.4798  2.6500
 2254SOL     OW18220   2.388   0.335   0.282  0.0390 -0.5064  0.2388
 2254SOL    HW118221   2.404   0.241   0.288 -1.7295 -0.8939 -1.3623
 2254SOL    HW218222   2.445   0.375   0.348 -0.9662  0.3302  0.5897
 2255SOL     OW18223   3.712   3.462   8.512 -0.7792  0.3327  0.2734
 2255SOL    HW118224   3.647   3.394   8.496 -1.0920  0.8066 -0.4735
 2255SOL    HW218225   3.759   3.421   8.585  1.1912 -0.4469 -1.4269
 2256SOL     OW18226   4.567   1.279   9.084  0.5640  0.5888 -0.0939
 2256SOL    HW118227   4.594   1.203   9.137  0.0197 -0.3614 -1.1745
 2256SOL    HW218228   4.611   1.347   9.134 -0.1020  0.1292  1.1341
 2257SOL     OW18229   2.742   0.438   9.164 -0.4046  0.0711 -0.4925
 2257SOL    HW118230   2.765   0.432   9.257 -0.5586  0.4091 -0.4324
 2257SOL    HW218231   2.819   0.412   9.113  0.3270  2.1116 -0.4463
 2258SOL     OW18232   0.184   3.510   6.066  0.4978  0.9698  0.1170
 2258SOL    HW118233   0.226   3.486   5.984  2.6293  0.6635  1.3052
 2258SOL    HW218234   0.137   3.429   6.085 -1.2260  1.5465 -1.6145
 2259SOL     OW18235   2.922   2.442   9.415  0.2443  0.0399 -0.1663
 2259SOL    HW118236   2.832   2.427   9.387  0.2825  0.4591 -0.5171
 2259SOL    HW218237   2.900   2.487   9.497  0.0325 -0.0805 -0.1565
 2260SOL     OW18238   2.115   4.640   7.040  0.1304  0.9269  0.1460
 2260SOL    HW118239   2.049   4.699   7.077  0.2810  0.7821  0.6393
 2260SOL    HW218240   2.077   4.623   6.954  1.0878 -1.5237  0.2151
 2261SOL     OW18241   1.822   4.064   9.054  0.4868  0.0408 -0.0077
 2261SOL    HW118242   1.761   4.017   9.111 -1.1076  1.5336 -0.4525
 2261SOL    HW218243   1.843   3.999   8.987 -0.8292 -2.6640  2.2452
 2262SOL     OW18244   1.819   0.687   8.372 -0.0638 -0.6359  0.7165
 2262SOL    HW118245   1.775   0.660   8.452 -2.0128  2.7364  0.7886
 2262SOL    HW218246   1.752   0.750   8.346  1.8079 -0.0569 -2.7758
 2263SOL     OW18247   0.216   3.023   2.908  0.4887 -0.4848 -0.9733
 2263SOL    HW118248   0.280   3.080   2.865 -1.9774  2.7162 -0.3847
 2263SOL    HW218249   0.275   2.986   2.973  2.5951  1.1189 -1.9894
 2264SOL     OW18250   0.559   1.454   9.724  0.1705  0.4397 -0.6373
 2264SOL    HW118251   0.635   1.399   9.707  0.5984  0.2402  1.9912
 2264SOL    HW218252   0.548   1.521   9.657 -0.4112 -0.0004 -0.9837
 2265SOL     OW18253   0.920   0.220  16.946  0.0772  0.1658  0.6676
 2265SOL    HW118254   0.841   0.271  16.962 -0.9531 -0.6519 -1.8210
 2265SOL    HW218255   0.893   0.169  16.870 -0.8906 -0.2204  1.2684
 2266SOL     OW18256   2.423   1.007   6.865 -0.3107 -0.0924  0.4464
 2266SOL    HW118257   2.429   1.009   6.769 -0.8870 -0.8569  0.4022
 2266SOL    HW218258   2.350   0.948   6.881  1.1913 -2.9494 -3.1689
 2267SOL     OW18259   0.976   2.384   2.032  0.0479 -0.1231  0.1542
 2267SOL    HW118260   0.941   2.300   2.004 -0.8536  0.2605  0.0987
 2267SOL    HW218261   0.944   2.390   2.123 -0.5264  1.7543 -0.1634
 2268SOL     OW18262   0.282   2.003   3.820 -0.3901  0.1676 -0.6471
 2268SOL    HW118263   0.359   2.007   3.876  0.0305  0.1252 -1.2202
 2268SOL    HW218264   0.253   1.913   3.838  0.4733 -0.4121 -2.1372
 2269SOL     OW18265   3.583   3.495   1.498 -0.1769 -0.0889 -0.8134
 2269SOL    HW118266   3.560   3.473   1.407  0.8798  0.1896 -1.1480
 2269SOL    HW218267   3.659   3.438   1.504 -0.4317 -0.4751 -1.2214
 2270SOL     OW18268   1.219   2.403  11.848  0.1290 -0.7022  0.2573
 2270SOL    HW118269   1.162   2.457  11.902 -0.0766  2.7223 -3.3528
 2270SOL    HW218270   1.297   2.433  11.894  1.0583 -0.2974 -1.5712
 2271SOL     OW18271   1.129   2.263   4.428  0.4004 -0.2256  0.2121
 2271SOL    HW118272   1.191   2.290   4.495  0.4526  0.0314  0.0634
 2271SOL    HW218273   1.186   2.229   4.358  0.7357 -0.0996  0.4257
 2272SOL     OW18274   3.005   1.476   8.374  0.0900  0.4814  0.6639
 2272SOL    HW118275   3.006   1.406   8.308 -1.1124 -0.2844  1.4600
 2272SOL    HW218276   2.912   1.500   8.381 -0.0954 -0.0022 -0.0975
 2273SOL     OW18277   4.356   4.420   8.144 -0.3598 -0.2364 -0.0290
 2273SOL    HW118278   4.365   4.418   8.239 -3.1534 -2.3337  0.1746
 2273SOL    HW218279   4.429   4.479   8.126  0.1781 -0.7889  0.3470
 2274SOL     OW18280   1.819   0.257   0.446 -0.1188  0.2525  0.2200
 2274SOL    HW118281   1.835   0.163   0.450  2.0831  0.6243  0.1877
 2274SOL    HW218282   1.908   0.293   0.451  0.2469 -0.7838  1.2865
 2275SOL     OW18283   0.578   0.337   2.319  0.0387  0.0741 -0.6904
 2275SOL    HW118284   0.564   0.402   2.388 -1.5836  0.3476 -1.3053
 2275SOL    HW218285   0.668   0.315   2.344 -0.6622 -1.9909  0.0260
 2276SOL     OW18286   1.859   3.059   3.859  0.1878  0.7363 -0.6034
 2276SOL    HW118287   1.779   3.060   3.912  1.0188 -1.1407  0.6491
 2276SOL    HW218288   1.914   3.062   3.937 -0.6202  1.0042 -0.0412
 2277SOL     OW18289   3.821   1.989   6.948  0.1613  0.9661  0.3523
 2277SOL    HW118290   3.831   1.901   6.983 -0.9577  0.8100  0.2845
 2277SOL    HW218291   3.842   1.975   6.856  2.3516  0.8221  0.8837
 2278SOL     OW18292   4.696   2.104  15.691 -0.1143  0.5035 -0.6903
 2278SOL    HW118293   4.706   2.197  15.671 -2.4923  0.3788 -2.5170
 2278SOL    HW218294   0.013   2.091  15.778  0.8596 -0.6046 -1.2894
 2279SOL     OW18295   1.018   0.079   1.920  0.5739  0.1580 -0.4696
 2279SOL    HW118296   1.064   0.143   1.866  0.8676  0.2419 -0.1266
 2279SOL    HW218297   1.065   0.090   2.003  1.2932  0.4846 -0.9151
 2280SOL     OW18298   0.291   3.484   4.995 -0.0442  0.4106  0.0180
 2280SOL    HW118299   0.319   3.395   4.976 -0.8686 -0.3510  2.3043
 2280SOL    HW218300   0.265   3.522   4.911  1.2285 -1.8385 -1.3650
 2281SOL     OW18301   0.345   0.120   4.018  0.1798  0.1233 -0.3037
 2281SOL    HW118302   0.406   0.142   4.089  0.2705  0.8533 -0.6070
 2281SOL    HW218303   0.385   0.039   3.987  0.1649 -0.4440  1.1674
 2282SOL     OW18304   4.292   2.016   7.415  0.8629  0.2103 -0.3341
 2282SOL    HW118305   4.278   1.922   7.420 -0.8612  0.5400  0.7863
 2282SOL    HW218306   4.354   2.038   7.485  0.8513  0.3781 -0.3764
 2283SOL     OW18307   3.796   3.251   5.190  0.4600  0.1855  0.5517
 2283SOL    HW118308   3.702   3.231   5.192  0.3141  0.8446  0.2489
 2283SOL    HW218309   3.826   3.191   5.259  0.8560  0.6034  0.7453
 2284SOL     OW18310   4.692   0.381   6.746  0.4073 -0.3991  0.5555
 2284SOL    HW118311   0.006   0.391   6.657 -0.5341  1.7385  0.4324
 2284SOL    HW218312   0.044   0.375   6.808  1.8885 -0.3313 -1.1309
 2285SOL     OW18313   1.354   2.292   6.985 -0.5123 -0.1562  0.5494
 2285SOL    HW118314   1.436   2.333   7.010  0.8448 -2.4449 -0.1100
 2285SOL    HW218315   1.390   2.207   6.960 -0.5340 -0.1269  0.4186
 2286SOL     OW18316   1.527   3.660   4.742  0.1472  0.9649  0.3211
 2286SOL    HW118317   1.442   3.632   4.774 -0.1666 -0.4218 -1.6541
 2286SOL    HW218318   1.542   3.604   4.665 -0.3367  2.0575 -0.5670
 2287SOL     OW18319   3.167   2.112   3.348  0.7120  0.0673 -0.7754
 2287SOL    HW118320   3.217   2.149   3.275  0.2875  0.1715 -1.0148
 2287SOL    HW218321   3.124   2.041   3.299  0.6758  1.0729 -2.2072
 2288SOL     OW18322   2.003   4.692   9.316 -0.2113  0.2826 -0.1613
 2288SOL    HW118323   1.970   0.037   9.254 -0.4056 -0.3941 -0.7706
 2288SOL    HW218324   1.984   0.015   9.399 -1.9737 -0.6015 -0.1084
 2289SOL     OW18325   4.572   4.558   0.538  0.2601  0.1152  0.8346
 2289SOL    HW118326   4.484   4.522   0.546 -0.2048  1.0213 -0.2325
 2289SOL    HW218327   4.587   4.554   0.443 -1.3913  0.4887  0.5664
 2290SOL     OW18328   1.123   1.904   7.827  0.5487 -0.0423  0.2781
 2290SOL    HW118329   1.085   1.817   7.817  1.5017 -0.6935  2.1371
 2290SOL    HW218330   1.046   1.956   7.807  0.5771 -0.1527 -0.1181
 2291SOL     OW18331   0.567   4.413   3.306  0.7183 -0.4087 -0.4672
 2291SOL    HW118332   0.563   4.362   3.225 -0.7266 -1.7219  0.4402
 2291SOL    HW218333   0.492   4.470   3.286  2.0527  0.9923 -1.5859
 2292SOL     OW18334   1.153   4.218   5.456  0.3211 -0.4215  0.0015
 2292SOL    HW118335   1.229   4.266   5.487 -0.0695 -0.7599  1.4576
 2292SOL    HW218336   1.150   4.135   5.504  0.6842 -0.2642  0.2892
 2293SOL     OW18337   0.702   2.876   7.861 -0.0210 -0.3891 -0.0829
 2293SOL    HW118338   0.659   2.936   7.922  0.3291 -1.0427  0.7988
 2293SOL    HW218339   0.638   2.807   7.845 -0.7507  0.8218 -2.3621
 2294SOL     OW18340   0.808   0.009   1.165 -0.1938  0.1124 -0.4889
 2294SOL    HW118341   0.895   0.045   1.151  1.2144 -2.1673  2.6292
 2294SOL    HW218342   0.780   0.076   1.227  1.3693  0.5647 -0.2885
 2295SOL     OW18343   1.299   4.203   2.331 -0.5415  0.6156 -0.0706
 2295SOL    HW118344   1.358   4.141   2.289 -1.2812  0.0193 -0.2195
 2295SOL    HW218345   1.221   4.149   2.320  0.3984 -0.5929 -0.7978
 2296SOL     OW18346   3.599   4.277   1.930  0.1572  0.3554 -0.3019
 2296SOL    HW118347   3.628   4.368   1.919  1.5250  0.1746  2.0183
 2296SOL    HW218348   3.615   4.255   2.021  0.4601 -1.1160 -0.7138
 2297SOL     OW18349   0.558   0.127   6.397  0.5588  0.1250 -0.4334
 2297SOL    HW118350   0.628   0.064   6.385  2.1604  1.9166 -0.5051
 2297SOL    HW218351   0.493   0.078   6.448  3.4364 -2.5338  0.6186
 2298SOL     OW18352   2.621   0.942   2.620 -0.2821 -0.3413 -0.2473
 2298SOL    HW118353   2.563   0.894   2.562  0.0758 -0.1067 -0.7951
 2298SOL    HW218354   2.571   0.956   2.701  0.9111 -0.4148  0.5112
 2299SOL     OW18355   0.958   0.035  14.548 -0.0174  0.3379  0.2780
 2299SOL    HW118356   0.939   4.707  14.468  1.7245  0.4633 -0.1972
 2299SOL    HW218357   1.033   4.703  14.577 -0.0529  1.6492  2.7407
 2300SOL     OW18358   3.819   0.949  14.748 -0.6380  0.1923  0.8682
 2300SOL    HW118359   3.820   0.967  14.842  2.4727  0.9635  0.6689
 2300SOL    HW218360   3.791   0.857  14.746  0.8150 -0.2530  1.0124
 2301SOL     OW18361   0.942   3.583  12.381 -0.4806  0.0304  0.0876
 2301SOL    HW118362   1.033   3.611  12.374 -0.2431 -0.2164  2.3779
 2301SOL    HW218363   0.953   3.507  12.437  0.0243 -1.5873 -2.1917
 2302SOL     OW18364   3.101   2.465   3.347 -0.8474 -0.0242  0.2052
 2302SOL    HW118365   3.167   2.419   3.294 -1.8575  1.3827 -2.2661
 2302SOL    HW218366   3.088   2.548   3.300 -2.3787  0.1524  0.9436
 2303SOL     OW18367   0.233   1.567   4.526 -0.6966 -0.1368 -0.4052
 2303SOL    HW118368   0.183   1.509   4.584 -2.5497  0.1908 -1.6823
 2303SOL    HW218369   0.185   1.554   4.444  0.1229 -0.8230 -0.7756
 2304SOL     OW18370   3.892   2.143   1.718 -0.0270 -0.1442 -0.4456
 2304SOL    HW118371   3.872   2.058   1.757  0.2561 -0.7999 -1.6954
 2304SOL    HW218372   3.820   2.193   1.756 -0.4560 -1.3449  0.3023
 2305SOL     OW18373   0.897   0.527  16.881  0.0832  0.0480  0.4169
 2305SOL    HW118374   0.909   0.473  16.803  0.8049 -0.6426  1.0014
 2305SOL    HW218375   0.823   0.486  16.927 -0.0660  0.6099  0.6768
 2306SOL     OW18376   1.987   1.044   8.427  0.0973 -0.5100 -0.7817
 2306SOL    HW118377   2.038   1.112   8.472 -1.6109 -0.1835  0.6814
 2306SOL    HW218378   2.029   0.963   8.456 -0.7078  0.0895  2.0978
 2307SOL     OW18379   0.875   2.054   1.546  0.3944  0.6925  0.1483
 2307SOL    HW118380   0.837   2.041   1.459  0.0854 -0.2522  0.4276
 2307SOL    HW218381   0.896   1.969   1.583  3.7537  1.5257  0.1309
 2308SOL     OW18382   0.703   1.576   5.799 -0.5917  0.0987 -0.3676
 2308SOL    HW118383   0.707   1.616   5.713 -0.8030  0.9843  0.0370
 2308SOL    HW218384   0.769   1.624   5.849 -0.6390 -3.1111  2.8200
 2309SOL     OW18385   0.667   0.950   2.585 -0.2318  0.5688  0.3381
 2309SOL    HW118386   0.584   0.911   2.560  0.5807 -0.4822 -0.7534
 2309SOL    HW218387   0.716   0.962   2.503  0.2705  0.4290  0.6198
 2310SOL     OW18388   1.478   1.514   9.166  0.5691 -0.0687  0.0923
 2310SOL    HW118389   1.389   1.526   9.133 -0.2417 -1.0316  1.9125
 2310SOL    HW218390   1.466   1.438   9.223  1.6797 -1.2565 -1.2605
 2311SOL     OW18391   0.486   4.563   0.090 -0.0120  0.7161 -0.4473
 2311SOL    HW118392   0.512   4.570   0.182 -1.2744  1.9600 -0.1921
 2311SOL    HW218393   0.446   4.648   0.070 -1.4030  0.7152  2.2493
 2312SOL     OW18394   3.032   0.704   5.836  0.2950  0.0300 -0.3825
 2312SOL    HW118395   3.017   0.614   5.867  0.0858 -0.0621 -0.7500
 2312SOL    HW218396   3.119   0.703   5.796 -0.1159  1.8749 -1.2778
 2313SOL     OW18397   3.543   1.729   6.100  0.2271  0.1285 -0.6192
 2313SOL    HW118398   3.450   1.725   6.124  0.5125  0.8457  0.6053
 2313SOL    HW218399   3.541   1.723   6.005 -1.3979  2.3955 -0.7265
 2314SOL     OW18400   3.272   2.795   5.160  0.2745 -0.2911 -0.9481
 2314SOL    HW118401   3.271   2.810   5.066 -1.6443  0.6498 -0.7783
 2314SOL    HW218402   3.347   2.738   5.176 -0.5253 -1.1447 -0.1877
 2315SOL     OW18403   1.732   2.754   8.367 -0.4544  0.9507 -0.0604
 2315SOL    HW118404   1.786   2.721   8.296  0.0375  1.0941  0.2485
 2315SOL    HW218405   1.646   2.770   8.328 -0.7170 -0.5637 -0.1070
 2316SOL     OW18406   2.137   1.257   8.533 -0.0612  0.2278  0.3517
 2316SOL    HW118407   2.228   1.263   8.562 -0.0378  0.8891  0.1516
 2316SOL    HW218408   2.094   1.270   8.618 -0.1491  0.9548  0.1962
 2317SOL     OW18409   1.274   2.038   3.200 -0.3631 -0.4645 -0.1841
 2317SOL    HW118410   1.275   2.132   3.185  2.2090 -0.7606 -1.8233
 2317SOL    HW218411   1.279   2.034   3.296 -0.3033 -1.1321 -0.2109
 2318SOL     OW18412   4.647   2.036  17.261  0.6420  0.0111 -0.1975
 2318SOL    HW118413   4.553   2.028  17.247  0.8643 -0.8107 -1.2813
 2318SOL    HW218414   4.679   1.949  17.237 -0.8922 -0.0991 -1.7885
 2319SOL     OW18415   0.150   0.997  11.260  0.0201 -0.0548  0.2965
 2319SOL    HW118416   0.106   0.914  11.240  2.0941 -1.3468  1.0400
 2319SOL    HW218417   0.091   1.060  11.220  3.2535  2.4334 -0.5526
 2320SOL     OW18418   0.035   3.134  14.784  0.5312 -0.1381  0.1586
 2320SOL    HW118419   0.006   3.224  14.774  2.2404  0.3823 -0.0746
 2320SOL    HW218420   0.027   3.091  14.699 -0.5828 -0.7132  0.5494
 2321SOL     OW18421   3.905   1.244  15.902  0.2475  0.2314 -0.3758
 2321SOL    HW118422   3.985   1.193  15.914  0.9330  1.6585  1.0680
 2321SOL    HW218423   3.873   1.254  15.991 -1.3257  1.6532 -1.0888
 2322SOL     OW18424   0.367   4.617   6.455 -0.8027 -0.8187  0.1860
 2322SOL    HW118425   0.286   4.652   6.417 -0.2229 -0.1088 -0.3914
 2322SOL    HW218426   0.413   4.573   6.383 -1.6964 -1.2369 -0.1364
 2323SOL     OW18427   3.352   0.651   8.338 -0.1435  0.2918 -0.1731
 2323SOL    HW118428   3.402   0.674   8.260  0.2965 -1.1775 -0.3135
 2323SOL    HW218429   3.336   0.558   8.320  1.5235  0.0325 -0.3246
 2324SOL     OW18430   4.511   2.966   8.694  0.2244  0.0356 -0.0223
 2324SOL    HW118431   4.450   3.016   8.641 -0.2076  0.2814  0.7061
 2324SOL    HW218432   4.446   2.900   8.721  2.3908 -1.3261  1.8734
 2325SOL     OW18433   0.692   3.977   2.589  0.0499 -0.3869 -0.5031
 2325SOL    HW118434   0.632   4.047   2.563  0.9963  0.2931 -0.8755
 2325SOL    HW218435   0.643   3.897   2.573 -1.5923  0.5310 -0.0094
 2326SOL     OW18436   2.168   1.654   6.480 -0.5703 -0.3509  0.1820
 2326SOL    HW118437   2.229   1.727   6.469 -0.1154 -0.7198  0.2433
 2326SOL    HW218438   2.234   1.590   6.504 -2.3720 -2.5123 -0.6837
 2327SOL     OW18439   3.215   0.158   7.734 -0.6033  0.2659 -0.3736
 2327SOL    HW118440   3.224   0.096   7.807  0.6693  0.3738 -0.4387
 2327SOL    HW218441   3.242   0.239   7.777  0.1290  0.9101 -2.0507
 2328SOL     OW18442   1.929   0.652   8.835 -0.1170  0.0592  0.2697
 2328SOL    HW118443   1.948   0.665   8.928  0.0620  0.4419  0.1828
 2328SOL    HW218444   1.965   0.734   8.799  1.8901 -1.7739 -1.9019
 2329SOL     OW18445   2.405   2.481   2.683 -0.1090 -0.0757  0.7933
 2329SOL    HW118446   2.346   2.431   2.740  1.5026 -1.7689  0.9994
 2329SOL    HW218447   2.483   2.427   2.671 -0.8325 -0.9810  0.0968
 2330SOL     OW18448   2.906   4.187   6.513  0.1842  0.3668 -0.6628
 2330SOL    HW118449   2.873   4.098   6.531 -0.4546  0.5354 -0.9775
 2330SOL    HW218450   2.961   4.165   6.438 -0.5224 -0.9687 -0.7958
 2331SOL     OW18451   1.327   0.330   8.300 -0.3884  0.6387  0.5837
 2331SOL    HW118452   1.286   0.407   8.340 -0.1712  0.3244  1.4130
 2331SOL    HW218453   1.273   0.333   8.221 -0.2182 -2.4257  0.3455
 2332SOL     OW18454   2.939   3.196   6.734 -0.1623 -0.6229 -0.1862
 2332SOL    HW118455   2.856   3.237   6.756 -0.3296 -1.6152  0.9986
 2332SOL    HW218456   2.995   3.260   6.778 -0.8935  0.2695 -0.5547
 2333SOL     OW18457   1.834   1.841   6.985 -1.0055  0.1479 -0.4276
 2333SOL    HW118458   1.793   1.852   7.071 -0.0309 -0.3156  0.1025
 2333SOL    HW218459   1.803   1.920   6.941  1.2685  3.0661  3.1506
 2334SOL     OW18460   1.607   0.186   1.807 -0.1104  0.0302  0.3339
 2334SOL    HW118461   1.694   0.176   1.847  0.6304  1.7427 -0.8556
 2334SOL    HW218462   1.542   0.137   1.857  2.1180 -1.7773  1.4626
 2335SOL     OW18463   4.322   0.732   7.896 -0.2904  0.2276  0.3812
 2335SOL    HW118464   4.337   0.655   7.842 -0.4266  0.7882 -0.4470
 2335SOL    HW218465   4.414   0.750   7.916  0.4879 -3.7206  0.4191
 2336SOL     OW18466   2.957   0.585   3.105 -0.5401  0.1142 -0.0504
 2336SOL    HW118467   3.033   0.588   3.047  0.5233  0.0659  1.3523
 2336SOL    HW218468   2.998   0.572   3.190  1.4984 -0.6224 -1.1369
 2337SOL     OW18469   3.863   1.287   8.117  0.0202 -0.2222  1.0104
 2337SOL    HW118470   3.851   1.293   8.022  4.0013  1.6006  0.6063
 2337SOL    HW218471   3.827   1.372   8.144  0.6988  0.2777  0.3444
 2338SOL     OW18472   3.364   0.583   5.244  0.4408  0.1795  0.3526
 2338SOL    HW118473   3.423   0.576   5.169  2.1286 -0.3668  1.7179
 2338SOL    HW218474   3.292   0.529   5.213  0.1934  1.1691 -0.8173
 2339SOL     OW18475   3.084   2.341   6.329  0.7481  0.4288  0.2760
 2339SOL    HW118476   3.079   2.348   6.234  0.9517  1.6899  0.3452
 2339SOL    HW218477   3.125   2.255   6.326  0.1853  0.0785  2.9455
 2340SOL     OW18478   0.576   3.737   0.920  0.4546 -0.7647 -0.6303
 2340SOL    HW118479   0.529   3.675   0.864 -2.2313 -0.3413  1.2021
 2340SOL    HW218480   0.516   3.811   0.920  0.1396 -1.0303  1.1178
 2341SOL     OW18481   2.420   1.967   7.857 -0.0891 -0.0229 -0.3925
 2341SOL    HW118482   2.449   2.013   7.778 -0.8453  0.1075 -0.5877
 2341SOL    HW218483   2.460   1.883   7.835  0.6249  0.1500  0.2504
 2342SOL     OW18484   1.547   0.099   6.797 -0.2012  0.0718 -0.2914
 2342SOL    HW118485   1.591   0.029   6.750 -1.0730 -0.5117 -0.2487
 2342SOL    HW218486   1.618   0.137   6.849  0.4715 -0.4351 -0.8434
 2343SOL     OW18487   3.915   2.847   5.773 -0.1096 -0.1060 -0.3779
 2343SOL    HW118488   3.839   2.858   5.831 -0.4335 -2.6557 -0.2929
 2343SOL    HW218489   3.864   2.800   5.706  0.8258  0.6571 -1.6166
 2344SOL     OW18490   1.037   0.318   9.460  0.4867  0.3961  0.0699
 2344SOL    HW118491   1.063   0.316   9.552 -1.4335 -0.8321  0.5801
 2344SOL    HW218492   1.117   0.274   9.431 -1.0352 -2.0748 -0.3959
 2345SOL     OW18493   1.540   0.173  11.230 -0.0647 -0.0096  0.3207
 2345SOL    HW118494   1.471   0.107  11.230  0.1242 -0.2024  2.2666
 2345SOL    HW218495   1.492   0.255  11.224  0.1149  0.0796  0.0743
 2346SOL     OW18496   2.975   4.668   5.464  0.3495 -0.4336  0.0901
 2346SOL    HW118497   3.002   0.006   5.394 -3.5171  2.7502  1.2509
 2346SOL    HW218498   3.029   4.592   5.442 -0.8173 -1.4141  0.5922
 2347SOL     OW18499   1.144   0.237  15.707  0.3640  0.0052 -0.4191
 2347SOL    HW118500   1.173   0.149  15.679 -0.2376  0.3932 -2.3024
 2347SOL    HW218501   1.100   0.257  15.624 -1.2286  0.0504  0.4478
 2348SOL     OW18502   3.954   0.201   4.898  0.4145  0.6415  0.3986
 2348SOL    HW118503   3.945   0.115   4.857  2.1456 -0.2201  1.8706
 2348SOL    HW218504   4.047   0.220   4.903  0.5208 -0.4089  2.5661
 2349SOL     OW18505   2.939   1.274  10.429 -0.2627  0.5397  0.2197
 2349SOL    HW118506   2.991   1.349  10.399 -0.5490  0.9323  0.6951
 2349SOL    HW218507   3.007   1.210  10.413 -1.3067 -0.4244 -0.3268
 2350SOL     OW18508   2.531   3.703   6.026 -0.3661 -0.3125  0.2724
 2350SOL    HW118509   2.446   3.665   6.008  0.2786 -1.6099 -0.0345
 2350SOL    HW218510   2.519   3.771   5.960 -1.6152  1.6935  2.5391
 2351SOL     OW18511   0.295   4.105   8.887 -0.8797 -0.1901 -0.1239
 2351SOL    HW118512   0.226   4.167   8.909 -1.1856 -0.8908  0.8962
 2351SOL    HW218513   0.279   4.037   8.953  1.1697  0.8078  1.4119
 2352SOL     OW18514   3.970   1.840   0.125 -0.0098  0.7321  0.6688
 2352SOL    HW118515   4.039   1.808   0.066  0.7921  1.1432  1.3899
 2352SOL    HW218516   4.016   1.894   0.190  0.4939 -0.4666  1.3163
 2353SOL     OW18517   1.756   2.012   3.179  0.5274  0.3869 -0.6988
 2353SOL    HW118518   1.732   1.933   3.227  0.1282 -0.2210 -1.9147
 2353SOL    HW218519   1.844   2.029   3.215  0.2021 -0.6320  0.5838
 2354SOL     OW18520   4.165   4.323   3.093 -0.3874 -0.2012 -0.1141
 2354SOL    HW118521   4.094   4.383   3.118 -0.5568 -0.2050 -0.5788
 2354SOL    HW218522   4.240   4.345   3.148 -0.3381 -0.6023 -0.0250
 2355SOL     OW18523   0.792   2.745   9.373 -0.3635 -0.0140 -0.1543
 2355SOL    HW118524   0.884   2.717   9.378 -0.3365 -0.1851 -1.7697
 2355SOL    HW218525   0.790   2.758   9.279  1.9865  1.2669 -0.0198
 2356SOL     OW18526   2.473   2.718   3.362  0.2102  0.5252 -1.1259
 2356SOL    HW118527   2.539   2.736   3.295  2.0426 -2.2355 -0.0326
 2356SOL    HW218528   2.469   2.802   3.409  0.7632  1.1070 -2.1323
 2357SOL     OW18529   4.719   3.131  10.671 -0.8373 -0.0239  0.5020
 2357SOL    HW118530   4.718   3.173  10.757 -0.2026  0.9947  0.0217
 2357SOL    HW218531   0.039   3.197  10.615  0.4711 -0.2448  1.1858
 2358SOL     OW18532   1.199   0.570   8.695 -0.0500 -0.5319 -0.2953
 2358SOL    HW118533   1.269   0.542   8.754 -1.1656 -2.9014 -0.0553
 2358SOL    HW218534   1.141   0.494   8.709 -1.6282  0.5334 -1.0424
 2359SOL     OW18535   3.796   4.091   6.903 -0.3780  0.3010 -0.3084
 2359SOL    HW118536   3.845   4.169   6.927 -1.5325  0.8217  0.4185
 2359SOL    HW218537   3.733   4.090   6.976 -0.8799  1.3195 -0.7268
 2360SOL     OW18538   2.731   0.495  10.748  0.0632 -0.0066 -0.2880
 2360SOL    HW118539   2.721   0.562  10.680  1.3968 -0.3270 -0.8042
 2360SOL    HW218540   2.772   0.537  10.824 -2.4643  0.9686  0.5289
 2361SOL     OW18541   1.023   2.456   7.840  0.9306 -0.3549  0.1009
 2361SOL    HW118542   1.070   2.527   7.796 -1.2527 -0.1740 -1.9491
 2361SOL    HW218543   1.055   2.382   7.788  0.7531 -0.5713  0.2958
 2362SOL     OW18544   1.713   3.255  10.285 -0.2814  0.1473  0.0950
 2362SOL    HW118545   1.741   3.197  10.214  0.6444  1.3076 -0.4910
 2362SOL    HW218546   1.621   3.266  10.260 -0.4386 -3.5163 -0.9652
 2363SOL     OW18547   1.235   2.833   4.399  0.0563 -0.3031 -0.2628
 2363SOL    HW118548   1.176   2.908   4.413  0.6671  0.3700 -1.2939
 2363SOL    HW218549   1.168   2.769   4.378 -1.2461 -0.0182  3.0123
 2364SOL     OW18550   3.910   2.993   7.236  0.5857  0.5256 -0.1943
 2364SOL    HW118551   3.837   3.048   7.207 -2.2215 -3.5563 -0.8757
 2364SOL    HW218552   3.881   2.944   7.312 -1.4400  3.5317  0.9826
 2365SOL     OW18553   2.045   1.929   9.087  0.3325 -0.3461  0.0393
 2365SOL    HW118554   1.998   1.955   9.166 -0.2358 -0.3962 -0.2872
 2365SOL    HW218555   2.085   1.849   9.121  0.4526 -0.4417 -0.3227
 2366SOL     OW18556   1.425   2.625   4.050  0.2497  0.2305 -0.1996
 2366SOL    HW118557   1.351   2.583   4.006 -0.3462  2.1893 -1.0757
 2366SOL    HW218558   1.489   2.593   3.987  0.3888  0.9981 -0.4481
 2367SOL     OW18559   4.335   3.190   8.623 -0.2058  0.2315 -0.0304
 2367SOL    HW118560   4.362   3.130   8.553  2.6333  0.2956  1.0012
 2367SOL    HW218561   4.337   3.270   8.570  0.1926 -0.2192 -0.7066
 2368SOL     OW18562   1.555   4.616  11.002  0.4519  0.2870 -0.4094
 2368SOL    HW118563   1.520   4.567  11.077  0.8775  1.8005  0.7641
 2368SOL    HW218564   1.474   4.659  10.975 -0.2660 -1.3670 -0.9011
 2369SOL     OW18565   2.946   2.854   7.189 -0.0357 -0.3332  0.4799
 2369SOL    HW118566   2.945   2.887   7.099 -0.0075  0.7556  0.8830
 2369SOL    HW218567   2.983   2.766   7.178 -1.8184 -0.7352 -2.2416
 2370SOL     OW18568   4.382   1.444   7.836  0.8995  0.4541  0.6183
 2370SOL    HW118569   4.447   1.375   7.821 -0.3094 -0.4605 -0.3877
 2370SOL    HW218570   4.374   1.470   7.744 -1.2113 -1.1014  0.3536
 2371SOL     OW18571   3.469   0.878   6.375 -0.3612  0.0110 -0.0346
 2371SOL    HW118572   3.468   0.783   6.387 -0.7658 -0.1243 -1.1216
 2371SOL    HW218573   3.429   0.897   6.290  0.5361  0.6250 -0.3226
 2372SOL     OW18574   2.349   2.698   8.573  0.3391 -0.0896 -0.0656
 2372SOL    HW118575   2.413   2.736   8.633  0.4126 -0.8945  0.3722
 2372SOL    HW218576   2.345   2.766   8.507 -1.9226 -0.0668  0.0952
 2373SOL     OW18577   4.530   1.351   8.086  0.1172  0.1104 -0.3055
 2373SOL    HW118578   4.593   1.359   8.014  0.5355 -0.4483 -0.0002
 2373SOL    HW218579   4.474   1.275   8.071  0.7060 -0.3006 -0.4061
 2374SOL     OW18580   2.575   4.392  14.846 -0.6348 -0.5121  0.0554
 2374SOL    HW118581   2.527   4.410  14.927 -0.9776 -0.5174 -0.1484
 2374SOL    HW218582   2.661   4.374  14.884 -0.5909  1.4118  0.8912
 2375SOL     OW18583   1.514   0.019   8.522 -0.1233  0.9501  0.3843
 2375SOL    HW118584   1.594   0.061   8.491  0.1120 -1.1881 -1.8904
 2375SOL    HW218585   1.448   0.044   8.457 -0.3516 -1.0989 -0.1470
 2376SOL     OW18586   0.184   1.077   3.026 -0.3905  0.3015  0.1136
 2376SOL    HW118587   0.180   1.172   3.017 -3.0682 -0.0739 -2.3521
 2376SOL    HW218588   0.155   1.063   3.117 -1.4246 -2.6517 -0.6606
 2377SOL     OW18589   3.456   3.505  11.723 -0.2166  0.3289  0.0333
 2377SOL    HW118590   3.370   3.477  11.754 -0.5587  0.6938 -0.6001
 2377SOL    HW218591   3.482   3.563  11.795 -0.2259  0.0250  0.2828
 2378SOL     OW18592   4.283   0.511  13.597 -0.0771  0.3219 -0.0084
 2378SOL    HW118593   4.325   0.598  13.590  1.5413 -0.5011 -0.6738
 2378SOL    HW218594   4.298   0.498  13.690  1.9197  2.8806  0.0339
 2379SOL     OW18595   4.623   1.994   2.943 -0.2094  0.0631 -0.4751
 2379SOL    HW118596   4.532   1.969   2.931 -0.5930  1.4265 -0.3566
 2379SOL    HW218597   4.624   2.079   2.987  0.5101 -0.0997 -0.1767
 2380SOL     OW18598   3.085   3.258   2.394  0.2905 -0.2688 -0.7166
 2380SOL    HW118599   2.998   3.220   2.388 -0.5164  1.7046 -1.2343
 2380SOL    HW218600   3.054   3.327   2.451 -1.2410 -1.0775 -0.5613
 2381SOL     OW18601   3.642   2.233  15.904 -0.2839 -0.0523 -0.3542
 2381SOL    HW118602   3.719   2.203  15.857 -1.2590  0.7145 -2.4214
 2381SOL    HW218603   3.636   2.327  15.888  0.4323 -0.1493 -1.1831
 2382SOL     OW18604   2.010   4.599   6.807  0.1003 -0.4919  0.0331
 2382SOL    HW118605   2.029   4.639   6.721 -0.7233  0.4602  0.2925
 2382SOL    HW218606   1.942   4.537   6.782 -0.3283  0.9896 -2.5434
 2383SOL     OW18607   0.903   2.726   9.830  0.1734  0.2086  0.5122
 2383SOL    HW118608   0.812   2.748   9.808  0.0407 -0.1724  0.6903
 2383SOL    HW218609   0.919   2.790   9.899  1.2431  1.6825 -1.0952
 2384SOL     OW18610   0.582   0.656  16.935  0.2724  0.0146  0.1611
 2384SOL    HW118611   0.535   0.635  16.853  2.1375  2.9396 -1.6345
 2384SOL    HW218612   0.519   0.633  17.004  0.7493  0.2286  0.6609
 2385SOL     OW18613   3.873   2.750  10.942 -0.2018  0.3510 -0.2404
 2385SOL    HW118614   3.871   2.656  10.928 -0.0915  0.5064 -1.3169
 2385SOL    HW218615   3.826   2.766  10.860 -1.3315 -0.0886  0.3272
 2386SOL     OW18616   2.129   4.310  10.963  0.2338 -0.1420 -0.4201
 2386SOL    HW118617   2.113   4.217  10.980 -0.6649  0.2690  0.9920
 2386SOL    HW218618   2.217   4.297  10.927  0.7371  0.6222  0.5471
 2387SOL     OW18619   1.241   0.507   1.448 -0.0860  0.3052 -0.2500
 2387SOL    HW118620   1.311   0.570   1.435 -0.5652  1.3552  2.3251
 2387SOL    HW218621   1.193   0.509   1.365 -1.5865 -0.9155  0.5756
 2388SOL     OW18622   4.216   1.589   5.888 -0.0277  0.6372 -0.4812
 2388SOL    HW118623   4.238   1.513   5.834 -2.0805  0.4511 -1.0276
 2388SOL    HW218624   4.123   1.597   5.868  0.1412  0.3135 -1.4398
 2389SOL     OW18625   2.383   4.508  15.057 -0.2106  0.5120  0.3187
 2389SOL    HW118626   2.310   4.547  15.008 -0.6410 -0.9732 -0.2283
 2389SOL    HW218627   2.339   4.445  15.115  0.7780 -0.6879 -0.2360
 2390SOL     OW18628   3.323   1.068   5.692  0.2960 -0.1539 -0.0504
 2390SOL    HW118629   3.249   1.122   5.721  0.5745 -0.8320  1.9371
 2390SOL    HW218630   3.299   1.051   5.601  0.2310  1.4920 -0.3492
 2391SOL     OW18631   0.190   0.961  11.935  0.1247 -0.8271  0.3475
 2391SOL    HW118632   0.133   1.021  11.982 -0.3744 -1.4164  0.4916
 2391SOL    HW218633   0.278   0.990  11.959 -0.0651 -0.6982  0.8805
 2392SOL     OW18634   0.125   2.742   9.025 -0.0700  0.2556 -0.2748
 2392SOL    HW118635   0.075   2.679   9.076 -3.0836  1.6293 -1.5336
 2392SOL    HW218636   0.135   2.814   9.087  0.6791 -0.1854  0.1171
 2393SOL     OW18637   1.668   0.500  16.209 -0.3195 -0.3841 -0.2524
 2393SOL    HW118638   1.578   0.502  16.240 -0.1028  2.0837  0.2362
 2393SOL    HW218639   1.665   0.566  16.139 -1.3500  0.6331  0.7478
 2394SOL     OW18640   4.471   3.648   6.680  0.1857 -0.0500  0.0358
 2394SOL    HW118641   4.487   3.657   6.586  0.6413  3.7050  0.4689
 2394SOL    HW218642   4.469   3.553   6.690 -3.3652 -0.0898 -1.0947
 2395SOL     OW18643   2.578   3.275  15.846  0.3261  0.8014  0.1220
 2395SOL    HW118644   2.567   3.182  15.865  0.7354  1.2686  2.6892
 2395SOL    HW218645   2.497   3.296  15.799 -0.6176 -1.1673  0.8746
 2396SOL     OW18646   4.280   2.726  13.171  0.1529 -0.5675 -0.3870
 2396SOL    HW118647   4.268   2.800  13.230  0.1323  0.1658 -1.2959
 2396SOL    HW218648   4.213   2.668  13.207 -0.5250  2.4462  3.2061
 2397SOL     OW18649   4.427   0.162   5.828  0.3182  0.2069 -0.0804
 2397SOL    HW118650   4.389   0.249   5.840 -4.2977 -1.8002 -0.2085
 2397SOL    HW218651   4.346   0.110   5.820 -0.3012  1.2876 -0.7840
 2398SOL     OW18652   1.606   4.134   0.677  0.1818  0.1304 -0.3517
 2398SOL    HW118653   1.524   4.107   0.718  0.7568 -1.7804 -0.4613
 2398SOL    HW218654   1.671   4.094   0.734  0.5448  1.8631  0.4637
 2399SOL     OW18655   2.168   2.760  14.755  0.1549  0.3062 -0.2323
 2399SOL    HW118656   2.166   2.818  14.831  1.5775 -0.6272  0.5123
 2399SOL    HW218657   2.137   2.677  14.791  0.9779  0.1216  0.0502
 2400SOL     OW18658   1.442   0.037   2.251  0.3271  0.4031 -0.0027
 2400SOL    HW118659   1.387   4.718   2.318  2.7303  2.0128  2.9128
 2400SOL    HW218660   1.504   0.081   2.309 -0.6990  0.2808  1.1964
 2401SOL     OW18661   3.615   0.039   3.426 -0.6881  0.2894  0.0711
 2401SOL    HW118662   3.545   4.720   3.479  0.1410 -1.7907 -0.4247
 2401SOL    HW218663   3.591   0.019   3.336 -0.4575  0.7496 -0.0924
 2402SOL     OW18664   1.860   2.726   8.803 -0.2603  0.1888  0.0907
 2402SOL    HW118665   1.851   2.690   8.891 -1.1352 -2.1329 -0.9482
 2402SOL    HW218666   1.953   2.747   8.796  0.0785 -1.2029  0.3171
 2403SOL     OW18667   3.866   3.324   3.612  0.4491 -0.3751  0.1421
 2403SOL    HW118668   3.772   3.335   3.632  0.6379 -0.0432  0.8467
 2403SOL    HW218669   3.903   3.326   3.700  2.4778  0.3434 -0.7391
 2404SOL     OW18670   0.516   3.343   2.717 -0.3382  0.4571  0.1785
 2404SOL    HW118671   0.534   3.313   2.806  2.6070 -0.3412 -0.6870
 2404SOL    HW218672   0.588   3.301   2.670 -1.2402  0.2577 -1.0513
 2405SOL     OW18673   0.475   3.659   8.084 -0.0913 -0.1251  0.2648
 2405SOL    HW118674   0.429   3.743   8.082  0.3695  0.2133  3.8556
 2405SOL    HW218675   0.395   3.607   8.089  0.9079 -1.7397 -0.8844
 2406SOL     OW18676   4.431   3.979  12.202 -0.0224 -0.2856 -0.0843
 2406SOL    HW118677   4.402   3.948  12.116  0.2591  1.1279 -0.6721
 2406SOL    HW218678   4.455   4.068  12.178 -0.8747  0.0353  0.2480
 2407SOL     OW18679   4.496   4.296   6.799  0.5241  0.3612  0.3999
 2407SOL    HW118680   4.503   4.306   6.704 -2.5588 -0.8519  0.0420
 2407SOL    HW218681   4.583   4.275   6.832  0.4493  1.3709  1.2380
 2408SOL     OW18682   2.137   4.175   0.376 -0.3341  0.0983 -0.4587
 2408SOL    HW118683   2.206   4.228   0.337 -0.4321 -1.3743 -2.6361
 2408SOL    HW218684   2.089   4.141   0.300 -0.4133  1.0783 -0.8532
 2409SOL     OW18685   2.783   4.235   4.828 -0.6186 -0.2448  0.3471
 2409SOL    HW118686   2.698   4.259   4.792 -0.8988  0.6686  1.6035
 2409SOL    HW218687   2.827   4.320   4.825  2.2561 -1.7253  0.6347
 2410SOL     OW18688   2.907   1.835   9.513  0.0706  0.3658 -0.0670
 2410SOL    HW118689   2.863   1.838   9.428  0.0632 -1.0331 -0.1140
 2410SOL    HW218690   2.933   1.744   9.503  0.2449  0.5533 -1.2630
 2411SOL     OW18691   0.057   2.512   7.357 -0.1149 -0.1930  0.4619
 2411SOL    HW118692   0.096   2.542   7.440  0.5162 -1.3223  0.5650
 2411SOL    HW218693   0.102   2.565   7.291  1.4557 -2.7508 -0.5169
 2412SOL     OW18694   3.667   1.571   4.992  0.0006  0.5915  0.3049
 2412SOL    HW118695   3.698   1.507   5.057 -0.7065 -0.0271  0.0270
 2412SOL    HW218696   3.644   1.507   4.925 -0.0637 -0.0383  0.9264
 2413SOL     OW18697   4.100   3.108   7.675  0.5839  0.0795  0.0877
 2413SOL    HW118698   4.185   3.084   7.640 -0.5782 -2.4979 -0.9490
 2413SOL    HW218699   4.065   3.023   7.704 -0.8374  0.9827  1.0627
 2414SOL     OW18700   2.352   0.672  16.681 -0.7437 -0.2378  0.0287
 2414SOL    HW118701   2.266   0.710  16.698 -1.3818 -1.2338 -1.0505
 2414SOL    HW218702   2.395   0.757  16.695  0.8560 -1.6250  3.5221
 2415SOL     OW18703   0.356   0.525  13.338 -0.0160  0.5502  0.1995
 2415SOL    HW118704   0.353   0.433  13.312 -0.8644  0.4851  0.5085
 2415SOL    HW218705   0.265   0.526  13.369 -0.2029 -1.5102 -0.2917
 2416SOL     OW18706   2.499   0.176   6.739 -0.3922  0.6669  0.4622
 2416SOL    HW118707   2.413   0.136   6.753  0.2483 -1.9048 -2.7789
 2416SOL    HW218708   2.483   0.204   6.649  0.4190  0.4887  0.2656
 2417SOL     OW18709   0.330   0.067   2.480 -0.1033 -0.5861 -0.9674
 2417SOL    HW118710   0.242   0.086   2.446 -0.0857 -0.5282 -0.9800
 2417SOL    HW218711   0.338   0.151   2.524  1.6438 -0.8750 -0.7252
 2418SOL     OW18712   0.471   2.177   7.629 -0.1621  1.1363 -0.4325
 2418SOL    HW118713   0.552   2.175   7.578 -0.0649  0.0690 -0.2535
 2418SOL    HW218714   0.495   2.129   7.708 -0.2023 -0.8663 -1.6031
 2419SOL     OW18715   1.029   3.522  12.027 -0.4924  0.3260 -0.1791
 2419SOL    HW118716   0.958   3.546  12.087 -0.6741 -0.7913  0.0459
 2419SOL    HW218717   0.972   3.470  11.970  1.5545 -0.4208 -1.5144
 2420SOL     OW18718   4.393   2.626   7.003 -0.3179  0.6792  0.4873
 2420SOL    HW118719   4.391   2.722   6.993 -1.7375  0.6454  0.4072
 2420SOL    HW218720   4.443   2.595   6.928  0.3757  3.1831 -0.1025
 2421SOL     OW18721   0.188   2.931   2.631 -0.2192 -0.6145  0.1281
 2421SOL    HW118722   0.104   2.972   2.611  0.4889  1.4178  1.3621
 2421SOL    HW218723   0.176   2.931   2.726  0.2722  2.0758  0.1661
 2422SOL     OW18724   3.409   2.170  12.735 -0.5215 -0.1330  0.3693
 2422SOL    HW118725   3.371   2.236  12.677 -1.3939 -1.1175 -0.1675
 2422SOL    HW218726   3.491   2.214  12.760 -0.2727  0.3685 -1.3107
 2423SOL     OW18727   0.226   2.861  14.740 -0.0849 -0.1358 -0.3168
 2423SOL    HW118728   0.237   2.773  14.776 -1.7898 -0.8241 -1.4883
 2423SOL    HW218729   0.239   2.848  14.646 -0.8198  0.5555 -0.5141
 2424SOL     OW18730   2.219   3.846   6.094  0.1564 -0.1075  0.4554
 2424SOL    HW118731   2.254   3.843   6.183 -2.5290 -0.5092  1.5045
 2424SOL    HW218732   2.145   3.907   6.091  0.4606  0.3371  2.1182
 2425SOL     OW18733   4.209   3.092   5.428  0.1075  0.1173  0.3372
 2425SOL    HW118734   4.164   3.025   5.479  2.0641 -0.5381  1.1870
 2425SOL    HW218735   4.204   3.162   5.493 -1.4745 -2.2498  2.7514
 2426SOL     OW18736   2.258   3.161   1.109  0.2697  0.2762 -0.3300
 2426SOL    HW118737   2.353   3.152   1.107  0.1562 -0.9481  0.1001
 2426SOL    HW218738   2.233   3.118   1.190  2.9571 -0.3573  0.1576
 2427SOL     OW18739   0.810   3.115  14.497  0.0588 -0.5739 -0.3287
 2427SOL    HW118740   0.737   3.053  14.496 -0.9810  0.6147  1.8023
 2427SOL    HW218741   0.880   3.058  14.466  2.6180  2.6710 -0.5247
 2428SOL     OW18742   2.315   3.836  15.382 -0.3335  0.6342  0.0425
 2428SOL    HW118743   2.337   3.923  15.349  0.7615  0.6668  0.8977
 2428SOL    HW218744   2.367   3.839  15.462 -3.1656 -0.6513  1.9488
 2429SOL     OW18745   4.401   1.535  10.768  0.4900 -0.4325 -0.3944
 2429SOL    HW118746   4.458   1.612  10.773 -0.9577  0.8854 -4.6290
 2429SOL    HW218747   4.411   1.517  10.674  1.9371 -0.2740 -0.2778
 2430SOL     OW18748   1.814   0.244   4.399 -0.2272 -0.1746  0.3382
 2430SOL    HW118749   1.879   0.269   4.333  0.6426 -1.3827  0.7285
 2430SOL    HW218750   1.770   0.172   4.355  0.8560 -0.7986  0.2555
 2431SOL     OW18751   3.567   2.576   7.698 -0.7115 -0.4116  0.3333
 2431SOL    HW118752   3.487   2.628   7.695 -0.8525 -0.3971  3.9016
 2431SOL    HW218753   3.624   2.642   7.659  0.0515 -0.1901  1.8083
 2432SOL     OW18754   2.919   2.251   8.090 -0.0714  0.1062  0.4202
 2432SOL    HW118755   2.881   2.194   8.157 -0.9894  1.4600  1.0397
 2432SOL    HW218756   2.894   2.335   8.127 -1.6424  0.6020 -1.7470
 2433SOL     OW18757   4.654   3.720   2.652 -0.1070 -0.6059  0.2644
 2433SOL    HW118758   4.622   3.810   2.645 -1.9107 -1.3721 -1.3738
 2433SOL    HW218759   4.612   3.705   2.737 -0.6385 -0.6630 -0.0048
 2434SOL     OW18760   0.649   0.284  16.553 -0.2381 -0.4102 -0.4548
 2434SOL    HW118761   0.625   0.210  16.497  0.1383 -0.8211 -0.0678
 2434SOL    HW218762   0.601   0.272  16.635 -0.6879 -0.3173 -0.7017
 2435SOL     OW18763   4.594   3.021  16.766 -0.0557  0.1474 -0.2384
 2435SOL    HW118764   4.664   3.087  16.769  0.2816 -0.0957 -3.4705
 2435SOL    HW218765   4.638   2.941  16.793 -0.2000 -0.5025 -1.9799
 2436SOL     OW18766   0.835   3.010   5.510 -0.1286 -0.4536 -0.3725
 2436SOL    HW118767   0.751   3.050   5.487  0.0052 -0.0453 -0.1463
 2436SOL    HW218768   0.886   3.033   5.433  0.9950 -1.3386  0.1000
 2437SOL     OW18769   2.264   0.953  17.441 -0.1318  0.1162  0.2984
 2437SOL    HW118770   2.306   0.868  17.428 -1.0749  0.1600 -2.9568
 2437SOL    HW218771   2.269   0.964  17.536 -0.5508  0.0069  0.3318
 2438SOL     OW18772   1.478   0.874  12.554  0.4093  0.1822  0.2940
 2438SOL    HW118773   1.457   0.787  12.590 -1.5771 -0.1382 -1.6622
 2438SOL    HW218774   1.529   0.905  12.630  1.9874  1.9052 -1.4663
 2439SOL     OW18775   1.097   3.122  15.836 -0.7584 -0.4681  0.1050
 2439SOL    HW118776   1.116   3.167  15.918  3.0404  2.3178 -2.2940
 2439SOL    HW218777   1.149   3.044  15.855 -1.2085 -0.8054 -0.0527
 2440SOL     OW18778   4.695   4.567   4.327  0.1050 -0.0279 -0.6032
 2440SOL    HW118779   4.614   4.516   4.322 -1.9588  2.8139  3.2741
 2440SOL    HW218780   4.716   4.541   4.416 -0.5253 -0.2837 -0.5265
 2441SOL     OW18781   0.601   0.663  14.528  1.2635  0.2547 -0.2371
 2441SOL    HW118782   0.651   0.632  14.453 -0.1718 -1.5843 -0.4338
 2441SOL    HW218783   0.510   0.659  14.497  0.2289  1.4551  2.6680
 2442SOL     OW18784   0.868   0.681   4.595 -0.7702  0.3813 -0.3234
 2442SOL    HW118785   0.941   0.654   4.540 -0.7526  1.1819 -0.6916
 2442SOL    HW218786   0.830   0.600   4.631  0.7496 -0.9308 -1.6625
 2443SOL     OW18787   2.054   1.303   3.774  0.0121 -0.0741 -0.7625
 2443SOL    HW118788   2.076   1.222   3.819  0.4514  0.4701  0.0174
 2443SOL    HW218789   1.977   1.272   3.727  0.0951  1.5292 -1.9800
 2444SOL     OW18790   1.771   2.538   4.322  0.2845 -0.7989  0.6417
 2444SOL    HW118791   1.766   2.500   4.234  0.2831 -1.7672  1.0683
 2444SOL    HW218792   1.833   2.611   4.323  0.2664 -0.7693 -0.1507
 2445SOL     OW18793   4.034   3.933   4.433 -0.4156 -0.2295  0.4080
 2445SOL    HW118794   3.960   3.988   4.458 -1.2964 -1.2388  0.0212
 2445SOL    HW218795   4.078   3.988   4.369 -2.2991 -0.1043 -0.7741
 2446SOL     OW18796   0.087   1.088   3.283 -0.4629  0.9991  0.2699
 2446SOL    HW118797   0.010   1.043   3.317 -0.0648  1.2380  1.4741
 2446SOL    HW218798   0.059   1.177   3.307  0.9385  1.5140 -0.0383
 2447SOL     OW18799   0.025   2.452   3.020  0.0434 -0.3001 -0.2807
 2447SOL    HW118800   0.012   2.493   2.934 -0.7240  0.7510  0.3368
 2447SOL    HW218801   0.102   2.402   2.992  0.4642  0.2922 -0.1803
 2448SOL     OW18802   0.866   1.446   5.095  0.2131  0.3512 -0.6317
 2448SOL    HW118803   0.810   1.430   5.171  0.7793  0.2716 -0.2354
 2448SOL    HW218804   0.809   1.441   5.018 -3.6618 -0.8989  2.3109
 2449SOL     OW18805   0.279   2.593  12.139 -0.1603  0.3225 -0.4098
 2449SOL    HW118806   0.207   2.530  12.148  2.5091 -2.6490 -0.2141
 2449SOL    HW218807   0.305   2.602  12.231  1.4472  1.0212 -0.9284
 2450SOL     OW18808   2.962   4.151   5.333 -0.2592 -0.3443 -0.0734
 2450SOL    HW118809   3.025   4.195   5.276  0.7769 -1.1805  0.4289
 2450SOL    HW218810   2.893   4.141   5.267  1.1591  3.8631 -2.1893
 2451SOL     OW18811   2.729   2.400   4.963 -0.4473  0.2448 -0.4802
 2451SOL    HW118812   2.801   2.457   4.937  0.7429 -1.1123 -0.1377
 2451SOL    HW218813   2.780   2.338   5.014 -1.2686  0.0245  0.0771
 2452SOL     OW18814   1.484   0.991  13.577 -0.0476 -0.2275 -0.4111
 2452SOL    HW118815   1.483   0.899  13.553  1.4360  0.1417 -1.9146
 2452SOL    HW218816   1.579   1.005  13.576 -0.0737 -0.0961 -1.2888
 2453SOL     OW18817   3.340   3.928   8.059  0.1488 -0.3793  0.1977
 2453SOL    HW118818   3.411   3.879   8.101  1.2852  1.2944  0.2250
 2453SOL    HW218819   3.357   4.016   8.093  1.1884 -0.3536 -0.3848
 2454SOL     OW18820   3.874   1.896   8.323  0.1629 -0.3860 -0.5568
 2454SOL    HW118821   3.857   1.986   8.351 -0.2619  0.0463 -2.2099
 2454SOL    HW218822   3.932   1.909   8.248 -0.9657  0.0023 -1.3503
 2455SOL     OW18823   0.168   4.338   4.211 -0.5793 -0.5081 -0.1786
 2455SOL    HW118824   0.104   4.390   4.260  1.6616  2.1964 -0.1223
 2455SOL    HW218825   0.108   4.306   4.145 -1.0319 -1.0276  0.4856
 2456SOL     OW18826   3.894   0.158  11.106 -0.2072  0.0082  0.9358
 2456SOL    HW118827   3.801   0.181  11.097 -0.0641  0.6104  0.9868
 2456SOL    HW218828   3.889   0.106  11.187 -0.3520 -2.3548 -0.6047
 2457SOL     OW18829   3.888   0.784   5.199 -0.3193 -0.5474  0.0886
 2457SOL    HW118830   3.811   0.783   5.257  0.3204 -1.4725  0.9278
 2457SOL    HW218831   3.846   0.822   5.122 -1.2996 -2.5715 -0.3831
 2458SOL     OW18832   1.336   2.361   8.719  0.4178  0.2249  0.3904
 2458SOL    HW118833   1.378   2.276   8.715 -1.5113 -0.6251 -1.8487
 2458SOL    HW218834   1.323   2.356   8.814  2.3650  0.5721  0.6636
 2459SOL     OW18835   0.892   2.637   5.868  0.2899 -0.1527 -0.2238
 2459SOL    HW118836   0.986   2.629   5.848  0.4206  0.7855  0.0307
 2459SOL    HW218837   0.857   2.691   5.798  0.8898  1.1013  0.4400
 2460SOL     OW18838   1.310   3.603  15.059 -0.3011 -0.5072 -0.3679
 2460SOL    HW118839   1.283   3.573  14.972 -1.3408 -1.0115  0.1308
 2460SOL    HW218840   1.258   3.683  15.064 -0.2348 -0.5322  0.7940
 2461SOL     OW18841   4.589   3.544   5.979 -0.3557 -0.0307  0.5305
 2461SOL    HW118842   4.653   3.576   6.044  0.4789  2.4167 -1.4921
 2461SOL    HW218843   4.643   3.531   5.901 -0.3770  2.9723  0.0216
 2462SOL     OW18844   3.540   1.375  15.940  0.3556  0.0539  0.3398
 2462SOL    HW118845   3.596   1.314  15.987 -0.8569 -1.1153  0.2562
 2462SOL    HW218846   3.555   1.452  15.994  0.0545  0.7606 -0.5889
 2463SOL     OW18847   2.898   4.421   8.960 -0.4432  0.4522  0.1079
 2463SOL    HW118848   2.822   4.369   8.935 -0.9296  1.4541 -0.4865
 2463SOL    HW218849   2.866   4.498   8.914 -2.4438 -0.2573  0.3130
 2464SOL     OW18850   0.377   2.086   3.236  0.0891  0.2406  0.2945
 2464SOL    HW118851   0.305   2.059   3.294 -0.8234 -0.9456 -1.3927
 2464SOL    HW218852   0.380   2.006   3.183  0.0595  0.2743  0.2422
 2465SOL     OW18853   0.688   2.496   2.649 -0.2923  0.4491 -0.1053
 2465SOL    HW118854   0.773   2.521   2.684 -0.0489  0.7223 -0.8854
 2465SOL    HW218855   0.661   2.421   2.702  0.5219 -1.3767 -2.2870
 2466SOL     OW18856   3.899   2.699  12.952  0.6153 -0.3648  0.1156
 2466SOL    HW118857   3.838   2.753  12.903  1.7658  0.1773 -0.7170
 2466SOL    HW218858   3.986   2.704  12.913  0.8390  2.6886  1.0335
 2467SOL     OW18859   4.032   1.219   4.541 -0.1941  0.2070  0.4237
 2467SOL    HW118860   3.989   1.136   4.560  2.4457 -1.0747  0.8399
 2467SOL    HW218861   4.105   1.223   4.603  0.0602  2.3231  0.0076
 2468SOL     OW18862   2.550   4.410   5.494  0.3809  0.2503  0.2322
 2468SOL    HW118863   2.485   4.340   5.501  2.2773 -1.7443 -2.1370
 2468SOL    HW218864   2.591   4.410   5.580  0.6183 -3.6194  0.1180
 2469SOL     OW18865   4.060   3.525   3.443  0.3784  0.1848  0.0271
 2469SOL    HW118866   4.093   3.435   3.440  0.7457  0.4120 -2.6699
 2469SOL    HW218867   3.986   3.512   3.502  1.1474 -0.3991  0.8729
 2470SOL     OW18868   1.528   0.969   4.196  0.3236  0.5966 -0.6149
 2470SOL    HW118869   1.453   0.927   4.239  0.4159  2.5625  1.4596
 2470SOL    HW218870   1.529   0.919   4.115  1.2219  0.5264 -0.5665
 2471SOL     OW18871   2.841   1.111   1.226  0.0995  0.4258  0.2086
 2471SOL    HW118872   2.910   1.084   1.166  0.5903 -1.5413  1.6750
 2471SOL    HW218873   2.841   1.206   1.219 -0.7924  0.3662 -0.6263
 2472SOL     OW18874   3.285   0.331   6.398 -0.0030 -0.0261  0.5302
 2472SOL    HW118875   3.301   0.298   6.309  0.9365  2.2544 -0.1348
 2472SOL    HW218876   3.205   0.283   6.423  0.9210 -0.7383  2.1230
 2473SOL     OW18877   3.837   1.622   9.062 -0.8323 -0.3768 -0.4005
 2473SOL    HW118878   3.830   1.566   9.139  0.0914 -0.1131 -0.1295
 2473SOL    HW218879   3.908   1.676   9.097  0.3187 -0.5729 -2.4342
 2474SOL     OW18880   1.209   2.709   1.617  0.4885  0.1005 -0.0237
 2474SOL    HW118881   1.193   2.615   1.631  0.0118  0.4423  1.6195
 2474SOL    HW218882   1.293   2.707   1.571 -0.0140 -2.1252 -0.8623
 2475SOL     OW18883   0.540   2.029   2.137 -0.5300 -0.5127 -0.4552
 2475SOL    HW118884   0.463   1.973   2.150  1.1238 -2.5836  0.4127
 2475SOL    HW218885   0.494   2.112   2.127  0.9214  0.1794 -1.4073
 2476SOL     OW18886   4.573   2.070  13.278  0.1952 -0.2551  0.3927
 2476SOL    HW118887   4.631   2.067  13.354  0.0010 -0.1615  0.5445
 2476SOL    HW218888   4.624   2.132  13.226 -0.3539 -2.0759 -2.3451
 2477SOL     OW18889   0.813   2.857  14.030 -0.5895  0.0923  0.1980
 2477SOL    HW118890   0.877   2.927  14.043  0.0719 -0.3663 -0.5494
 2477SOL    HW218891   0.746   2.885  14.092  0.7686  1.0834  1.2405
 2478SOL     OW18892   1.634   2.130   8.954  0.7614  0.5167 -0.4053
 2478SOL    HW118893   1.717   2.099   8.918  1.3644  1.1976  0.3908
 2478SOL    HW218894   1.637   2.220   8.921 -1.1250  2.0740  3.6201
 2479SOL     OW18895   1.492   0.751   5.903 -0.2417  0.0096  0.3535
 2479SOL    HW118896   1.405   0.727   5.871 -0.7875  1.8670  0.4262
 2479SOL    HW218897   1.492   0.847   5.899 -1.2961 -0.0334 -0.7959
 2480SOL     OW18898   4.529   0.399  17.372 -0.2727  0.2867 -0.1719
 2480SOL    HW118899   4.522   0.473  17.433 -0.3504  0.3176 -0.2184
 2480SOL    HW218900   4.548   0.443  17.289  2.6197 -1.8488 -0.6481
 2481SOL     OW18901   1.248   2.814  11.687 -0.3195 -0.1100  0.4803
 2481SOL    HW118902   1.297   2.827  11.606  0.6709  0.9224  1.2460
 2481SOL    HW218903   1.295   2.739  11.725  0.9411 -0.4630 -1.7704
 2482SOL     OW18904   2.870   4.685   2.332  0.2623  0.2017  0.1360
 2482SOL    HW118905   2.792   0.016   2.310 -0.8470 -1.1534  0.8815
 2482SOL    HW218906   2.849   4.598   2.298  2.0601 -0.4356  0.6819
 2483SOL     OW18907   1.183   2.082   6.770  0.0385 -0.4318  0.0772
 2483SOL    HW118908   1.160   2.012   6.709 -1.1706  0.8907 -1.0030
 2483SOL    HW218909   1.279   2.084   6.775 -0.0598  1.0463  1.4137
 2484SOL     OW18910   2.498   1.178   5.386  0.1753 -0.4746  0.3894
 2484SOL    HW118911   2.497   1.086   5.415  1.8679 -0.1783  1.3701
 2484SOL    HW218912   2.430   1.212   5.443 -0.3511  0.1624 -0.6204
 2485SOL     OW18913   3.027   4.362  14.453 -0.0588 -0.1944  0.0787
 2485SOL    HW118914   3.031   4.267  14.462  0.6104 -0.1288  0.4641
 2485SOL    HW218915   3.113   4.395  14.478  0.6627 -1.7466 -0.3804
 2486SOL     OW18916   4.259   0.942   6.951  0.2616  0.7112  0.3138
 2486SOL    HW118917   4.172   0.938   6.991 -0.0616 -0.4618 -0.5049
 2486SOL    HW218918   4.240   0.898   6.868  3.7113  0.7809 -0.5187
 2487SOL     OW18919   4.190   1.832   8.697 -0.1863 -0.2101 -0.0489
 2487SOL    HW118920   4.180   1.752   8.749 -2.7365 -1.3293 -2.2901
 2487SOL    HW218921   4.232   1.891   8.760 -0.6368  1.7646 -1.5599
 2488SOL     OW18922   1.232   3.717  16.759 -0.6213 -0.0031 -0.1000
 2488SOL    HW118923   1.238   3.653  16.830  0.7827  0.0960 -0.1249
 2488SOL    HW218924   1.251   3.670  16.677 -0.7967 -1.1446  0.5143
 2489SOL     OW18925   1.590   4.561  10.550  0.0101  0.8566 -0.2118
 2489SOL    HW118926   1.637   4.584  10.470  0.6832 -1.9696 -0.6144
 2489SOL    HW218927   1.651   4.578  10.622  0.3223  0.3360 -0.3541
 2490SOL     OW18928   0.117   3.652   2.959 -0.0549  0.2005  0.4700
 2490SOL    HW118929   0.058   3.719   2.994 -0.4585 -0.1186  0.3931
 2490SOL    HW218930   0.136   3.601   3.038  0.5203 -0.6083 -0.1923
 2491SOL     OW18931   1.824   4.122   7.724 -0.2794 -0.3076 -0.3356
 2491SOL    HW118932   1.904   4.152   7.680 -0.7813  0.9832 -0.3582
 2491SOL    HW218933   1.758   4.190   7.710 -0.5141 -0.3589  0.5176
 2492SOL     OW18934   2.266   1.996  13.285  0.8914 -0.0816  0.0240
 2492SOL    HW118935   2.188   2.051  13.300  2.5003  1.8246  1.4287
 2492SOL    HW218936   2.261   1.986  13.190  0.0102 -1.7937  0.2449
 2493SOL     OW18937   3.110   3.207  14.367  0.4943  0.2128 -0.2022
 2493SOL    HW118938   3.112   3.112  14.367 -0.0733  0.2105  0.7204
 2493SOL    HW218939   3.111   3.213  14.462  1.8802  0.7511 -0.2435
 2494SOL     OW18940   0.069   3.650  15.292 -0.7762 -0.5615  0.4101
 2494SOL    HW118941   0.110   3.641  15.378 -0.8535  0.7386  0.5857
 2494SOL    HW218942   0.096   3.739  15.270 -0.3123 -0.6440  0.6339
 2495SOL     OW18943   0.634   0.009   6.689  0.0773 -0.0516  0.1761
 2495SOL    HW118944   0.692   4.669   6.736 -0.3235  0.6187  1.5297
 2495SOL    HW218945   0.678   0.094   6.683 -0.5643  0.3463  1.0547
 2496SOL     OW18946   1.279   4.621   2.418 -0.0670 -0.1331  0.3561
 2496SOL    HW118947   1.199   4.584   2.379 -0.4355 -1.7253  2.5614
 2496SOL    HW218948   1.246   4.660   2.499 -0.9631 -0.7344  0.2884
 2497SOL     OW18949   2.761   1.996  10.444 -0.0532  0.5590 -0.2039
 2497SOL    HW118950   2.722   1.924  10.394  2.1548 -1.4744  0.9867
 2497SOL    HW218951   2.784   1.954  10.527  0.7221  1.1962 -0.0903
 2498SOL     OW18952   1.146   0.063   9.170 -0.6541 -0.5876 -0.5597
 2498SOL    HW118953   1.210   0.048   9.100  0.8556  0.6721  0.5411
 2498SOL    HW218954   1.070   0.030   9.122 -1.8744  0.2263  0.8093
 2499SOL     OW18955   0.773   3.369   9.026 -0.4651 -0.4893  0.1647
 2499SOL    HW118956   0.731   3.450   9.054 -0.9853 -0.8262  0.3487
 2499SOL    HW218957   0.858   3.402   8.997 -1.0484  2.5157  1.8361
 2500SOL     OW18958   1.521   2.009   4.873 -0.2145 -0.2089 -0.1558
 2500SOL    HW118959   1.449   1.971   4.925  0.4124 -0.5489  0.4610
 2500SOL    HW218960   1.596   1.970   4.917 -0.3325  0.0480  0.2771
 2501SOL     OW18961   3.636   2.856   5.896 -0.1219 -0.1138 -0.0811
 2501SOL    HW118962   3.685   2.908   5.959 -1.1150  1.2471 -0.4317
 2501SOL    HW218963   3.573   2.811   5.952 -1.3510 -0.3293 -1.6431
 2502SOL     OW18964   0.132   4.706   6.339  0.0982 -0.9844  0.6598
 2502SOL    HW118965   0.101   0.029   6.259  1.0371 -0.8455  0.3736
 2502SOL    HW218966   0.060   4.642   6.338 -1.1538  0.4428  0.0936
 2503SOL     OW18967   3.845   4.250   5.516 -0.6481  0.3959 -0.1300
 2503SOL    HW118968   3.909   4.179   5.528 -0.7732  0.7347  2.5238
 2503SOL    HW218969   3.875   4.306   5.587  0.9945 -0.8126  0.1259
 2504SOL     OW18970   1.009   1.154   4.885  0.0046 -0.1888 -0.0023
 2504SOL    HW118971   1.021   1.129   4.793  0.5015 -0.4967  0.1468
 2504SOL    HW218972   0.940   1.219   4.873 -1.4058 -1.8140 -0.7294
 2505SOL     OW18973   1.228   1.560   6.675 -0.8645  0.4975  0.3399
 2505SOL    HW118974   1.162   1.572   6.607 -0.0094  1.4937 -0.3193
 2505SOL    HW218975   1.296   1.621   6.646 -0.7805  0.0800 -0.3562
 2506SOL     OW18976   2.275   4.392   4.677  0.0253  0.3415  0.1450
 2506SOL    HW118977   2.215   4.402   4.603 -1.1912 -3.3086  0.6522
 2506SOL    HW218978   2.235   4.310   4.705  0.1524  0.2775  0.1374
 2507SOL     OW18979   3.992   2.876   9.042  0.9692 -0.4368  0.0999
 2507SOL    HW118980   3.925   2.807   9.040  2.5341 -1.9047 -1.1831
 2507SOL    HW218981   4.058   2.821   9.084  0.1922 -0.9360  0.6738
 2508SOL     OW18982   1.734   4.488   4.255  0.2212 -0.5541  0.4075
 2508SOL    HW118983   1.806   4.544   4.283  0.9734 -1.8907  1.1496
 2508SOL    HW218984   1.698   4.468   4.341  1.1207 -1.2505  0.6252
 2509SOL     OW18985   3.084   0.153   2.232 -0.2434  0.1004 -0.3299
 2509SOL    HW118986   3.159   0.098   2.254  0.0566  0.1053 -1.3582
 2509SOL    HW218987   3.017   0.095   2.268 -1.0428  1.7901  0.9396
 2510SOL     OW18988   1.445   3.771   1.196 -0.3235 -0.4549 -0.6246
 2510SOL    HW118989   1.378   3.835   1.220  1.9830  1.5801  0.2860
 2510SOL    HW218990   1.519   3.826   1.171 -1.0183  0.3214 -0.9583
 2511SOL     OW18991   3.969   4.696   6.850  0.3725  0.4485 -0.2378
 2511SOL    HW118992   3.915   4.682   6.929 -2.5076 -1.0133 -2.4478
 2511SOL    HW218993   3.926   4.628   6.797 -1.8241  0.0453  2.0401
 2512SOL     OW18994   4.476   1.776   1.952 -0.8582 -0.0860 -0.0962
 2512SOL    HW118995   4.475   1.870   1.972 -0.2982  0.2923 -1.8006
 2512SOL    HW218996   4.405   1.764   1.889  0.0920  2.0413 -1.5903
 2513SOL     OW18997   1.081   0.464  10.904 -0.5759  0.3105 -0.0191
 2513SOL    HW118998   1.118   0.413  10.977  1.9523  1.2786 -0.6111
 2513SOL    HW218999   1.016   0.514  10.953 -0.1337  1.4861 -0.6442
 2514SOL     OW19000   2.285   3.329   6.111 -0.0779 -0.3564 -0.2099
 2514SOL    HW119001   2.202   3.282   6.108 -0.1645 -0.2198 -0.0271
 2514SOL    HW219002   2.331   3.275   6.176  0.9373  0.0048 -0.6235
 2515SOL     OW19003   3.323   4.408   6.295  0.1748  0.5941 -0.0188
 2515SOL    HW119004   3.338   4.377   6.385  0.4196 -0.5301 -0.4492
 2515SOL    HW219005   3.404   4.453   6.273 -0.4500  1.0324 -1.3941
 2516SOL     OW19006   3.499   2.993   8.730 -0.2811  0.0805 -0.3866
 2516SOL    HW119007   3.591   2.977   8.752 -0.3257  0.0396 -0.2276
 2516SOL    HW219008   3.491   2.965   8.639  1.2654 -2.4614  0.2737
 2517SOL     OW19009   2.415   4.025  17.537  0.4584  0.0808  0.8035
 2517SOL    HW119010   2.502   4.065  17.542 -0.0408  1.8905 -4.3568
 2517SOL    HW219011   2.410   3.968  17.613  1.6023  1.1734  1.7153
 2518SOL     OW19012   4.403   1.670   3.272  0.6998  0.3901 -0.0726
 2518SOL    HW119013   4.442   1.757   3.281 -0.8969  1.0748  0.1312
 2518SOL    HW219014   4.485   1.622   3.256  0.4181 -0.6787  1.7132
 2519SOL     OW19015   0.528   2.518  15.702  0.1100 -0.9135 -0.2262
 2519SOL    HW119016   0.517   2.469  15.784 -0.6678  0.5369  0.5525
 2519SOL    HW219017   0.623   2.525  15.698 -0.0032 -0.7378 -2.2760
 2520SOL     OW19018   0.716   3.127   9.612 -0.4894 -0.2067 -0.1486
 2520SOL    HW119019   0.800   3.109   9.571 -0.2270  0.7940 -0.0614
 2520SOL    HW219020   0.671   3.188   9.553  0.6602  1.6610  0.9075
 2521SOL     OW19021   4.299   1.170  17.537  0.6504  0.1018  0.3480
 2521SOL    HW119022   4.303   1.087  17.490  0.0720 -0.1577  0.7525
 2521SOL    HW219023   4.210   1.157  17.570  0.2427  1.0250 -0.3985
 2522SOL     OW19024   4.020   1.573   4.910 -0.1917 -0.1477  0.2946
 2522SOL    HW119025   3.958   1.571   4.837  0.3493  1.0660 -0.1829
 2522SOL    HW219026   3.966   1.519   4.968 -0.8907 -0.6917 -0.8552
 2523SOL     OW19027   3.035   2.870   4.487  0.0291  0.2246 -0.0574
 2523SOL    HW119028   2.992   2.844   4.406  1.7630  1.2489 -1.3247
 2523SOL    HW219029   3.126   2.877   4.457 -0.1140  0.9525 -0.3349
 2524SOL     OW19030   1.238   2.926   8.241 -0.5118 -0.2875  0.1071
 2524SOL    HW119031   1.175   2.938   8.170  0.9012  0.6758 -0.9970
 2524SOL    HW219032   1.295   3.002   8.229  0.4890 -1.0962 -0.2326
 2525SOL     OW19033   4.101   0.007  12.899 -0.2890  0.4184 -0.4223
 2525SOL    HW119034   4.191   0.037  12.889 -0.1756 -0.6745 -2.6026
 2525SOL    HW219035   4.098   4.663  12.829 -1.8188 -1.5050  1.4076
 2526SOL     OW19036   2.412   3.980   4.123 -0.1933 -0.9003 -0.0953
 2526SOL    HW119037   2.347   3.951   4.187  0.6195  0.6507  1.4219
 2526SOL    HW219038   2.361   4.017   4.051  0.6859  1.6271  0.5626
 2527SOL     OW19039   2.621   1.719   5.566 -0.1155  0.6587  0.5951
 2527SOL    HW119040   2.555   1.663   5.524 -2.2978  0.8970  3.7162
 2527SOL    HW219041   2.618   1.786   5.498 -1.0960  0.5086  0.4771
 2528SOL     OW19042   2.104   1.642   0.447  0.8124 -0.2172  0.2494
 2528SOL    HW119043   2.133   1.552   0.439  0.0583 -0.5146  0.9218
 2528SOL    HW219044   2.186   1.692   0.438  0.6555 -0.2540 -1.5428
 2529SOL     OW19045   3.932   4.656   0.633 -0.3705  0.2500 -0.0135
 2529SOL    HW119046   3.921   0.030   0.638  0.3418  0.3204  0.3176
 2529SOL    HW219047   3.849   4.624   0.668  1.7949 -3.4132  1.8109
 2530SOL     OW19048   0.940   4.391   8.599 -0.4746  0.4963 -0.0908
 2530SOL    HW119049   1.023   4.437   8.588  0.3508 -0.6197  1.4453
 2530SOL    HW219050   0.878   4.458   8.626 -0.8428  0.5506 -1.0653
 2531SOL     OW19051   0.070   4.448  17.630  0.3076  0.0572 -0.3101
 2531SOL    HW119052   4.698   4.454  17.607  0.0316 -3.4868 -0.1251
 2531SOL    HW219053   0.069   4.465   0.039 -1.4922 -3.4489  0.3091
 2532SOL     OW19054   4.244   0.965   5.856  0.0335  0.1353  0.1812
 2532SOL    HW119055   4.234   1.040   5.798  1.7768  0.6424  0.5408
 2532SOL    HW219056   4.235   0.902   5.784  1.6445  0.0447  0.0416
 2533SOL     OW19057   0.911   2.102   7.193  0.4423  0.2703 -0.7202
 2533SOL    HW119058   0.855   2.025   7.187 -2.2338  2.1383  0.3087
 2533SOL    HW219059   0.848   2.161   7.153  0.1253 -0.2424 -0.9772
 2534SOL     OW19060   0.569   4.150   7.723  0.2478 -0.1308 -0.1306
 2534SOL    HW119061   0.665   4.147   7.725  0.2481 -2.1157 -2.0919
 2534SOL    HW219062   0.560   4.119   7.813  0.0874 -0.3759 -0.2305
 2535SOL     OW19063   2.367   1.576   9.546 -0.0260 -0.1864 -0.2520
 2535SOL    HW119064   2.295   1.550   9.603 -1.1247 -0.7703 -1.9194
 2535SOL    HW219065   2.417   1.495   9.553 -1.1322 -0.4769  4.0796
 2536SOL     OW19066   0.109   2.279   8.081 -0.4224 -0.0832  0.3683
 2536SOL    HW119067   0.084   2.299   8.171  1.4563  3.0030  0.2029
 2536SOL    HW219068   0.086   2.186   8.077 -0.1586 -0.1068 -0.5474
 2537SOL     OW19069   1.740   1.921   0.686  0.4596  0.8747 -0.0191
 2537SOL    HW119070   1.654   1.879   0.681  1.3233 -1.0301  0.9837
 2537SOL    HW219071   1.787   1.889   0.609  0.5102 -3.6514  1.8645
 2538SOL     OW19072   4.182   3.406  11.495  0.2893  0.0555 -0.0393
 2538SOL    HW119073   4.275   3.389  11.481  0.0717 -2.0327  0.9634
 2538SOL    HW219074   4.181   3.370  11.584 -0.1620 -1.7716 -0.7765
 2539SOL     OW19075   3.448   1.278   5.169  0.2373  1.0004 -0.2377
 2539SOL    HW119076   3.481   1.358   5.211 -0.1114 -0.2012  2.3099
 2539SOL    HW219077   3.370   1.309   5.123  0.0543  2.5970  1.1370
 2540SOL     OW19078   3.523   0.310   5.210 -0.3893 -0.3931 -0.3627
 2540SOL    HW119079   3.517   0.327   5.304  1.7301 -2.7290  0.1959
 2540SOL    HW219080   3.603   0.259   5.196  0.0945  0.8528 -2.0575
 2541SOL     OW19081   3.264   4.362   4.896 -0.8073 -0.2919 -0.5171
 2541SOL    HW119082   3.213   4.283   4.877 -1.2024  0.0645 -0.9369
 2541SOL    HW219083   3.206   4.421   4.944  0.0418  1.2414 -1.3564
 2542SOL     OW19084   2.843   2.854   9.145  0.1648  0.0701 -0.1023
 2542SOL    HW119085   2.885   2.845   9.231  1.3837 -1.9423 -0.9211
 2542SOL    HW219086   2.814   2.945   9.156 -0.7550 -0.1396 -0.8543
 2543SOL     OW19087   0.059   0.519   4.759  0.1145  0.3699 -0.4085
 2543SOL    HW119088   4.703   0.512   4.815  1.0037 -2.3408  0.4350
 2543SOL    HW219089   0.018   0.484   4.680 -1.2378 -2.4724  1.5910
 2544SOL     OW19090   4.432   2.187  10.641 -0.3666  0.1888  0.0920
 2544SOL    HW119091   4.476   2.123  10.583 -1.7216  1.9243 -2.8488
 2544SOL    HW219092   4.341   2.161  10.625 -0.7190  0.6583  1.3651
 2545SOL     OW19093   3.831   2.228  17.443  0.4767 -0.2864  0.4383
 2545SOL    HW119094   3.798   2.271  17.521 -1.0010 -1.1668  0.3103
 2545SOL    HW219095   3.874   2.299  17.396 -0.3891 -0.1678 -0.1892
 2546SOL     OW19096   1.327   4.100   4.168  0.6781  0.1613 -0.5659
 2546SOL    HW119097   1.237   4.129   4.180  0.6701 -0.3133  0.5849
 2546SOL    HW219098   1.378   4.179   4.151 -1.6032  1.3950 -1.6466
 2547SOL     OW19099   3.854   3.971   3.369  0.2491 -0.4384  0.4968
 2547SOL    HW119100   3.769   3.991   3.409 -1.1312 -2.5647 -1.4129
 2547SOL    HW219101   3.890   3.924   3.444  1.9433 -1.6879 -1.0969
 2548SOL     OW19102   4.352   3.529   7.314  0.1542 -0.5054  0.1521
 2548SOL    HW119103   4.266   3.503   7.282 -0.5839  0.3021  1.4679
 2548SOL    HW219104   4.338   3.616   7.350 -0.6965 -0.7850  0.4837
 2549SOL     OW19105   1.337   1.739   4.101  0.4151  0.1126  0.5267
 2549SOL    HW119106   1.381   1.725   4.185  0.7226 -0.2858  0.2971
 2549SOL    HW219107   1.379   1.812   4.056 -0.0260 -0.4350 -0.7816
 2550SOL     OW19108   4.650   3.955   4.210 -0.3255 -0.3347  0.1675
 2550SOL    HW119109   4.650   3.926   4.118  1.1677  0.9519 -0.2236
 2550SOL    HW219110   4.657   4.046   4.181 -0.3735 -0.5127 -0.4076
 2551SOL     OW19111   4.235   3.180   5.808  0.9732  0.0424  0.2409
 2551SOL    HW119112   4.171   3.130   5.859  0.3741 -1.2380 -1.7585
 2551SOL    HW219113   4.273   3.106   5.760  1.7086  2.2548 -2.5742
 2552SOL     OW19114   4.429   3.603   3.536  0.1950  0.9210  0.0688
 2552SOL    HW119115   4.474   3.531   3.492 -2.0116 -0.9594  0.8999
 2552SOL    HW219116   4.371   3.636   3.467  0.6751  0.1996 -0.6809
 2553SOL     OW19117   4.678   4.236   9.239 -0.1103 -0.5115  0.3345
 2553SOL    HW119118   4.673   4.219   9.333  1.5065  0.4922  0.5968
 2553SOL    HW219119   4.637   4.157   9.204 -1.2504  1.2431 -2.2967
 2554SOL     OW19120   3.702   1.168   8.414 -0.3398 -0.4126  0.5853
 2554SOL    HW119121   3.637   1.162   8.485  0.1318  0.4089  1.0901
 2554SOL    HW219122   3.654   1.236   8.366  1.8583  1.0415  0.4738
 2555SOL     OW19123   1.668   3.753   9.103  0.2779 -0.0638  0.2992
 2555SOL    HW119124   1.613   3.744   9.026  0.5343  0.2005  0.0874
 2555SOL    HW219125   1.611   3.719   9.173  1.0075  1.3239  1.5744
 2556SOL     OW19126   1.693   1.566   6.846  0.0515  0.6275  0.1479
 2556SOL    HW119127   1.763   1.582   6.909  0.8826  2.2470 -1.1717
 2556SOL    HW219128   1.680   1.658   6.822 -1.6364  0.3602  0.0618
 2557SOL     OW19129   0.878   0.614   8.422 -0.0708  0.1250  0.3031
 2557SOL    HW119130   0.821   0.594   8.496  0.1639  0.3202  0.5402
 2557SOL    HW219131   0.854   0.535   8.374  1.1537  1.4510 -2.5086
 2558SOL     OW19132   2.005   0.751  11.603 -0.1125 -0.3516 -0.4069
 2558SOL    HW119133   1.946   0.825  11.592 -0.2838 -0.2339  1.1890
 2558SOL    HW219134   2.079   0.789  11.651 -1.3616  1.3405  0.1677
 2559SOL     OW19135   2.683   3.952   4.910  0.4754  0.1019  1.2020
 2559SOL    HW119136   2.596   3.991   4.909  0.7544  0.7351  1.4052
 2559SOL    HW219137   2.650   3.864   4.929  2.2491 -0.7944  0.1569
 2560SOL     OW19138   1.847   2.975   4.683 -0.5616 -0.1071  1.0816
 2560SOL    HW119139   1.832   2.957   4.776  2.3301 -0.5048  1.4568
 2560SOL    HW219140   1.765   2.981   4.634  0.2062  0.0298 -0.1669
 2561SOL     OW19141   3.281   1.479   7.677 -0.2539  0.2018  0.6544
 2561SOL    HW119142   3.238   1.501   7.594 -1.1953  0.1013  1.1078
 2561SOL    HW219143   3.268   1.556   7.733  1.8846  0.7364  0.3851
 2562SOL     OW19144   0.004   1.538   5.353 -0.0752 -0.8253  0.0340
 2562SOL    HW119145   0.032   1.446   5.350 -0.6452 -1.0628  1.9843
 2562SOL    HW219146   0.091   1.573   5.333  0.9832 -1.7717  2.9935
 2563SOL     OW19147   4.059   1.857   2.599  0.1812  0.5949 -0.0214
 2563SOL    HW119148   4.150   1.862   2.627 -0.4499  0.4638  2.0335
 2563SOL    HW219149   4.037   1.823   2.686  0.7689 -0.4742 -0.3008
 2564SOL     OW19150   1.448   0.480   3.685  0.2552 -0.7229 -0.0939
 2564SOL    HW119151   1.443   0.572   3.657 -1.1823 -1.4244 -2.1844
 2564SOL    HW219152   1.457   0.437   3.600 -1.1815 -0.5327 -0.3414
 2565SOL     OW19153   3.436   3.602  11.474 -0.3747 -0.3209  0.0426
 2565SOL    HW119154   3.451   3.509  11.457  0.4160 -0.4826  1.5799
 2565SOL    HW219155   3.458   3.602  11.568 -1.0492  0.1791  0.2027
 2566SOL     OW19156   1.577   3.234   9.419  0.2125  0.5765 -0.2958
 2566SOL    HW119157   1.499   3.286   9.438  0.3992  0.1438  1.6462
 2566SOL    HW219158   1.571   3.164   9.485 -0.8985  0.9798  0.0390
 2567SOL     OW19159   3.401   0.607   4.830  0.1966 -0.7210  0.7773
 2567SOL    HW119160   3.446   0.573   4.907 -0.0392 -2.2717  0.2198
 2567SOL    HW219161   3.356   0.528   4.803 -0.6799  0.2195 -0.5249
 2568SOL     OW19162   4.241   4.604   8.377 -0.2336 -0.4625 -0.1724
 2568SOL    HW119163   4.183   4.612   8.453 -0.8573 -1.9839 -0.4901
 2568SOL    HW219164   4.280   4.691   8.386 -0.6070 -0.3968  0.8536
 2569SOL     OW19165   4.467   4.253   3.630 -0.0841  1.2285 -0.6104
 2569SOL    HW119166   4.543   4.310   3.627 -0.1148  1.3008  0.0321
 2569SOL    HW219167   4.502   4.187   3.690 -0.1232  2.0456  0.3015
 2570SOL     OW19168   4.013   4.220   1.987 -0.1185  0.4333 -0.0664
 2570SOL    HW119169   3.994   4.127   1.974  1.9783 -0.2304  1.5842
 2570SOL    HW219170   4.015   4.265   1.903 -2.1128  0.9635  0.1700
 2571SOL     OW19171   3.968   0.291   2.516 -0.1890  0.4429  0.1801
 2571SOL    HW119172   4.034   0.334   2.571  0.9641  0.0324 -0.8804
 2571SOL    HW219173   3.940   0.360   2.456 -0.5000 -0.4080 -0.6477
 2572SOL     OW19174   2.251   2.573  15.044  0.2429 -0.0531 -0.1728
 2572SOL    HW119175   2.177   2.574  14.984 -0.3113 -3.4030  0.4229
 2572SOL    HW219176   2.207   2.561  15.128  2.1346 -1.2270  0.6473
 2573SOL     OW19177   4.241   2.492   7.479  0.4295  0.4477 -0.2297
 2573SOL    HW119178   4.221   2.486   7.386  0.7185  0.2139 -0.2791
 2573SOL    HW219179   4.328   2.452   7.474 -0.9166 -2.5994  0.8563
 2574SOL     OW19180   0.053   2.400   3.494  0.0802  0.2164  0.3348
 2574SOL    HW119181   0.102   2.317   3.487  2.4794  1.8699 -2.7870
 2574SOL    HW219182   0.110   2.442   3.558  0.6692  0.7781 -0.5589
 2575SOL     OW19183   3.548   1.739   3.716  0.0476 -0.2472 -0.7655
 2575SOL    HW119184   3.575   1.700   3.799  0.3366 -0.4055 -0.9329
 2575SOL    HW219185   3.468   1.782   3.747 -1.1518 -1.7863 -1.6938
 2576SOL     OW19186   4.260   3.373   7.637 -0.0890  0.2442  0.0326
 2576SOL    HW119187   4.182   3.326   7.605  0.3587  1.2769 -2.5534
 2576SOL    HW219188   4.316   3.360   7.561  1.8986 -0.1077  1.5381
 2577SOL     OW19189   4.416   3.953   6.728 -0.0509  0.1322 -0.8200
 2577SOL    HW119190   4.415   4.001   6.646  1.2955  1.2414 -0.1802
 2577SOL    HW219191   4.455   3.866   6.715  1.0589  0.5048 -0.0090
 2578SOL     OW19192   1.338   3.363   9.530 -0.1726  0.3854  0.2538
 2578SOL    HW119193   1.372   3.447   9.498 -0.7154  1.1692  1.7102
 2578SOL    HW219194   1.247   3.368   9.501 -0.5845  1.0314  1.6211
 2579SOL     OW19195   2.825   2.276   4.478 -0.1278 -0.8788 -0.1805
 2579SOL    HW119196   2.909   2.320   4.480 -1.4204  1.5561  0.3993
 2579SOL    HW219197   2.831   2.229   4.395 -3.9659 -3.9712  1.2746
 2580SOL     OW19198   2.605   3.337   9.886  0.1430 -0.1588 -0.2897
 2580SOL    HW119199   2.677   3.370   9.833 -0.1823 -1.9690 -1.8474
 2580SOL    HW219200   2.640   3.254   9.919  0.2493  0.8194  2.0704
 2581SOL     OW19201   4.215   2.706  10.312 -0.5017 -0.2545 -0.2707
 2581SOL    HW119202   4.225   2.763  10.389  1.6596 -1.4938  0.3841
 2581SOL    HW219203   4.260   2.757  10.245  0.3824  0.5218  0.8940
 2582SOL     OW19204   4.198   4.412   6.056  0.2773 -0.3159 -0.4340
 2582SOL    HW119205   4.127   4.359   6.020  2.0293 -1.9007 -1.5279
 2582SOL    HW219206   4.166   4.432   6.144  0.6488 -1.8953  0.0539
 2583SOL     OW19207   0.851   0.965  11.399  0.0075  0.5157  0.6041
 2583SOL    HW119208   0.938   0.956  11.438 -0.0746 -3.1620 -0.1063
 2583SOL    HW219209   0.808   0.905  11.459 -2.9268  0.1687 -1.8729
 2584SOL     OW19210   4.674   0.424   7.323  0.3417  0.1547  0.0808
 2584SOL    HW119211   0.040   0.426   7.283  0.5251 -0.4690  0.4472
 2584SOL    HW219212   4.644   0.513   7.304 -0.0108  0.0200 -0.0049
 2585SOL     OW19213   2.206   2.616  13.784 -0.4305 -0.1947  0.3317
 2585SOL    HW119214   2.180   2.580  13.699  0.0724 -1.7654  0.8276
 2585SOL    HW219215   2.256   2.544  13.823  1.2569 -0.3927 -2.2052
 2586SOL     OW19216   1.424   2.235   2.160  0.2050 -0.0082  0.2667
 2586SOL    HW119217   1.394   2.230   2.251 -0.9310  0.1508 -0.0972
 2586SOL    HW219218   1.424   2.330   2.147 -1.6727 -0.4342 -2.9726
 2587SOL     OW19219   2.247   1.034   7.686 -0.1182 -0.0968  0.2876
 2587SOL    HW119220   2.279   1.099   7.748 -1.1467 -1.8419  2.6592
 2587SOL    HW219221   2.231   0.958   7.742 -0.7705 -1.0548 -1.2054
 2588SOL     OW19222   1.716   4.399   7.457  0.4228 -0.4236 -0.0891
 2588SOL    HW119223   1.627   4.388   7.424  0.6224 -0.2346 -0.6833
 2588SOL    HW219224   1.751   4.466   7.399 -0.5256 -0.9166 -1.2207
 2589SOL     OW19225   4.172   0.797   0.358 -0.2643 -0.6580 -0.0635
 2589SOL    HW119226   4.233   0.722   0.360 -0.6948 -1.0475 -1.4598
 2589SOL    HW219227   4.188   0.831   0.270 -0.7291 -0.3863 -0.0392
 2590SOL     OW19228   1.269   0.922  12.764  0.5724  0.0733  0.1708
 2590SOL    HW119229   1.364   0.924  12.760  0.4474  2.0336 -1.6504
 2590SOL    HW219230   1.239   0.989  12.702 -0.0850 -1.6821 -1.4303
 2591SOL     OW19231   1.171   4.109  11.345  0.3782 -0.3758 -0.2237
 2591SOL    HW119232   1.122   4.170  11.291  1.6570  0.0835 -0.8610
 2591SOL    HW219233   1.261   4.116  11.313 -0.1213  1.1521 -1.2814
 2592SOL     OW19234   1.483   2.521  11.245  0.0759  0.9478  0.3300
 2592SOL    HW119235   1.467   2.576  11.322  1.7682 -0.2027  1.5057
 2592SOL    HW219236   1.394   2.517  11.211 -0.6149  2.3141  1.9213
 2593SOL     OW19237   0.091   1.258   3.944  0.0317 -0.5354 -0.0847
 2593SOL    HW119238   0.137   1.204   3.879  0.0092 -0.7766  0.1007
 2593SOL    HW219239   0.075   1.200   4.018 -1.1673  0.4111  0.3924
 2594SOL     OW19240   1.794   0.842   6.360  0.3113 -0.1662  0.2242
 2594SOL    HW119241   1.754   0.862   6.275  2.1309 -0.6409 -0.7580
 2594SOL    HW219242   1.741   0.901   6.413  0.2171  0.4177 -0.5133
 2595SOL     OW19243   1.089   3.844   8.361 -0.4969 -0.3103 -0.3433
 2595SOL    HW119244   1.060   3.784   8.292 -1.8287 -2.3574  1.9840
 2595SOL    HW219245   1.001   3.860   8.396  0.2622  0.7237  1.0584
 2596SOL     OW19246   4.696   3.651  15.042  0.6427 -0.3464 -0.1077
 2596SOL    HW119247   0.006   3.616  15.125 -1.4650  0.2922  0.9592
 2596SOL    HW219248   4.718   3.578  14.985  1.2697 -0.6373  0.5200
 2597SOL     OW19249   4.569   3.631   1.072  0.1028  0.3754  0.1263
 2597SOL    HW119250   4.619   3.703   1.033  1.2118  0.5478  1.8653
 2597SOL    HW219251   4.590   3.565   1.006 -2.2531 -0.7133  0.4761
 2598SOL     OW19252   1.576   2.037   3.438  0.3844 -0.0604 -0.0059
 2598SOL    HW119253   1.484   2.010   3.446  0.0505  1.1551  0.3008
 2598SOL    HW219254   1.601   1.987   3.361  1.6566 -0.0832  0.4186
 2599SOL     OW19255   0.394   0.102   0.041  0.2663 -0.1910  0.2061
 2599SOL    HW119256   0.468   0.113  17.664 -1.0523 -0.1290 -1.3666
 2599SOL    HW219257   0.351   0.184   0.016 -0.8037 -0.5973  0.7544
 2600SOL     OW19258   2.708   3.735  10.042  0.0594 -0.2822  0.3048
 2600SOL    HW119259   2.756   3.689   9.973 -1.3701  0.2783 -1.0520
 2600SOL    HW219260   2.623   3.694  10.025 -0.3545  0.1241  1.3936
 2601SOL     OW19261   3.800   4.393  17.356  0.3319 -0.0818 -0.2084
 2601SOL    HW119262   3.742   4.356  17.290  0.8675 -0.5726 -0.4030
 2601SOL    HW219263   3.762   4.481  17.360 -2.1448 -1.2604  1.8508
 2602SOL     OW19264   0.727   2.064   8.904  0.2971 -0.0456  0.4463
 2602SOL    HW119265   0.775   2.050   8.822 -1.6527 -1.7995 -0.4010
 2602SOL    HW219266   0.636   2.051   8.878  0.4656  1.2606 -0.7397
 2603SOL     OW19267   4.540   1.199   5.952 -0.0451 -0.5830  0.3880
 2603SOL    HW119268   4.596   1.261   5.906  1.2140 -2.9247 -1.1979
 2603SOL    HW219269   4.464   1.246   5.986  1.9257  0.4517  3.3765
 2604SOL     OW19270   4.012   4.539   5.128  0.1166  0.2299 -0.3717
 2604SOL    HW119271   4.060   4.463   5.097 -0.1886 -0.0777 -0.0812
 2604SOL    HW219272   3.978   4.569   5.043 -0.2152  0.7069 -0.0718
 2605SOL     OW19273   0.298   0.535   1.123 -0.1972 -0.0686 -0.5991
 2605SOL    HW119274   0.373   0.477   1.131 -0.2826  0.0226  0.8579
 2605SOL    HW219275   0.334   0.616   1.088 -0.3516 -0.5276 -1.8158
 2606SOL     OW19276   0.044   2.044  17.568 -0.0489 -0.4818  0.2589
 2606SOL    HW119277   0.124   2.016  17.524 -0.0930  2.8556 -1.9713
 2606SOL    HW219278   4.706   2.046  17.492  0.4241 -0.2682 -0.0998
 2607SOL     OW19279   2.373   3.979  15.818  0.7823  0.1510 -0.7029
 2607SOL    HW119280   2.346   3.930  15.896 -0.4006 -0.0822 -1.2647
 2607SOL    HW219281   2.300   3.963  15.759  1.3306 -0.4941 -1.2116
 2608SOL     OW19282   3.391   3.642  12.709  0.4508  0.1801  0.0255
 2608SOL    HW119283   3.418   3.610  12.623  0.5338  0.0567  0.0974
 2608SOL    HW219284   3.370   3.562  12.758 -0.9247  1.6112  1.7889
 2609SOL     OW19285   3.622   4.437   2.852 -0.2437  0.5611 -0.1125
 2609SOL    HW119286   3.634   4.532   2.855  3.2558  0.1477 -0.8375
 2609SOL    HW219287   3.703   4.407   2.894 -1.3296 -1.3125  0.6570
 2610SOL     OW19288   1.397   1.842   2.415  0.2250 -1.1044 -0.0385
 2610SOL    HW119289   1.318   1.790   2.404  0.2068 -1.0129 -0.3360
 2610SOL    HW219290   1.452   1.797   2.351 -0.6355 -3.5671  0.9714
 2611SOL     OW19291   1.845   4.307   0.961  0.3088 -0.0458  0.2912
 2611SOL    HW119292   1.873   4.284   1.049  2.5853 -0.7027 -0.5913
 2611SOL    HW219293   1.906   4.379   0.953 -0.2024  0.5741  1.9514
 2612SOL     OW19294   0.954   1.959  16.927 -0.0690 -0.4734  0.0025
 2612SOL    HW119295   1.027   1.923  16.877 -1.6046 -0.9722 -1.8902
 2612SOL    HW219296   0.997   1.957  17.012 -1.1724 -0.4461  0.5618
 2613SOL     OW19297   0.283   1.255  11.250  0.3012  0.4629 -0.1344
 2613SOL    HW119298   0.193   1.260  11.215 -0.6703 -0.3736  2.2339
 2613SOL    HW219299   0.273   1.175  11.302  2.3527  0.5263  0.3556
 2614SOL     OW19300   4.248   4.033   8.817  0.1958  0.1453 -0.2589
 2614SOL    HW119301   4.170   4.051   8.765  1.0313  0.2304 -1.4938
 2614SOL    HW219302   4.277   3.950   8.778  1.4030  0.2520  0.4257
 2615SOL     OW19303   1.955   0.381   6.527  0.3481 -0.0258 -0.0715
 2615SOL    HW119304   1.869   0.360   6.492  0.0011  0.8412  0.2575
 2615SOL    HW219305   1.921   0.454   6.580  0.8265  0.8699 -0.9918
 2616SOL     OW19306   1.191   3.363   8.324  0.1473  0.3159  0.7889
 2616SOL    HW119307   1.195   3.269   8.345 -0.2769 -0.0419 -0.7011
 2616SOL    HW219308   1.283   3.380   8.304  0.3792 -2.4096 -0.4667
 2617SOL     OW19309   3.958   4.400  15.198  0.2527  0.4545 -0.0336
 2617SOL    HW119310   4.000   4.440  15.274  0.3614  1.0985 -0.4294
 2617SOL    HW219311   3.875   4.367  15.232 -0.6827  1.3234 -1.4556
 2618SOL     OW19312   0.123   2.719   3.873  0.3635  0.0665 -0.3368
 2618SOL    HW119313   0.165   2.644   3.832 -1.4657 -1.1115 -0.0302
 2618SOL    HW219314   0.102   2.775   3.798  0.0991 -0.3506 -0.5760
 2619SOL     OW19315   4.701   1.141   4.732  0.2658 -0.2617 -0.5635
 2619SOL    HW119316   0.021   1.055   4.744  1.1302  0.0356 -1.3818
 2619SOL    HW219317   4.670   1.134   4.641  0.2826 -0.2650 -0.5689
 2620SOL     OW19318   3.917   1.196   2.917 -0.1131 -0.1161 -0.5572
 2620SOL    HW119319   3.965   1.262   2.868  1.8571 -1.1229  0.0001
 2620SOL    HW219320   3.894   1.254   2.990 -0.6298 -0.9961 -0.0161
 2621SOL     OW19321   4.676   4.017   8.938 -0.2150 -0.0537 -0.1902
 2621SOL    HW119322   4.709   3.947   8.994 -1.4448 -0.2129  0.3178
 2621SOL    HW219323   4.592   4.041   8.976 -0.1355 -0.6802  0.3814
 2622SOL     OW19324   4.543   3.276  14.502 -0.2333 -0.2276 -0.4266
 2622SOL    HW119325   4.589   3.309  14.579  1.0467  1.1012 -1.7523
 2622SOL    HW219326   4.597   3.203  14.471  0.9203  0.2375  0.4852
 2623SOL     OW19327   3.739   2.329   7.436 -0.6074  0.0028  0.4920
 2623SOL    HW119328   3.707   2.320   7.526  0.9846  0.7821  1.1367
 2623SOL    HW219329   3.833   2.338   7.451 -0.4525 -0.2328 -0.3663
 2624SOL     OW19330   0.729   1.443  10.974 -0.3009 -0.0911  0.3099
 2624SOL    HW119331   0.686   1.398  11.047 -1.9417 -1.1186 -1.3261
 2624SOL    HW219332   0.700   1.395  10.897  0.0874  0.2665 -0.0596
 2625SOL     OW19333   1.473   2.461  10.261  0.4561  0.1178 -0.7806
 2625SOL    HW119334   1.422   2.521  10.206 -1.0470 -1.5183 -1.1554
 2625SOL    HW219335   1.415   2.386  10.269 -0.0696  0.7966  1.9474
 2626SOL     OW19336   2.758   4.567   1.395 -0.6151  0.4492 -0.7822
 2626SOL    HW119337   2.807   4.572   1.477 -2.8136  1.4780  0.4599
 2626SOL    HW219338   2.742   4.474   1.380  0.1288  0.4665 -1.7333
 2627SOL     OW19339   1.568   3.592   2.329 -0.3981  0.3809  0.1628
 2627SOL    HW119340   1.485   3.640   2.325 -0.9615 -0.7625 -1.8215
 2627SOL    HW219341   1.544   3.519   2.272 -0.6728  0.0097  0.7539
 2628SOL     OW19342   4.340   1.123  17.250  0.6153  0.1359  0.1598
 2628SOL    HW119343   4.344   1.030  17.228  0.1364 -0.2484  1.7010
 2628SOL    HW219344   4.252   1.147  17.222  0.3411 -2.3889 -1.0926
 2629SOL     OW19345   0.436   3.109   6.066 -0.4184  0.5136 -0.1187
 2629SOL    HW119346   0.429   3.155   5.983 -1.0860  2.0488  0.7754
 2629SOL    HW219347   0.529   3.121   6.083 -0.7478 -1.2218  2.9230
 2630SOL     OW19348   4.524   3.375   6.542  0.0556  0.1330  0.1998
 2630SOL    HW119349   4.586   3.355   6.612  0.5653 -1.5796 -0.7666
 2630SOL    HW219350   4.571   3.410   6.466  0.6714 -2.2336 -0.4863
 2631SOL     OW19351   1.562   3.041   7.346 -0.3347 -0.2669 -0.0254
 2631SOL    HW119352   1.651   3.076   7.354 -0.6815  0.1807  1.7856
 2631SOL    HW219353   1.554   2.969   7.408  2.8550  0.3751  1.1479
 2632SOL     OW19354   4.045   3.339   4.497  0.1076 -0.1358 -0.4428
 2632SOL    HW119355   4.012   3.275   4.434 -1.9456  0.7970 -0.2905
 2632SOL    HW219356   3.998   3.315   4.577 -1.0167 -1.5054 -1.5222
 2633SOL     OW19357   0.390   0.553   7.768  0.4885  0.5850 -0.0305
 2633SOL    HW119358   0.368   0.644   7.751 -0.8064 -0.0065 -1.4805
 2633SOL    HW219359   0.302   0.517   7.783  0.6559  0.6536  1.1434
 2634SOL     OW19360   0.552   2.620   6.276  0.1005 -0.4343 -0.1149
 2634SOL    HW119361   0.480   2.675   6.246  0.5265 -0.0818 -0.4835
 2634SOL    HW219362   0.620   2.633   6.210  0.5305 -2.0942 -0.0087
 2635SOL     OW19363   1.027   2.635   3.674 -0.7919  0.2708  0.2084
 2635SOL    HW119364   1.048   2.724   3.703  1.4387 -0.1234 -0.1763
 2635SOL    HW219365   1.111   2.603   3.642 -1.4031 -0.1978 -0.9069
 2636SOL     OW19366   1.632   2.466  17.506  0.2944  0.3464  0.6666
 2636SOL    HW119367   1.610   2.537  17.447  1.1651 -0.5002 -0.6832
 2636SOL    HW219368   1.697   2.511  17.560  1.5830  0.1861 -0.7707
 2637SOL     OW19369   4.174   3.188   8.855 -0.4072  0.1430 -0.2078
 2637SOL    HW119370   4.132   3.274   8.848 -0.1840  0.3891  1.7037
 2637SOL    HW219371   4.222   3.186   8.772 -0.3452  0.9242 -0.1953
 2638SOL     OW19372   1.892   3.073  16.487  0.2940  0.0584  0.6985
 2638SOL    HW119373   1.870   2.981  16.472 -0.3954  0.4256 -0.5422
 2638SOL    HW219374   1.858   3.104  16.403 -2.0588 -1.3555  1.1272
 2639SOL     OW19375   1.975   4.466  11.323  0.0483 -0.3639 -0.3789
 2639SOL    HW119376   1.925   4.466  11.241  1.1375  0.9464 -1.0483
 2639SOL    HW219377   2.009   4.377  11.320  1.8926  0.3616 -1.0845
 2640SOL     OW19378   3.255   3.025   3.220  0.1905  0.2854 -0.4596
 2640SOL    HW119379   3.241   3.072   3.302  1.6354 -1.7720  0.9789
 2640SOL    HW219380   3.252   3.099   3.159 -1.4705  0.9160  0.3961
 2641SOL     OW19381   0.451   3.255   6.760 -0.0147  0.5295 -0.1059
 2641SOL    HW119382   0.370   3.296   6.730 -0.4615  0.1944  0.6605
 2641SOL    HW219383   0.494   3.239   6.676  0.2335 -1.4806  0.4003
 2642SOL     OW19384   2.593   1.353   2.293  0.3566  0.5954 -0.0918
 2642SOL    HW119385   2.673   1.362   2.241  0.3539  2.8549  0.2983
 2642SOL    HW219386   2.540   1.413   2.240 -3.4402 -2.3374  0.3472
 2643SOL     OW19387   1.002   3.867  14.833 -0.4036 -0.4170  0.3721
 2643SOL    HW119388   0.972   3.943  14.783  0.7982 -0.5766 -0.5856
 2643SOL    HW219389   1.096   3.878  14.821 -0.1613 -0.6609  1.9867
 2644SOL     OW19390   1.239   3.918   7.223 -0.3378  0.1239  0.2719
 2644SOL    HW119391   1.152   3.881   7.207 -0.3243  0.5155 -0.7215
 2644SOL    HW219392   1.267   3.914   7.131 -0.1031 -0.9636  0.3922
 2645SOL     OW19393   3.676   2.835   4.810  0.3851  0.1266  0.3090
 2645SOL    HW119394   3.665   2.872   4.722  1.5656 -1.2369 -0.4249
 2645SOL    HW219395   3.604   2.881   4.853 -1.6378 -1.4739 -1.3758
 2646SOL     OW19396   1.211   1.163   8.148  0.1485  0.1728  0.2511
 2646SOL    HW119397   1.288   1.131   8.102  0.5829  1.1241  0.3069
 2646SOL    HW219398   1.251   1.188   8.232  1.5801 -1.3790  0.0428
 2647SOL     OW19399   4.368   1.433   6.380 -0.3456 -0.2728 -0.3962
 2647SOL    HW119400   4.382   1.501   6.446 -1.7151 -1.4758  1.1365
 2647SOL    HW219401   4.279   1.449   6.348  0.0341  3.2554  0.3381
 2648SOL     OW19402   2.462   3.184  14.188 -0.3715 -0.4131 -0.0077
 2648SOL    HW119403   2.501   3.225  14.265 -1.5930  2.0700 -0.7232
 2648SOL    HW219404   2.445   3.255  14.126 -1.8951 -1.9791 -1.3978
 2649SOL     OW19405   3.642   1.365   6.832 -0.8496  0.1777 -0.2235
 2649SOL    HW119406   3.675   1.453   6.815  0.4829 -0.0857  1.0019
 2649SOL    HW219407   3.623   1.374   6.926 -0.4709 -1.9479  0.0605
 2650SOL     OW19408   3.430   3.892   0.833  0.0339  0.4821  0.2892
 2650SOL    HW119409   3.482   3.857   0.761  2.0026  1.3322  1.3167
 2650SOL    HW219410   3.425   3.807   0.878 -1.9428  1.1700  1.3877
 2651SOL     OW19411   3.280   0.131  11.416 -0.1348 -0.8010  0.5187
 2651SOL    HW119412   3.274   0.194  11.487 -1.0602 -1.4158  0.9923
 2651SOL    HW219413   3.200   0.080  11.431 -0.5692  0.3056  1.8878
 2652SOL     OW19414   3.563   0.153  14.417  0.2785 -0.1831 -0.0809
 2652SOL    HW119415   3.474   0.188  14.411  0.2262 -0.3061 -0.0157
 2652SOL    HW219416   3.536   0.077  14.469  0.0127 -1.0702 -1.4891
 2653SOL     OW19417   4.391   4.296   5.885 -0.4638 -0.1946 -0.1307
 2653SOL    HW119418   4.328   4.330   5.949 -1.3856 -0.7630 -0.7384
 2653SOL    HW219419   4.335   4.262   5.815 -1.5839 -0.6016  0.9628
 2654SOL     OW19420   1.579   3.305  14.620 -0.0892  0.0428 -0.0776
 2654SOL    HW119421   1.486   3.316  14.600  0.2338  0.2159 -1.4448
 2654SOL    HW219422   1.593   3.264  14.535 -1.3011  0.8048 -0.6517
 2655SOL     OW19423   3.532   0.403   8.453  0.0538  0.6731  0.5364
 2655SOL    HW119424   3.498   0.406   8.542  0.5496  1.5559  0.6998
 2655SOL    HW219425   3.453   0.424   8.404 -2.1292 -1.2589  3.2747
 2656SOL     OW19426   2.841   1.032   5.164 -0.0111 -0.3788  0.3646
 2656SOL    HW119427   2.842   1.070   5.253 -0.1133 -0.0493  0.2267
 2656SOL    HW219428   2.757   1.069   5.137  0.4821  0.0863 -0.5289
 2657SOL     OW19429   0.049   0.947   2.580 -0.2333  0.0174 -0.4164
 2657SOL    HW119430   4.687   0.899   2.568 -0.0606 -1.5887  4.8179
 2657SOL    HW219431   0.091   0.946   2.494  0.8431 -0.9610  0.1099
 2658SOL     OW19432   1.125   1.090   7.125  0.5227 -0.3752  0.1748
 2658SOL    HW119433   1.061   1.053   7.186  0.7269 -2.9275 -1.1572
 2658SOL    HW219434   1.175   1.150   7.181  0.2971  0.5972 -0.6789
 2659SOL     OW19435   3.937   1.126   0.194 -0.0742 -0.1915  0.1129
 2659SOL    HW119436   3.937   1.123   0.099  0.4442  0.2581  0.0924
 2659SOL    HW219437   4.030   1.147   0.206  0.0091  0.0243 -0.8753
 2660SOL     OW19438   0.953   1.673   8.696  0.1265  0.3140  0.0274
 2660SOL    HW119439   0.904   1.703   8.619 -1.4913 -0.8781  0.5884
 2660SOL    HW219440   1.035   1.723   8.694  0.1114  0.3899  2.1481
 2661SOL     OW19441   1.161   3.855  15.083  0.0204 -0.3891  0.1936
 2661SOL    HW119442   1.157   3.951  15.083 -0.6295 -0.4189  1.1311
 2661SOL    HW219443   1.092   3.839  15.147  0.5708  0.0711  0.9074
 2662SOL     OW19444   0.585   4.499   5.924  0.3533  0.0648  0.2812
 2662SOL    HW119445   0.548   4.584   5.947  0.7648  1.0300 -2.5643
 2662SOL    HW219446   0.665   4.527   5.880  1.9368 -0.9700  2.5480
 2663SOL     OW19447   2.087   3.727   3.310 -0.4364 -0.3464 -0.3259
 2663SOL    HW119448   2.066   3.744   3.402  0.3999 -0.6626 -0.0811
 2663SOL    HW219449   2.172   3.686   3.325 -0.6208 -1.1105 -1.3752
 2664SOL     OW19450   2.972   1.739   5.389  0.2245  0.2165  0.2184
 2664SOL    HW119451   2.912   1.807   5.359 -0.2746 -0.4748 -0.3450
 2664SOL    HW219452   2.936   1.668   5.336  0.9308 -0.5455  0.7568
 2665SOL     OW19453   1.319   1.833  11.394  0.1200  0.6096 -0.5110
 2665SOL    HW119454   1.402   1.879  11.405  0.2379  0.1746  0.4199
 2665SOL    HW219455   1.295   1.853  11.304  0.0092  0.1673 -0.5809
 2666SOL     OW19456   1.287   4.643   3.774  0.2636  0.1312  0.0692
 2666SOL    HW119457   1.231   4.589   3.830 -0.3940  0.5497 -0.1941
 2666SOL    HW219458   1.323   4.700   3.842 -1.0459  1.2509 -0.1810
 2667SOL     OW19459   4.331   1.842   2.662 -0.0972  0.5722  0.6860
 2667SOL    HW119460   4.312   1.924   2.709  0.1964  1.4532 -0.7168
 2667SOL    HW219461   4.389   1.869   2.590  1.2031 -0.7114  1.2631
 2668SOL     OW19462   0.699   0.613   8.648  0.1332  0.0198 -0.9962
 2668SOL    HW119463   0.710   0.624   8.743 -1.6852  0.3704 -0.8335
 2668SOL    HW219464   0.609   0.580   8.653 -0.3995  1.6106 -0.1098
 2669SOL     OW19465   3.923   1.953  17.474  0.2816  0.1645 -0.2113
 2669SOL    HW119466   3.934   2.044  17.501  0.7013  0.3462 -0.9954
 2669SOL    HW219467   3.835   1.932  17.504  0.1126 -2.4188 -2.4647
 2670SOL     OW19468   3.708   3.375   7.749  0.3672  0.1445 -0.3204
 2670SOL    HW119469   3.729   3.292   7.706 -1.2006  0.3114 -1.3817
 2670SOL    HW219470   3.785   3.383   7.807  0.2088 -0.3644 -0.0387
 2671SOL     OW19471   1.523   4.381  13.873  0.0524  0.7043 -0.1295
 2671SOL    HW119472   1.468   4.429  13.935 -1.2678 -2.3342  1.0687
 2671SOL    HW219473   1.571   4.455  13.836 -0.6752  0.8453 -0.8009
 2672SOL     OW19474   2.343   0.199   2.744 -0.0792 -0.3015 -0.2420
 2672SOL    HW119475   2.409   0.256   2.784 -2.2324  1.4893  0.7432
 2672SOL    HW219476   2.343   0.242   2.658  1.8768  1.6129  0.6990
 2673SOL     OW19477   2.058   2.166   1.237 -0.5046 -0.3185 -0.0532
 2673SOL    HW119478   2.138   2.119   1.260 -0.2338 -0.3493 -1.0828
 2673SOL    HW219479   2.071   2.196   1.147 -2.4809 -2.6029 -1.0840
 2674SOL     OW19480   2.296   1.374   8.046 -0.1527  0.0938 -0.4057
 2674SOL    HW119481   2.229   1.418   8.098 -0.3544 -1.6470  0.8093
 2674SOL    HW219482   2.334   1.315   8.111 -0.0187  0.3694 -0.2369
 2675SOL     OW19483   2.434   2.483   8.954  0.6390 -0.5782 -0.4628
 2675SOL    HW119484   2.487   2.405   8.970  4.0283  1.6763 -0.7645
 2675SOL    HW219485   2.451   2.524   9.038  1.1710  0.9114 -1.2861
 2676SOL     OW19486   3.265   1.604   8.055 -0.4169 -0.3842  0.2202
 2676SOL    HW119487   3.180   1.563   8.036 -0.4182  0.2925 -1.2214
 2676SOL    HW219488   3.323   1.529   8.069 -0.3478 -0.4148 -0.2201
 2677SOL     OW19489   2.750   0.228  11.430 -0.4717 -0.3193  0.1254
 2677SOL    HW119490   2.658   0.211  11.447 -0.7363 -1.0766 -1.9426
 2677SOL    HW219491   2.796   0.209  11.511  0.6645  0.4214 -0.3345
 2678SOL     OW19492   3.558   0.942  11.755  0.7379 -0.5406  0.1928
 2678SOL    HW119493   3.568   0.851  11.783 -1.7561 -0.9165 -0.1665
 2678SOL    HW219494   3.491   0.975  11.815  0.3567 -0.8309 -0.0803
 2679SOL     OW19495   0.013   1.232  11.175  0.5439  0.1908  0.7726
 2679SOL    HW119496   4.666   1.196  11.117 -0.3337  3.0284  0.0145
 2679SOL    HW219497   4.682   1.295  11.226 -0.5684  1.1980 -1.5279
 2680SOL     OW19498   1.453   1.270   9.322  0.4835  0.3274  0.4248
 2680SOL    HW119499   1.492   1.221   9.249  0.7255  0.5804  0.3836
 2680SOL    HW219500   1.360   1.247   9.325  0.3275  1.0632  0.9475
 2681SOL     OW19501   4.254   2.213   3.344 -0.8267  0.0361  0.4772
 2681SOL    HW119502   4.334   2.211   3.292 -0.0362  1.8838  1.6027
 2681SOL    HW219503   4.197   2.269   3.290 -2.5405  1.8593  4.1317
 2682SOL     OW19504   3.581   2.943   1.720  0.4755  0.0113  0.0140
 2682SOL    HW119505   3.571   2.847   1.721 -0.8246  0.1453 -0.2511
 2682SOL    HW219506   3.504   2.972   1.770 -1.1087 -1.2575 -1.6934
 2683SOL     OW19507   0.539   2.810   4.155 -0.3851 -0.2051 -0.2851
 2683SOL    HW119508   0.462   2.833   4.102 -3.2523 -4.8190  1.8647
 2683SOL    HW219509   0.548   2.717   4.133  0.1979 -0.2474  0.1486
 2684SOL     OW19510   1.985   2.331  13.738  0.3916  0.3947  0.1846
 2684SOL    HW119511   1.988   2.342  13.833  0.9869 -1.2772  0.3536
 2684SOL    HW219512   1.949   2.245  13.719 -2.4404  0.9537  3.0486
 2685SOL     OW19513   3.974   2.455   9.411  0.1187  0.0898 -0.0819
 2685SOL    HW119514   3.910   2.423   9.348  0.7229 -1.5750  0.1389
 2685SOL    HW219515   4.003   2.528   9.357  1.7756  0.6919  1.6093
 2686SOL     OW19516   2.246   0.316   1.307  0.3081  0.7274 -0.2420
 2686SOL    HW119517   2.311   0.247   1.320 -0.9806 -0.1822  1.3461
 2686SOL    HW219518   2.262   0.333   1.214  1.0947  0.1011 -0.2115
 2687SOL     OW19519   3.981   0.024   4.434 -0.4434  0.3670  0.4136
 2687SOL    HW119520   4.037   0.089   4.476  1.7260 -0.1850 -1.6255
 2687SOL    HW219521   4.051   4.683   4.412  0.2843  0.8000  1.5440
 2688SOL     OW19522   2.019   0.603  10.726 -1.0886 -0.6490  0.2326
 2688SOL    HW119523   2.038   0.516  10.760  2.5430  0.2603  0.5392
 2688SOL    HW219524   1.997   0.581  10.636 -0.0833 -0.6975  0.0077
 2689SOL     OW19525   1.170   1.448   3.278  0.3707  0.0442  0.7200
 2689SOL    HW119526   1.174   1.426   3.185  0.8510 -1.3521  1.0582
 2689SOL    HW219527   1.116   1.526   3.278 -1.7661 -1.4575 -2.2035
 2690SOL     OW19528   0.252   2.780   6.933 -0.3470 -0.5739 -0.0390
 2690SOL    HW119529   0.278   2.861   6.890  0.6977 -1.2491 -0.6748
 2690SOL    HW219530   0.311   2.720   6.889 -1.5009 -0.5940 -1.5529
 2691SOL     OW19531   4.648   2.588   5.780 -0.2893  0.2651  0.1806
 2691SOL    HW119532   4.684   2.581   5.692  0.4316 -0.0491  0.4995
 2691SOL    HW219533   4.584   2.517   5.784 -1.4265  1.1523 -2.5014
 2692SOL     OW19534   3.016   0.499   3.427  0.3226 -0.0609 -0.4259
 2692SOL    HW119535   2.968   0.538   3.500 -0.2495 -0.5254 -0.5544
 2692SOL    HW219536   3.065   0.579   3.409  0.7146 -0.2257 -0.1015
 2693SOL     OW19537   0.048   0.895  16.004  0.1634 -0.4745  0.2055
 2693SOL    HW119538   0.062   0.895  16.099 -0.6044 -0.1698  0.3225
 2693SOL    HW219539   0.113   0.963  15.989  0.1106 -0.2797  0.8360
 2694SOL     OW19540   1.215   4.317   9.737 -0.3949  0.3085 -0.0572
 2694SOL    HW119541   1.296   4.272   9.713  1.3738  3.5689 -0.2849
 2694SOL    HW219542   1.209   4.384   9.669  1.9900  1.1604  0.5406
 2695SOL     OW19543   3.552   4.058   4.034  0.0459  0.1003 -0.4987
 2695SOL    HW119544   3.485   4.014   4.086  1.3133  0.4174  1.3828
 2695SOL    HW219545   3.620   4.055   4.101  0.2208  1.9093 -0.5919
 2696SOL     OW19546   4.718   3.818   7.841  0.2663  0.2283 -0.3847
 2696SOL    HW119547   4.664   3.895   7.824  0.5723  1.5104  4.4066
 2696SOL    HW219548   4.669   3.770   7.908  0.1077 -0.4050 -0.9576
 2697SOL     OW19549   2.798   1.294   8.072  0.1239 -1.0215 -0.3912
 2697SOL    HW119550   2.727   1.358   8.078 -0.9543 -2.0199 -2.5849
 2697SOL    HW219551   2.820   1.299   7.979  0.0388  1.1656 -0.2938
 2698SOL     OW19552   4.244   2.459   7.206 -0.2264 -0.0886  0.3084
 2698SOL    HW119553   4.287   2.525   7.152  1.5660 -1.4368  0.0922
 2698SOL    HW219554   4.319   2.402   7.222 -1.0632 -1.2001  0.2674
 2699SOL     OW19555   1.793   1.007  14.284  0.0491  0.1060  0.1467
 2699SOL    HW119556   1.725   0.946  14.255 -0.0399  1.4766 -2.5561
 2699SOL    HW219557   1.728   1.070  14.316 -1.2907 -1.5615  0.7245
 2700SOL     OW19558   3.635   4.145  14.974 -0.1148  0.2373  0.4646
 2700SOL    HW119559   3.685   4.070  15.005 -0.2466  0.3624  0.9855
 2700SOL    HW219560   3.679   4.167  14.891 -2.4889 -0.9970 -1.1035
 2701SOL     OW19561   4.500   2.775   9.579  0.1441  0.0475  0.1400
 2701SOL    HW119562   4.590   2.809   9.575  0.4134 -0.8576 -1.5129
 2701SOL    HW219563   4.457   2.839   9.522  1.4596  0.5745 -0.2574
 2702SOL     OW19564   2.065   1.278   8.255  0.1913 -0.0869 -0.2763
 2702SOL    HW119565   2.116   1.295   8.334  0.6050 -3.4686  0.2112
 2702SOL    HW219566   2.052   1.370   8.234 -2.4471 -0.3334  0.1702
 2703SOL     OW19567   4.336   3.840   8.406 -0.1636 -0.3119  0.1529
 2703SOL    HW119568   4.417   3.834   8.457 -1.0307 -2.3257  1.2646
 2703SOL    HW219569   4.310   3.754   8.375 -0.0572 -0.2148 -0.2150
 2704SOL     OW19570   0.367   1.762   4.728  1.2614  0.6128  0.0734
 2704SOL    HW119571   0.306   1.701   4.686  1.7120 -1.8837  3.0215
 2704SOL    HW219572   0.317   1.839   4.754  0.4413  0.9118 -2.3451
 2705SOL     OW19573   1.561   0.742   5.252  0.5969  0.4049  0.3969
 2705SOL    HW119574   1.526   0.743   5.163 -0.6440 -2.7868  0.8304
 2705SOL    HW219575   1.484   0.777   5.297 -1.3411 -2.7900 -0.4290
 2706SOL     OW19576   1.396   0.024   9.582  0.4818  0.4380 -0.4163
 2706SOL    HW119577   1.354   0.092   9.529  0.2495  0.8669  0.3155
 2706SOL    HW219578   1.426   4.688   9.512 -2.2525 -0.2972 -1.0087
 2707SOL     OW19579   2.466   0.899   8.368 -0.6525 -0.3406  0.2434
 2707SOL    HW119580   2.521   0.857   8.435  0.5886 -1.1239 -1.2738
 2707SOL    HW219581   2.527   0.966   8.335 -1.8577 -2.2068 -5.6969
 2708SOL     OW19582   0.237   1.930  13.295  0.6068 -0.6451 -0.0776
 2708SOL    HW119583   0.311   1.872  13.316  1.4950  0.4347 -0.1945
 2708SOL    HW219584   0.270   2.009  13.338 -0.5265 -1.0908  1.6277
 2709SOL     OW19585   3.505   3.386   1.256  0.4536  0.9681 -0.1473
 2709SOL    HW119586   3.480   3.382   1.164 -0.0214  0.5430  0.0049
 2709SOL    HW219587   3.567   3.313   1.252  1.1480  1.6062 -0.9728
 2710SOL     OW19588   2.511   4.053   5.227  0.1519 -0.7675 -0.0779
 2710SOL    HW119589   2.599   4.075   5.197 -0.1180  1.6601  0.9281
 2710SOL    HW219590   2.456   4.080   5.153  0.9384 -1.2465 -0.8374
 2711SOL     OW19591   0.401   1.616   6.389 -0.1008 -0.4830 -0.1284
 2711SOL    HW119592   0.450   1.694   6.414 -1.1849 -0.2589  1.3041
 2711SOL    HW219593   0.334   1.657   6.334  0.4904  1.1534  0.3787
 2712SOL     OW19594   4.312   2.806   7.862  0.2334 -0.5368 -0.2294
 2712SOL    HW119595   4.283   2.716   7.879 -1.3894 -0.7127 -3.9472
 2712SOL    HW219596   4.305   2.802   7.766 -0.1984  0.4203 -0.2349
 2713SOL     OW19597   4.685   0.107   7.206 -0.2130 -0.5666 -0.6429
 2713SOL    HW119598   0.033   0.160   7.164 -0.6291  0.6029  0.1390
 2713SOL    HW219599   4.714   0.022   7.176  1.9893  0.3515 -1.0941
 2714SOL     OW19600   1.160   1.216  13.194  0.0516 -0.4713 -0.6455
 2714SOL    HW119601   1.142   1.150  13.126  0.7336  0.6316 -1.8889
 2714SOL    HW219602   1.208   1.169  13.262 -0.6619 -0.5355 -0.1857
 2715SOL     OW19603   1.413   0.401   5.249 -0.3702 -0.1862  0.0949
 2715SOL    HW119604   1.350   0.460   5.208 -2.5923 -2.0191  0.8626
 2715SOL    HW219605   1.394   0.404   5.343  0.3434 -1.1458  0.2729
 2716SOL     OW19606   0.802   3.191  15.712  0.0179 -0.4942  0.1854
 2716SOL    HW119607   0.869   3.258  15.726 -1.1970  1.2365 -2.2818
 2716SOL    HW219608   0.837   3.149  15.633  0.4603  1.0694 -0.4442
 2717SOL     OW19609   4.551   4.358   1.483 -0.1476 -0.4197 -0.0678
 2717SOL    HW119610   4.471   4.305   1.486 -0.5303  0.1819  0.3447
 2717SOL    HW219611   4.612   4.284   1.475  2.4397  1.8755 -1.6868
 2718SOL     OW19612   1.417   1.849  15.515  0.0608 -0.0912 -0.0443
 2718SOL    HW119613   1.383   1.837  15.604  0.9910 -0.5139  0.2677
 2718SOL    HW219614   1.345   1.888  15.467 -0.0840 -0.9830 -0.5473
 2719SOL     OW19615   2.146   1.452   7.259  0.2888 -0.1093  0.1890
 2719SOL    HW119616   2.092   1.531   7.261  2.1797  1.1819 -0.1635
 2719SOL    HW219617   2.172   1.463   7.167  2.8358 -1.2286  0.7664
 2720SOL     OW19618   4.221   0.611  17.496  0.0530  0.2030  0.0067
 2720SOL    HW119619   4.169   0.626  17.417  1.3673  1.0758 -0.6895
 2720SOL    HW219620   4.313   0.600  17.472 -0.0223 -1.3484  0.4811
 2721SOL     OW19621   2.400   4.518   0.489  0.0990  0.2669 -0.0405
 2721SOL    HW119622   2.425   4.610   0.480 -0.1190  0.0815 -2.4048
 2721SOL    HW219623   2.312   4.512   0.451  0.4194  0.0364 -0.7371
 2722SOL     OW19624   4.604   0.119   1.768 -0.4719  0.4844  0.4296
 2722SOL    HW119625   4.690   0.123   1.726  0.1629 -0.5726  1.6125
 2722SOL    HW219626   4.619   0.157   1.855  2.1071 -3.4287  1.6927
 2723SOL     OW19627   4.090   1.038   3.104  0.0852  0.0176  0.0775
 2723SOL    HW119628   4.124   0.974   3.043 -1.3069  0.9178 -1.6597
 2723SOL    HW219629   4.148   1.113   3.093 -0.3974  0.5033  0.7846
 2724SOL     OW19630   3.608   3.533   4.630 -0.2920 -0.0676 -0.1649
 2724SOL    HW119631   3.547   3.542   4.557  0.9860  0.4755 -1.1624
 2724SOL    HW219632   3.631   3.624   4.649  0.7661 -0.0869 -1.3679
 2725SOL     OW19633   0.101   4.450   5.070 -0.2895  0.5827 -0.2855
 2725SOL    HW119634   0.161   4.499   5.013  1.2540 -2.1082 -1.0268
 2725SOL    HW219635   0.023   4.501   5.048  0.6313  1.1631 -2.1995
 2726SOL     OW19636   1.488   3.599   8.164 -0.0780  0.0241  0.1658
 2726SOL    HW119637   1.432   3.675   8.145  0.8492  1.0918  1.7543
 2726SOL    HW219638   1.460   3.549   8.087  0.4624 -1.1605  0.7445
 2727SOL     OW19639   3.013   2.286  12.643 -0.0803 -0.0873  0.6129
 2727SOL    HW119640   2.957   2.223  12.689 -2.0486 -0.2458 -2.0234
 2727SOL    HW219641   2.952   2.359  12.633  0.3954  0.0242 -1.5150
 2728SOL     OW19642   0.517   3.444   1.051 -0.1038  0.3369 -0.2484
 2728SOL    HW119643   0.505   3.501   0.975  0.0029 -0.3061 -0.7473
 2728SOL    HW219644   0.610   3.422   1.039 -0.2581  0.1703 -1.0965
 2729SOL     OW19645   4.427   4.533   4.559 -0.1364 -0.4925  0.0575
 2729SOL    HW119646   4.341   4.492   4.570 -0.6224 -0.2060 -2.8048
 2729SOL    HW219647   4.424   4.518   4.464  1.5186  1.3821 -0.2808
 2730SOL     OW19648   4.518   2.679  11.679 -0.3633  0.2601  0.8985
 2730SOL    HW119649   4.446   2.692  11.741 -1.6506 -1.5730 -0.1679
 2730SOL    HW219650   4.586   2.713  11.736  0.1998 -0.1437  0.4685
 2731SOL     OW19651   0.198   2.217   7.620 -0.6897  0.5984  0.3319
 2731SOL    HW119652   0.293   2.211   7.630 -0.8722 -1.6269  0.8278
 2731SOL    HW219653   0.182   2.146   7.558 -0.5983  1.5512 -0.7706
 2732SOL     OW19654   3.307   0.388   8.305 -0.1842 -0.1836  0.1860
 2732SOL    HW119655   3.264   0.336   8.373 -0.0317 -1.2294 -0.5121
 2732SOL    HW219656   3.247   0.366   8.233 -0.7284 -0.9534  0.8823
 2733SOL     OW19657   3.202   1.245   7.558 -0.4278  0.7246 -0.1152
 2733SOL    HW119658   3.205   1.325   7.609  1.2444 -0.7874  2.1807
 2733SOL    HW219659   3.107   1.245   7.547 -0.6668  2.5175  2.0603
 2734SOL     OW19660   2.678   1.150  14.839 -0.5491  0.2837 -0.4424
 2734SOL    HW119661   2.706   1.113  14.755 -1.3945 -0.4184 -0.4126
 2734SOL    HW219662   2.764   1.171  14.874 -1.2864  2.6469 -0.0171
 2735SOL     OW19663   4.316   3.650   9.068 -0.0786  0.1977 -0.6271
 2735SOL    HW119664   4.334   3.587   9.137 -3.3142 -0.4314 -0.3880
 2735SOL    HW219665   4.337   3.733   9.112  0.1679  0.7408 -1.7610
 2736SOL     OW19666   1.673   2.946   3.325  0.5191  0.5951  0.7105
 2736SOL    HW119667   1.709   2.862   3.296 -0.4498 -0.0944  1.4968
 2736SOL    HW219668   1.647   2.939   3.417  1.5894  0.3601  0.9862
 2737SOL     OW19669   3.842   4.198   0.681 -0.1926 -0.2409 -0.2345
 2737SOL    HW119670   3.817   4.122   0.733  0.5296  0.4329  1.0988
 2737SOL    HW219671   3.797   4.267   0.731 -0.5322 -0.6763  0.0642
 2738SOL     OW19672   1.132   0.215   8.812 -0.3827  0.3661 -0.5198
 2738SOL    HW119673   1.161   0.124   8.821  0.6065  0.7818  0.5251
 2738SOL    HW219674   1.197   0.254   8.871 -2.2066  2.2948  0.2193
 2739SOL     OW19675   1.557   3.476  15.746  0.2519 -0.4487 -0.0053
 2739SOL    HW119676   1.542   3.382  15.738 -1.3488 -0.2622  0.9198
 2739SOL    HW219677   1.550   3.500  15.654  0.0452 -0.1176  0.0958
 2740SOL     OW19678   1.778   2.502   6.881  0.1643 -0.4157  0.4035
 2740SOL    HW119679   1.760   2.596   6.893  1.9376  0.2273 -2.1717
 2740SOL    HW219680   1.814   2.503   6.793  0.9494  1.7252  0.7443
 2741SOL     OW19681   2.596   2.225   5.710 -0.2866 -0.0434  0.9527
 2741SOL    HW119682   2.577   2.267   5.794 -0.2881  1.8016  0.0296
 2741SOL    HW219683   2.610   2.308   5.664 -0.2756 -0.9489 -0.6995
 2742SOL     OW19684   0.028   4.642  15.342  0.0967 -0.2221 -0.6084
 2742SOL    HW119685   0.012   4.688  15.260 -0.6256 -2.9050 -1.9738
 2742SOL    HW219686   4.659   4.618  15.365  0.8224 -1.4252  0.9527
 2743SOL     OW19687   3.927   0.414  14.796 -0.7056 -0.0245 -0.6700
 2743SOL    HW119688   3.940   0.466  14.718  0.3257 -2.9708 -2.4642
 2743SOL    HW219689   3.918   0.486  14.859  1.0743  0.1674 -0.6496
 2744SOL     OW19690   0.965   1.849   0.628 -0.3414  0.0343 -0.5581
 2744SOL    HW119691   0.996   1.910   0.695  2.2611  0.6072 -2.2905
 2744SOL    HW219692   1.019   1.769   0.636  0.0489  0.3523  0.0611
 2745SOL     OW19693   2.500   4.622   6.611 -0.2750 -0.2241 -0.5927
 2745SOL    HW119694   2.436   4.652   6.675  0.6869 -0.2008  0.3597
 2745SOL    HW219695   2.507   4.531   6.640  0.7813 -1.2098 -3.9568
 2746SOL     OW19696   2.633   0.857   6.956  0.4703 -0.2728 -0.6377
 2746SOL    HW119697   2.659   0.880   7.045  2.2648  1.2072 -1.5544
 2746SOL    HW219698   2.551   0.904   6.946  0.3812 -0.2919  0.0327
 2747SOL     OW19699   4.476   2.536   3.738  0.5679  0.6602 -0.1282
 2747SOL    HW119700   4.487   2.546   3.643  1.6466  2.5930  0.1980
 2747SOL    HW219701   4.492   2.442   3.749 -3.3628  0.0975  0.7233
 2748SOL     OW19702   0.949   3.520   3.039  0.0392  0.1597 -0.3513
 2748SOL    HW119703   0.954   3.486   3.128 -3.7391  1.2172  0.2585
 2748SOL    HW219704   1.023   3.479   2.995  0.4215 -0.5612  0.9502
 2749SOL     OW19705   2.054   0.270  11.496 -0.2804 -0.2114 -0.0901
 2749SOL    HW119706   1.966   0.243  11.471 -0.4373  0.0576  0.1783
 2749SOL    HW219707   2.033   0.358  11.527  1.1977 -0.1530  0.7597
 2750SOL     OW19708   3.520   0.390   6.096 -0.0689  0.3124  0.2116
 2750SOL    HW119709   3.612   0.407   6.077  0.1429 -0.8957  0.1401
 2750SOL    HW219710   3.519   0.394   6.192 -0.2208 -0.7265  0.2563
 2751SOL     OW19711   2.183   2.285   4.563 -0.1493 -0.0251  0.3721
 2751SOL    HW119712   2.247   2.334   4.512 -1.2761  2.9100  1.8293
 2751SOL    HW219713   2.184   2.343   4.639  1.0333  0.8342 -0.2944
 2752SOL     OW19714   1.534   2.779   1.320  0.1770 -0.1092  0.4898
 2752SOL    HW119715   1.626   2.772   1.295  0.0085  0.9006 -0.3715
 2752SOL    HW219716   1.480   2.779   1.241  2.3418  0.1539 -0.9888
 2753SOL     OW19717   3.673   1.630  16.478 -0.5896  0.2200  0.3771
 2753SOL    HW119718   3.630   1.708  16.443  1.7621  0.6174 -1.6275
 2753SOL    HW219719   3.601   1.567  16.477 -0.7025  0.3083  1.9542
 2754SOL     OW19720   0.445   3.870  14.733 -0.4356  0.0193 -0.3240
 2754SOL    HW119721   0.454   3.892  14.640  0.5434  0.3179 -0.1594
 2754SOL    HW219722   0.532   3.898  14.761 -0.3860 -1.1178  0.6503
 2755SOL     OW19723   3.227   0.165   3.378 -0.1115 -0.5165  0.6015
 2755SOL    HW119724   3.168   0.094   3.356  0.5500 -0.8984  0.0489
 2755SOL    HW219725   3.256   0.142   3.467 -0.5824 -0.8291  0.6710
 2756SOL     OW19726   1.238   0.257   1.350 -0.1669 -0.3224 -0.4190
 2756SOL    HW119727   1.265   0.206   1.427  0.0871  2.9069  1.6254
 2756SOL    HW219728   1.255   0.344   1.386  1.3749 -1.3948  1.4502
 2757SOL     OW19729   2.667   3.551   2.506  0.2922  0.1085  0.2390
 2757SOL    HW119730   2.715   3.513   2.432  1.0453 -4.3074  3.0132
 2757SOL    HW219731   2.592   3.493   2.516  0.4687 -0.1387  0.1380
 2758SOL     OW19732   3.956   3.831   7.323  0.0380 -0.2528  0.7570
 2758SOL    HW119733   4.047   3.818   7.349  0.2833  0.3582  0.2264
 2758SOL    HW219734   3.934   3.760   7.263  0.1970  0.8761 -0.6388
 2759SOL     OW19735   4.595   0.239   6.447 -0.0055 -0.4734  0.3560
 2759SOL    HW119736   4.591   0.335   6.446 -1.8401 -0.5578 -0.4083
 2759SOL    HW219737   4.515   0.214   6.494 -0.8705  2.4263  0.4487
 2760SOL     OW19738   3.454   2.011   2.659  0.4170 -0.1735 -0.3780
 2760SOL    HW119739   3.532   2.048   2.700 -0.9486  2.7657 -0.4783
 2760SOL    HW219740   3.463   2.049   2.572  1.1619 -0.5083 -0.4498
 2761SOL     OW19741   3.676   0.283   6.887  0.1794  0.3915  0.1156
 2761SOL    HW119742   3.769   0.288   6.865 -0.0312  1.3230 -0.5578
 2761SOL    HW219743   3.638   0.214   6.833 -0.9245 -0.6810  2.2608
 2762SOL     OW19744   0.383   1.044  17.650 -0.0168  0.3322  0.4265
 2762SOL    HW119745   0.439   1.069   0.039  1.3829 -1.6330  0.0063
 2762SOL    HW219746   0.397   1.125  17.600  0.0430 -0.1777 -0.3743
 2763SOL     OW19747   2.546   1.398   8.862  0.2667 -0.3394  0.5702
 2763SOL    HW119748   2.515   1.489   8.858 -1.4085 -1.0893 -3.0466
 2763SOL    HW219749   2.636   1.409   8.892  0.4598  1.4988 -0.6324
 2764SOL     OW19750   2.317   1.345  16.060 -0.3661  0.1433 -0.4969
 2764SOL    HW119751   2.224   1.348  16.084 -0.2496  0.0299 -0.0310
 2764SOL    HW219752   2.319   1.399  15.982  0.5084  2.1708  0.9373
 2765SOL     OW19753   2.401   1.081   4.684 -0.6565 -0.0116  0.3127
 2765SOL    HW119754   2.472   1.023   4.708 -0.8429 -0.6719 -0.7490
 2765SOL    HW219755   2.328   1.019   4.673 -0.1792 -0.6140  0.5839
 2766SOL     OW19756   0.881   3.421   7.563 -0.2756  0.6734  0.2223
 2766SOL    HW119757   0.828   3.404   7.641  0.3496 -1.8457  0.1022
 2766SOL    HW219758   0.924   3.501   7.593 -0.1364  1.2707 -1.5408
 2767SOL     OW19759   4.424   0.773   7.063  0.0379 -0.4305  0.3140
 2767SOL    HW119760   4.372   0.837   7.015 -0.7344 -0.9850  0.4169
 2767SOL    HW219761   4.415   0.701   7.000  0.0649 -0.1324 -0.0320
 2768SOL     OW19762   2.448   2.344   5.128 -0.4456  0.5886 -0.2857
 2768SOL    HW119763   2.531   2.297   5.133 -0.7338  0.0773 -0.2958
 2768SOL    HW219764   2.401   2.261   5.135 -2.0766  1.6710  1.7627
 2769SOL     OW19765   1.737   3.789   0.566 -0.1236  0.1288 -0.2038
 2769SOL    HW119766   1.649   3.825   0.575 -0.4233 -0.9144  1.0450
 2769SOL    HW219767   1.768   3.805   0.655 -0.0519 -2.4565  0.2282
 2770SOL     OW19768   3.119   3.071   9.004  0.0405  0.1236 -0.1846
 2770SOL    HW119769   3.188   3.012   8.973  0.0560 -0.3553  0.7498
 2770SOL    HW219770   3.097   3.041   9.092  2.8858  0.5461  0.6700
 2771SOL     OW19771   4.672   1.021  17.143  0.2710  0.0492  0.4159
 2771SOL    HW119772   0.002   1.102  17.150 -2.4809  1.8188 -0.5635
 2771SOL    HW219773   4.592   1.054  17.102 -0.5860 -2.2046  0.2871
 2772SOL     OW19774   4.626   1.905  14.952 -0.1477 -0.3860 -0.0254
 2772SOL    HW119775   4.632   1.845  14.879  0.6270 -0.3861  0.0426
 2772SOL    HW219776   4.557   1.863  15.004 -0.5116 -1.7836 -1.6524
 2773SOL     OW19777   0.085   4.104   6.215  0.0776 -0.5803  0.9132
 2773SOL    HW119778   0.179   4.124   6.207 -0.1423  0.6719  1.4708
 2773SOL    HW219779   0.053   4.169   6.153  1.0286  1.0446  2.1172
 2774SOL     OW19780   3.759   1.518   7.272  0.7723  0.1812  0.2460
 2774SOL    HW119781   3.776   1.455   7.343 -1.2846 -0.6383  0.0175
 2774SOL    HW219782   3.693   1.465   7.228  2.8994 -0.9070 -1.6205
 2775SOL     OW19783   2.022   0.001   5.173  0.4333  0.0842 -0.2294
 2775SOL    HW119784   1.987   0.021   5.260 -1.8782 -1.3318 -0.8259
 2775SOL    HW219785   2.006   0.074   5.113 -0.4051 -0.8126 -1.1093
 2776SOL     OW19786   2.273   1.906   5.359  0.1293 -0.4541  0.6139
 2776SOL    HW119787   2.211   1.847   5.403 -1.1061  0.8307  0.5750
 2776SOL    HW219788   2.334   1.911   5.433  0.0248 -2.1651  0.8288
 2777SOL     OW19789   4.699   3.501   8.708 -0.3741  0.4561 -0.1253
 2777SOL    HW119790   0.021   3.431   8.658 -1.0397  0.0280 -0.0983
 2777SOL    HW219791   4.620   3.457   8.741 -0.6075  0.3358 -0.8549
 2778SOL     OW19792   2.734   2.518   7.666 -0.1164  0.1392  0.2238
 2778SOL    HW119793   2.818   2.486   7.632 -1.8161 -1.9244 -2.0227
 2778SOL    HW219794   2.748   2.517   7.760 -2.8730 -2.1803  0.5942
 2779SOL     OW19795   0.934   2.012  15.438  0.1812 -0.2621  0.3976
 2779SOL    HW119796   0.864   1.986  15.377 -1.2819  1.1726  1.4835
 2779SOL    HW219797   0.922   2.101  15.469 -2.3872 -0.1305 -1.0184
 2780SOL     OW19798   3.053   3.832   2.239 -0.5089 -0.8112  0.0306
 2780SOL    HW119799   3.071   3.766   2.306  2.5411  0.9150  0.9059
 2780SOL    HW219800   3.037   3.916   2.283  1.3962 -1.3770  1.7669
 2781SOL     OW19801   3.787   1.601  12.305 -0.2250  0.1052 -0.0650
 2781SOL    HW119802   3.758   1.515  12.275  1.5240 -0.2408 -0.7143
 2781SOL    HW219803   3.825   1.639  12.226  0.3711  0.5945  0.4607
 2782SOL     OW19804   0.126   1.195  12.624 -0.4609  0.1383  0.5462
 2782SOL    HW119805   0.089   1.189  12.712  2.4802 -1.1000  1.6993
 2782SOL    HW219806   0.054   1.219  12.566  0.3034  0.9958 -0.0388
 2783SOL     OW19807   0.557   2.740   3.692 -0.6427 -0.6190  0.3566
 2783SOL    HW119808   0.587   2.799   3.623 -0.7465 -0.9567  0.0231
 2783SOL    HW219809   0.463   2.756   3.696 -0.3766  0.9822 -0.1792
 2784SOL     OW19810   1.364   1.518   5.473  0.0316  0.0602 -0.1256
 2784SOL    HW119811   1.341   1.464   5.397  0.2936  0.1353 -0.2609
 2784SOL    HW219812   1.446   1.550   5.434  0.2911 -0.1120  0.2846
 2785SOL     OW19813   1.326   2.119   2.408  0.3526  0.0022  0.2159
 2785SOL    HW119814   1.333   2.026   2.387 -2.8213 -0.9089  3.1355
 2785SOL    HW219815   1.287   2.122   2.495  0.9864  2.7617  0.3932
 2786SOL     OW19816   3.215   3.822  10.857  0.2287  0.3297  0.1590
 2786SOL    HW119817   3.234   3.778  10.774 -4.2942  0.2977 -0.8791
 2786SOL    HW219818   3.257   3.907  10.842  2.9026 -1.2758 -1.4608
 2787SOL     OW19819   2.922   0.672   9.827  0.5588  0.7527 -0.4377
 2787SOL    HW119820   2.924   0.721   9.745  0.8572  0.2562 -0.7208
 2787SOL    HW219821   2.850   0.720   9.868  1.0642  1.0986  0.0544
 2788SOL     OW19822   1.355   4.689   5.029 -0.5795 -0.3609  0.6567
 2788SOL    HW119823   1.382   0.025   4.956 -1.9906 -0.2371  0.2404
 2788SOL    HW219824   1.395   4.606   5.002  0.3773 -0.1474  1.4254
 2789SOL     OW19825   3.068   3.254   5.828  0.2526 -0.2273  0.2447
 2789SOL    HW119826   2.979   3.274   5.856 -0.5500 -1.7226 -1.2361
 2789SOL    HW219827   3.113   3.338   5.833 -1.3949  0.6911 -0.2377
 2790SOL     OW19828   4.110   2.339   0.791  0.2906 -0.1095 -0.2576
 2790SOL    HW119829   4.078   2.422   0.827 -1.2244 -0.9007  0.1660
 2790SOL    HW219830   4.200   2.363   0.768 -0.2624  1.2984 -0.9991
 2791SOL     OW19831   3.252   1.025   3.490 -0.3982 -0.2111 -0.1769
 2791SOL    HW119832   3.162   1.036   3.520  0.6944  1.1613  2.5446
 2791SOL    HW219833   3.254   1.097   3.426  1.1218  0.0617  0.1891
 2792SOL     OW19834   0.933   0.600   2.981 -0.3183 -0.5672  0.5393
 2792SOL    HW119835   0.994   0.614   3.054  1.3047 -0.5603 -0.8276
 2792SOL    HW219836   0.976   0.645   2.909 -1.7258  1.4991  1.0065
 2793SOL     OW19837   3.353   1.488  11.482  0.0326  0.0392  0.1190
 2793SOL    HW119838   3.437   1.531  11.497 -0.0561  0.7338 -1.4325
 2793SOL    HW219839   3.303   1.552  11.432  0.3356  0.4293  0.3158
 2794SOL     OW19840   3.148   0.196   7.004  0.2602 -0.3042 -0.4528
 2794SOL    HW119841   3.205   0.136   7.053  0.5855  0.0854 -0.3508
 2794SOL    HW219842   3.132   0.260   7.073  0.5147 -0.5382 -0.1723
 2795SOL     OW19843   4.585   4.575  16.231 -0.4529  0.4321 -0.0375
 2795SOL    HW119844   4.565   4.601  16.321 -2.7668  1.3328 -0.7922
 2795SOL    HW219845   4.550   4.654  16.189  1.8979  0.3948 -2.0700
 2796SOL     OW19846   2.876   1.742   6.613  0.1660 -0.1153 -0.1851
 2796SOL    HW119847   2.849   1.659   6.652  0.7806 -0.4040 -0.3872
 2796SOL    HW219848   2.879   1.799   6.690  0.3372  0.1520 -0.3879
 2797SOL     OW19849   2.120   1.874   4.202 -0.2953  0.2432 -0.0629
 2797SOL    HW119850   2.028   1.872   4.231  0.0187  1.5641  1.0238
 2797SOL    HW219851   2.165   1.915   4.275 -1.4690  1.6597 -0.1240
 2798SOL     OW19852   0.547   3.897   4.460  0.2888 -0.1086 -0.5022
 2798SOL    HW119853   0.624   3.842   4.448  0.5643  0.0454  0.5331
 2798SOL    HW219854   0.581   3.942   4.537 -1.1681 -0.3131  0.2675
 2799SOL     OW19855   3.235   4.288  13.809 -0.1620 -0.1880 -0.6518
 2799SOL    HW119856   3.200   4.259  13.724 -2.4135 -1.7683  0.8202
 2799SOL    HW219857   3.229   4.205  13.856  1.7007  0.3644  0.5688
 2800SOL     OW19858   3.200   2.244   7.737  0.6426  0.4071  0.1078
 2800SOL    HW119859   3.190   2.200   7.822  0.2775  2.9656  1.4117
 2800SOL    HW219860   3.111   2.279   7.732  0.3924 -0.5007 -1.9043
 2801SOL     OW19861   2.033   0.726   4.020 -0.0374  0.0735  0.4157
 2801SOL    HW119862   1.945   0.732   4.058 -0.2103 -0.1535  0.0499
 2801SOL    HW219863   2.028   0.637   3.985 -0.2407 -0.4103  1.6432
 2802SOL     OW19864   0.796   3.093   8.896 -0.2173  0.4228 -0.2708
 2802SOL    HW119865   0.757   3.158   8.953 -1.1172 -3.1155  3.0939
 2802SOL    HW219866   0.889   3.110   8.912 -0.2133  1.3863 -1.2747
 2803SOL     OW19867   4.539   2.352  12.807 -0.3608  0.3330  0.5688
 2803SOL    HW119868   4.480   2.381  12.877  0.7785 -0.1734  1.7303
 2803SOL    HW219869   4.621   2.346  12.856  0.6108 -2.4670 -1.4125
 2804SOL     OW19870   0.888   2.560   6.869  0.3209  0.0886 -0.0018
 2804SOL    HW119871   0.969   2.511   6.880  0.7435  0.6415 -0.6705
 2804SOL    HW219872   0.838   2.495   6.820  0.0164  0.3090  0.0176
 2805SOL     OW19873   1.000   2.062   9.448  0.0506  0.3465 -0.3806
 2805SOL    HW119874   0.939   2.129   9.481  0.1718  0.9818 -1.4686
 2805SOL    HW219875   0.945   1.988   9.423 -0.3594  0.6675 -0.4310
 2806SOL     OW19876   2.123   2.995   9.530 -0.3644 -0.1442 -0.3023
 2806SOL    HW119877   2.214   2.966   9.534 -0.4125 -0.1879  0.4231
 2806SOL    HW219878   2.146   3.082   9.497  1.6795 -0.5531  0.0177
 2807SOL     OW19879   0.978   2.395  15.783  0.2888 -0.1638  0.1997
 2807SOL    HW119880   0.997   2.371  15.692  0.6429 -0.6512  0.4038
 2807SOL    HW219881   1.031   2.351  15.849 -0.9080 -1.6773  0.1625
 2808SOL     OW19882   2.314   2.871   8.379 -0.0273 -0.5022 -0.1919
 2808SOL    HW119883   2.260   2.850   8.303  0.2906  0.1731 -0.5975
 2808SOL    HW219884   2.366   2.949   8.358 -1.2790 -0.0144 -1.4401
 2809SOL     OW19885   1.511   3.479   0.605 -0.7035 -0.3738 -0.8400
 2809SOL    HW119886   1.511   3.464   0.510  0.3475 -0.2250 -0.8580
 2809SOL    HW219887   1.479   3.397   0.644 -0.9719  0.0919 -0.0799
 2810SOL     OW19888   0.907   0.488   2.036 -0.1281  0.1459  0.6620
 2810SOL    HW119889   0.951   0.572   2.050  1.0278 -0.3838  0.2497
 2810SOL    HW219890   0.955   0.422   2.086 -0.7624 -1.2869 -0.6349
 2811SOL     OW19891   0.138   1.979  16.819  0.4983 -0.0917 -0.3786
 2811SOL    HW119892   0.192   1.965  16.897 -0.1749  1.3980  0.3723
 2811SOL    HW219893   0.056   2.013  16.854  0.1842  1.2300 -2.4339
 2812SOL     OW19894   1.299   4.672  12.928  0.2505  0.4696 -0.1727
 2812SOL    HW119895   1.370   4.608  12.934  1.2341  1.6461  0.9187
 2812SOL    HW219896   1.296   4.691  12.835  3.1278 -0.0301 -0.3744
 2813SOL     OW19897   0.925   4.270   2.209  0.2531  0.7967  0.1006
 2813SOL    HW119898   0.855   4.333   2.192 -0.5876  0.7424  3.3591
 2813SOL    HW219899   0.889   4.216   2.280 -2.4660  0.3395 -1.6102
 2814SOL     OW19900   0.691   2.950   2.640 -0.0613  0.5952 -0.0219
 2814SOL    HW119901   0.679   2.945   2.546 -1.3374 -3.7916  0.3831
 2814SOL    HW219902   0.638   2.877   2.672  0.4093  0.1045 -0.3881
 2815SOL     OW19903   3.085   1.543   7.461  0.3997  0.2744 -0.6542
 2815SOL    HW119904   3.143   1.525   7.388 -0.5260 -0.0963 -1.3016
 2815SOL    HW219905   3.002   1.550   7.414 -0.7429  0.9608  1.4418
 2816SOL     OW19906   0.598   2.152   8.448 -0.0286  0.3400 -0.0930
 2816SOL    HW119907   0.554   2.167   8.532 -1.7489 -0.2325 -0.9098
 2816SOL    HW219908   0.663   2.220   8.466  0.8876 -0.5288 -0.1504
 2817SOL     OW19909   1.009   3.361  15.777 -0.1630  0.5315 -0.2793
 2817SOL    HW119910   1.071   3.288  15.786  1.3384  2.0427  1.6246
 2817SOL    HW219911   1.071   3.420  15.733  0.5278  0.0755  0.0683
 2818SOL     OW19912   3.018   0.985   8.745 -0.1129  0.3625 -0.3641
 2818SOL    HW119913   3.067   0.903   8.741  0.3044  0.6330 -0.8537
 2818SOL    HW219914   2.933   0.950   8.771 -0.6638  1.3840 -0.7984
 2819SOL     OW19915   4.093   0.685  15.118 -0.1060 -0.0779  0.1355
 2819SOL    HW119916   4.131   0.684  15.030 -0.4038 -0.5274  0.0128
 2819SOL    HW219917   4.119   0.598  15.150  0.0308 -0.2051 -0.3271
 2820SOL     OW19918   0.633   2.910   7.258  0.0392 -0.4484 -0.2468
 2820SOL    HW119919   0.592   2.835   7.215  1.4899 -0.1589 -2.1629
 2820SOL    HW219920   0.632   2.878   7.348  0.7329 -0.9450 -0.4132
 2821SOL     OW19921   0.185   0.457   6.877 -0.3983 -0.9943 -0.1340
 2821SOL    HW119922   0.147   0.526   6.932 -0.4430 -0.5855 -0.6806
 2821SOL    HW219923   0.269   0.495   6.852 -2.1885  2.4182 -1.0048
 2822SOL     OW19924   1.980   0.551   9.353 -0.1390  0.3817  0.1101
 2822SOL    HW119925   1.970   0.629   9.408 -2.0303  0.1738  0.0509
 2822SOL    HW219926   1.923   0.491   9.400 -0.4996  0.5347 -0.1351
 2823SOL     OW19927   4.231   2.578   3.416 -0.1991 -0.0867  0.1333
 2823SOL    HW119928   4.238   2.667   3.450 -0.9671  0.9250 -2.3896
 2823SOL    HW219929   4.325   2.564   3.400 -0.4418 -1.7608  0.1505
 2824SOL     OW19930   3.553   3.838   1.890 -0.0159  0.3597 -0.5429
 2824SOL    HW119931   3.491   3.820   1.962  0.4228 -1.1051 -0.5369
 2824SOL    HW219932   3.621   3.772   1.886 -0.1143  0.2025  0.2978
 2825SOL     OW19933   1.762   0.277  11.393 -1.0902 -0.3335 -0.3426
 2825SOL    HW119934   1.692   0.243  11.338  0.0897 -1.5218 -1.0934
 2825SOL    HW219935   1.799   0.343  11.335 -0.3555  0.9485  1.5577
 2826SOL     OW19936   3.836   0.669  17.411 -0.2784  0.1554  0.0930
 2826SOL    HW119937   3.915   0.629  17.378  0.3512  1.1473  0.3824
 2826SOL    HW219938   3.795   0.700  17.330 -2.1714 -0.8553  0.6524
 2827SOL     OW19939   2.400   2.825   9.556 -0.7161  0.0155  0.5802
 2827SOL    HW119940   2.474   2.825   9.617  0.0250 -2.3496 -0.3006
 2827SOL    HW219941   2.347   2.749   9.580 -1.3503 -0.0224 -0.9325
 2828SOL     OW19942   1.328   1.851   3.793  1.3187 -0.1184 -0.0236
 2828SOL    HW119943   1.323   1.756   3.780 -0.0515  0.1964 -1.7758
 2828SOL    HW219944   1.362   1.881   3.709 -2.0476  1.5744 -0.7922
 2829SOL     OW19945   1.930   1.544   5.866 -0.0811 -0.8066 -0.6422
 2829SOL    HW119946   1.980   1.490   5.926 -1.4760 -0.2264  1.0318
 2829SOL    HW219947   1.976   1.625   5.890  0.7425 -1.4760 -0.0029
 2830SOL     OW19948   2.684   2.918  15.305 -0.2952  0.0227 -0.0838
 2830SOL    HW119949   2.739   2.975  15.360 -1.2409  2.7252 -1.9229
 2830SOL    HW219950   2.636   2.863  15.367  0.9619 -1.7921 -0.7631
 2831SOL     OW19951   2.513   0.243   5.281  0.1080 -0.3272 -0.2677
 2831SOL    HW119952   2.482   0.162   5.321 -2.4001  1.2516  1.0139
 2831SOL    HW219953   2.606   0.240   5.303  0.0256 -2.6285 -0.2306
 2832SOL     OW19954   2.552   0.608  11.053 -0.2384  0.1837 -0.0259
 2832SOL    HW119955   2.646   0.589  11.054 -0.7014 -1.9672  1.8328
 2832SOL    HW219956   2.545   0.699  11.023  0.0394  0.7799  1.7350
 2833SOL     OW19957   3.784   1.122   6.985 -0.1086  0.3596 -0.0190
 2833SOL    HW119958   3.697   1.080   6.983  0.9022 -1.8425  1.6628
 2833SOL    HW219959   3.785   1.177   6.907 -2.1738  1.6761  0.8815
 2834SOL     OW19960   4.153   1.539  14.985  0.0971  0.1151 -0.0789
 2834SOL    HW119961   4.197   1.454  14.982 -0.8653 -0.5191  3.9907
 2834SOL    HW219962   4.099   1.527  15.063 -0.8620 -1.9812 -1.0625
 2835SOL     OW19963   0.547   0.408   5.606  0.0254  0.3288  0.1237
 2835SOL    HW119964   0.560   0.442   5.695  0.1527  0.8015 -0.0747
 2835SOL    HW219965   0.617   0.343   5.603  0.0263  0.3117  0.4628
 2836SOL     OW19966   3.264   1.601   9.057 -0.6802 -0.2019 -0.2843
 2836SOL    HW119967   3.261   1.509   9.084 -0.1533 -0.7033 -1.9392
 2836SOL    HW219968   3.192   1.633   9.112 -1.6295 -0.4638 -1.3571
 2837SOL     OW19969   4.467   4.521   7.091 -0.6542  0.3271  0.2244
 2837SOL    HW119970   4.507   4.437   7.113 -1.6500 -0.2469 -0.1525
 2837SOL    HW219971   4.526   4.561   7.027  0.0349 -0.6873  0.2190
 2838SOL     OW19972   1.957   3.717  10.253 -0.0144 -0.3684  0.3702
 2838SOL    HW119973   1.939   3.638  10.202 -1.1120  0.2423 -0.1818
 2838SOL    HW219974   1.896   3.776  10.209 -0.4923 -1.7837 -0.8434
 2839SOL     OW19975   1.655   1.370   7.672 -0.0667 -0.4528  0.2588
 2839SOL    HW119976   1.697   1.456   7.679 -2.8023  0.8706  0.4777
 2839SOL    HW219977   1.715   1.316   7.620 -1.4511 -0.8424 -0.9154
 2840SOL     OW19978   1.979   2.969   7.484  0.3461  0.2466  0.2100
 2840SOL    HW119979   1.937   3.052   7.506 -0.4387  0.7828 -3.2117
 2840SOL    HW219980   1.937   2.959   7.398  3.7957  1.8782 -1.6798
 2841SOL     OW19981   4.531   4.016   0.998  0.2436  0.6261 -0.6145
 2841SOL    HW119982   4.469   4.089   1.000  0.6803  1.0273 -2.5794
 2841SOL    HW219983   4.513   3.976   0.914  1.9387 -0.1576 -0.6069
 2842SOL     OW19984   3.057   4.183   4.820  0.1491  0.2526 -0.0732
 2842SOL    HW119985   3.045   4.097   4.861  2.1941 -1.1144 -2.3728
 2842SOL    HW219986   2.967   4.212   4.807  0.8779  2.9040  0.7868
 2843SOL     OW19987   0.318   1.949   5.761  0.4824 -0.5885 -0.1691
 2843SOL    HW119988   0.317   1.896   5.841 -0.1743 -0.6427 -0.2157
 2843SOL    HW219989   0.233   1.992   5.770  1.4437  1.2112  0.2768
 2844SOL     OW19990   4.277   2.756   9.857  0.0248 -0.1638 -0.0544
 2844SOL    HW119991   4.295   2.801   9.940  0.2288 -0.1397 -0.1119
 2844SOL    HW219992   4.363   2.722   9.835  1.0708  1.1366  1.9753
 2845SOL     OW19993   0.825   2.346   4.910 -0.0308 -0.4172 -0.0545
 2845SOL    HW119994   0.864   2.283   4.969 -4.0787 -1.1935  1.7796
 2845SOL    HW219995   0.907   2.391   4.890  0.6330 -1.8496 -0.5588
 2846SOL     OW19996   2.146   1.588   8.155  0.2051  0.1967  0.7437
 2846SOL    HW119997   2.156   1.598   8.060  1.6948 -0.6045  0.8076
 2846SOL    HW219998   2.146   1.678   8.186 -0.2653 -0.0991  1.5833
 2847SOL     OW19999   4.480   1.909   4.774 -0.4329 -0.0423 -0.4570
 2847SOL    HW120000   4.464   1.873   4.687  2.7553 -2.2114 -0.1330
 2847SOL    HW220001   4.524   1.841   4.825  3.0924  2.5407 -0.1193
 2848SOL     OW20002   2.815   4.642  10.993  0.8198  0.0046 -0.0429
 2848SOL    HW120003   2.802   4.691  10.912  0.8303 -0.4945 -0.3492
 2848SOL    HW220004   2.812   4.720  11.048 -0.9343 -0.1898  0.1114
 2849SOL     OW20005   0.066   3.134  12.105 -0.5178  0.4885  0.2602
 2849SOL    HW120006   0.139   3.116  12.045 -0.5955  0.0053  0.3122
 2849SOL    HW220007   0.067   3.042  12.132 -0.5560 -0.0453 -1.5379
 2850SOL     OW20008   2.677   2.642   9.070 -0.0028 -0.0638 -0.5645
 2850SOL    HW120009   2.608   2.618   9.132  1.5868  0.5226  1.4362
 2850SOL    HW220010   2.711   2.722   9.110 -0.7072  0.2737 -0.6329
 2851SOL     OW20011   1.890   0.313  13.215  0.3238 -0.4249  0.3160
 2851SOL    HW120012   1.961   0.250  13.204 -0.0398 -0.9733  1.1330
 2851SOL    HW220013   1.871   0.334  13.124 -2.9249 -1.4249  0.7623
 2852SOL     OW20014   3.860   0.746   3.662 -0.2804 -0.1234 -0.0198
 2852SOL    HW120015   3.882   0.815   3.725  2.8752  1.2734 -2.6520
 2852SOL    HW220016   3.765   0.748   3.661 -0.2484  0.3885 -1.7412
 2853SOL     OW20017   0.613   0.450   7.670  0.0619  0.0567  0.1820
 2853SOL    HW120018   0.530   0.467   7.714  0.0646 -0.9095  0.5547
 2853SOL    HW220019   0.629   0.533   7.624 -1.1119  0.7654  1.0577
 2854SOL     OW20020   1.683   2.022   3.697 -0.4526  0.0778  0.4518
 2854SOL    HW120021   1.764   1.977   3.720 -1.2380 -1.1398  0.8193
 2854SOL    HW220022   1.669   1.998   3.605  1.5564 -1.8565  0.6471
 2855SOL     OW20023   3.476   0.565   4.253 -0.6502  0.5310 -0.1499
 2855SOL    HW120024   3.408   0.541   4.190  1.1061  1.0981 -2.2696
 2855SOL    HW220025   3.464   0.495   4.317  1.5479 -0.5298 -0.8914
 2856SOL     OW20026   4.006   1.971   9.191  0.0284 -0.4678  0.0416
 2856SOL    HW120027   3.971   1.954   9.278  2.8107 -0.9225  1.0372
 2856SOL    HW220028   4.070   1.901   9.181  0.1694 -0.4694  0.9852
 2857SOL     OW20029   1.331   2.198   4.703 -0.2505 -0.0920 -0.0048
 2857SOL    HW120030   1.292   2.114   4.680  0.9381 -0.6376 -0.0020
 2857SOL    HW220031   1.369   2.180   4.789  2.2053 -0.3270 -1.1566
 2858SOL     OW20032   4.496   3.886   2.492 -0.0620  0.1937 -0.2450
 2858SOL    HW120033   4.448   3.809   2.462 -2.4408  1.3191  0.6543
 2858SOL    HW220034   4.466   3.950   2.429 -3.1805 -0.3686  0.6718
 2859SOL     OW20035   3.860   4.269   2.940  0.2322  0.3463 -0.6146
 2859SOL    HW120036   3.833   4.246   3.029  0.9128 -1.6943 -0.9525
 2859SOL    HW220037   3.926   4.204   2.916 -1.2084 -0.9974 -0.9113
 2860SOL     OW20038   1.374   0.915   6.499 -0.5115 -0.0428  0.3341
 2860SOL    HW120039   1.385   0.997   6.452  1.7544 -0.7118 -0.2765
 2860SOL    HW220040   1.410   0.856   6.433 -0.8699 -1.3473  1.2962
 2861SOL     OW20041   1.877   1.243   1.296 -0.1433  0.6006  0.1066
 2861SOL    HW120042   1.894   1.331   1.261  1.6062 -0.1508 -0.8833
 2861SOL    HW220043   1.848   1.257   1.386 -0.5237  0.8345 -0.0520
 2862SOL     OW20044   4.283   4.545  10.478  0.3518 -0.2262 -0.0117
 2862SOL    HW120045   4.294   4.500  10.562 -0.7635 -1.2880 -0.4353
 2862SOL    HW220046   4.367   4.591  10.473 -0.7021  1.6825 -0.1863
 2863SOL     OW20047   4.196   4.081  13.700  0.0372  0.5139  0.2976
 2863SOL    HW120048   4.233   4.054  13.616  0.3587 -0.9816  0.9253
 2863SOL    HW220049   4.226   4.171  13.705  1.0319  0.2651 -1.3444
 2864SOL     OW20050   0.059   2.977  15.234  0.3456 -0.0204 -0.0411
 2864SOL    HW120051   0.074   2.896  15.283 -0.8863 -0.4177 -0.3299
 2864SOL    HW220052   0.073   2.957  15.142 -1.5763  2.9897 -0.9966
 2865SOL     OW20053   3.557   2.534   9.103  0.6436 -0.0409  0.3323
 2865SOL    HW120054   3.479   2.533   9.158  1.4695  0.6705  1.5060
 2865SOL    HW220055   3.523   2.478   9.033 -3.4666  2.0673  0.6624
 2866SOL     OW20056   3.068   0.533  15.106 -0.0081  0.0332 -0.1370
 2866SOL    HW120057   3.126   0.471  15.151 -0.1384 -0.7473 -1.0562
 2866SOL    HW220058   2.983   0.524  15.149 -1.5353  0.5936 -3.0557
 2867SOL     OW20059   0.548   4.297   3.047 -0.4245  0.0592 -0.0044
 2867SOL    HW120060   0.543   4.384   3.008  2.2236  0.3485  0.3003
 2867SOL    HW220061   0.597   4.247   2.981 -0.2668 -0.4691  0.5106
 2868SOL     OW20062   3.467   0.449   8.744 -0.3470 -0.6248  0.1905
 2868SOL    HW120063   3.464   0.415   8.834 -1.5049  0.2160  0.4700
 2868SOL    HW220064   3.530   0.521   8.744 -0.4011 -0.5847 -1.2011
 2869SOL     OW20065   1.632   1.561   6.245  0.0427  0.4363  0.0368
 2869SOL    HW120066   1.592   1.540   6.160  0.6733 -1.3061  0.1518
 2869SOL    HW220067   1.712   1.509   6.232 -0.9739 -1.6782  2.1250
 2870SOL     OW20068   0.815   2.523   9.663  0.2914 -0.6113  0.0718
 2870SOL    HW120069   0.877   2.542   9.592 -0.0339 -1.0777 -0.3364
 2870SOL    HW220070   0.866   2.559   9.736  0.1507 -0.2094 -0.0311
 2871SOL     OW20071   4.409   0.678  14.608 -0.0969 -0.2149 -0.6725
 2871SOL    HW120072   4.481   0.629  14.571  0.5370  0.9619 -1.0095
 2871SOL    HW220073   4.331   0.623  14.595  0.8031 -0.8225 -3.3296
 2872SOL     OW20074   3.826   0.029  11.331 -0.7326 -0.1450 -0.1065
 2872SOL    HW120075   3.816   4.655  11.322  2.4917 -0.4693 -0.5214
 2872SOL    HW220076   3.819   0.043  11.426 -1.2776  1.3875 -0.3845
 2873SOL     OW20077   4.436   3.522  10.797  0.1491  0.8893  0.4192
 2873SOL    HW120078   4.398   3.586  10.857  0.2053  2.2641 -0.9959
 2873SOL    HW220079   4.394   3.443  10.831  2.0747 -0.5314 -0.5337
 2874SOL     OW20080   2.224   2.973   8.857 -0.0597 -0.2528 -0.1803
 2874SOL    HW120081   2.203   3.031   8.784  0.6302  2.0391  1.4636
 2874SOL    HW220082   2.319   2.970   8.849 -0.2260 -1.6378 -1.6275
 2875SOL     OW20083   1.732   3.616   3.406  0.1448  0.3396  0.0537
 2875SOL    HW120084   1.803   3.564   3.444  0.8866 -0.4714 -2.4147
 2875SOL    HW220085   1.772   3.702   3.390  0.8690  0.0565  0.3175
 2876SOL     OW20086   1.310   3.378  10.252  0.0835 -0.5662 -0.0656
 2876SOL    HW120087   1.360   3.338  10.182  0.4723 -0.4693  0.1598
 2876SOL    HW220088   1.248   3.431  10.201  1.9650 -0.1101 -1.8595
 2877SOL     OW20089   0.350   2.055   4.243  0.3465 -0.2125 -0.1728
 2877SOL    HW120090   0.327   2.086   4.331  3.2996  0.3251  0.4288
 2877SOL    HW220091   0.273   2.005   4.216  0.1092  0.4826 -0.7903
 2878SOL     OW20092   2.488   4.238  15.691 -0.8346  0.2738 -0.0584
 2878SOL    HW120093   2.571   4.246  15.738 -0.8638  1.4888 -0.2247
 2878SOL    HW220094   2.462   4.152  15.725  1.3703  0.3065  1.6544
 2879SOL     OW20095   1.883   2.527   7.725 -0.0040  0.2748 -0.3222
 2879SOL    HW120096   1.850   2.612   7.752  0.0730  0.5476 -1.0874
 2879SOL    HW220097   1.883   2.548   7.632  1.0904 -0.9692 -0.6104
 2880SOL     OW20098   2.754   1.630   8.304 -0.0150 -0.0749  0.8143
 2880SOL    HW120099   2.681   1.620   8.243  0.0425 -0.6974  0.8493
 2880SOL    HW220100   2.819   1.655   8.238 -0.3673  0.2702  0.5985
 2881SOL     OW20101   4.478   3.818   9.587 -0.0401 -0.9194  0.6756
 2881SOL    HW120102   4.544   3.781   9.647 -0.2553 -0.5892  1.1162
 2881SOL    HW220103   4.449   3.735   9.548  1.3383 -1.1965  0.2277
 2882SOL     OW20104   1.892   2.686   2.176 -0.2677  0.6793 -0.1015
 2882SOL    HW120105   1.840   2.765   2.163 -2.8316 -0.9953 -0.1074
 2882SOL    HW220106   1.896   2.681   2.271 -0.7542 -2.6731 -0.2662
 2883SOL     OW20107   1.915   4.397   9.325 -0.0169  0.8160  0.1994
 2883SOL    HW120108   1.847   4.379   9.261  0.1248  0.5094  0.1352
 2883SOL    HW220109   1.942   4.484   9.296  1.5476  0.9212  1.9940
 2884SOL     OW20110   2.145   1.983   5.847 -0.1928  0.2479 -0.1962
 2884SOL    HW120111   2.122   1.904   5.897  2.1269 -0.1822  0.2106
 2884SOL    HW220112   2.240   1.974   5.846 -0.1052  1.1282  0.3602
 2885SOL     OW20113   1.260   0.020   7.731 -0.4077  0.5941 -0.2841
 2885SOL    HW120114   1.177   0.003   7.775  1.0256 -0.2905  2.0665
 2885SOL    HW220115   1.267   4.668   7.668  1.3565  0.1533  0.4107
 2886SOL     OW20116   1.590   1.900   7.713 -1.0043 -0.3130  0.9417
 2886SOL    HW120117   1.502   1.888   7.678 -0.3188 -4.6351  0.6758
 2886SOL    HW220118   1.614   1.830   7.773  0.6363 -1.1347 -0.6613
 2887SOL     OW20119   1.016   1.631  16.727  0.0751 -0.2232  0.3131
 2887SOL    HW120120   1.050   1.554  16.681  1.3791  0.9382 -0.6777
 2887SOL    HW220121   0.957   1.580  16.781 -0.7111 -0.5152 -0.8217
 2888SOL     OW20122   1.663   1.482   2.394  0.4333  0.3026  0.6989
 2888SOL    HW120123   1.567   1.483   2.400  0.5134  0.9642  1.9554
 2888SOL    HW220124   1.695   1.458   2.481 -0.0900  1.2338  1.1616
 2889SOL     OW20125   4.112   4.202   2.516  0.4867  0.1749  0.0898
 2889SOL    HW120126   4.144   4.131   2.462 -0.6215 -1.5553  1.7146
 2889SOL    HW220127   4.029   4.164   2.544  0.4891  0.5688  0.6436
 2890SOL     OW20128   2.737   2.554  11.207  0.7511  0.3161 -0.3405
 2890SOL    HW120129   2.792   2.530  11.282  0.1271 -3.9387 -1.2418
 2890SOL    HW220130   2.730   2.649  11.212 -2.9714  0.0706 -0.9812
 2891SOL     OW20131   1.252   4.206   5.952  0.1749 -0.5687 -0.4174
 2891SOL    HW120132   1.168   4.171   5.982  0.4084 -1.6237 -1.0352
 2891SOL    HW220133   1.239   4.253   5.870 -1.6850  0.2630  0.3573
 2892SOL     OW20134   1.918   2.773  16.404 -0.1182 -0.3348  0.2624
 2892SOL    HW120135   1.944   2.713  16.334  0.4098  0.7679 -0.4752
 2892SOL    HW220136   1.993   2.761  16.462 -0.6662  0.0407  1.0438
 2893SOL     OW20137   1.944   3.577   4.576 -0.9130  0.6242 -0.8278
 2893SOL    HW120138   1.931   3.541   4.488  0.5473 -1.5086 -0.1913
 2893SOL    HW220139   1.995   3.498   4.596 -1.5240  0.3297 -0.4457
 2894SOL     OW20140   1.074   1.907  11.497 -0.0196  0.3410  0.1191
 2894SOL    HW120141   1.045   1.830  11.546 -0.3174  2.5590  3.4128
 2894SOL    HW220142   1.155   1.869  11.464 -0.7416  0.2860 -1.6301
 2895SOL     OW20143   2.871   4.636   6.024  0.3516  0.1263  0.3197
 2895SOL    HW120144   2.856   4.617   6.116  0.6068 -0.6993  0.1901
 2895SOL    HW220145   2.949   4.692   6.022  0.5951 -0.1650  2.1793
 2896SOL     OW20146   4.133   0.902   4.105 -0.1669 -0.6002  0.1658
 2896SOL    HW120147   4.216   0.854   4.100 -1.1319 -1.9401 -3.3694
 2896SOL    HW220148   4.168   0.980   4.147 -1.7322  1.5327 -2.4814
 2897SOL     OW20149   4.129   2.078   4.896 -0.9651 -0.0783  0.4252
 2897SOL    HW120150   4.041   2.088   4.860 -1.9990 -3.9400  1.8043
 2897SOL    HW220151   4.163   2.029   4.821  2.6281  0.4643  1.7217
 2898SOL     OW20152   1.877   4.134  10.096 -0.2573 -0.1711  0.4245
 2898SOL    HW120153   1.888   4.117  10.190 -0.4658  0.9673  0.6587
 2898SOL    HW220154   1.868   4.050  10.052 -0.1567  0.7542 -1.3373
 2899SOL     OW20155   1.009   0.716   4.993  0.0697 -0.0786 -0.5200
 2899SOL    HW120156   1.012   0.694   5.086 -2.4481  2.4749  0.1851
 2899SOL    HW220157   1.039   0.807   4.993 -2.4963  0.7693 -0.0802
 2900SOL     OW20158   0.623   1.282   1.935  0.5972  0.2382  0.1250
 2900SOL    HW120159   0.710   1.263   1.970  0.1420  1.0595  1.7027
 2900SOL    HW220160   0.650   1.319   1.851 -3.5585  0.4340 -1.1163
 2901SOL     OW20161   3.536   0.505   5.035  0.4798  0.1667 -0.2828
 2901SOL    HW120162   3.628   0.521   5.014  0.4826  2.2090  1.2502
 2901SOL    HW220163   3.551   0.433   5.096 -1.6593  0.2549  0.3364
 2902SOL     OW20164   1.288   1.089   5.441  0.1979 -0.1485 -0.2052
 2902SOL    HW120165   1.205   1.115   5.481 -0.0880 -0.7559 -0.4059
 2902SOL    HW220166   1.349   1.127   5.504  0.5212  0.4363 -0.8695
 2903SOL     OW20167   1.432   4.402  17.120  0.4241  0.0268 -0.4094
 2903SOL    HW120168   1.374   4.458  17.067  1.4168  0.8608 -0.6010
 2903SOL    HW220169   1.448   4.338  17.051  0.9979 -1.4027  1.0692
 2904SOL     OW20170   3.258   0.417   5.752 -0.7844 -0.0377  0.8221
 2904SOL    HW120171   3.256   0.405   5.847 -0.4674  0.2846  0.8715
 2904SOL    HW220172   3.206   0.345   5.718 -0.6834  0.0732  0.4294
 2905SOL     OW20173   2.114   3.029   2.237 -0.1122 -0.3319 -0.5991
 2905SOL    HW120174   2.070   3.028   2.152 -0.6279  3.0631 -0.3700
 2905SOL    HW220175   2.166   3.107   2.218 -1.9359  1.3692  1.3969
 2906SOL     OW20176   1.402   1.484   8.811  0.1047 -0.0845 -0.4465
 2906SOL    HW120177   1.385   1.525   8.895  0.1659  2.5330 -1.7255
 2906SOL    HW220178   1.323   1.462   8.762 -1.4853  3.6710  0.4716
 2907SOL     OW20179   3.824   2.411  13.684  0.4423  0.3561 -0.3455
 2907SOL    HW120180   3.796   2.327  13.720  0.6439  0.1929 -0.5746
 2907SOL    HW220181   3.908   2.422  13.729 -0.2001  1.2611  0.6410
 2908SOL     OW20182   3.872   4.719   3.627 -0.9784 -0.5072  0.2132
 2908SOL    HW120183   3.874   4.682   3.539 -0.1766  2.3645 -0.9630
 2908SOL    HW220184   3.926   4.658   3.676  0.4707 -0.8926 -1.8621
 2909SOL     OW20185   0.102   1.686   3.552 -0.4832 -0.3299 -0.2425
 2909SOL    HW120186   0.025   1.658   3.602 -0.7004  0.6346 -0.0478
 2909SOL    HW220187   0.165   1.676   3.623 -0.6919 -1.0713 -0.1596
 2910SOL     OW20188   0.505   1.395   4.116 -0.1742  0.4392 -0.0739
 2910SOL    HW120189   0.597   1.404   4.088 -0.4948  2.8019 -0.3712
 2910SOL    HW220190   0.465   1.364   4.034  0.9053 -1.4340  0.0963
 2911SOL     OW20191   3.398   2.048  13.445  0.3478  0.0867  0.5165
 2911SOL    HW120192   3.327   2.071  13.384  0.2878  0.1778  0.6217
 2911SOL    HW220193   3.444   1.974  13.406  2.2774  1.2860  0.4988
 2912SOL     OW20194   4.519   4.536  12.840 -0.2181  0.2837  0.3283
 2912SOL    HW120195   4.538   4.628  12.859  0.0139  0.4320 -0.6221
 2912SOL    HW220196   4.439   4.532  12.789 -1.6616  1.0234  2.5438
 2913SOL     OW20197   0.843   1.385   6.105  0.5060 -0.1915 -0.1975
 2913SOL    HW120198   0.757   1.405   6.140  0.8126  1.9133 -0.6690
 2913SOL    HW220199   0.810   1.330   6.034  0.7635 -1.1264  0.3952
 2914SOL     OW20200   1.250   2.717   7.243 -0.3477 -0.2896 -0.6083
 2914SOL    HW120201   1.201   2.747   7.319  0.9831  1.6116 -0.4945
 2914SOL    HW220202   1.279   2.632   7.276  0.9612  0.5127  0.3044
 2915SOL     OW20203   2.991   2.592   0.348 -0.0847 -0.7876  0.3594
 2915SOL    HW120204   3.031   2.527   0.406  0.5719  3.1030  4.2755
 2915SOL    HW220205   3.023   2.572   0.260 -0.8330 -0.6906  0.0666
 2916SOL     OW20206   0.099   4.577  14.204 -0.3243  0.1880  0.1498
 2916SOL    HW120207   0.044   4.537  14.136 -1.2863 -1.4728  1.9025
 2916SOL    HW220208   0.043   4.645  14.240 -0.1236  0.2515  0.3400
 2917SOL     OW20209   3.983   3.721   8.540  0.4912 -0.0868  0.1176
 2917SOL    HW120210   3.923   3.784   8.579  1.4836  1.5656 -1.0077
 2917SOL    HW220211   4.057   3.776   8.512  0.1103  0.9161  1.0787
 2918SOL     OW20212   0.201   4.150  14.341 -0.0927  0.3852 -0.2708
 2918SOL    HW120213   0.263   4.079  14.360 -0.8809 -0.5904 -1.3302
 2918SOL    HW220214   0.149   4.150  14.421 -0.4236  0.8859 -0.4841
 2919SOL     OW20215   2.653   3.518   8.618 -0.3627  0.3372  0.6216
 2919SOL    HW120216   2.662   3.463   8.696 -1.4636 -0.3722  0.2434
 2919SOL    HW220217   2.732   3.571   8.627 -0.8177  0.9113  1.1932
 2920SOL     OW20218   3.985   0.179  14.094 -0.0081 -0.1995  0.2020
 2920SOL    HW120219   3.908   0.206  14.144  0.8051 -0.4018  1.5631
 2920SOL    HW220220   3.979   0.114  14.024 -2.3694  1.2613 -0.9416
 2921SOL     OW20221   1.629   3.228   0.936  1.1291 -0.3382  0.0681
 2921SOL    HW120222   1.650   3.137   0.958 -0.7152 -0.5482  0.9403
 2921SOL    HW220223   1.565   3.222   0.865  0.3133  2.9782  0.5282
 2922SOL     OW20224   2.016   0.204   4.141 -0.1372 -0.0348 -0.0853
 2922SOL    HW120225   1.974   0.137   4.087  0.7991  0.5934 -1.6140
 2922SOL    HW220226   2.095   0.161   4.171  1.1078  1.7390 -0.8256
 2923SOL     OW20227   1.925   0.441   6.997 -0.4514  0.8691 -0.2223
 2923SOL    HW120228   1.996   0.427   6.934 -1.8303 -1.5647 -1.2483
 2923SOL    HW220229   1.882   0.514   6.953 -1.6103  0.7104  0.6524
 2924SOL     OW20230   1.141   2.512   5.626 -0.8764  0.0062  0.0798
 2924SOL    HW120231   1.211   2.513   5.560 -2.3211  0.2168 -1.4443
 2924SOL    HW220232   1.079   2.442   5.607 -0.9217 -0.2453  1.2109
 2925SOL     OW20233   2.553   1.833   7.102 -0.1967  0.2187 -0.7288
 2925SOL    HW120234   2.506   1.893   7.044 -1.4381 -0.5954 -0.5483
 2925SOL    HW220235   2.612   1.898   7.141 -0.0597 -0.4210  0.1395
 2926SOL     OW20236   2.056   4.476  14.331 -0.2933  0.1259 -0.1476
 2926SOL    HW120237   2.041   4.474  14.237  1.5752  1.6912 -0.4766
 2926SOL    HW220238   2.144   4.439  14.330  0.0799  1.0125 -0.2072
 2927SOL     OW20239   4.548   2.832  16.533 -0.2232  0.5556 -0.0818
 2927SOL    HW120240   4.553   2.737  16.547 -0.4327  0.5863  0.1921
 2927SOL    HW220241   4.630   2.846  16.485  0.5725 -3.2274  0.1686
 2928SOL     OW20242   3.141   2.363   6.062 -0.0823  0.0746 -0.3513
 2928SOL    HW120243   3.145   2.290   6.001 -0.2516  0.6062 -0.9947
 2928SOL    HW220244   3.200   2.423   6.016 -3.8684  1.9373 -2.7186
 2929SOL     OW20245   2.476   4.128   5.598  0.4437 -0.0837  0.5502
 2929SOL    HW120246   2.459   4.057   5.535 -1.2987  2.4117 -1.7729
 2929SOL    HW220247   2.569   4.113   5.614  0.8415  2.3445  0.3917
 2930SOL     OW20248   0.431   3.008   9.632  0.4838  0.4794 -0.1721
 2930SOL    HW120249   0.441   3.101   9.611  1.1945  0.3156 -0.5484
 2930SOL    HW220250   0.520   2.982   9.609  0.0120 -0.3001 -1.1024
 2931SOL     OW20251   3.028   2.556   4.913  0.3513  0.3745  0.1289
 2931SOL    HW120252   3.032   2.620   4.842 -2.4223 -0.6435 -0.9297
 2931SOL    HW220253   3.096   2.495   4.884  1.4995  1.5628  0.3470
 2932SOL     OW20254   3.097   0.900   2.983 -0.5807  0.2032 -0.3859
 2932SOL    HW120255   3.185   0.936   2.996 -1.2000  1.1332  1.2167
 2932SOL    HW220256   3.122   0.809   2.967 -0.4256 -0.1798  1.9064
 2933SOL     OW20257   2.810   3.776   8.600  0.3580 -0.0342 -0.2048
 2933SOL    HW120258   2.905   3.761   8.602  0.2437 -0.7968 -0.2425
 2933SOL    HW220259   2.801   3.871   8.604 -0.3691 -0.0429 -2.1398
 2934SOL     OW20260   2.666   0.483   8.787  0.2742  0.6148  0.1229
 2934SOL    HW120261   2.647   0.438   8.869 -0.3230 -0.1866 -0.4535
 2934SOL    HW220262   2.754   0.519   8.783  1.2538 -1.8725 -0.0757
 2935SOL     OW20263   0.863   3.551   5.748 -0.4245  0.1172 -0.0453
 2935SOL    HW120264   0.820   3.635   5.732 -1.1063 -0.3121 -0.4567
 2935SOL    HW220265   0.917   3.554   5.827 -2.0311  2.4538  0.9562
 2936SOL     OW20266   4.285   2.108   2.711 -0.1814  0.0393 -0.3091
 2936SOL    HW120267   4.367   2.154   2.691  1.3220 -3.2535 -1.7734
 2936SOL    HW220268   4.242   2.128   2.629  1.4223  0.8479 -0.9554
 2937SOL     OW20269   0.764   3.743   4.434  0.2465 -0.6307  0.1645
 2937SOL    HW120270   0.773   3.654   4.467  1.3625 -0.6394 -0.1832
 2937SOL    HW220271   0.759   3.711   4.343  0.0931  0.2113 -0.1228
 2938SOL     OW20272   0.356   3.678   5.637 -0.3097  0.3747  0.1778
 2938SOL    HW120273   0.426   3.742   5.648  0.6960 -0.4851 -1.2626
 2938SOL    HW220274   0.405   3.605   5.598 -2.4974  0.8507 -3.5334
 2939SOL     OW20275   1.800   1.329   7.397  0.1624  0.4610  0.0643
 2939SOL    HW120276   1.765   1.293   7.316 -1.2057 -2.3882  1.9252
 2939SOL    HW220277   1.862   1.261   7.423 -0.2397  0.0186 -0.1338
 2940SOL     OW20278   4.393   4.547   4.236 -0.2193 -0.4539  0.3408
 2940SOL    HW120279   4.316   4.601   4.219 -0.5167 -1.1307 -0.4218
 2940SOL    HW220280   4.402   4.507   4.149 -0.2333  0.7513 -0.2180
 2941SOL     OW20281   3.457   1.635   7.289 -0.4834  0.1331 -0.6532
 2941SOL    HW120282   3.457   1.730   7.303 -1.4328 -0.0555  0.6581
 2941SOL    HW220283   3.505   1.598   7.363 -1.0359 -0.1206 -0.4253
 2942SOL     OW20284   3.422   1.964   6.897 -0.2047 -0.0628  0.1985
 2942SOL    HW120285   3.342   1.967   6.950 -0.7673 -2.2761 -0.4943
 2942SOL    HW220286   3.479   2.028   6.938 -0.0551  0.8650 -1.4520
 2943SOL     OW20287   1.462   0.711   9.979 -0.0723 -0.0931 -0.0662
 2943SOL    HW120288   1.399   0.659  10.029 -0.1469  0.1241  0.0667
 2943SOL    HW220289   1.497   0.635   9.933  2.0415  2.5698 -2.8997
 2944SOL     OW20290   2.485   3.275   0.000 -0.0241  0.3053  0.1396
 2944SOL    HW120291   2.414   3.211  17.684 -1.1966  1.5993  0.7638
 2944SOL    HW220292   2.456   3.352  17.636 -1.8647  0.6936  1.8521
 2945SOL     OW20293   2.950   1.127   3.913  0.1627  0.1318  0.0124
 2945SOL    HW120294   2.925   1.174   3.993  0.4651 -2.8934  1.8976
 2945SOL    HW220295   2.877   1.065   3.917  0.6148 -0.3610  0.5865
 2946SOL     OW20296   3.382   3.341   6.687  0.6029  0.5071 -0.2389
 2946SOL    HW120297   3.436   3.325   6.610  1.1738 -1.6961  0.6000
 2946SOL    HW220298   3.366   3.248   6.705 -0.2268  0.4517 -1.2896
 2947SOL     OW20299   3.698   4.257   6.175  0.2747 -0.6826  0.1600
 2947SOL    HW120300   3.654   4.242   6.259 -0.3161  1.6120  0.2431
 2947SOL    HW220301   3.713   4.166   6.149 -0.8699 -0.9407  0.3955
 2948SOL     OW20302   3.600   2.209   8.023  0.5599 -0.1054  0.4272
 2948SOL    HW120303   3.619   2.302   8.013  0.3021 -0.3038 -1.8456
 2948SOL    HW220304   3.551   2.216   8.105 -0.5918 -0.0634 -0.2547
 2949SOL     OW20305   3.069   3.130   4.888  0.2191 -0.1412 -0.6276
 2949SOL    HW120306   3.015   3.209   4.883 -0.4449 -0.5150  0.7912
 2949SOL    HW220307   3.157   3.161   4.867  0.6690 -2.9970 -2.9070
 2950SOL     OW20308   2.726   3.768  14.215  0.2642 -0.4581 -0.2809
 2950SOL    HW120309   2.669   3.721  14.276  0.5823  3.1134  2.7650
 2950SOL    HW220310   2.798   3.706  14.215  1.0703  0.4735  2.1928
 2951SOL     OW20311   0.593   0.137  12.162  0.6311 -0.1541  0.1979
 2951SOL    HW120312   0.672   0.083  12.161  0.0790 -0.9100 -3.0574
 2951SOL    HW220313   0.542   0.118  12.083  0.9271  0.9397 -0.2590
 2952SOL     OW20314   4.212   2.096   0.724  0.4594 -0.3885 -0.1970
 2952SOL    HW120315   4.182   2.186   0.737 -0.1575 -0.5879 -0.2472
 2952SOL    HW220316   4.127   2.056   0.745  0.3197  0.9618  1.7955
 2953SOL     OW20317   1.961   0.646   6.021 -0.1028 -0.1990 -0.3310
 2953SOL    HW120318   1.952   0.617   6.112  0.2993 -0.6823 -0.4447
 2953SOL    HW220319   1.952   0.563   5.973  0.4093  0.9500 -2.4217
 2954SOL     OW20320   3.662   0.741   0.309  0.0212  0.0691 -0.3568
 2954SOL    HW120321   3.751   0.776   0.307 -0.2789  0.8271 -0.2947
 2954SOL    HW220322   3.630   0.786   0.387 -0.7988 -1.2572  0.0560
 2955SOL     OW20323   2.115   0.329   8.046 -0.4452 -1.0739 -0.1232
 2955SOL    HW120324   2.082   0.240   8.057  0.0873 -1.3631 -0.8302
 2955SOL    HW220325   2.077   0.385   8.113 -2.2443 -1.5006 -0.7914
 2956SOL     OW20326   3.787   0.445   2.697  0.6476  0.6709  0.8695
 2956SOL    HW120327   3.741   0.481   2.621 -0.4224 -1.7782  0.3539
 2956SOL    HW220328   3.726   0.488   2.757  0.4131 -0.2302  1.2809
 2957SOL     OW20329   1.835   2.543   9.413 -0.5374 -0.2697 -0.6146
 2957SOL    HW120330   1.844   2.550   9.508 -0.5183 -0.7309 -0.5811
 2957SOL    HW220331   1.797   2.627   9.386 -3.3166 -1.1659  0.5194
 2958SOL     OW20332   4.105   3.496   2.362 -0.2081  0.1498 -0.1024
 2958SOL    HW120333   4.035   3.439   2.392  0.6952 -1.4717 -1.0372
 2958SOL    HW220334   4.171   3.483   2.430  0.2798  0.9204 -0.4244
 2959SOL     OW20335   0.991   4.019   9.116 -0.1085  0.3280 -0.0240
 2959SOL    HW120336   1.079   4.044   9.087 -0.6676  2.7717  0.3623
 2959SOL    HW220337   1.011   3.943   9.170 -1.1503  1.5126  2.0416
 2960SOL     OW20338   3.460   1.773   5.367  0.1079 -0.4977  0.1103
 2960SOL    HW120339   3.532   1.830   5.394  0.0755 -0.4590  0.1162
 2960SOL    HW220340   3.401   1.829   5.317  0.9414 -0.8445 -1.2543
 2961SOL     OW20341   1.407   0.066   1.967  0.1481 -0.4612  0.1085
 2961SOL    HW120342   1.438   0.058   2.057  0.5764  2.3712  0.2181
 2961SOL    HW220343   1.346   4.714   1.959  1.1470 -1.2458 -0.3947
 2962SOL     OW20344   3.044   0.913   2.261  0.2518  0.3378 -0.3772
 2962SOL    HW120345   3.090   0.994   2.283 -1.0167  0.7796  0.6901
 2962SOL    HW220346   3.027   0.925   2.168 -2.4098  0.8265  0.1620
 2963SOL     OW20347   3.328   0.138  13.405  0.1057  0.8282 -0.0592
 2963SOL    HW120348   3.292   0.068  13.350 -0.0963  0.4362  0.5673
 2963SOL    HW220349   3.399   0.087  13.443 -0.8096 -0.6048 -0.2516
 2964SOL     OW20350   4.206   3.507   4.321  0.3809 -0.0856 -0.1400
 2964SOL    HW120351   4.301   3.507   4.330  0.4431  1.0729 -0.7193
 2964SOL    HW220352   4.175   3.435   4.376  2.3080 -0.7859  0.0065
 2965SOL     OW20353   1.121   1.418   7.422  0.8324 -0.5615  0.0969
 2965SOL    HW120354   1.036   1.445   7.458 -0.3667 -1.1837 -2.2612
 2965SOL    HW220355   1.176   1.494   7.442  0.5558 -0.0131 -1.2674
 2966SOL     OW20356   1.242   4.320   3.135 -0.9455  0.6348 -0.3608
 2966SOL    HW120357   1.304   4.391   3.120 -0.9409  0.5607 -0.7052
 2966SOL    HW220358   1.241   4.273   3.051 -0.2318 -0.3367  0.1667
 2967SOL     OW20359   2.526   3.145   8.659  0.5043  0.6215 -0.7649
 2967SOL    HW120360   2.573   3.198   8.725 -3.4420  0.5371  2.1024
 2967SOL    HW220361   2.532   3.201   8.582 -1.5531  2.9732  0.7558
 2968SOL     OW20362   0.684   3.266   5.099  0.0901  0.0916  0.8251
 2968SOL    HW120363   0.701   3.179   5.133 -2.7757 -0.8422 -0.0822
 2968SOL    HW220364   0.636   3.297   5.176  1.9032  0.1588  1.9178
 2969SOL     OW20365   3.988   4.707  10.485 -0.1771 -0.2395 -0.5804
 2969SOL    HW120366   3.948   4.639  10.539  0.0786  0.6578  0.7198
 2969SOL    HW220367   3.916   0.049  10.491  0.9880  1.1888 -1.2770
 2970SOL     OW20368   0.884   3.128  16.298 -0.0988 -0.3050  0.0741
 2970SOL    HW120369   0.960   3.175  16.334 -1.5746  3.1055 -1.2338
 2970SOL    HW220370   0.868   3.073  16.374 -1.5325 -1.7583 -1.2814
 2971SOL     OW20371   4.560   4.168  14.641 -0.1363  0.2701  0.2710
 2971SOL    HW120372   4.629   4.103  14.630  0.0643  0.4594  0.4253
 2971SOL    HW220373   4.544   4.152  14.734 -1.6691  1.5724  0.2259
 2972SOL     OW20374   0.060   2.127  16.597  0.1229 -0.4727 -0.3278
 2972SOL    HW120375   0.086   2.078  16.675  3.0150 -2.3859 -2.4632
 2972SOL    HW220376   0.121   2.201  16.598  1.3122 -1.4490  1.5955
 2973SOL     OW20377   0.057   1.620  14.366 -0.1434  0.5833  0.5651
 2973SOL    HW120378   0.056   1.637  14.460 -0.0255  1.1404  0.4664
 2973SOL    HW220379   0.048   1.705  14.322  1.6460  1.7423  2.4755
 2974SOL     OW20380   2.516   3.656   6.469 -0.0026  0.3307 -0.0193
 2974SOL    HW120381   2.538   3.719   6.538 -0.3225  2.1248 -1.5758
 2974SOL    HW220382   2.421   3.654   6.480 -0.1838  0.6392 -1.5432
 2975SOL     OW20383   0.813   2.695   3.844 -0.0273  0.6071 -0.6432
 2975SOL    HW120384   0.856   2.668   3.763 -1.3684 -0.8216 -0.8791
 2975SOL    HW220385   0.722   2.696   3.813 -0.0529 -1.5576 -0.6403
 2976SOL     OW20386   2.671   2.810  16.925 -0.2486 -0.4419 -0.6686
 2976SOL    HW120387   2.653   2.866  16.850  1.2777  0.4755 -0.3417
 2976SOL    HW220388   2.719   2.737  16.885  1.0093 -0.0566  0.1162
 2977SOL     OW20389   3.951   1.963   3.809  0.0504 -0.3176 -0.0804
 2977SOL    HW120390   4.041   1.967   3.841 -0.2850 -0.0259  0.8529
 2977SOL    HW220391   3.906   1.947   3.892 -1.3865  0.1631 -0.7584
 2978SOL     OW20392   0.391   1.890   7.104  0.3280 -0.0780  0.3685
 2978SOL    HW120393   0.301   1.864   7.120  0.2940 -0.1145  0.1225
 2978SOL    HW220394   0.387   1.917   7.012 -1.2928 -0.3590  0.3702
 2979SOL     OW20395   1.842   1.924   1.148  0.7803  0.2500 -0.2496
 2979SOL    HW120396   1.870   1.924   1.056  1.9934 -0.7772  0.1247
 2979SOL    HW220397   1.793   1.842   1.156  1.9349 -0.2046  2.2006
 2980SOL     OW20398   2.240   1.084  12.750 -0.0748  0.2287 -0.0536
 2980SOL    HW120399   2.268   1.019  12.685 -0.0295 -0.0043  0.1972
 2980SOL    HW220400   2.325   1.090  12.794 -0.2933  2.3102  0.0771
 2981SOL     OW20401   4.051   4.591   1.817 -0.6026  0.4622  0.4355
 2981SOL    HW120402   3.966   4.548   1.817 -0.8009  0.8566 -0.2942
 2981SOL    HW220403   4.103   4.511   1.827 -0.7055  0.5423  1.6474
 2982SOL     OW20404   4.157   1.463   5.252 -0.2231 -0.5266 -0.3897
 2982SOL    HW120405   4.229   1.467   5.189 -1.0057  0.6834 -1.2097
 2982SOL    HW220406   4.201   1.400   5.308 -2.1881 -0.3860  1.3215
 2983SOL     OW20407   2.723   1.855   5.862  0.1060 -0.1865  0.1099
 2983SOL    HW120408   2.699   1.868   5.771  1.5494 -1.4373 -0.4394
 2983SOL    HW220409   2.651   1.795   5.883 -0.2845 -0.1070 -1.0118
 2984SOL     OW20410   0.473   2.843   5.161  0.1900 -0.5129 -0.1997
 2984SOL    HW120411   0.498   2.765   5.210  0.3898  0.8886  1.8904
 2984SOL    HW220412   0.561   2.868   5.132 -0.0990 -1.1511 -1.6570
 2985SOL     OW20413   4.697   3.106   2.650  0.1931  0.4515  0.8650
 2985SOL    HW120414   4.714   3.195   2.683  3.4930  0.2204 -0.2289
 2985SOL    HW220415   4.608   3.120   2.617  0.3761 -0.2006  0.1223
 2986SOL     OW20416   4.457   2.769   4.823  0.1274  0.0812  0.3359
 2986SOL    HW120417   4.418   2.855   4.840  1.6927  0.9856 -0.7140
 2986SOL    HW220418   4.548   2.781   4.851 -0.3420 -0.6919  2.2511
 2987SOL     OW20419   2.969   1.296  13.024  0.3424  0.0046 -0.3268
 2987SOL    HW120420   2.948   1.382  13.059  0.6692  0.3612 -1.0208
 2987SOL    HW220421   2.931   1.237  13.090  1.2091  0.2669  0.4064
 2988SOL     OW20422   1.451   1.252   2.882  0.4320  0.3077 -0.5406
 2988SOL    HW120423   1.471   1.345   2.888 -0.1061  0.4025 -0.1860
 2988SOL    HW220424   1.373   1.262   2.827 -0.7469  0.4875  1.1781
 2989SOL     OW20425   0.002   0.042   1.530  0.6149 -0.5917 -0.4491
 2989SOL    HW120426   0.023   4.685   1.478  2.0758  0.3711 -1.2896
 2989SOL    HW220427   0.070   0.044   1.598  0.2910  2.0071 -0.1831
 2990SOL     OW20428   3.517   4.371  15.060 -0.8713  0.0419 -0.2682
 2990SOL    HW120429   3.514   4.344  15.152 -0.0447  2.4257  0.4546
 2990SOL    HW220430   3.567   4.297  15.024  0.9748  0.6051  1.1422
 2991SOL     OW20431   0.140   1.888   5.457  0.6313  0.0661  0.0390
 2991SOL    HW120432   0.155   1.956   5.523 -0.5626 -1.0035  1.4226
 2991SOL    HW220433   0.114   1.818   5.517 -1.0060  0.0321 -0.7135
 2992SOL     OW20434   1.468   1.520   9.569 -0.2251  0.3473 -0.0370
 2992SOL    HW120435   1.458   1.615   9.571 -0.4510  0.3139  0.3988
 2992SOL    HW220436   1.377   1.497   9.550 -0.7079  3.4300 -1.3835
 2993SOL     OW20437   3.016   2.972  16.087 -0.2345 -0.3344 -0.0775
 2993SOL    HW120438   2.954   2.898  16.087  2.4334 -2.5729  3.9790
 2993SOL    HW220439   3.027   2.974  15.992  3.4411  0.7565  0.3897
 2994SOL     OW20440   2.287   4.243  13.389 -0.0296 -0.0005  0.3099
 2994SOL    HW120441   2.194   4.262  13.402  0.0650  0.2695  0.5900
 2994SOL    HW220442   2.295   4.230  13.295  1.9384  0.1010  0.4665
 2995SOL     OW20443   1.800   2.570   9.029  0.3082 -0.2064  0.0562
 2995SOL    HW120444   1.804   2.501   9.095  2.2226  0.9102  1.1204
 2995SOL    HW220445   1.744   2.525   8.966  0.2626 -3.0212  2.1442
 2996SOL     OW20446   4.359   1.326   0.057 -0.6304  0.0759 -0.0635
 2996SOL    HW120447   4.394   1.411   0.032  2.7395 -1.1960  0.1980
 2996SOL    HW220448   4.355   1.274  17.661 -0.2961 -1.5665  0.9744
 2997SOL     OW20449   0.510   0.120   4.744  0.1067  0.3870 -0.1382
 2997SOL    HW120450   0.507   0.166   4.828 -0.3311 -1.0387  0.6197
 2997SOL    HW220451   0.441   0.165   4.695 -0.0555 -1.3315 -1.4837
 2998SOL     OW20452   2.876   3.624   4.129 -0.4748  0.6183 -0.6296
 2998SOL    HW120453   2.789   3.662   4.137  0.1566  1.9231  0.1328
 2998SOL    HW220454   2.911   3.690   4.190  1.5452 -1.4627  0.4629
 2999SOL     OW20455   0.156   1.752  12.740 -0.1623  0.0636  0.0862
 2999SOL    HW120456   0.120   1.671  12.705  1.4714 -1.0775  1.0505
 2999SOL    HW220457   0.172   1.803  12.661  0.9197 -0.8362 -0.2794
 3000SOL     OW20458   2.614   0.115   8.878  0.1920 -0.2413 -0.2925
 3000SOL    HW120459   2.595   0.110   8.972  1.7979 -0.8363  0.0134
 3000SOL    HW220460   2.528   0.133   8.842  0.1540 -0.8794 -0.5328
 3001SOL     OW20461   1.313   4.377   7.906  0.9254 -0.4245 -0.4023
 3001SOL    HW120462   1.246   4.403   7.970 -0.8247 -0.4041 -2.2583
 3001SOL    HW220463   1.324   4.285   7.932  0.0137 -0.8812 -1.6361
 3002SOL     OW20464   1.252   3.020   2.614  0.3549 -0.1225  0.5595
 3002SOL    HW120465   1.227   2.993   2.526 -1.5381 -0.7931  1.2949
 3002SOL    HW220466   1.167   3.019   2.659  0.5431  0.8514  0.9415
 3003SOL     OW20467   3.751   0.721   1.951 -0.4017  0.6646  0.2133
 3003SOL    HW120468   3.744   0.735   1.857  0.7957  1.9720  0.3137
 3003SOL    HW220469   3.669   0.764   1.974 -1.1193 -0.5452 -0.1068
 3004SOL     OW20470   3.206   1.788   1.716 -0.1250  0.3790  0.3626
 3004SOL    HW120471   3.244   1.805   1.802  1.9553  1.4528 -0.7763
 3004SOL    HW220472   3.119   1.823   1.732  0.3895  2.1849 -0.8812
 3005SOL     OW20473   3.536   3.220   5.581  0.6031  0.5984 -0.0570
 3005SOL    HW120474   3.479   3.245   5.653  1.6690  0.5277  0.8043
 3005SOL    HW220475   3.572   3.133   5.600  0.2585  0.4083 -0.2694
 3006SOL     OW20476   1.180   2.887   3.680  0.4536 -0.3089  0.0052
 3006SOL    HW120477   1.166   2.977   3.710  0.9052 -0.3052  0.1984
 3006SOL    HW220478   1.235   2.844   3.745  1.4415  1.2966  0.2273
 3007SOL     OW20479   2.177   0.645   6.345  0.8473  0.3578 -0.3659
 3007SOL    HW120480   2.199   0.725   6.298 -0.8659 -1.0793 -3.6779
 3007SOL    HW220481   2.098   0.614   6.299  0.5558  1.3144 -0.5072
 3008SOL     OW20482   1.699   0.145  13.035  0.0487  0.3265  0.0945
 3008SOL    HW120483   1.761   0.218  13.038  1.0229 -0.5463  0.9660
 3008SOL    HW220484   1.620   0.189  13.003  0.3618 -1.0284 -2.4466
 3009SOL     OW20485   1.571   3.533   9.272 -0.2726 -0.0976  0.1437
 3009SOL    HW120486   1.655   3.487   9.270 -0.6501 -0.7290 -0.9970
 3009SOL    HW220487   1.567   3.552   9.366  1.4026  1.9364 -0.1783
 3010SOL     OW20488   2.086   3.800   4.641 -0.3694  0.0657  0.5219
 3010SOL    HW120489   2.039   3.719   4.625 -3.7396  2.0630  0.3725
 3010SOL    HW220490   2.109   3.787   4.733 -0.4347 -0.1222  0.5122
 3011SOL     OW20491   3.637   4.658   7.296  0.0427  0.3688  0.1206
 3011SOL    HW120492   3.616   4.654   7.389  1.5955 -2.6436  0.3428
 3011SOL    HW220493   3.611   0.027   7.276 -1.2103  0.3306  1.5745
 3012SOL     OW20494   3.877   1.594   2.433  0.1239  0.0005 -0.4868
 3012SOL    HW120495   3.886   1.572   2.340  1.5016  0.6026 -0.4963
 3012SOL    HW220496   3.848   1.685   2.426  2.7367  1.1323  3.7711
 3013SOL     OW20497   0.377   0.593   6.125  0.1697 -0.1569  0.5190
 3013SOL    HW120498   0.440   0.652   6.167  0.1402  0.6949 -0.6297
 3013SOL    HW220499   0.400   0.512   6.171  0.4669 -2.1642 -3.2170
 3014SOL     OW20500   1.840   1.619   9.391  0.4061  0.3812  0.0359
 3014SOL    HW120501   1.774   1.550   9.402  0.5930  0.4077  1.3287
 3014SOL    HW220502   1.895   1.615   9.469  0.6681  0.8742 -0.1265
 3015SOL     OW20503   1.480   3.092   7.051 -0.2680  0.0408 -0.7290
 3015SOL    HW120504   1.522   3.066   7.133 -1.0149 -0.3267 -0.4726
 3015SOL    HW220505   1.536   3.163   7.019 -1.4592  1.5323  0.5431
 3016SOL     OW20506   0.741   1.147   8.352  0.6890  0.1869 -0.2522
 3016SOL    HW120507   0.752   1.063   8.396 -1.1420  0.7699  1.3071
 3016SOL    HW220508   0.761   1.204   8.427  0.5942 -0.5993  0.3684
 3017SOL     OW20509   2.714   4.207  15.853 -0.4683  0.1163 -0.9233
 3017SOL    HW120510   2.763   4.143  15.801 -0.8789 -0.0755 -1.0784
 3017SOL    HW220511   2.781   4.244  15.910  0.8049 -3.3426 -0.1809
 3018SOL     OW20512   2.556   2.590   4.925 -0.3239  0.1437  0.3504
 3018SOL    HW120513   2.540   2.632   5.009 -0.9129 -0.7245  0.6747
 3018SOL    HW220514   2.628   2.529   4.944 -1.7455 -2.3611 -2.2822
 3019SOL     OW20515   3.719   2.109   2.970 -0.4387  0.1126 -0.2276
 3019SOL    HW120516   3.808   2.137   2.992 -0.9245  1.5991 -0.1595
 3019SOL    HW220517   3.693   2.067   3.052 -1.1778  0.5683 -0.2278
 3020SOL     OW20518   3.001   2.687  11.701 -0.4934 -0.1968  0.4360
 3020SOL    HW120519   3.001   2.709  11.608  2.3164 -1.8007  0.0436
 3020SOL    HW220520   3.090   2.706  11.733  0.0925 -2.3139  0.1176
 3021SOL     OW20521   2.690   2.571   3.563 -0.2887 -0.5437  0.2132
 3021SOL    HW120522   2.705   2.625   3.485 -0.0589 -2.0472 -0.7628
 3021SOL    HW220523   2.708   2.487   3.523  1.7872 -0.1230  0.2697
 3022SOL     OW20524   3.644   4.255  16.898 -0.2730  0.2421  0.0544
 3022SOL    HW120525   3.701   4.306  16.841 -0.1125 -0.1979 -0.1763
 3022SOL    HW220526   3.701   4.193  16.943  2.4252  0.7465 -2.7297
 3023SOL     OW20527   1.075   2.933   1.485  0.2509  0.4146 -0.3224
 3023SOL    HW120528   1.127   2.864   1.525 -0.9811  0.2648  1.0557
 3023SOL    HW220529   1.019   2.966   1.556  0.4527  0.6292 -0.2640
 3024SOL     OW20530   2.843   4.074   8.687 -0.4479 -0.1752 -0.4033
 3024SOL    HW120531   2.924   4.108   8.724 -0.9230  0.2650  0.2391
 3024SOL    HW220532   2.797   4.054   8.768  2.3759 -2.4156  0.6420
 3025SOL     OW20533   2.903   4.489   6.969  0.1289 -0.0158 -0.7986
 3025SOL    HW120534   2.873   4.472   6.880  0.0884  1.0690 -0.9956
 3025SOL    HW220535   2.988   4.528   6.949  1.3540 -1.4015  1.7218
 3026SOL     OW20536   1.870   1.508   4.758 -0.0360  0.2530  0.6808
 3026SOL    HW120537   1.931   1.439   4.783 -2.1926 -1.6212  0.7434
 3026SOL    HW220538   1.791   1.470   4.796 -1.3664  0.4191 -1.8908
 3027SOL     OW20539   4.242   3.401   5.080 -0.3696  0.2368 -0.1319
 3027SOL    HW120540   4.274   3.444   5.160 -0.3842 -2.4672  1.2968
 3027SOL    HW220541   4.196   3.323   5.111  0.8493 -0.5477 -0.3038
 3028SOL     OW20542   1.907   0.997  11.541  0.4866 -0.3655  0.7506
 3028SOL    HW120543   1.954   1.008  11.458  1.1042  1.4881  1.3421
 3028SOL    HW220544   1.872   1.085  11.554 -2.6288 -1.6869  1.2707
 3029SOL     OW20545   4.214   1.327   8.629  0.3916 -0.3308  0.4391
 3029SOL    HW120546   4.308   1.331   8.647  0.0373 -1.9972  2.6600
 3029SOL    HW220547   4.229   1.346   8.536 -0.8405 -0.7223  0.1593
 3030SOL     OW20548   2.585   3.807  11.993  0.3397 -0.2335  0.7256
 3030SOL    HW120549   2.669   3.842  12.022  1.3416 -1.2565 -0.9342
 3030SOL    HW220550   2.542   3.780  12.074 -0.5659  1.4230  0.8085
 3031SOL     OW20551   0.023   3.080  12.474  0.5880  0.2939  0.5938
 3031SOL    HW120552   0.052   3.065  12.384  0.5336 -1.4853  0.8714
 3031SOL    HW220553   0.099   3.055  12.526 -0.1574 -0.9677  1.0870
 3032SOL     OW20554   1.476   2.803   7.508 -0.4358 -0.0351 -0.2332
 3032SOL    HW120555   1.405   2.848   7.552  0.0615 -0.1842  0.7126
 3032SOL    HW220556   1.436   2.717   7.497  1.7277 -0.8489 -1.7375
 3033SOL     OW20557   0.470   3.186   5.800 -0.0055  0.0053  0.2899
 3033SOL    HW120558   0.397   3.183   5.738  1.5056 -2.8018 -1.3413
 3033SOL    HW220559   0.525   3.248   5.753  0.2365 -1.0431 -0.8086
 3034SOL     OW20560   4.464   3.166  12.504  0.4169 -0.9310 -0.0797
 3034SOL    HW120561   4.411   3.177  12.582 -1.4647  1.6038 -1.7340
 3034SOL    HW220562   4.500   3.077  12.513 -0.6244 -1.1830  1.6005
 3035SOL     OW20563   0.818   0.132   5.187  0.2432  0.0951 -0.3626
 3035SOL    HW120564   0.774   0.047   5.179  0.1616  0.1397 -0.3921
 3035SOL    HW220565   0.909   0.102   5.179  0.5874  1.0822 -0.1118
 3036SOL     OW20566   3.123   1.006   8.028  0.0983  0.3618 -0.4569
 3036SOL    HW120567   3.214   0.980   8.013  0.5649  0.5036  2.1315
 3036SOL    HW220568   3.112   1.010   8.123 -1.9645 -0.3595 -0.6616
 3037SOL     OW20569   0.170   3.092   6.556 -0.1770 -0.5357  0.2087
 3037SOL    HW120570   0.101   3.041   6.513 -1.5345  2.0212 -0.6607
 3037SOL    HW220571   0.221   3.110   6.477  1.0452  0.6539  1.2735
 3038SOL     OW20572   4.383   3.814  13.095 -0.0751  0.3092  0.0768
 3038SOL    HW120573   4.387   3.720  13.082 -1.9374  0.2554 -0.0700
 3038SOL    HW220574   4.448   3.829  13.163  0.7801 -0.6434 -0.5298
 3039SOL     OW20575   3.206   1.166   6.328 -0.2932 -0.0661  0.4476
 3039SOL    HW120576   3.259   1.225   6.274  0.2796 -0.3002  0.7605
 3039SOL    HW220577   3.243   1.083   6.299 -2.1424 -0.4348 -0.8795
 3040SOL     OW20578   2.045   3.952  14.250 -0.1097 -0.1289  0.0260
 3040SOL    HW120579   1.963   4.000  14.237  0.0785 -0.1026 -1.1269
 3040SOL    HW220580   2.016   3.861  14.246 -0.2921 -0.0883  0.5297
 3041SOL     OW20581   3.611   4.149  17.580 -0.3554  0.3447 -0.0912
 3041SOL    HW120582   3.665   4.114  17.651 -0.4047  0.1114 -0.1703
 3041SOL    HW220583   3.539   4.182  17.634 -1.1420 -0.3528 -0.7182
 3042SOL     OW20584   3.500   3.494   0.005 -0.3161  0.1064  0.0284
 3042SOL    HW120585   3.574   3.532   0.052 -2.5928  3.5898  0.7742
 3042SOL    HW220586   3.527   3.523  17.602  3.6200 -2.1684  0.4853
 3043SOL     OW20587   3.572   4.396   7.477 -0.1444  0.1122 -0.1290
 3043SOL    HW120588   3.487   4.406   7.433  0.3076  0.6692 -0.8631
 3043SOL    HW220589   3.555   4.424   7.567  4.5657 -0.7171  1.0213
 3044SOL     OW20590   1.989   0.056  10.705 -0.2676 -0.5148  0.2048
 3044SOL    HW120591   1.958   0.049  10.615 -2.1089  0.1452  0.7783
 3044SOL    HW220592   2.056   4.708  10.700  0.5664  0.4363 -1.3605
 3045SOL     OW20593   0.224   2.913   3.600  0.2014 -0.4550  0.2054
 3045SOL    HW120594   0.181   2.988   3.559  0.3242 -1.7841 -2.3250
 3045SOL    HW220595   0.233   2.853   3.527  1.4091 -0.4646  0.3693
 3046SOL     OW20596   3.281   3.423   8.531  0.2002 -0.2419 -0.0559
 3046SOL    HW120597   3.187   3.419   8.513  0.7937  2.0614 -3.7472
 3046SOL    HW220598   3.296   3.344   8.583 -0.8318 -1.0715 -1.0375
 3047SOL     OW20599   0.315   1.237  14.931 -0.3530  0.3748 -0.2424
 3047SOL    HW120600   0.332   1.206  14.842  0.4821 -0.5968  0.2496
 3047SOL    HW220601   0.319   1.332  14.923 -3.0670  0.5428  0.6136
 3048SOL     OW20602   3.559   2.538   7.354  0.1886 -0.5998  0.6549
 3048SOL    HW120603   3.619   2.464   7.342  0.4248 -0.3422  0.2379
 3048SOL    HW220604   3.497   2.507   7.420 -0.1715 -2.8972 -0.7395
 3049SOL     OW20605   3.149   2.859   5.864  0.0054  0.0884  0.3875
 3049SOL    HW120606   3.138   2.915   5.941 -0.5933  0.9580 -0.3315
 3049SOL    HW220607   3.066   2.814   5.849  0.2580 -0.1116 -0.4132
 3050SOL     OW20608   2.614   3.254   4.453  0.2698  0.5515  0.0731
 3050SOL    HW120609   2.578   3.298   4.376 -3.8221 -1.3728  0.8773
 3050SOL    HW220610   2.631   3.169   4.413  3.2251  1.2556 -0.2156
 3051SOL     OW20611   2.804   0.566  15.207  0.2235 -0.2971  0.0130
 3051SOL    HW120612   2.723   0.538  15.166 -0.0563  2.7173 -1.5512
 3051SOL    HW220613   2.772   0.603  15.290  1.9311  1.9958 -0.3240
 3052SOL     OW20614   2.182   1.834   5.008  0.1550  0.2068  0.3086
 3052SOL    HW120615   2.092   1.867   5.014  0.2279  0.7045 -1.1571
 3052SOL    HW220616   2.225   1.900   4.953  2.2124 -1.4354 -0.0282
 3053SOL     OW20617   0.776   4.486   8.249  0.3337  0.0179  0.0695
 3053SOL    HW120618   0.829   4.435   8.310  0.8753  0.3600 -0.1144
 3053SOL    HW220619   0.695   4.436   8.256  0.1103  0.4693  0.7343
 3054SOL     OW20620   0.293   4.030  10.699  0.7194 -0.0235 -0.3781
 3054SOL    HW120621   0.280   4.124  10.692 -0.2854  0.0041  1.8218
 3054SOL    HW220622   0.210   3.994  10.667 -1.2025  2.3175  1.9991
 3055SOL     OW20623   4.704   0.390   3.225  0.3857 -0.2427 -0.2393
 3055SOL    HW120624   4.630   0.371   3.167 -0.5479 -1.2756  1.2846
 3055SOL    HW220625   0.044   0.426   3.160 -0.8344  0.1839 -1.1410
 3056SOL     OW20626   4.332   1.455   3.841 -0.3883  0.3421 -0.9959
 3056SOL    HW120627   4.258   1.400   3.870  1.2938 -1.1706  0.4018
 3056SOL    HW220628   4.328   1.433   3.748  2.0986  1.2444 -1.3026
 3057SOL     OW20629   3.872   1.021  13.138 -0.3726 -0.3495 -0.3262
 3057SOL    HW120630   3.917   0.963  13.076 -2.6169 -3.3027  0.7753
 3057SOL    HW220631   3.887   1.106  13.097  2.8729 -1.5243 -1.6008
 3058SOL     OW20632   2.338   2.167   4.256 -0.1819 -0.6214 -0.2574
 3058SOL    HW120633   2.402   2.097   4.241 -0.4548 -0.2760 -3.1621
 3058SOL    HW220634   2.376   2.186   4.341  0.4181 -1.8837 -0.2338
 3059SOL     OW20635   1.348   3.268  17.340  0.2087 -0.0974  0.2122
 3059SOL    HW120636   1.436   3.258  17.374  0.8556  1.1022 -1.1036
 3059SOL    HW220637   1.300   3.224  17.410 -1.6741  0.6617 -0.6017
 3060SOL     OW20638   1.214   3.294   3.367 -0.3222 -0.5473 -0.2703
 3060SOL    HW120639   1.296   3.293   3.318 -0.2561 -0.2542 -0.1696
 3060SOL    HW220640   1.216   3.384   3.402 -0.5647 -0.5812 -0.1661
 3061SOL     OW20641   0.763   2.674   3.383  0.1745 -0.5596 -0.0046
 3061SOL    HW120642   0.733   2.764   3.367  2.5191  0.0324 -1.0414
 3061SOL    HW220643   0.856   2.694   3.388 -0.4615  2.1764  0.8699
 3062SOL     OW20644   2.551   0.917  12.492  0.5673  0.0868 -0.5485
 3062SOL    HW120645   2.538   0.984  12.559 -2.8329  2.0841 -3.1977
 3062SOL    HW220646   2.549   0.832  12.535  0.9972 -0.4419 -1.5887
 3063SOL     OW20647   1.386   1.852   2.026 -0.4009  0.0666 -0.7222
 3063SOL    HW120648   1.429   1.782   2.075 -1.0409  0.1780 -0.0129
 3063SOL    HW220649   1.312   1.869   2.085  0.3492  0.4321  0.1233
 3064SOL     OW20650   2.951   4.682  16.966 -0.3350 -0.5931  0.1145
 3064SOL    HW120651   2.980   4.683  17.057  1.8880 -0.4917 -0.5951
 3064SOL    HW220652   3.019   0.021  16.932  1.1543 -1.2773  1.8897
 3065SOL     OW20653   1.781   1.766   5.399 -0.6484 -0.5284  0.3613
 3065SOL    HW120654   1.842   1.830   5.362 -3.3560  1.6771 -0.3343
 3065SOL    HW220655   1.837   1.722   5.463 -0.8450 -1.0774  0.1547
 3066SOL     OW20656   0.369   1.355   0.212  0.5150  0.3159 -0.2973
 3066SOL    HW120657   0.450   1.394   0.179 -0.0886 -0.7840 -3.0985
 3066SOL    HW220658   0.315   1.356   0.133  0.1687 -0.7784 -0.0685
 3067SOL     OW20659   0.227   0.679   2.685  0.8328 -0.2667  0.1728
 3067SOL    HW120660   0.244   0.746   2.618  0.5328 -1.4649 -1.1046
 3067SOL    HW220661   0.304   0.704   2.737  1.5779 -0.0833 -1.0083
 3068SOL     OW20662   0.357   0.384   6.319  0.4403 -0.7017  0.1107
 3068SOL    HW120663   0.371   0.299   6.278  2.2684  1.0262 -2.8071
 3068SOL    HW220664   0.298   0.353   6.388 -2.0954 -1.0162 -2.2026
 3069SOL     OW20665   1.348   1.258   0.870 -0.0296  0.8202 -0.4556
 3069SOL    HW120666   1.294   1.332   0.896  1.6206  1.4898  1.0514
 3069SOL    HW220667   1.285   1.186   0.874  0.3011  0.5386 -0.3476
 3070SOL     OW20668   1.125   1.188  12.908  0.0555  0.0458 -0.0798
 3070SOL    HW120669   1.043   1.164  12.865  0.5377 -0.0098 -0.9747
 3070SOL    HW220670   1.187   1.149  12.846  1.8460  2.9043 -0.0901
 3071SOL     OW20671   1.968   0.416  13.495  0.0578 -0.3977 -0.1090
 3071SOL    HW120672   2.005   0.328  13.502  2.6674  0.5593 -1.6489
 3071SOL    HW220673   1.969   0.452  13.583 -4.6180  0.0181 -0.2449
 3072SOL     OW20674   3.356   3.226   5.819  0.3174 -0.5101 -0.8035
 3072SOL    HW120675   3.382   3.193   5.905  1.5793  0.5311 -0.7870
 3072SOL    HW220676   3.266   3.209   5.845  1.2462 -1.1169  1.9917
 3073SOL     OW20677   0.196   3.943  16.057  0.1724 -0.3064 -0.2113
 3073SOL    HW120678   0.224   4.027  16.092 -3.1101  1.0811 -0.9411
 3073SOL    HW220679   0.102   3.957  16.042  0.2512  1.8324  1.3769
 3074SOL     OW20680   3.774   1.296   6.192 -0.1711  0.2498 -0.3173
 3074SOL    HW120681   3.810   1.262   6.110 -0.4585  0.1682 -0.4136
 3074SOL    HW220682   3.799   1.238   6.263 -0.4048  1.5621  0.8292
 3075SOL     OW20683   2.820   0.734   4.047  0.2116  0.0514  0.2822
 3075SOL    HW120684   2.826   0.687   4.131  1.9194  0.7397  0.5595
 3075SOL    HW220685   2.731   0.713   4.019  0.2839  1.0975 -0.7054
 3076SOL     OW20686   3.646   1.507   2.898 -0.1704 -0.2725 -0.3956
 3076SOL    HW120687   3.614   1.597   2.900 -0.1797 -0.2934  0.8845
 3076SOL    HW220688   3.651   1.488   2.805 -1.1012 -0.6459 -0.3733
 3077SOL     OW20689   2.376   3.870   3.796 -0.6374 -0.4443  0.2063
 3077SOL    HW120690   2.331   3.950   3.825 -1.8374 -1.6944  1.7953
 3077SOL    HW220691   2.330   3.809   3.854 -0.9935 -0.7830 -0.4353
 3078SOL     OW20692   0.225   1.318  13.722  0.3856 -0.4240  0.2148
 3078SOL    HW120693   0.316   1.308  13.693  0.5044 -1.0896  0.8154
 3078SOL    HW220694   0.172   1.287  13.648 -0.5093  1.6933 -0.0209
 3079SOL     OW20695   3.744   4.572   8.755 -0.1123  0.1256 -0.2375
 3079SOL    HW120696   3.785   4.642   8.806  1.2430  0.1026 -1.2927
 3079SOL    HW220697   3.710   4.625   8.682  1.2443  2.0893  0.5537
 3080SOL     OW20698   0.520   4.336  15.654 -0.5274  0.3236 -0.0099
 3080SOL    HW120699   0.463   4.259  15.657 -0.2824  0.1235 -0.4277
 3080SOL    HW220700   0.511   4.382  15.737  2.6188 -1.5471  1.3810
 3081SOL     OW20701   2.573   1.257   6.678  0.0938 -0.2460  0.5166
 3081SOL    HW120702   2.631   1.322   6.640 -1.5619  0.8096 -0.2152
 3081SOL    HW220703   2.622   1.175   6.678  2.2121  1.0062 -1.4178
 3082SOL     OW20704   1.061   0.878  13.442  0.6368  0.3172 -0.4003
 3082SOL    HW120705   1.093   0.967  13.434 -0.0658  0.7153  1.2405
 3082SOL    HW220706   1.092   0.846  13.357  1.4078  1.8386 -0.6909
 3083SOL     OW20707   0.362   0.605  17.112 -0.1680  0.2793 -0.1833
 3083SOL    HW120708   0.285   0.549  17.105 -1.5537  2.2853 -0.8804
 3083SOL    HW220709   0.365   0.616  17.207  0.8412  0.5443 -0.2469
 3084SOL     OW20710   3.357   1.178   3.741 -0.3359  0.3668  0.3960
 3084SOL    HW120711   3.427   1.241   3.722 -0.8867  1.2248  1.1984
 3084SOL    HW220712   3.363   1.111   3.673 -0.4822 -0.0873  0.8346
 3085SOL     OW20713   0.248   2.610   7.193 -0.3393 -0.4134  0.2679
 3085SOL    HW120714   0.341   2.631   7.187 -0.4859  0.2632  0.3201
 3085SOL    HW220715   0.220   2.649   7.110  1.3146 -3.3104 -1.6891
 3086SOL     OW20716   3.390   3.917   8.537 -0.5628  0.3055  0.3332
 3086SOL    HW120717   3.456   3.974   8.576  0.3739 -0.7626  0.3375
 3086SOL    HW220718   3.405   3.837   8.587 -1.6369 -0.4267 -0.5031
 3087SOL     OW20719   1.333   0.752   9.040  0.5900  0.0382 -0.4642
 3087SOL    HW120720   1.366   0.798   9.118 -1.0984 -0.1223  0.3743
 3087SOL    HW220721   1.288   0.824   8.995  1.7257  0.8596 -0.2812
 3088SOL     OW20722   0.968   4.262   6.040  0.2924  0.0168  0.1110
 3088SOL    HW120723   0.926   4.256   5.955  1.2242 -0.4058 -0.3246
 3088SOL    HW220724   0.898   4.258   6.105 -1.5222  4.9011 -1.5123
 3089SOL     OW20725   0.352   4.159  15.839  0.2375  0.1885  0.7765
 3089SOL    HW120726   0.403   4.212  15.900  0.7854  1.4348 -0.7863
 3089SOL    HW220727   0.328   4.088  15.899  0.9179  0.1911  1.0479
 3090SOL     OW20728   2.473   0.990   2.019 -0.0467  0.3428  0.4865
 3090SOL    HW120729   2.507   1.076   1.993 -1.0816  0.3055 -1.0077
 3090SOL    HW220730   2.546   0.958   2.073  0.3636 -0.4086 -0.4981
 3091SOL     OW20731   0.802   1.445  13.539 -0.4808  0.6492  0.1268
 3091SOL    HW120732   0.839   1.456  13.627  0.8015  0.2931 -0.3780
 3091SOL    HW220733   0.877   1.395  13.509 -0.7057  0.2082  0.2964
 3092SOL     OW20734   1.868   3.454   6.495 -0.1024  0.1662  0.1146
 3092SOL    HW120735   1.797   3.453   6.430  1.4792 -0.4454 -1.5901
 3092SOL    HW220736   1.947   3.482   6.450  0.0367  1.5283  1.2119
 3093SOL     OW20737   1.743   3.250   4.558 -0.0648  0.3129 -0.1071
 3093SOL    HW120738   1.798   3.215   4.488 -1.8069  0.3432 -1.4814
 3093SOL    HW220739   1.720   3.332   4.516 -0.1140  0.2424 -0.2175
 3094SOL     OW20740   3.722   4.167   7.593  0.0546  0.1692  0.0113
 3094SOL    HW120741   3.784   4.222   7.641  1.3355  0.9325 -2.5094
 3094SOL    HW220742   3.672   4.241   7.558 -0.8487 -0.0193  0.9341
 3095SOL     OW20743   4.158   0.101   5.779  0.7454 -0.6139 -0.0335
 3095SOL    HW120744   4.099   0.043   5.825 -2.0676  1.8403 -0.5767
 3095SOL    HW220745   4.136   0.090   5.686  1.1595 -1.8784  0.0128
 3096SOL     OW20746   0.743   2.606   4.446  0.9157 -1.3253  0.1096
 3096SOL    HW120747   0.786   2.522   4.461  2.4186 -0.7668 -1.0815
 3096SOL    HW220748   0.702   2.591   4.361  0.4654  1.5446 -0.1866
 3097SOL     OW20749   2.433   2.768  14.399 -0.7339  0.0879 -0.1245
 3097SOL    HW120750   2.387   2.827  14.339 -1.8016  0.9495  1.5421
 3097SOL    HW220751   2.368   2.706  14.433 -0.5835  0.0712  0.1271
 3098SOL     OW20752   2.599   1.176   8.664 -0.3030  0.1231  0.4524
 3098SOL    HW120753   2.625   1.172   8.756  1.5410  1.5073  0.0062
 3098SOL    HW220754   2.685   1.193   8.625 -0.7836  0.3344 -0.5138
 3099SOL     OW20755   2.112   0.115   2.884 -0.1472  0.5451 -0.2938
 3099SOL    HW120756   2.185   0.157   2.839  0.0721 -0.1757 -0.5966
 3099SOL    HW220757   2.157   0.078   2.960 -2.0221 -0.6041  0.2636
 3100SOL     OW20758   0.642   4.567  11.792  0.2107 -0.4552  0.3678
 3100SOL    HW120759   0.603   4.486  11.826 -2.5837  0.0237 -1.6948
 3100SOL    HW220760   0.721   4.579  11.845  0.1153  1.2061  0.1294
 3101SOL     OW20761   4.506   3.447   4.941  0.1736  0.3912 -0.0803
 3101SOL    HW120762   4.415   3.423   4.960  0.2795  0.9525  1.1440
 3101SOL    HW220763   4.514   3.420   4.849  1.5074 -0.4277  0.2757
 3102SOL     OW20764   1.715   4.585  10.778 -0.2434  0.3217  0.3278
 3102SOL    HW120765   1.784   4.649  10.798 -1.2927  1.1883  1.1496
 3102SOL    HW220766   1.670   4.587  10.862 -0.2301 -1.5178  0.3828
 3103SOL     OW20767   1.302   1.138  13.422 -0.3948  0.5065 -0.3528
 3103SOL    HW120768   1.360   1.095  13.485 -0.5599  0.5345 -0.1830
 3103SOL    HW220769   1.357   1.213  13.399  0.1351  0.0062 -0.7315
 3104SOL     OW20770   4.594   1.020   3.443 -0.2883  0.4553 -0.1037
 3104SOL    HW120771   4.508   1.024   3.402 -0.3840  1.0667  0.1542
 3104SOL    HW220772   4.572   1.021   3.537  0.3054  0.1710  0.0409
 3105SOL     OW20773   1.676   1.479   5.752 -0.2395  0.7621 -0.3720
 3105SOL    HW120774   1.687   1.554   5.694  1.5425 -3.3100 -5.4003
 3105SOL    HW220775   1.761   1.482   5.795 -1.0255  2.1091  1.0567
 3106SOL     OW20776   2.018   3.428   9.047  0.2231 -0.3571  0.2338
 3106SOL    HW120777   2.078   3.500   9.063 -1.7862  0.8448  2.3447
 3106SOL    HW220778   2.053   3.400   8.962  0.5334 -0.0101  0.2468
 3107SOL     OW20779   1.397   1.879   8.442  0.0048  0.1642  0.1931
 3107SOL    HW120780   1.473   1.930   8.414 -0.4238  0.2716 -0.7881
 3107SOL    HW220781   1.391   1.903   8.534 -0.1682  0.8685 -0.0023
 3108SOL     OW20782   2.957   3.984  12.060 -0.6401 -0.3013  0.5515
 3108SOL    HW120783   2.913   3.950  11.982  3.4032  0.5458 -2.0958
 3108SOL    HW220784   3.042   4.007  12.023 -1.4383 -1.6950 -2.1194
 3109SOL     OW20785   0.384   2.455   7.710 -0.7570 -0.3100  0.2643
 3109SOL    HW120786   0.426   2.373   7.685 -0.9295 -0.7211  1.3522
 3109SOL    HW220787   0.368   2.439   7.803 -0.0774 -0.0657  0.4254
 3110SOL     OW20788   0.002   4.292  11.758 -0.0715  0.0892  0.2502
 3110SOL    HW120789   0.019   4.342  11.838 -0.7471 -1.2304  1.2128
 3110SOL    HW220790   4.627   4.294  11.758 -0.0887 -1.0162  0.8160
 3111SOL     OW20791   1.121   4.650  16.451 -0.1811  0.6797 -0.5409
 3111SOL    HW120792   1.094   0.019  16.471  0.8287  0.9023 -0.1510
 3111SOL    HW220793   1.048   4.593  16.476  0.0690  0.3242 -0.6153
 3112SOL     OW20794   2.922   4.064  12.322 -0.4941  0.1923  0.4122
 3112SOL    HW120795   3.010   4.026  12.327 -1.0276 -0.7103  2.4610
 3112SOL    HW220796   2.899   4.055  12.229 -0.4961  0.8649  0.3478
 3113SOL     OW20797   3.412   3.678   2.323  0.6172 -0.5439  0.3712
 3113SOL    HW120798   3.436   3.770   2.329  0.1775 -0.4773  1.0025
 3113SOL    HW220799   3.335   3.671   2.379 -0.8332 -1.2531 -1.6843
 3114SOL     OW20800   0.639   4.198  16.648  0.7753  0.2981  0.2609
 3114SOL    HW120801   0.592   4.138  16.590  0.0053  1.4254 -0.2997
 3114SOL    HW220802   0.703   4.233  16.585  0.9981  0.8010  0.7682
 3115SOL     OW20803   3.679   0.826   8.343 -0.5148  0.5236 -0.0797
 3115SOL    HW120804   3.692   0.899   8.283  0.4528  0.6418  0.2730
 3115SOL    HW220805   3.754   0.818   8.403 -0.4459 -1.2614 -0.4089
 3116SOL     OW20806   1.125   0.622   4.040 -0.0957 -0.5676  0.1183
 3116SOL    HW120807   1.213   0.652   4.061  0.2139 -0.8978 -0.6881
 3116SOL    HW220808   1.132   0.623   3.944  1.2591 -1.5084  0.1962
 3117SOL     OW20809   0.192   0.946  10.102 -0.7280  0.1813  0.7528
 3117SOL    HW120810   0.159   0.944  10.192 -1.4491  0.9593  0.5088
 3117SOL    HW220811   0.113   0.924  10.053 -0.3213 -0.4387  0.3829
 3118SOL     OW20812   0.787   0.535   5.244 -0.2331 -0.0773 -0.3108
 3118SOL    HW120813   0.844   0.612   5.244  1.4487 -1.3118  0.2837
 3118SOL    HW220814   0.855   0.479   5.206 -0.8371 -0.9928 -0.0260
 3119SOL     OW20815   0.207   0.766   5.345  0.3249 -0.2963 -0.5231
 3119SOL    HW120816   0.238   0.708   5.414 -1.6642  0.6600  1.1814
 3119SOL    HW220817   0.146   0.704   5.306  0.3861  0.1875 -1.3820
 3120SOL     OW20818   3.539   2.236   4.763 -0.5560 -0.1057 -0.1104
 3120SOL    HW120819   3.569   2.321   4.794 -0.2544 -0.2787  0.0628
 3120SOL    HW220820   3.533   2.186   4.844  1.6688 -0.4648 -0.1654
 3121SOL     OW20821   0.354   1.746  13.561 -0.0386 -0.0389 -0.1320
 3121SOL    HW120822   0.382   1.756  13.470  3.3442 -0.9950  0.7896
 3121SOL    HW220823   0.428   1.777  13.614  0.0631 -0.6540  0.0883
 3122SOL     OW20824   4.441   3.755   6.196  0.2900 -0.1143  0.4461
 3122SOL    HW120825   4.372   3.790   6.139 -0.1895 -2.0122 -0.1778
 3122SOL    HW220826   4.515   3.808   6.168  1.2300 -1.5929  0.1170
 3123SOL     OW20827   2.547   2.735   1.788 -0.0599  0.3284 -0.0896
 3123SOL    HW120828   2.472   2.736   1.846  0.0570 -2.1222  0.0856
 3123SOL    HW220829   2.610   2.681   1.836  0.2861 -0.3233 -1.2532
 3124SOL     OW20830   4.146   2.310   3.583  0.2958 -0.1699 -0.1550
 3124SOL    HW120831   4.184   2.226   3.607 -0.4961 -1.0645 -2.0165
 3124SOL    HW220832   4.174   2.321   3.492  0.3119  1.2103  0.0101
 3125SOL     OW20833   2.990   0.937  17.292 -0.7472  0.3155 -0.7304
 3125SOL    HW120834   3.005   0.856  17.244 -0.3311  1.2046 -2.1003
 3125SOL    HW220835   3.037   0.997  17.234 -0.4423  0.5084 -0.2917
 3126SOL     OW20836   4.072   2.851  12.000 -0.4979 -0.1838  0.3565
 3126SOL    HW120837   4.104   2.846  12.090 -1.2231  0.5391  0.6550
 3126SOL    HW220838   4.004   2.916  12.018 -0.6315 -0.4908  0.9562
 3127SOL     OW20839   2.142   2.764   7.828 -0.2508  0.0637 -0.2319
 3127SOL    HW120840   2.053   2.729   7.835 -0.3500  0.2641 -0.4930
 3127SOL    HW220841   2.177   2.685   7.787  0.3752 -0.4609  1.3328
 3128SOL     OW20842   0.498   4.536   7.259 -0.2985 -0.1388 -0.4326
 3128SOL    HW120843   0.478   4.535   7.166 -1.7562  1.5450 -0.1414
 3128SOL    HW220844   0.451   4.609   7.300 -1.0884 -1.2816  0.6633
 3129SOL     OW20845   1.538   3.546  15.484  0.2099  0.0418  0.3195
 3129SOL    HW120846   1.444   3.563  15.476  0.9665  3.5591 -1.1128
 3129SOL    HW220847   1.546   3.458  15.447  2.5376  0.6690 -0.6243
 3130SOL     OW20848   3.909   2.874   4.076 -0.5051 -0.0700 -0.0719
 3130SOL    HW120849   3.848   2.879   4.150  1.8711 -0.7233  1.9296
 3130SOL    HW220850   3.986   2.854   4.128 -0.9548 -2.4455 -0.3042
 3131SOL     OW20851   0.239   0.726   3.395  0.0109 -0.5761 -0.1096
 3131SOL    HW120852   0.151   0.688   3.404 -0.3109  0.1703 -0.0797
 3131SOL    HW220853   0.288   0.645   3.385  1.0840  0.3022 -1.9152
 3132SOL     OW20854   0.300   0.256   7.682 -0.1661 -0.0838  0.1005
 3132SOL    HW120855   0.253   0.311   7.745 -1.3040 -2.9253  1.7583
 3132SOL    HW220856   0.316   0.177   7.733  0.7311  0.0260 -0.0204
 3133SOL     OW20857   0.462   3.533  16.896 -0.1387 -0.6942  0.6650
 3133SOL    HW120858   0.411   3.599  16.848  0.1340  0.4505  1.9478
 3133SOL    HW220859   0.443   3.552  16.988 -0.2541  1.5586  0.1799
 3134SOL     OW20860   4.090   0.399  11.553  0.1381  0.2513  0.1205
 3134SOL    HW120861   4.169   0.377  11.602 -1.7776 -1.3832  2.4908
 3134SOL    HW220862   4.026   0.327  11.552  1.3865 -0.9222  3.7807
 3135SOL     OW20863   4.363   0.066   6.566 -0.5038 -1.0165 -0.0314
 3135SOL    HW120864   4.334   0.119   6.640 -0.8543 -1.6555  0.2868
 3135SOL    HW220865   4.425   0.007   6.607  0.6391 -0.0503 -0.3792
 3136SOL     OW20866   0.808   4.195   5.791  0.0719 -0.5193 -0.5704
 3136SOL    HW120867   0.733   4.206   5.732 -0.0745  1.5384  0.0213
 3136SOL    HW220868   0.872   4.232   5.731  0.6224 -0.1317  0.2515
 3137SOL     OW20869   3.999   1.353   9.034 -0.4776  0.1361 -0.1014
 3137SOL    HW120870   4.092   1.344   9.054 -0.4439 -1.1710 -0.8639
 3137SOL    HW220871   3.969   1.391   9.117  0.3453  1.6508 -0.4988
 3138SOL     OW20872   0.752   0.969   0.247  0.0010  0.3063  0.0054
 3138SOL    HW120873   0.675   0.943   0.198 -0.8605 -2.6248  2.8661
 3138SOL    HW220874   0.757   0.907   0.320  2.0609 -0.4505 -0.7730
 3139SOL     OW20875   2.995   4.165   5.995  0.3209 -0.7736  0.1186
 3139SOL    HW120876   2.953   4.083   6.021  0.5866 -1.7223 -2.5236
 3139SOL    HW220877   2.944   4.228   6.046  1.5024  0.7573 -0.5980
 3140SOL     OW20878   1.109   1.044   9.188  0.1478 -0.7560  0.0751
 3140SOL    HW120879   1.167   1.120   9.187 -0.8982  0.0526  2.3024
 3140SOL    HW220880   1.149   0.983   9.250 -0.4177 -0.7764  0.4095
 3141SOL     OW20881   3.545   2.106   5.009  0.0334  0.4160 -1.0087
 3141SOL    HW120882   3.618   2.045   5.020 -0.3405 -0.1510 -1.6876
 3141SOL    HW220883   3.566   2.165   5.082  0.7022 -0.6079 -0.3689
 3142SOL     OW20884   3.445   0.957   0.746  0.0812  0.0967 -0.2705
 3142SOL    HW120885   3.516   0.967   0.809 -2.0591  0.2159  2.1255
 3142SOL    HW220886   3.491   0.912   0.675  0.7091  2.6279 -1.4488
 3143SOL     OW20887   0.685   1.284   5.887 -0.0316 -0.3579  0.7327
 3143SOL    HW120888   0.690   1.379   5.881  2.6398 -0.4414  1.4666
 3143SOL    HW220889   0.590   1.276   5.896 -0.0194  0.6131  1.8093
 3144SOL     OW20890   2.616   2.308  12.559  0.1104  0.5541  0.0463
 3144SOL    HW120891   2.580   2.220  12.545  1.3452 -0.0332  0.5447
 3144SOL    HW220892   2.691   2.309  12.499 -0.7568 -2.1901 -1.1017
 3145SOL     OW20893   0.996   0.737  17.085  0.2204  0.6481  0.3278
 3145SOL    HW120894   0.931   0.733  17.156 -1.9899 -0.8031 -1.7820
 3145SOL    HW220895   0.952   0.698  17.009  0.5440 -0.2567  0.6002
 3146SOL     OW20896   1.904   2.396   3.710  0.3864  0.5639  0.0015
 3146SOL    HW120897   1.854   2.335   3.655 -0.5343  0.6817  0.7001
 3146SOL    HW220898   1.964   2.431   3.644 -0.9162  0.4098 -1.2815
 3147SOL     OW20899   2.484   3.945   8.668  0.5419 -0.4498 -0.1383
 3147SOL    HW120900   2.507   3.875   8.607 -1.8066  0.0514 -1.5930
 3147SOL    HW220901   2.507   4.022   8.616  0.4820  0.5959  1.4080
 3148SOL     OW20902   1.506   0.330  12.971  0.0134 -0.8301 -0.2669
 3148SOL    HW120903   1.422   0.288  12.991 -1.1196  0.9666 -1.3392
 3148SOL    HW220904   1.486   0.423  12.983  0.3772 -0.7789 -0.0536
 3149SOL     OW20905   1.146   2.453   5.075  0.4215  1.2853 -0.0272
 3149SOL    HW120906   1.191   2.467   4.992 -0.9836 -0.9938 -1.1848
 3149SOL    HW220907   1.154   2.357   5.078 -1.7228  1.1167  0.9081
 3150SOL     OW20908   2.682   2.764   7.177 -0.0664 -0.0870  0.1725
 3150SOL    HW120909   2.775   2.779   7.193 -0.4009 -0.7485  2.7730
 3150SOL    HW220910   2.667   2.818   7.100  1.8946 -0.5002 -0.5058
 3151SOL     OW20911   4.200   0.871  10.558  0.1933 -0.5521  0.3866
 3151SOL    HW120912   4.145   0.853  10.634 -0.7732 -0.3240 -0.2680
 3151SOL    HW220913   4.289   0.838  10.572 -0.0154 -1.5231 -0.5535
 3152SOL     OW20914   2.812   0.948   2.959  0.4410 -0.2287  0.5349
 3152SOL    HW120915   2.903   0.925   2.980  0.9710 -0.4391 -2.0099
 3152SOL    HW220916   2.765   0.917   3.036  0.3319 -0.2503  0.4598
 3153SOL     OW20917   3.449   1.147   4.828  0.1931  0.0118  0.0854
 3153SOL    HW120918   3.508   1.123   4.756  0.8457 -0.7773  0.8844
 3153SOL    HW220919   3.366   1.132   4.782 -0.5031  1.2732  0.9356
 3154SOL     OW20920   0.133   4.322  13.376  0.3816  0.0031 -0.4985
 3154SOL    HW120921   0.188   4.244  13.368  0.7651  0.2518 -0.3308
 3154SOL    HW220922   0.202   4.388  13.385 -0.0020  0.2400  0.8038
 3155SOL     OW20923   2.031   3.246   6.754  0.0665  0.2798 -0.4040
 3155SOL    HW120924   2.021   3.280   6.843  0.0687  3.5909 -1.7053
 3155SOL    HW220925   1.979   3.304   6.700 -2.5460 -1.5662  0.1339
 3156SOL     OW20926   0.956   2.552  14.627 -0.0970 -0.3227 -0.3575
 3156SOL    HW120927   1.045   2.564  14.595 -0.4260 -1.1081 -1.5984
 3156SOL    HW220928   0.959   2.501  14.707  3.2024 -1.7432 -1.3916
 3157SOL     OW20929   1.063   2.572   7.523  0.2785 -0.1415  0.2640
 3157SOL    HW120930   1.066   2.493   7.470  0.2427 -2.0970  3.1680
 3157SOL    HW220931   0.998   2.624   7.475  0.6315 -0.2091 -0.2880
 3158SOL     OW20932   2.541   0.824   9.104 -0.2683 -0.3048 -0.0003
 3158SOL    HW120933   2.471   0.764   9.080 -1.9109  1.5495  0.0811
 3158SOL    HW220934   2.617   0.768   9.116  0.0502  0.3806  1.1869
 3159SOL     OW20935   1.297   3.956   6.593  0.4330 -0.0134 -0.2165
 3159SOL    HW120936   1.283   4.017   6.521  0.8267 -0.5644 -0.7606
 3159SOL    HW220937   1.249   4.000   6.663  0.5893  4.7205 -3.0808
 3160SOL     OW20938   2.914   4.134  11.039  0.9993 -0.1749  0.5318
 3160SOL    HW120939   2.852   4.134  11.112  0.2493 -0.4157 -0.1158
 3160SOL    HW220940   2.889   4.214  10.993  0.1461 -0.1128  1.0966
 3161SOL     OW20941   1.457   2.312   6.355 -0.4365 -0.0761 -0.3893
 3161SOL    HW120942   1.517   2.293   6.427 -0.7068  0.0058 -0.1414
 3161SOL    HW220943   1.476   2.400   6.324  0.1411  1.1598  3.5287
 3162SOL     OW20944   1.936   1.439   9.008 -0.2854  0.0868  0.1384
 3162SOL    HW120945   1.900   1.360   9.049 -0.3099  0.2176  0.3728
 3162SOL    HW220946   1.855   1.490   9.000 -0.7408 -0.6037  0.3693
 3163SOL     OW20947   4.650   4.375   3.159 -0.3725 -0.3649  0.0441
 3163SOL    HW120948   4.691   4.411   3.081 -2.1286  0.2826 -0.5696
 3163SOL    HW220949   4.655   4.281   3.139 -1.7521 -0.2800 -0.7276
 3164SOL     OW20950   0.781   1.704   8.236 -0.4791 -0.0244 -0.1338
 3164SOL    HW120951   0.875   1.699   8.222 -0.4326  0.2354  0.0848
 3164SOL    HW220952   0.760   1.737   8.149  0.4982  1.0584  0.0431
 3165SOL     OW20953   4.100   2.708   6.084 -0.6798  0.4009 -0.0475
 3165SOL    HW120954   4.082   2.765   6.159 -1.5095  2.1813 -1.6045
 3165SOL    HW220955   4.079   2.625   6.127 -1.9020  1.1413  0.7885
 3166SOL     OW20956   0.468   3.939   1.249 -0.2004  0.1274 -0.3847
 3166SOL    HW120957   0.519   3.931   1.330  0.6851  0.8199 -0.8730
 3166SOL    HW220958   0.512   4.018   1.217  2.6663 -0.7999  1.2409
 3167SOL     OW20959   4.509   4.495  15.344 -0.0669  0.0009  0.3448
 3167SOL    HW120960   4.480   4.403  15.340 -0.6604  0.2315 -0.5058
 3167SOL    HW220961   4.426   4.541  15.329  0.9861  1.9218  0.4323
 3168SOL     OW20962   3.962   2.554   0.851 -0.5013  0.3426  0.2402
 3168SOL    HW120963   3.968   2.644   0.884  0.5868 -0.2046  1.5281
 3168SOL    HW220964   3.911   2.577   0.774  0.0153  0.2440 -0.1278
 3169SOL     OW20965   2.329   0.953  14.039  0.1147 -0.1750 -0.5439
 3169SOL    HW120966   2.411   0.981  13.998  0.3221  0.5153  0.3503
 3169SOL    HW220967   2.260   1.012  14.012 -1.8850 -2.4882 -0.4942
 3170SOL     OW20968   2.154   0.399  15.798  0.4447 -0.2048  0.2437
 3170SOL    HW120969   2.187   0.346  15.725  0.0212 -0.2887  0.1132
 3170SOL    HW220970   2.229   0.399  15.858  0.9535 -0.2993 -0.3951
 3171SOL     OW20971   1.067   2.210  16.966  0.1973  0.1825 -0.0060
 3171SOL    HW120972   1.019   2.135  16.930 -0.7690  1.0840 -0.6181
 3171SOL    HW220973   1.154   2.173  16.952 -0.4843 -2.1123  1.7476
 3172SOL     OW20974   2.693   2.299  13.651 -0.4230 -0.5136  0.1450
 3172SOL    HW120975   2.709   2.225  13.709 -0.5608  0.3340  1.2785
 3172SOL    HW220976   2.688   2.367  13.719  1.5543  0.2803 -0.4907
 3173SOL     OW20977   4.713   4.349  13.771  0.3053 -0.0880 -0.1516
 3173SOL    HW120978   0.013   4.430  13.724 -0.1651  0.4015  0.4876
 3173SOL    HW220979   4.672   4.294  13.705  1.5322 -0.9042 -0.2228
 3174SOL     OW20980   4.269   0.362   2.377 -0.3546  0.3959 -0.2907
 3174SOL    HW120981   4.351   0.351   2.329 -0.2665 -0.9155  0.1476
 3174SOL    HW220982   4.284   0.289   2.438 -1.4743 -1.3331 -2.0692
 3175SOL     OW20983   0.653   0.616   4.299  0.0427  0.1419  0.9133
 3175SOL    HW120984   0.702   0.554   4.245 -2.3827 -0.2799 -0.7900
 3175SOL    HW220985   0.704   0.697   4.296  1.1084 -0.5613  0.1257
 3176SOL     OW20986   0.133   1.918  14.270 -0.2418 -0.2949 -0.3594
 3176SOL    HW120987   0.147   2.008  14.241  0.0105  0.2406  1.4083
 3176SOL    HW220988   0.221   1.884  14.261  0.2498  0.4874  1.5142
 3177SOL     OW20989   3.890   3.508   6.283 -0.3111 -0.2034  0.7996
 3177SOL    HW120990   3.942   3.588   6.276 -2.9785  1.3768 -0.8706
 3177SOL    HW220991   3.861   3.491   6.194  2.4952 -1.7405  0.1697
 3178SOL     OW20992   3.924   0.942  14.019 -0.0442 -0.0467 -0.0204
 3178SOL    HW120993   3.861   0.977  14.083  0.6804 -0.6027  0.9913
 3178SOL    HW220994   3.919   0.848  14.031 -0.0109 -0.1345 -0.6986
 3179SOL     OW20995   4.580   4.566   5.208 -0.1695  0.0520 -0.4386
 3179SOL    HW120996   4.633   4.572   5.287 -0.2012  4.0339 -0.6883
 3179SOL    HW220997   4.486   4.565   5.226 -0.5318  1.8151 -2.1926
 3180SOL     OW20998   2.987   3.037   3.150 -0.0195 -0.0805 -0.1998
 3180SOL    HW120999   3.010   3.120   3.108  1.3600 -1.1379 -1.5555
 3180SOL    HW221000   3.074   2.997   3.157 -0.9685 -2.1200 -0.2027
 3181SOL     OW21001   1.761   4.353  16.928  0.6515  0.1162  0.2241
 3181SOL    HW121002   1.795   4.340  16.839 -0.9404  0.6842 -0.4708
 3181SOL    HW221003   1.673   4.317  16.916  0.3667  1.2003 -1.0169
 3182SOL     OW21004   0.035   2.502   9.844  0.2626  0.5662  0.0936
 3182SOL    HW121005   0.106   2.516   9.781  0.3423  1.0647  0.2986
 3182SOL    HW221006   0.013   2.409   9.840  2.8608  0.0411 -2.0957
 3183SOL     OW21007   3.117   1.182   8.580  0.2838  0.0380  0.4258
 3183SOL    HW121008   3.073   1.113   8.630  1.5482  0.4256  2.0562
 3183SOL    HW221009   3.193   1.198   8.635  1.0722 -2.8061  0.1371
 3184SOL     OW21010   1.663   4.190   4.660  0.2498  0.2843  0.0089
 3184SOL    HW121011   1.570   4.165   4.661  0.2012  0.4731  0.1433
 3184SOL    HW221012   1.707   4.127   4.603  1.2271 -0.4599  1.5763
 3185SOL     OW21013   0.887   3.097  15.490  0.1215 -0.1776 -0.1144
 3185SOL    HW121014   0.867   3.149  15.413  1.4420 -1.3008 -1.2071
 3185SOL    HW221015   0.834   3.022  15.460 -2.4729  0.6100  2.4641
 3186SOL     OW21016   2.229   0.988   9.243  0.2774  0.5259  0.0737
 3186SOL    HW121017   2.316   0.977   9.279  0.0193  0.3521  0.6460
 3186SOL    HW221018   2.201   1.050   9.310  1.3421  1.3847 -0.2792
 3187SOL     OW21019   4.510   4.704   2.888  0.1018 -0.4518 -0.2543
 3187SOL    HW121020   4.594   0.027   2.904 -0.3260  0.0373  0.6240
 3187SOL    HW221021   4.468   0.061   2.849 -0.2862  0.7573  2.6181
 3188SOL     OW21022   0.091   3.650   8.172 -0.0097  0.4594 -0.0853
 3188SOL    HW121023   0.004   3.664   8.209 -0.4852 -1.0017 -0.6783
 3188SOL    HW221024   0.070   3.614   8.087 -2.6216  0.4691  0.5515
 3189SOL     OW21025   4.608   2.741   0.250  0.0578 -0.3329 -0.6611
 3189SOL    HW121026   4.647   2.735   0.337  0.6204  1.6349 -0.7647
 3189SOL    HW221027   4.621   2.650   0.226  0.5651 -0.0709 -1.3769
 3190SOL     OW21028   3.569   3.674   4.909  0.0761  0.1652 -0.1700
 3190SOL    HW121029   3.513   3.602   4.936 -1.2079  0.5634 -1.7691
 3190SOL    HW221030   3.504   3.725   4.861  0.1215  0.1523 -0.2460
 3191SOL     OW21031   2.786   0.122   8.131 -0.2390  0.6365 -0.2238
 3191SOL    HW121032   2.851   0.134   8.201  1.2082  1.6143 -1.7250
 3191SOL    HW221033   2.777   0.216   8.115  1.1506  0.7782 -0.2299
 3192SOL     OW21034   2.690   4.009   4.093 -0.1519 -0.0704 -0.0031
 3192SOL    HW121035   2.728   3.976   4.174  0.4449 -0.6305 -0.5192
 3192SOL    HW221036   2.595   4.002   4.103 -0.2791  1.4593 -0.1630
 3193SOL     OW21037   2.779   4.460   7.449 -0.1073 -0.0810 -0.5959
 3193SOL    HW121038   2.716   4.407   7.401  0.8353 -1.3827 -0.3966
 3193SOL    HW221039   2.815   4.400   7.514  0.4853  0.1087 -0.7432
 3194SOL     OW21040   1.390   0.533   0.672 -0.2823 -0.1816 -0.1434
 3194SOL    HW121041   1.380   0.445   0.710  0.7291 -0.4711 -0.5247
 3194SOL    HW221042   1.330   0.593   0.714  1.9089  0.8636  1.5223
 3195SOL     OW21043   1.698   4.334   4.002  0.2831  0.4155 -0.9523
 3195SOL    HW121044   1.608   4.344   3.971 -0.2580 -0.9017  0.1932
 3195SOL    HW221045   1.694   4.393   4.077  1.2616 -0.9436  0.1695
 3196SOL     OW21046   1.037   0.388   9.159  0.2675  0.3844  0.0667
 3196SOL    HW121047   0.975   0.439   9.107  1.5271  2.4953  0.6413
 3196SOL    HW221048   1.004   0.384   9.249  0.3253 -2.4156 -0.0348
 3197SOL     OW21049   4.070   3.672   4.509  0.0071 -0.4972 -0.2893
 3197SOL    HW121050   4.055   3.759   4.473 -0.1817 -0.3931  0.0366
 3197SOL    HW221051   4.112   3.644   4.428  2.1631  0.0144  0.6649
 3198SOL     OW21052   4.551   3.333   3.830 -0.3493 -0.7985  0.0995
 3198SOL    HW121053   4.475   3.293   3.872 -0.4599 -0.5350  0.1503
 3198SOL    HW221054   4.554   3.415   3.879 -0.5107 -0.8784  0.2474
 3199SOL     OW21055   4.535   0.653   2.742  0.2625  0.0612  0.6602
 3199SOL    HW121056   4.522   0.730   2.798  0.7136  0.5690  0.0655
 3199SOL    HW221057   4.456   0.605   2.767 -1.5170  2.7431  0.1284
 3200SOL     OW21058   4.546   2.174   4.793  0.7247  0.0613 -0.5653
 3200SOL    HW121059   4.529   2.081   4.804  2.6263 -0.2543 -0.2769
 3200SOL    HW221060   4.588   2.171   4.707  1.7515 -0.6994 -0.0343
 3201SOL     OW21061   4.719   0.095  10.323  0.0987 -0.3587 -0.7132
 3201SOL    HW121062   0.030   0.184  10.312 -1.4787  0.5413  2.1437
 3201SOL    HW221063   0.080   0.044  10.328 -1.1286 -2.2859 -0.3385
 3202SOL     OW21064   0.365   0.925   7.213 -0.0823  0.1279  0.3420
 3202SOL    HW121065   0.325   0.968   7.288 -1.2544 -0.6666  0.1765
 3202SOL    HW221066   0.444   0.977   7.199  0.9996 -1.2362  1.3698
 3203SOL     OW21067   1.183   2.349   0.322  0.1650 -0.4058  0.2690
 3203SOL    HW121068   1.221   2.313   0.242 -3.9378  1.1063 -2.3757
 3203SOL    HW221069   1.098   2.384   0.293  1.3676  1.4331 -1.0329
 3204SOL     OW21070   1.731   3.638   6.991 -0.0632  0.1319 -0.0770
 3204SOL    HW121071   1.801   3.697   7.019  0.4396  1.0068 -3.2106
 3204SOL    HW221072   1.753   3.607   6.903 -0.1314  0.8390 -0.3434
 3205SOL     OW21073   3.144   1.779   2.166 -0.4141  0.5324 -0.7310
 3205SOL    HW121074   3.150   1.684   2.177 -1.4025  0.5647  0.0795
 3205SOL    HW221075   3.144   1.804   2.258  1.2176 -1.3210 -0.2346
 3206SOL     OW21076   3.355   1.186  13.589 -0.2247  0.3914  0.5334
 3206SOL    HW121077   3.365   1.094  13.567 -2.8815  1.0091 -3.2035
 3206SOL    HW221078   3.295   1.215  13.520 -0.1518  0.9538  0.7019
 3207SOL     OW21079   3.422   3.261   0.097  0.2577  0.4746 -0.0446
 3207SOL    HW121080   3.449   3.347   0.067 -0.7380  0.6185 -0.5246
 3207SOL    HW221081   3.330   3.262   0.071  1.0758 -2.6639 -3.0577
 3208SOL     OW21082   1.521   2.298   0.271 -0.3018 -0.3277  0.0989
 3208SOL    HW121083   1.608   2.292   0.311 -1.1437 -0.1853  1.9954
 3208SOL    HW221084   1.513   2.390   0.247  2.7128  0.1299  0.8536
 3209SOL     OW21085   4.082   3.480   6.657 -0.0643 -0.0062 -0.5454
 3209SOL    HW121086   4.102   3.464   6.749  1.3502 -1.8091 -1.1597
 3209SOL    HW221087   4.056   3.572   6.659  0.4095  0.1133  0.2438
 3210SOL     OW21088   2.624   0.971   5.620  0.0925  0.1117  0.0489
 3210SOL    HW121089   2.679   0.893   5.626 -0.7902 -0.6354 -1.5655
 3210SOL    HW221090   2.546   0.939   5.666 -0.4393 -0.7496 -1.4154
 3211SOL     OW21091   2.837   1.447   4.804  0.0881  0.1706  0.0587
 3211SOL    HW121092   2.792   1.434   4.887 -2.1353  0.9714 -1.0163
 3211SOL    HW221093   2.873   1.359   4.797 -0.8393 -0.2338  0.2666
 3212SOL     OW21094   2.770   1.768  10.221 -0.4582  0.2416  0.8778
 3212SOL    HW121095   2.747   1.689  10.269  1.7969 -1.6606 -1.1905
 3212SOL    HW221096   2.686   1.779  10.177 -1.4129 -1.5917  2.2157
 3213SOL     OW21097   2.408   4.125  16.782  0.6078 -0.1279  0.2839
 3213SOL    HW121098   2.453   4.205  16.810 -3.0138  2.3348 -0.8214
 3213SOL    HW221099   2.426   4.075  16.861  0.6921 -3.4594 -1.8341
 3214SOL     OW21100   1.656   3.020   6.174  0.3182  0.0306  0.6563
 3214SOL    HW121101   1.570   3.019   6.216 -0.4493 -4.4979 -0.9398
 3214SOL    HW221102   1.653   3.110   6.143 -2.1568 -1.4238 -3.3775
 3215SOL     OW21103   3.526   2.236   0.221 -0.0254  0.0372 -0.5259
 3215SOL    HW121104   3.570   2.180   0.285 -3.2402 -2.1559 -0.1985
 3215SOL    HW221105   3.565   2.200   0.141  1.5770 -0.7163  0.6044
 3216SOL     OW21106   4.153   0.238   7.037 -0.0205  0.0393  0.0933
 3216SOL    HW121107   4.073   0.202   7.074 -1.1164  1.7328 -0.6066
 3216SOL    HW221108   4.176   0.170   6.974  1.8360 -0.0423  0.8537
 3217SOL     OW21109   2.364   2.014   8.818 -0.3409 -0.3921  0.4652
 3217SOL    HW121110   2.313   2.067   8.757  1.7626 -0.3694 -1.2720
 3217SOL    HW221111   2.335   2.051   8.901 -1.4077  0.4113 -0.2554
 3218SOL     OW21112   3.072   2.768   3.449  0.1129 -0.3951  0.3591
 3218SOL    HW121113   3.152   2.798   3.491  0.1762  0.8155 -0.6078
 3218SOL    HW221114   3.038   2.708   3.515 -1.0050 -1.6018 -1.3147
 3219SOL     OW21115   1.176   3.724  11.839 -0.6074  0.3239  0.7974
 3219SOL    HW121116   1.109   3.674  11.887 -0.5788 -1.5545 -1.1319
 3219SOL    HW221117   1.256   3.674  11.856 -0.9675 -0.6854 -0.5323
 3220SOL     OW21118   2.933   0.981  13.689 -0.4967 -0.1061  0.6489
 3220SOL    HW121119   2.996   0.996  13.759  0.7396  2.2142 -0.9780
 3220SOL    HW221120   2.986   0.930  13.628  0.4839  1.6044  0.0868
 3221SOL     OW21121   2.978   1.974   5.211 -0.0690  0.2384  0.1929
 3221SOL    HW121122   2.967   1.938   5.123 -0.1158 -1.4433  0.8834
 3221SOL    HW221123   3.072   1.984   5.225  0.0782  0.1353 -0.7367
 3222SOL     OW21124   4.290   0.121  15.030  0.1417  0.6730 -0.6748
 3222SOL    HW121125   4.355   0.068  14.984  1.2897  1.3062  0.2208
 3222SOL    HW221126   4.217   0.091  14.976 -0.5759 -1.9084  1.7509
 3223SOL     OW21127   2.428   0.122   3.601  0.4267 -0.0330 -0.8544
 3223SOL    HW121128   2.354   0.134   3.540 -0.7430  0.7687  0.7360
 3223SOL    HW221129   2.475   0.048   3.562 -0.7593 -1.4299  0.3654
 3224SOL     OW21130   4.276   4.505   6.809 -0.0270 -0.1850 -0.3651
 3224SOL    HW121131   4.349   4.450   6.837  1.0802  1.0247 -0.8755
 3224SOL    HW221132   4.216   4.438   6.778 -1.3521  1.9795 -2.4009
 3225SOL     OW21133   2.490   0.273   8.060 -0.2252 -0.5924 -0.0374
 3225SOL    HW121134   2.485   0.279   7.964 -1.7695 -0.9137  0.0207
 3225SOL    HW221135   2.580   0.303   8.066 -0.9028  1.5383 -0.6547
 3226SOL     OW21136   2.397   0.020   5.819  0.5308  0.0666 -0.5574
 3226SOL    HW121137   2.339   0.092   5.843 -0.9005 -1.1705 -0.2921
 3226SOL    HW221138   2.350   4.692   5.751  0.4071 -3.1982  1.8718
 3227SOL     OW21139   2.180   1.937  14.541 -0.2045 -0.0955 -0.7265
 3227SOL    HW121140   2.161   1.851  14.504  0.9373  0.3526 -2.3715
 3227SOL    HW221141   2.154   1.917  14.631 -2.7516 -0.2287 -1.4813
 3228SOL     OW21142   3.443   1.946   7.348 -0.0257 -0.6847 -0.4595
 3228SOL    HW121143   3.436   1.926   7.441  0.1659  0.3699 -0.2136
 3228SOL    HW221144   3.532   1.982   7.348 -0.5512  0.6904  3.7502
 3229SOL     OW21145   2.387   4.058  10.914  0.2799  0.4759  0.1650
 3229SOL    HW121146   2.324   4.024  10.851  0.2482  1.0123 -0.0969
 3229SOL    HW221147   2.363   4.001  10.987 -0.0328  0.1426 -0.1994
 3230SOL     OW21148   4.653   3.307   2.329  0.2356  0.5051 -0.3985
 3230SOL    HW121149   4.604   3.389   2.324 -0.7910 -0.0595  0.1618
 3230SOL    HW221150   4.687   3.315   2.418  0.7027  1.8638 -0.7101
 3231SOL     OW21151   4.039   2.940   3.621 -0.2390  0.3107  0.0923
 3231SOL    HW121152   3.998   2.970   3.540  0.8180 -1.3213 -1.0500
 3231SOL    HW221153   3.985   2.982   3.687 -0.4076 -1.7718  1.2986
 3232SOL     OW21154   0.805   3.289   8.676  0.1111  0.1230  0.1908
 3232SOL    HW121155   0.792   3.226   8.746 -0.2727  0.5772  0.5322
 3232SOL    HW221156   0.840   3.363   8.726  1.0840  0.5433 -1.0999
 3233SOL     OW21157   3.659   1.308   4.438  0.6901 -0.3206 -0.3008
 3233SOL    HW121158   3.690   1.255   4.365  0.8137 -1.6583  0.7298
 3233SOL    HW221159   3.718   1.384   4.435 -1.0989  1.0613 -0.6597
 3234SOL     OW21160   4.649   1.561   4.451  0.0551  0.5389 -0.4721
 3234SOL    HW121161   4.590   1.486   4.440  0.6982  0.0456 -0.5955
 3234SOL    HW221162   4.715   1.544   4.384  0.0976  0.7699 -0.4888
 3235SOL     OW21163   0.316   3.419  12.584  0.6354  0.0544  0.4203
 3235SOL    HW121164   0.250   3.355  12.614 -0.9469  1.2083 -0.5757
 3235SOL    HW221165   0.369   3.366  12.524 -0.4047 -0.4640 -0.0546
 3236SOL     OW21166   1.516   1.465   7.207  0.2157 -0.3730  0.3072
 3236SOL    HW121167   1.510   1.406   7.282  0.4350 -1.0183 -0.1753
 3236SOL    HW221168   1.570   1.537   7.239  0.7053 -0.7639  0.3739
 3237SOL     OW21169   0.789   2.603  15.449 -0.1017 -0.3429 -0.1106
 3237SOL    HW121170   0.732   2.680  15.440 -1.3853 -1.0024  2.1901
 3237SOL    HW221171   0.811   2.606  15.542  0.6668  0.9781 -0.3496
 3238SOL     OW21172   4.065   3.958   3.874  0.0739 -0.2406  0.5098
 3238SOL    HW121173   4.083   3.885   3.934  1.4079 -0.3474 -0.0320
 3238SOL    HW221174   4.024   4.026   3.928  0.0655  0.3581 -0.2486
 3239SOL     OW21175   0.429   4.566   0.675  0.9569  0.0718 -0.3707
 3239SOL    HW121176   0.458   4.650   0.710 -0.4093  1.0248 -1.5597
 3239SOL    HW221177   0.491   4.509   0.723 -1.9840 -1.6476  1.3876
 3240SOL     OW21178   1.934   4.689  15.764  0.1371 -0.0725  0.7136
 3240SOL    HW121179   1.978   0.036  15.816  0.9820  0.3134 -0.5198
 3240SOL    HW221180   1.892   4.638  15.834 -0.0461 -1.4683 -0.4259
 3241SOL     OW21181   1.034   0.190   5.454  0.7490  0.0960  0.4023
 3241SOL    HW121182   1.016   0.143   5.536  2.9739  0.7404  1.2749
 3241SOL    HW221183   1.083   0.270   5.474  0.1277  1.1791 -2.4210
 3242SOL     OW21184   2.170   4.196   5.084  0.0966 -0.2070 -0.3442
 3242SOL    HW121185   2.145   4.288   5.080  2.7357  0.5409  0.2140
 3242SOL    HW221186   2.086   4.156   5.106 -0.1291 -0.1073 -1.0384
 3243SOL     OW21187   2.012   0.064   8.107  0.3342  0.6547 -0.1143
 3243SOL    HW121188   1.933   0.074   8.054  1.7472 -1.6026 -2.6951
 3243SOL    HW221189   2.014   4.689   8.103  2.1126  0.7584 -1.8359
 3244SOL     OW21190   4.311   0.826   1.599  0.2130  0.1520  0.3793
 3244SOL    HW121191   4.282   0.856   1.513  0.4689 -1.3779 -0.2294
 3244SOL    HW221192   4.368   0.898   1.628  2.0060 -0.4526 -1.6223
 3245SOL     OW21193   2.734   4.030   0.438 -0.7735  0.2341 -0.3322
 3245SOL    HW121194   2.642   4.019   0.463  0.0122 -2.9921  1.1283
 3245SOL    HW221195   2.734   3.989   0.352 -0.2039  3.0858 -1.6783
 3246SOL     OW21196   2.214   0.611  12.035  0.4635  0.5960 -0.2410
 3246SOL    HW121197   2.238   0.618  11.942  1.6246  1.8490  0.1437
 3246SOL    HW221198   2.240   0.695  12.073 -1.4192  0.1137  2.1247
 3247SOL     OW21199   3.452   1.193  11.636 -0.0932  0.2964 -0.5617
 3247SOL    HW121200   3.374   1.146  11.608  0.0820 -0.0969 -0.3806
 3247SOL    HW221201   3.513   1.132  11.596 -0.2660 -1.0999  1.3324
 3248SOL     OW21202   4.238   0.105   3.660 -0.1047 -0.4983 -0.1622
 3248SOL    HW121203   4.216   0.197   3.645 -1.6396 -0.8883 -0.2422
 3248SOL    HW221204   4.216   0.061   3.578  0.1260  1.0309 -1.0491
 3249SOL     OW21205   3.578   3.740   5.776  0.9262 -0.4274  0.1004
 3249SOL    HW121206   3.535   3.655   5.789  0.0332  0.1190  0.6995
 3249SOL    HW221207   3.510   3.799   5.745  0.6073 -0.3013  1.0310
 3250SOL     OW21208   4.720   1.378  13.521 -0.2714  0.0643 -0.0456
 3250SOL    HW121209   0.047   1.458  13.542 -0.2457  0.4652 -1.6408
 3250SOL    HW221210   4.635   1.405  13.555 -0.0287 -0.5115  1.0125
 3251SOL     OW21211   1.588   3.878   7.583 -0.8150  0.2242 -0.3659
 3251SOL    HW121212   1.554   3.839   7.502 -0.6884 -1.1720  0.2574
 3251SOL    HW221213   1.680   3.851   7.573 -0.3846  0.9182  1.9011
 3252SOL     OW21214   2.313   4.539   7.960 -0.6809  0.6160  0.3215
 3252SOL    HW121215   2.355   4.456   7.935 -0.9828  0.7982 -0.8163
 3252SOL    HW221216   2.327   4.540   8.054  1.7675 -1.1681  0.0020
 3253SOL     OW21217   3.878   2.282   0.066  0.1221  0.2100 -0.0592
 3253SOL    HW121218   3.904   2.291   0.157 -0.9780 -0.3652  0.3092
 3253SOL    HW221219   3.957   2.244   0.029  0.0728  0.4880 -0.4592
 3254SOL     OW21220   2.918   1.170   3.280  0.0503  0.3841 -0.0639
 3254SOL    HW121221   2.862   1.224   3.225  0.8298  0.4807 -0.7726
 3254SOL    HW221222   3.005   1.207   3.265 -0.1504  0.7811 -0.2284
 3255SOL     OW21223   1.988   0.051   7.359 -0.1587 -0.0471 -0.5240
 3255SOL    HW121224   1.982   0.120   7.293 -0.4209  1.2468  0.8661
 3255SOL    HW221225   2.081   0.062   7.377  0.2383 -2.0336 -1.2578
 3256SOL     OW21226   1.764   0.912  13.557  0.2812  0.2953 -0.1595
 3256SOL    HW121227   1.829   0.947  13.619  1.1267  0.1409 -0.9790
 3256SOL    HW221228   1.801   0.832  13.521 -2.6907 -0.6835 -1.0379
 3257SOL     OW21229   2.984   3.245   6.137 -0.1586 -0.2099  0.0179
 3257SOL    HW121230   2.999   3.336   6.112  1.4454 -1.3346 -3.2057
 3257SOL    HW221231   2.943   3.246   6.223  0.5445  0.9321  0.3336
 3258SOL     OW21232   4.035   3.137   0.494 -0.1312 -0.0971  0.0807
 3258SOL    HW121233   4.080   3.215   0.528  3.1591 -1.5691 -0.8827
 3258SOL    HW221234   4.100   3.067   0.501 -1.9665 -1.8275 -0.3990
 3259SOL     OW21235   1.348   3.274   1.097  0.1037  0.2551  0.5187
 3259SOL    HW121236   1.426   3.329   1.091  0.0241  0.4244  1.0148
 3259SOL    HW221237   1.285   3.346   1.107  0.1620  0.3194  0.4271
 3260SOL     OW21238   3.389   0.569   7.192  0.1011 -0.2019  0.0032
 3260SOL    HW121239   3.465   0.534   7.145  0.4626  1.1133 -0.3943
 3260SOL    HW221240   3.373   0.495   7.251 -3.3703  0.8795  0.4122
 3261SOL     OW21241   2.225   0.327   5.350 -0.3706 -0.1085  0.1699
 3261SOL    HW121242   2.299   0.267   5.352 -0.4730 -0.2281  0.4084
 3261SOL    HW221243   2.166   0.297   5.419 -0.8073  1.2572  0.3905
 3262SOL     OW21244   0.106   0.941  11.528  0.0846 -0.1727  0.1648
 3262SOL    HW121245   0.123   0.977  11.441 -0.4929  0.0048  0.1200
 3262SOL    HW221246   0.012   0.960  11.524 -0.1251 -1.2688  0.0023
 3263SOL     OW21247   3.427   3.358   5.379  0.0980  0.0450 -0.3164
 3263SOL    HW121248   3.333   3.345   5.392 -0.1982  1.8016 -0.6590
 3263SOL    HW221249   3.464   3.292   5.438  2.4003  0.8334 -0.8981
 3264SOL     OW21250   1.942   3.877   5.373 -0.2881 -0.7813 -0.2806
 3264SOL    HW121251   1.851   3.856   5.394 -0.4344  1.9922  1.7430
 3264SOL    HW221252   1.959   3.793   5.329 -1.3039 -1.3248  0.3694
 3265SOL     OW21253   2.142   2.743   8.750  0.3741  0.2810  0.4043
 3265SOL    HW121254   2.189   2.763   8.669 -0.2400  0.3801  0.0735
 3265SOL    HW221255   2.189   2.808   8.803 -0.3049  0.4993  0.7379
 3266SOL     OW21256   0.484   3.942  14.460 -0.2474 -0.8110  0.6895
 3266SOL    HW121257   0.513   4.001  14.390 -1.1458 -0.1133  0.9073
 3266SOL    HW221258   0.489   3.859  14.413  1.1949 -0.1039 -0.4119
 3267SOL     OW21259   2.679   4.174   7.290 -0.6503 -0.1824  1.0979
 3267SOL    HW121260   2.584   4.185   7.277 -0.4761  2.7389  2.2532
 3267SOL    HW221261   2.683   4.134   7.377  1.1970 -0.8284  0.7026
 3268SOL     OW21262   3.426   1.600  13.863  0.1528 -0.3157  0.6442
 3268SOL    HW121263   3.461   1.543  13.931  0.2740 -1.4623 -0.3689
 3268SOL    HW221264   3.359   1.540  13.831 -0.1680 -0.7238  2.0897
 3269SOL     OW21265   4.280   2.819   8.716  0.1840  0.0248  0.0615
 3269SOL    HW121266   4.186   2.825   8.730  0.5568  2.8324  1.3280
 3269SOL    HW221267   4.301   2.730   8.686 -0.6050  0.0442 -0.5481
 3270SOL     OW21268   1.170   2.388   7.176 -0.5547  0.0650  0.1403
 3270SOL    HW121269   1.101   2.352   7.120  0.5050  0.2227 -1.2719
 3270SOL    HW221270   1.249   2.364   7.128 -1.4467 -2.1587 -0.1795
 3271SOL     OW21271   0.740   3.127   3.030 -0.2701  0.0002 -0.3333
 3271SOL    HW121272   0.835   3.137   3.030  0.2040 -4.2517  3.0255
 3271SOL    HW221273   0.709   3.197   3.087 -0.3511 -0.6199  0.3919
 3272SOL     OW21274   3.805   2.330   8.702  0.1082 -0.0375 -0.3998
 3272SOL    HW121275   3.847   2.399   8.753 -0.1219 -0.6074  0.5573
 3272SOL    HW221276   3.885   2.282   8.681 -0.5452 -0.5342 -1.7736
 3273SOL     OW21277   1.694   2.004   2.814 -0.2662  0.7114 -0.0060
 3273SOL    HW121278   1.665   2.017   2.724  1.9479  0.4322 -0.7568
 3273SOL    HW221279   1.744   1.922   2.805  2.6648  2.3234  1.6712
 3274SOL     OW21280   2.417   1.448   1.824 -0.1682  0.1370 -0.4235
 3274SOL    HW121281   2.373   1.391   1.760  0.3799  1.0333 -1.6023
 3274SOL    HW221282   2.372   1.530   1.804 -1.4450 -0.8167 -1.5153
 3275SOL     OW21283   2.131   1.485  10.603 -0.2906 -0.3849  0.3295
 3275SOL    HW121284   2.225   1.503  10.609 -0.5505  0.5970  1.5838
 3275SOL    HW221285   2.093   1.571  10.622  1.2136  0.5837 -0.9905
 3276SOL     OW21286   0.966   1.775  15.125  0.2012 -0.5029  0.1187
 3276SOL    HW121287   1.023   1.727  15.186  1.5656  1.8685  0.7312
 3276SOL    HW221288   0.896   1.712  15.110  0.8649 -1.1195 -0.4171
 3277SOL     OW21289   2.864   2.724   1.888 -0.2490  0.0020 -0.0611
 3277SOL    HW121290   2.945   2.674   1.902 -0.8521 -0.9852 -0.1299
 3277SOL    HW221291   2.802   2.676   1.942 -0.6051 -0.0894 -0.5593
 3278SOL     OW21292   4.210   3.445   5.815  0.2434  0.8868 -0.2284
 3278SOL    HW121293   4.195   3.352   5.826  1.6811  0.9775  2.4253
 3278SOL    HW221294   4.254   3.460   5.898  2.5828 -1.3860 -1.0812
 3279SOL     OW21295   4.406   2.354   6.908 -0.0138 -0.3089 -0.0478
 3279SOL    HW121296   4.336   2.305   6.864 -0.2324  1.0003 -1.1598
 3279SOL    HW221297   4.356   2.421   6.955 -0.2236 -0.6383  0.1962
 3280SOL     OW21298   4.338   4.519  14.811 -0.3346  0.0767  0.1050
 3280SOL    HW121299   4.346   4.560  14.898 -1.3141  0.9299 -0.2028
 3280SOL    HW221300   4.310   4.437  14.851 -0.7693 -0.6102 -1.6383
 3281SOL     OW21301   2.648   0.390  13.757  0.6059 -0.4495 -0.1811
 3281SOL    HW121302   2.609   0.459  13.810  1.1339  0.3430 -0.8282
 3281SOL    HW221303   2.738   0.387  13.788  0.0963  0.6642  1.4004
 3282SOL     OW21304   4.395   3.104   7.628  0.2336 -0.3715  0.1720
 3282SOL    HW121305   4.479   3.084   7.585  0.1045 -2.0355  0.7043
 3282SOL    HW221306   4.383   3.198   7.614 -1.4470 -0.8291 -1.2810
 3283SOL     OW21307   2.739   2.511  14.458  0.3781 -0.0119  0.3331
 3283SOL    HW121308   2.680   2.514  14.383 -0.4856  0.3949  1.0185
 3283SOL    HW221309   2.772   2.601  14.464 -0.9044  0.5327 -0.7683
 3284SOL     OW21310   3.621   2.035   0.400 -0.1018 -0.1456  0.0379
 3284SOL    HW121311   3.675   2.037   0.479  1.1883  0.2391 -0.8629
 3284SOL    HW221312   3.658   1.952   0.368  0.3816 -0.4445  1.3603
 3285SOL     OW21313   2.565   3.066   1.649 -0.2418 -0.1771  0.0966
 3285SOL    HW121314   2.654   3.046   1.620 -0.8713 -1.6627 -0.8003
 3285SOL    HW221315   2.585   3.097   1.737 -0.6292  3.1520 -0.9690
 3286SOL     OW21316   0.685   2.259   2.814 -0.0037 -0.0872 -0.4092
 3286SOL    HW121317   0.643   2.202   2.878  0.8036  0.1583  0.3406
 3286SOL    HW221318   0.745   2.199   2.771  0.9613 -0.2508  1.1537
 3287SOL     OW21319   2.907   2.085   9.134 -0.1190 -0.5897  0.2969
 3287SOL    HW121320   2.853   2.146   9.084  0.6080 -0.5815 -0.4904
 3287SOL    HW221321   2.985   2.139   9.147  0.1795 -1.0230  0.3228
 3288SOL     OW21322   3.587   0.670  15.199 -0.8259 -0.0254  0.2101
 3288SOL    HW121323   3.652   0.724  15.245 -0.0786 -0.4576 -0.3529
 3288SOL    HW221324   3.509   0.711  15.237 -0.0242  0.3674  1.4459
 3289SOL     OW21325   2.464   2.303   3.560  0.2303  0.1851 -0.9379
 3289SOL    HW121326   2.533   2.246   3.594 -0.9516  0.4917  2.0381
 3289SOL    HW221327   2.451   2.261   3.475 -0.4190  0.2603 -0.8797
 3290SOL     OW21328   0.255   3.092  11.920  0.1685 -0.2744  0.4229
 3290SOL    HW121329   0.254   2.996  11.924 -1.0203 -0.3128 -0.9043
 3290SOL    HW221330   0.246   3.099  11.825  1.7674  1.1661  0.3943
 3291SOL     OW21331   0.978   2.744   7.104 -0.0308  0.9170  0.3655
 3291SOL    HW121332   1.052   2.684   7.103 -0.9332 -0.2183  1.9625
 3291SOL    HW221333   0.926   2.724   7.026 -2.0929 -0.7932  2.1878
 3292SOL     OW21334   3.100   4.135   4.428 -0.2769 -0.2550  0.5758
 3292SOL    HW121335   3.015   4.096   4.406 -0.6603  1.5461 -1.1027
 3292SOL    HW221336   3.144   4.146   4.344 -1.3138 -0.6602 -0.0249
 3293SOL     OW21337   0.489   2.488   7.412 -0.0698  0.6454  0.3147
 3293SOL    HW121338   0.405   2.490   7.365  0.2689 -0.5814 -0.3551
 3293SOL    HW221339   0.456   2.505   7.500  0.8922 -1.9760  1.1988
 3294SOL     OW21340   4.325   0.963   2.080  0.3606 -0.2302  0.5624
 3294SOL    HW121341   4.321   0.896   2.148 -3.5147 -1.0485 -0.4389
 3294SOL    HW221342   4.230   0.963   2.067  0.7643 -1.4862 -2.2736
 3295SOL     OW21343   2.751   4.066   5.649  0.2316  0.6337 -0.0676
 3295SOL    HW121344   2.784   4.154   5.629  1.9050  0.3710  1.6057
 3295SOL    HW221345   2.830   4.013   5.656 -0.8100 -1.3381 -2.9594
 3296SOL     OW21346   1.321   0.656  12.202 -0.6384  0.0039 -0.5562
 3296SOL    HW121347   1.351   0.567  12.217  0.5014  0.6394  1.0472
 3296SOL    HW221348   1.400   0.701  12.170 -0.9744 -0.8903 -2.6335
 3297SOL     OW21349   1.514   4.329   0.957 -0.1099 -0.8392  0.2697
 3297SOL    HW121350   1.566   4.314   0.878  3.0771 -2.0744  2.5365
 3297SOL    HW221351   1.544   4.417   0.978 -2.0442 -0.3826  1.0668
 3298SOL     OW21352   2.462   0.500   1.485  0.2529  0.4284  0.2272
 3298SOL    HW121353   2.536   0.558   1.470  0.7226 -1.1760 -3.4228
 3298SOL    HW221354   2.512   0.419   1.483 -0.8364 -0.2092 -1.4817
 3299SOL     OW21355   0.094   3.125  11.644 -0.1579 -0.2599 -0.2638
 3299SOL    HW121356   0.165   3.170  11.598 -1.3166 -0.3119 -2.0813
 3299SOL    HW221357   0.031   3.189  11.677 -1.4729 -1.6892  0.0020
 3300SOL     OW21358   2.815   3.727   9.521 -0.4430  0.1842 -0.5230
 3300SOL    HW121359   2.766   3.800   9.482 -1.7228 -0.6664 -0.5251
 3300SOL    HW221360   2.862   3.778   9.587 -1.0587 -0.6516  0.5621
 3301SOL     OW21361   2.125   1.665  10.082  0.2188 -0.2484  0.3571
 3301SOL    HW121362   2.155   1.639  10.169 -0.5594 -2.0932  0.0720
 3301SOL    HW221363   2.116   1.760  10.087  0.5699 -0.1084 -1.3886
 3302SOL     OW21364   1.090   1.342   4.467  0.9588  0.0184 -0.4494
 3302SOL    HW121365   1.075   1.261   4.517 -0.3351  0.5997  0.0974
 3302SOL    HW221366   1.182   1.341   4.443  1.3647 -1.9895  1.1680
 3303SOL     OW21367   2.531   2.193  12.968 -0.3591  0.2606  0.4351
 3303SOL    HW121368   2.488   2.222  13.049 -0.8864  1.3715 -0.2406
 3303SOL    HW221369   2.460   2.152  12.918 -0.3473 -1.8057  2.0985
 3304SOL     OW21370   4.573   2.278   3.329  0.0859  0.0385  0.2396
 3304SOL    HW121371   4.533   2.357   3.293  1.0123  0.6206  0.4950
 3304SOL    HW221372   4.654   2.314   3.364  0.1572  1.2498 -1.1567
 3305SOL     OW21373   0.944   3.068   9.474 -0.2080  0.1901 -0.5607
 3305SOL    HW121374   1.019   3.010   9.458 -0.9801 -0.3733 -2.0770
 3305SOL    HW221375   0.921   3.105   9.389 -0.6978 -0.4054 -0.6935
 3306SOL     OW21376   3.043   2.055   2.855  0.1072  0.1446 -0.2343
 3306SOL    HW121377   3.097   2.113   2.801 -1.2785  1.3837 -0.2948
 3306SOL    HW221378   2.983   2.109   2.906  0.2778 -0.4511  0.6013
 3307SOL     OW21379   3.895   3.623  11.056 -0.1506  0.0690  0.3526
 3307SOL    HW121380   3.926   3.701  11.102  0.4289  0.9398 -1.5138
 3307SOL    HW221381   3.830   3.604  11.124 -2.7663  0.1977 -2.1471
 3308SOL     OW21382   3.865   0.053   3.110 -0.2016  0.0964  0.2038
 3308SOL    HW121383   3.891   0.127   3.165  2.1038 -0.3011 -0.3571
 3308SOL    HW221384   3.928   0.066   3.039 -0.2106  1.2436  0.4122
 3309SOL     OW21385   3.406   4.670   2.722 -0.1670 -0.2289 -0.8643
 3309SOL    HW121386   3.478   4.623   2.680  1.5869  2.7647 -1.1942
 3309SOL    HW221387   3.328   4.676   2.668 -0.1355 -2.5174 -1.1742
 3310SOL     OW21388   2.057   3.093   6.372  0.0307 -0.4419 -0.5168
 3310SOL    HW121389   2.124   3.158   6.396 -0.4611 -0.1670  0.0867
 3310SOL    HW221390   2.067   3.110   6.278  2.0738  0.6540 -0.1085
 3311SOL     OW21391   3.931   1.195   4.855  0.1293  0.0376 -0.1505
 3311SOL    HW121392   3.972   1.179   4.940 -4.6970 -2.1765  1.7966
 3311SOL    HW221393   3.990   1.262   4.821  0.0890  1.1474  1.9735
 3312SOL     OW21394   3.568   3.589   9.380 -0.3474  0.3079 -0.6262
 3312SOL    HW121395   3.647   3.598   9.433 -1.8583 -0.6394  1.7846
 3312SOL    HW221396   3.551   3.495   9.379 -0.3839  0.3015  0.5905
 3313SOL     OW21397   1.392   3.582  10.401 -0.8499  0.0530 -0.3682
 3313SOL    HW121398   1.367   3.493  10.376  3.7831 -1.0760 -1.0508
 3313SOL    HW221399   1.403   3.625  10.317 -0.6347  2.6097  0.9792
 3314SOL     OW21400   3.870   1.152  13.480 -0.1862  0.3902  0.3212
 3314SOL    HW121401   3.910   1.222  13.429 -2.5294  1.0389 -0.6388
 3314SOL    HW221402   3.777   1.174  13.479 -0.5591 -1.2144 -0.8730
 3315SOL     OW21403   1.428   3.651   3.680 -0.5378  0.0787 -0.2527
 3315SOL    HW121404   1.438   3.612   3.767  0.5117 -3.5306 -2.0010
 3315SOL    HW221405   1.520   3.672   3.663 -0.7434  0.7286 -0.5827
 3316SOL     OW21406   0.131   0.252  14.820 -0.3300 -0.4866 -0.0398
 3316SOL    HW121407   0.155   0.159  14.826 -0.3619 -0.6670 -2.7815
 3316SOL    HW221408   0.172   0.276  14.737 -0.0643  0.6230  0.4154
 3317SOL     OW21409   0.956   0.800   7.232 -0.3008 -0.2196  0.4730
 3317SOL    HW121410   0.926   0.774   7.145  2.3643  0.6008 -0.6862
 3317SOL    HW221411   0.919   0.887   7.242  2.8953  1.0981  1.0323
 3318SOL     OW21412   4.191   1.356   7.988  0.5068  0.0175 -0.2451
 3318SOL    HW121413   4.224   1.267   8.002 -2.4526 -1.3841 -2.2023
 3318SOL    HW221414   4.264   1.396   7.940 -0.9165  1.4173 -1.2404
 3319SOL     OW21415   1.857   1.141   6.702 -0.1832  0.7603 -0.0906
 3319SOL    HW121416   1.934   1.161   6.756  0.4833 -0.5991 -0.5227
 3319SOL    HW221417   1.829   1.225   6.665  1.9026  1.2486 -0.6135
 3320SOL     OW21418   3.587   0.444   7.557 -0.8329 -0.1777 -0.4490
 3320SOL    HW121419   3.664   0.402   7.520 -2.2567 -2.5980 -0.6550
 3320SOL    HW221420   3.609   0.537   7.569  0.8028 -0.9671  2.5812
 3321SOL     OW21421   1.574   1.104  11.683  0.2632  0.6884  0.3092
 3321SOL    HW121422   1.635   1.136  11.617 -0.1072 -0.4553 -0.5902
 3321SOL    HW221423   1.503   1.073  11.627  0.4211  2.8209 -1.0362
 3322SOL     OW21424   3.425   1.935   8.626  0.6821  0.1468 -0.2101
 3322SOL    HW121425   3.422   1.881   8.705  0.1392  3.1776  1.8159
 3322SOL    HW221426   3.510   1.911   8.588  1.6067  2.4188  0.4163
 3323SOL     OW21427   3.094   4.440   6.643  0.4313 -0.2195  0.1772
 3323SOL    HW121428   3.069   4.367   6.700  0.0026 -1.0258 -1.0441
 3323SOL    HW221429   3.159   4.486   6.696  0.7565  1.1779 -1.4437
 3324SOL     OW21430   0.452   2.083  13.641  0.0407 -0.4211 -0.5283
 3324SOL    HW121431   0.420   2.079  13.551 -3.5550  0.5631  0.6983
 3324SOL    HW221432   0.498   2.166  13.650  0.9101 -1.0654  1.1439
 3325SOL     OW21433   0.902   1.997   8.307 -0.0060 -0.2680 -0.5160
 3325SOL    HW121434   0.974   2.049   8.272  1.6798 -1.2788  1.4714
 3325SOL    HW221435   0.945   1.926   8.355  0.3778 -1.2328 -2.2550
 3326SOL     OW21436   3.651   3.068   1.474  0.0415 -0.0688  0.0283
 3326SOL    HW121437   3.598   3.009   1.421 -0.7248  0.7386 -0.0983
 3326SOL    HW221438   3.630   3.040   1.564 -1.6162  0.1790 -0.2924
 3327SOL     OW21439   1.315   1.574   3.769 -0.1209 -0.6103 -0.2092
 3327SOL    HW121440   1.223   1.579   3.743 -0.5858  1.2900  1.8606
 3327SOL    HW221441   1.341   1.483   3.750 -1.0654 -1.4188  2.3735
 3328SOL     OW21442   1.399   1.441   7.765 -0.0561  0.5671  0.2650
 3328SOL    HW121443   1.346   1.479   7.695 -0.1673  1.1959  0.6899
 3328SOL    HW221444   1.492   1.438   7.741 -0.1445  0.2385 -0.0394
 3329SOL     OW21445   4.085   4.630  14.554  0.3214  0.5053  0.1579
 3329SOL    HW121446   3.994   4.644  14.581  0.5942 -1.1037  1.9706
 3329SOL    HW221447   4.076   4.560  14.490  2.7286  0.6297 -0.3116
 3330SOL     OW21448   1.465   0.424   8.554 -0.8711 -0.2551 -0.4686
 3330SOL    HW121449   1.392   0.485   8.560 -1.2581 -0.5371 -2.2678
 3330SOL    HW221450   1.454   0.380   8.469 -0.3191  1.2436 -1.3232
 3331SOL     OW21451   1.469   0.066   7.407  0.0294  0.4152  0.5050
 3331SOL    HW121452   1.410   0.133   7.442  0.4492  1.3330 -0.5352
 3331SOL    HW221453   1.513   0.037   7.487 -0.0125 -0.4017  0.2296
 3332SOL     OW21454   2.404   1.820   8.424 -0.7201 -0.3446 -0.4493
 3332SOL    HW121455   2.359   1.776   8.496  0.4376  0.4629  0.7718
 3332SOL    HW221456   2.345   1.895   8.412 -2.2716 -1.3129  1.1954
 3333SOL     OW21457   3.221   4.514   7.721  0.1973  0.5029  0.5652
 3333SOL    HW121458   3.234   4.587   7.782  0.2890  1.7255 -0.9399
 3333SOL    HW221459   3.242   4.565   7.643 -2.8973  0.8081 -0.0326
 3334SOL     OW21460   0.961   2.625   4.717 -0.2085  0.0474  0.0701
 3334SOL    HW121461   1.025   2.684   4.757  0.2529  0.2502 -0.9758
 3334SOL    HW221462   0.876   2.669   4.716 -0.2034 -0.0685 -3.8582
 3335SOL     OW21463   4.368   3.504   5.349 -0.2090 -0.3974 -0.5991
 3335SOL    HW121464   4.438   3.540   5.404 -0.2623  0.5994 -1.1732
 3335SOL    HW221465   4.303   3.575   5.354 -0.4873 -0.7995  1.5056
 3336SOL     OW21466   4.254   1.305  15.822 -0.0601 -0.3771 -0.1159
 3336SOL    HW121467   4.200   1.236  15.862 -0.0904 -0.0421  0.4225
 3336SOL    HW221468   4.295   1.260  15.748 -1.2004 -1.3388 -0.1687
 3337SOL     OW21469   1.052   4.263  14.714  0.1754  0.4724 -0.3998
 3337SOL    HW121470   1.002   4.293  14.789  1.4445 -0.4757  0.8203
 3337SOL    HW221471   0.991   4.194  14.689 -1.5544  2.3313 -1.2631
 3338SOL     OW21472   3.910   4.145   4.962  0.1518  0.0176 -0.0509
 3338SOL    HW121473   3.837   4.193   5.002 -0.8978 -1.1391 -0.5589
 3338SOL    HW221474   3.890   4.054   4.987 -1.1533  0.7908  1.7241
 3339SOL     OW21475   1.883   1.574   2.753  0.1196 -0.2147  0.1359
 3339SOL    HW121476   1.868   1.498   2.696 -0.5537 -0.7600  1.0346
 3339SOL    HW221477   1.878   1.527   2.836  1.6263  0.3316  0.5347
 3340SOL     OW21478   0.099   1.072   8.583 -0.1173  0.5075 -0.2931
 3340SOL    HW121479   0.077   1.139   8.647 -1.4012 -0.6927  0.5096
 3340SOL    HW221480   0.121   1.134   8.513 -1.2042  1.7189  0.4237
 3341SOL     OW21481   3.435   0.368   4.413 -0.9684 -0.2980 -0.0813
 3341SOL    HW121482   3.516   0.317   4.407  0.6186  2.3772 -0.9083
 3341SOL    HW221483   3.372   0.297   4.432  0.1102 -0.4238  3.0961
 3342SOL     OW21484   4.415   4.573  15.064 -0.0736  0.3283  0.1950
 3342SOL    HW121485   4.494   4.609  15.103 -0.0652 -1.3942  1.7609
 3342SOL    HW221486   4.359   4.577  15.142 -0.8133 -1.1227 -0.2680
 3343SOL     OW21487   3.153   0.355   3.893 -0.4195 -0.0226 -0.0515
 3343SOL    HW121488   3.089   0.300   3.939  2.4634 -2.4376  1.1046
 3343SOL    HW221489   3.128   0.328   3.805 -0.4114 -0.6490  0.1362
 3344SOL     OW21490   2.554   2.283  13.397  0.3513  0.0104 -0.0069
 3344SOL    HW121491   2.609   2.291  13.475 -1.6267  1.6104  1.2037
 3344SOL    HW221492   2.573   2.364  13.351 -0.1933 -0.3336 -0.8383
 3345SOL     OW21493   1.132   4.607   1.579 -0.4704 -0.4512 -0.2068
 3345SOL    HW121494   1.059   4.585   1.636 -0.3529  1.2424  0.6013
 3345SOL    HW221495   1.099   4.601   1.490 -0.2640  1.5827 -0.4189
 3346SOL     OW21496   3.225   4.545   3.830  0.2656 -0.2755  0.7643
 3346SOL    HW121497   3.263   4.567   3.915 -0.0322 -0.1519  0.8664
 3346SOL    HW221498   3.257   4.455   3.832  1.0462 -0.0340 -0.3795
 3347SOL     OW21499   2.580   1.912  13.571  0.2438  0.0733 -0.1937
 3347SOL    HW121500   2.517   1.982  13.552  3.5508  2.9232 -0.7718
 3347SOL    HW221501   2.525   1.835  13.581 -0.6845  1.3763  5.0309
 3348SOL     OW21502   4.403   3.917   9.044  0.6220  0.4820  0.0949
 3348SOL    HW121503   4.407   3.953   9.132 -1.2952  0.2505  0.2842
 3348SOL    HW221504   4.353   3.977   8.988  0.5885  1.7388  1.4799
 3349SOL     OW21505   1.905   3.413  10.385  0.3903 -0.1866 -0.3667
 3349SOL    HW121506   1.834   3.355  10.357 -0.4534 -0.1581  1.7320
 3349SOL    HW221507   1.940   3.433  10.298  0.4083  0.2085 -0.2689
 3350SOL     OW21508   1.582   0.756   4.723  0.4436 -0.1460 -0.1570
 3350SOL    HW121509   1.563   0.666   4.696  1.1313  0.2314 -1.8759
 3350SOL    HW221510   1.603   0.798   4.640 -0.8274 -0.7070 -0.7639
 3351SOL     OW21511   2.472   4.315   8.741 -0.4515 -0.3781  0.2819
 3351SOL    HW121512   2.534   4.285   8.807  0.6375 -0.8645 -0.9661
 3351SOL    HW221513   2.485   4.408   8.761  0.1162 -0.7955  1.8282
 3352SOL     OW21514   1.881   3.174  15.968  0.1786 -0.1300 -0.2294
 3352SOL    HW121515   1.977   3.177  15.972  0.1533  0.1566  0.1612
 3352SOL    HW221516   1.864   3.112  15.897 -2.2437  0.1771  0.0948
 3353SOL     OW21517   1.594   0.537  15.646 -0.2243 -0.2583 -1.2282
 3353SOL    HW121518   1.542   0.540  15.727  0.4837 -0.5491 -0.7597
 3353SOL    HW221519   1.650   0.462  15.663  2.4385  1.9703 -0.2719
 3354SOL     OW21520   1.319   2.112   9.142 -0.1899  0.0498  0.0041
 3354SOL    HW121521   1.334   2.111   9.236  5.4391  0.0699 -0.8880
 3354SOL    HW221522   1.278   2.029   9.118 -0.1732 -0.1131  0.5383
 3355SOL     OW21523   0.305   0.606   4.865 -0.3314  0.4905  0.0572
 3355SOL    HW121524   0.228   0.552   4.845  2.3818 -3.0032 -1.0342
 3355SOL    HW221525   0.368   0.577   4.798  0.5537  1.4941  0.4669
 3356SOL     OW21526   3.625   3.213   2.337 -0.1941 -0.7470 -0.2968
 3356SOL    HW121527   3.531   3.197   2.349 -0.3304 -0.1145 -0.5078
 3356SOL    HW221528   3.630   3.296   2.291  0.3065 -0.3873  0.3972
 3357SOL     OW21529   0.647   3.309   9.352 -0.0370 -0.5725  0.3053
 3357SOL    HW121530   0.645   3.381   9.414 -0.8745 -2.1511  2.1186
 3357SOL    HW221531   0.557   3.275   9.355 -0.3408  0.0179 -1.9793
 3358SOL     OW21532   3.150   1.064   8.313  0.2167 -0.1642  0.0633
 3358SOL    HW121533   3.154   0.971   8.335 -0.6836 -0.7094 -2.0162
 3358SOL    HW221534   3.132   1.095   8.401 -0.6469  1.3878 -0.6544
 3359SOL     OW21535   3.253   1.293   5.460 -0.2757  0.6093 -0.1333
 3359SOL    HW121536   3.187   1.241   5.413  0.5548 -0.4187 -0.1780
 3359SOL    HW221537   3.198   1.359   5.502 -1.9811 -0.1379 -1.1697
 3360SOL     OW21538   3.110   2.233   9.348 -0.5672  0.1832  0.2069
 3360SOL    HW121539   3.067   2.310   9.388 -1.9210 -0.3713 -0.1863
 3360SOL    HW221540   3.090   2.162   9.409  0.5746  1.3182  1.9027
 3361SOL     OW21541   1.346   2.988  15.566  0.0417 -0.3882  0.4147
 3361SOL    HW121542   1.349   2.944  15.651 -1.3583 -1.7738 -0.2532
 3361SOL    HW221543   1.431   2.974  15.525  1.5178  1.2493  2.8873
 3362SOL     OW21544   3.730   4.590   4.924  0.1232 -0.0846 -0.0915
 3362SOL    HW121545   3.801   4.627   4.872  0.1378  0.1952  0.1257
 3362SOL    HW221546   3.733   4.498   4.901  0.6408 -0.1517  0.2618
 3363SOL     OW21547   3.875   3.314   2.365 -0.4604 -0.0976 -0.8464
 3363SOL    HW121548   3.867   3.325   2.270  3.1242  1.8399 -0.8920
 3363SOL    HW221549   3.803   3.259   2.397 -1.3617 -0.4906 -3.5184
 3364SOL     OW21550   0.044   3.545   4.241 -0.0660 -0.1949  0.3810
 3364SOL    HW121551   0.117   3.498   4.201  0.1900  0.4847  0.0485
 3364SOL    HW221552   0.071   3.637   4.237 -1.4933  0.1245 -1.9393
 3365SOL     OW21553   3.164   0.308   8.540 -0.2685  0.4738 -0.0775
 3365SOL    HW121554   3.200   0.251   8.609  2.0349 -0.2501 -1.8792
 3365SOL    HW221555   3.094   0.342   8.596 -0.9851 -0.1641 -0.5926
 3366SOL     OW21556   3.163   3.147   4.205 -0.1276 -0.0447 -0.0223
 3366SOL    HW121557   3.110   3.175   4.280 -1.1767  3.0609 -1.9044
 3366SOL    HW221558   3.220   3.224   4.198  0.4731 -0.4151  0.8015
 3367SOL     OW21559   3.404   3.779   2.957 -0.0741 -0.2747  0.4658
 3367SOL    HW121560   3.315   3.743   2.962 -0.9028  1.6248 -0.5653
 3367SOL    HW221561   3.431   3.759   2.867  0.3251 -2.5506  1.1044
 3368SOL     OW21562   1.331   2.498   2.864  0.2037 -0.1094  0.2659
 3368SOL    HW121563   1.362   2.532   2.780 -0.2416  0.0424  0.1610
 3368SOL    HW221564   1.254   2.452   2.829  0.5955  0.9809 -2.0136
 3369SOL     OW21565   1.720   2.271  14.033  0.8577  0.2133  0.1492
 3369SOL    HW121566   1.734   2.247  14.125  1.0896  3.0270  0.8424
 3369SOL    HW221567   1.796   2.324  14.008  2.8574 -2.2170  1.0879
 3370SOL     OW21568   4.367   2.934   8.148  0.4981 -0.6287  0.4762
 3370SOL    HW121569   4.296   2.897   8.095  1.5685 -1.2124 -0.5584
 3370SOL    HW221570   4.402   2.991   8.080 -0.3607 -0.3683  0.2465
 3371SOL     OW21571   2.855   0.267   1.288 -0.0514 -0.5418  0.1254
 3371SOL    HW121572   2.897   0.322   1.222  2.4847 -1.7033  0.7715
 3371SOL    HW221573   2.922   0.202   1.310  2.1037  1.9198  0.8409
 3372SOL     OW21574   3.962   1.742   4.356 -0.4100 -0.1341 -0.5431
 3372SOL    HW121575   3.893   1.791   4.312  1.5235 -0.3387 -3.8367
 3372SOL    HW221576   3.995   1.810   4.416 -0.8928 -2.1132  1.9315
 3373SOL     OW21577   3.160   3.085   8.438 -0.5213  0.7210  0.1344
 3373SOL    HW121578   3.164   2.990   8.450 -0.0767  0.9448  1.7672
 3373SOL    HW221579   3.185   3.114   8.525 -0.6411  0.3862  0.2843
 3374SOL     OW21580   3.820   0.018   8.317  0.6515 -0.1131 -0.6452
 3374SOL    HW121581   3.742   0.033   8.264 -0.2961 -1.0400  0.4924
 3374SOL    HW221582   3.872   0.098   8.307  1.3387 -0.5923 -0.9177
 3375SOL     OW21583   0.975   2.019  15.008  0.8404 -0.1238  0.0324
 3375SOL    HW121584   0.900   2.010  14.950 -0.0865 -0.3464  1.2840
 3375SOL    HW221585   0.991   1.931  15.042  1.5785  0.7928  2.0270
 3376SOL     OW21586   1.063   4.487   4.223 -0.8056  0.2529  0.3844
 3376SOL    HW121587   1.036   4.569   4.263  3.1709 -0.7267  5.0481
 3376SOL    HW221588   1.067   4.420   4.291 -2.4847 -0.7639 -0.5138
 3377SOL     OW21589   1.939   0.373  17.174  0.2928  0.5414 -0.4002
 3377SOL    HW121590   1.974   0.299  17.122 -1.1106 -1.2775  1.2698
 3377SOL    HW221591   1.857   0.400  17.132  1.0745  0.7007 -1.8449
 3378SOL     OW21592   3.440   3.545  13.328  0.1034  0.1445  0.1363
 3378SOL    HW121593   3.454   3.531  13.422  1.7336 -0.0994 -0.1369
 3378SOL    HW221594   3.527   3.575  13.301  0.3875 -1.5358 -0.7712
 3379SOL     OW21595   3.099   0.110   0.472 -0.2697 -0.0469  0.9090
 3379SOL    HW121596   3.068   0.198   0.453  0.9005  0.1457 -0.1376
 3379SOL    HW221597   3.037   0.071   0.534 -1.0124 -0.1022  0.1273
 3380SOL     OW21598   0.928   3.448   5.493 -0.1149 -0.3188  0.3195
 3380SOL    HW121599   0.902   3.464   5.584  0.6109  0.3494  0.4107
 3380SOL    HW221600   0.886   3.510   5.434 -0.2003 -1.9455 -1.3115
 3381SOL     OW21601   2.368   0.061   9.733  0.2267  0.0505 -0.2373
 3381SOL    HW121602   2.430   0.133   9.728 -1.0207  1.0237 -1.6664
 3381SOL    HW221603   2.297   0.111   9.775  0.9253  1.1466 -0.3813
 3382SOL     OW21604   3.152   3.089   6.976  0.0254 -0.2501  0.2045
 3382SOL    HW121605   3.088   3.154   7.007  0.8136  0.3819  0.4983
 3382SOL    HW221606   3.108   3.010   7.006  1.1865 -0.4333  1.4089
 3383SOL     OW21607   4.015   1.903   3.555 -0.0649 -0.1942  0.3702
 3383SOL    HW121608   3.996   1.913   3.649  0.3641  1.2473  0.3001
 3383SOL    HW221609   3.931   1.939   3.526 -0.4341 -1.2351  0.1640
 3384SOL     OW21610   2.064   2.154   4.176 -0.2706  0.6025  0.1858
 3384SOL    HW121611   2.157   2.161   4.196 -0.6985  4.2034  0.9565
 3384SOL    HW221612   2.055   2.208   4.098 -0.9964 -0.4470 -0.4477
 3385SOL     OW21613   4.598   3.246   7.183 -0.9189  0.0958 -0.2416
 3385SOL    HW121614   4.656   3.170   7.188 -0.8312  0.2415  1.0984
 3385SOL    HW221615   4.659   3.311   7.221 -0.2903  0.4610 -1.8900
 3386SOL     OW21616   4.054   3.367  11.263  0.9168 -0.0251  0.2847
 3386SOL    HW121617   4.101   3.392  11.342  1.5418 -0.5073  0.0642
 3386SOL    HW221618   3.970   3.402  11.294 -0.2584 -2.7547  0.2214
 3387SOL     OW21619   2.944   0.127   4.744  0.5886  0.0981 -0.0449
 3387SOL    HW121620   2.971   0.148   4.655 -1.1880 -1.4510 -0.9396
 3387SOL    HW221621   3.025   0.085   4.772  0.3515 -2.0810 -2.5843
 3388SOL     OW21622   4.275   0.286   8.061 -0.3857  0.3660 -0.4571
 3388SOL    HW121623   4.244   0.198   8.039 -0.6402  0.0453  1.1875
 3388SOL    HW221624   4.193   0.333   8.080  0.2925  1.2637  0.2029
 3389SOL     OW21625   1.318   3.553   9.225  0.5222 -0.6255 -0.1856
 3389SOL    HW121626   1.328   3.626   9.164 -2.1896 -0.0250  0.0623
 3389SOL    HW221627   1.405   3.533   9.259  0.2471  0.1752  0.9692
 3390SOL     OW21628   3.298   1.025   1.058 -0.3192  0.2847  0.4067
 3390SOL    HW121629   3.336   1.108   1.087 -0.8781  0.8716 -0.5424
 3390SOL    HW221630   3.298   1.045   0.964  2.0489  1.1345  0.5827
 3391SOL     OW21631   2.961   3.518  15.708 -0.2908 -0.6902  0.7055
 3391SOL    HW121632   2.914   3.506  15.791  0.3233 -2.5624  0.7919
 3391SOL    HW221633   3.004   3.603  15.704  0.3095 -1.0074  0.2707
 3392SOL     OW21634   2.997   0.178  11.329  0.2424 -0.4681  0.0413
 3392SOL    HW121635   2.990   0.179  11.424  0.6605  1.5704  0.0553
 3392SOL    HW221636   2.909   0.208  11.307 -0.3561 -0.8159  2.0452
 3393SOL     OW21637   1.495   2.448   6.731  0.1997  0.9446  0.1430
 3393SOL    HW121638   1.535   2.447   6.819  0.5737 -1.1227 -0.0384
 3393SOL    HW221639   1.554   2.388   6.686 -0.3339 -0.0161  0.7298
 3394SOL     OW21640   1.959   3.806  16.799  0.4149 -0.1483  0.2549
 3394SOL    HW121641   1.948   3.729  16.742  1.4639  0.0409 -0.1944
 3394SOL    HW221642   2.045   3.842  16.778  0.7243  0.0569  1.8663
 3395SOL     OW21643   1.897   1.412  11.644 -0.4879 -0.7067 -0.1916
 3395SOL    HW121644   1.987   1.433  11.671 -1.2342 -0.1856  1.8998
 3395SOL    HW221645   1.850   1.404  11.727 -1.4934 -0.3428 -0.7316
 3396SOL     OW21646   0.648   3.385   0.443 -0.1983 -0.1111 -0.0369
 3396SOL    HW121647   0.659   3.325   0.369  0.1674  1.3495 -1.1566
 3396SOL    HW221648   0.613   3.315   0.499  0.7122 -0.4136  0.1490
 3397SOL     OW21649   0.336   3.506   4.627 -0.6537 -0.4348 -0.2588
 3397SOL    HW121650   0.268   3.440   4.634 -0.8073 -0.2283  0.1687
 3397SOL    HW221651   0.282   3.581   4.652  0.2698 -0.5380  2.0029
 3398SOL     OW21652   3.398   2.508   2.423 -0.0897 -0.1394 -0.2024
 3398SOL    HW121653   3.323   2.493   2.481  1.9843 -2.4265  1.8928
 3398SOL    HW221654   3.465   2.500   2.491  0.2056 -1.1839 -0.6159
 3399SOL     OW21655   3.267   2.393  11.288 -0.5329  0.2442 -0.5223
 3399SOL    HW121656   3.238   2.433  11.370 -1.2144 -0.5405 -0.3840
 3399SOL    HW221657   3.194   2.334  11.271  0.9945 -1.2568 -1.8516
 3400SOL     OW21658   2.512   0.809   3.144 -0.5367 -0.2845  0.5373
 3400SOL    HW121659   2.601   0.782   3.166  0.2655  1.8107 -0.1936
 3400SOL    HW221660   2.499   0.878   3.209 -2.6058  0.3696 -0.5736
 3401SOL     OW21661   0.856   0.070  12.167 -0.3661  0.0133 -0.2275
 3401SOL    HW121662   0.892   0.159  12.170 -0.1456 -0.1107  0.8751
 3401SOL    HW221663   0.864   0.041  12.258  0.0057 -0.8359 -0.5328
 3402SOL     OW21664   4.012   2.111   7.109  0.1837  0.1615  0.2827
 3402SOL    HW121665   4.048   2.023   7.124  1.6076  0.1834 -2.9202
 3402SOL    HW221666   3.940   2.089   7.051 -0.0525  0.9485  0.2800
 3403SOL     OW21667   4.216   3.326   1.846  0.3220  0.0112  0.2178
 3403SOL    HW121668   4.142   3.370   1.804  0.9231  0.8297  0.0243
 3403SOL    HW221669   4.190   3.331   1.938  2.2666  1.5448  0.6809
 3404SOL     OW21670   0.256   3.435  15.728  0.2950  0.1065  0.4121
 3404SOL    HW121671   0.225   3.435  15.819 -2.9125  1.7712 -0.6893
 3404SOL    HW221672   0.338   3.386  15.733 -0.9527 -1.9539  0.7123
 3405SOL     OW21673   4.278   0.438   6.101 -0.3460 -0.4871 -0.4092
 3405SOL    HW121674   4.359   0.390   6.121  0.2133  0.8687  0.6004
 3405SOL    HW221675   4.217   0.369   6.076 -2.4540  1.1987  0.1119
 3406SOL     OW21676   3.293   4.062   2.807 -0.3467  0.2324  0.0080
 3406SOL    HW121677   3.219   4.019   2.850  0.2580  1.9373  2.7479
 3406SOL    HW221678   3.301   4.013   2.725  0.5333  1.1553 -0.4654
 3407SOL     OW21679   0.221   1.872   3.362 -0.0464 -0.7017  0.1614
 3407SOL    HW121680   0.209   1.819   3.283  2.9256 -0.7270 -0.2734
 3407SOL    HW221681   0.155   1.840   3.423  0.0137  1.3578  1.3181
 3408SOL     OW21682   0.994   1.540  15.930 -0.3980 -0.1390  0.3463
 3408SOL    HW121683   1.033   1.536  15.843  0.1896  1.0616  0.5489
 3408SOL    HW221684   0.998   1.449  15.961 -1.3574 -0.1956  0.3223
 3409SOL     OW21685   2.362   1.049   6.399  0.2810  0.2797  1.0381
 3409SOL    HW121686   2.332   1.040   6.489  0.1448  1.0968  1.0776
 3409SOL    HW221687   2.402   0.964   6.380 -1.2891 -0.1829 -0.1599
 3410SOL     OW21688   4.625   0.451   1.932 -0.4668  0.2144 -0.3517
 3410SOL    HW121689   4.714   0.485   1.934 -0.4503  0.2211 -1.6016
 3410SOL    HW221690   4.591   0.489   1.851  0.3157 -1.3360 -1.4082
 3411SOL     OW21691   0.282   1.663   8.772 -0.3642 -0.0421 -0.1159
 3411SOL    HW121692   0.262   1.593   8.710  3.1815 -0.8638 -0.2964
 3411SOL    HW221693   0.239   1.744   8.743 -1.4211 -0.5400  0.0698
 3412SOL     OW21694   1.717   2.268   3.418  0.4319 -0.3305  0.4681
 3412SOL    HW121695   1.667   2.190   3.440  0.6666 -0.6805 -0.2356
 3412SOL    HW221696   1.806   2.236   3.434  0.0384 -1.3909  0.5188
 3413SOL     OW21697   1.035   3.058  14.041 -0.3228  0.1032 -0.0786
 3413SOL    HW121698   1.118   3.101  14.020 -1.6131  2.5176 -0.2077
 3413SOL    HW221699   0.974   3.094  13.976 -2.5581 -1.4643  1.1649
 3414SOL     OW21700   4.057   1.072  15.156  0.0497 -0.0255 -0.4523
 3414SOL    HW121701   4.146   1.061  15.122  0.0983 -1.1528  0.0343
 3414SOL    HW221702   4.055   1.013  15.232  1.8408  0.1071 -0.2933
 3415SOL     OW21703   3.533   0.156   6.555 -0.3646  0.5702  0.6028
 3415SOL    HW121704   3.579   0.077   6.528 -1.3992  0.3085 -0.3821
 3415SOL    HW221705   3.536   0.202   6.472  0.3106 -1.2424 -0.3741
 3416SOL     OW21706   4.596   3.681   9.784 -0.0283  0.1954  0.7308
 3416SOL    HW121707   4.556   3.594   9.781 -0.3783  0.3211  1.7299
 3416SOL    HW221708   4.593   3.693   9.879  0.3828  2.8946  0.4049
 3417SOL     OW21709   0.720   4.638   6.344 -0.0080 -0.5188  0.2507
 3417SOL    HW121710   0.782   4.687   6.291  1.2924 -0.5957  1.6944
 3417SOL    HW221711   0.772   4.609   6.419 -1.0345  1.6744  1.7781
 3418SOL     OW21712   1.791   2.674   2.682  0.0437 -0.0386  0.3756
 3418SOL    HW121713   1.808   2.761   2.646  0.2579 -1.0793 -2.0005
 3418SOL    HW221714   1.788   2.691   2.776 -1.3896  1.1876  0.1098
 3419SOL     OW21715   3.780   3.303   1.520  0.5046 -0.1239  0.0067
 3419SOL    HW121716   3.738   3.221   1.495  1.8541 -1.5344  2.3448
 3419SOL    HW221717   3.811   3.281   1.608  0.8353  1.8046  0.3614
 3420SOL     OW21718   2.549   1.813  11.853 -0.1470 -0.0983 -0.0501
 3420SOL    HW121719   2.548   1.831  11.759  1.0547 -0.9541 -0.2276
 3420SOL    HW221720   2.641   1.828  11.877  0.4627 -2.9646 -0.5924
 3421SOL     OW21721   4.521   1.986   6.928 -0.8128 -0.2627 -0.2451
 3421SOL    HW121722   4.613   1.972   6.949 -0.5229  2.9768  0.6621
 3421SOL    HW221723   4.480   1.988   7.015 -0.6463 -1.8365 -0.1154
 3422SOL     OW21724   3.929   3.438   8.890 -0.3084  0.1247  0.1596
 3422SOL    HW121725   3.874   3.443   8.968 -0.3706  0.1292  0.1156
 3422SOL    HW221726   3.886   3.365   8.845  0.8449 -1.3952  1.5168
 3423SOL     OW21727   4.720   3.993   6.459 -0.0181 -0.5316  0.6888
 3423SOL    HW121728   0.070   4.008   6.396  0.2672 -1.3056  0.8347
 3423SOL    HW221729   4.647   4.002   6.398  0.0460 -0.4125  0.6282
 3424SOL     OW21730   0.810   1.797  14.327  0.8896 -0.0778  0.0345
 3424SOL    HW121731   0.839   1.714  14.365  0.9087  0.5912  1.4748
 3424SOL    HW221732   0.835   1.861  14.394 -3.0769  1.0347  0.4677
 3425SOL     OW21733   1.684   0.389  17.079  0.2039 -0.7420 -0.4424
 3425SOL    HW121734   1.687   0.294  17.089  0.2550 -0.6415  0.4858
 3425SOL    HW221735   1.688   0.412  16.986  2.2327 -2.2057 -0.7016
 3426SOL     OW21736   4.489   2.414   5.433 -0.3070  0.3824 -0.3269
 3426SOL    HW121737   4.478   2.501   5.395  1.2773  1.0047  0.6021
 3426SOL    HW221738   4.456   2.413   5.523 -0.5478 -0.1025 -0.4183
 3427SOL     OW21739   1.384   0.358   7.958  0.0457 -0.3754  0.3199
 3427SOL    HW121740   1.412   0.445   7.986  0.0027 -0.1323 -0.3694
 3427SOL    HW221741   1.293   0.352   7.987 -0.2739 -0.1855 -0.6436
 3428SOL     OW21742   1.913   1.573   7.012 -0.4061 -0.0828 -0.0595
 3428SOL    HW121743   1.905   1.666   7.033  1.1755  0.4057 -1.6527
 3428SOL    HW221744   2.007   1.576   6.992 -0.6227 -1.8021 -1.3796
 3429SOL     OW21745   2.724   0.257   6.135  0.1918  0.7003 -0.4349
 3429SOL    HW121746   2.694   0.166   6.134 -1.1596  1.1517 -0.2484
 3429SOL    HW221747   2.755   0.272   6.046  3.0852 -1.8932  0.1217
 3430SOL     OW21748   4.168   2.750   4.785  0.2149  0.8644 -0.0644
 3430SOL    HW121749   4.148   2.835   4.746 -0.0957 -0.1970 -2.2412
 3430SOL    HW221750   4.263   2.756   4.787  0.2683 -0.2096  0.3444
 3431SOL     OW21751   3.804   1.673   2.110  0.8563 -0.0749  0.1139
 3431SOL    HW121752   3.893   1.680   2.077  0.2684  1.5629 -1.1580
 3431SOL    HW221753   3.757   1.634   2.036  1.2230  0.1568 -0.2445
 3432SOL     OW21754   3.516   3.462   6.895  0.2543  0.0383 -0.3604
 3432SOL    HW121755   3.478   3.414   6.821  0.5216  1.1414 -1.2121
 3432SOL    HW221756   3.588   3.408   6.928  0.1806  0.3263  0.2805
 3433SOL     OW21757   0.604   3.700   2.469 -0.7121 -0.4676  0.3602
 3433SOL    HW121758   0.564   3.735   2.390  0.6136 -3.0421 -1.4226
 3433SOL    HW221759   0.538   3.639   2.502 -1.4535 -0.5426 -1.2684
 3434SOL     OW21760   2.185   0.885   6.949 -0.0875 -0.3256  0.3620
 3434SOL    HW121761   2.159   0.823   6.881 -0.0693  1.4566 -1.2840
 3434SOL    HW221762   2.164   0.841   7.031  1.0428 -2.8934 -0.7145
 3435SOL     OW21763   2.852   1.303   4.136 -0.3115 -0.2025 -0.1351
 3435SOL    HW121764   2.787   1.260   4.193 -0.1066 -0.9017 -0.4205
 3435SOL    HW221765   2.856   1.394   4.164  1.1573 -0.2326 -0.2515
 3436SOL     OW21766   0.897   1.775   4.569  0.4198  0.0060 -0.3860
 3436SOL    HW121767   0.987   1.756   4.543  0.0792 -0.8099 -0.9910
 3436SOL    HW221768   0.903   1.761   4.663  1.2879  1.2999 -0.2513
 3437SOL     OW21769   1.524   2.951  17.614 -0.1909 -0.9316 -0.3362
 3437SOL    HW121770   1.434   2.980  17.597 -0.3953 -0.5504  1.3961
 3437SOL    HW221771   1.577   3.021  17.576 -1.1796  0.6644  1.2331
 3438SOL     OW21772   0.159   3.096   8.382  0.0040 -0.1359 -0.2832
 3438SOL    HW121773   0.115   3.015   8.405 -0.5205  0.3322  0.3699
 3438SOL    HW221774   0.248   3.081   8.416 -0.1860  3.1457  1.7073
 3439SOL     OW21775   3.721   1.807   6.361 -0.2260 -0.2299  0.1776
 3439SOL    HW121776   3.694   1.853   6.281 -0.1654 -2.0627 -0.9247
 3439SOL    HW221777   3.700   1.866   6.433  0.2267  0.9329 -0.6496
 3440SOL     OW21778   0.055   3.330  17.300  0.9920  0.7501  0.5121
 3440SOL    HW121779   4.705   3.266  17.309  0.4450  1.3652  0.6511
 3440SOL    HW221780   0.102   3.312  17.381  0.5855 -0.1949  0.5338
 3441SOL     OW21781   2.969   3.425   7.292 -0.3397  0.0612  0.0728
 3441SOL    HW121782   2.914   3.359   7.335 -2.3401  1.9607  0.3913
 3441SOL    HW221783   3.039   3.430   7.357 -0.2535  1.5812 -0.1476
 3442SOL     OW21784   2.121   0.982   4.987  0.1640  0.4354 -0.8716
 3442SOL    HW121785   2.100   0.896   5.024  3.2303  0.9170  1.9459
 3442SOL    HW221786   2.038   1.016   5.020 -0.3222  0.3996 -2.0493
 3443SOL     OW21787   3.325   2.413   5.149  0.0799 -0.2944  0.3829
 3443SOL    HW121788   3.237   2.449   5.153  0.7383  1.3672  0.1222
 3443SOL    HW221789   3.368   2.486   5.194  0.2799 -0.2675  0.1495
 3444SOL     OW21790   0.637   0.272   8.623 -0.4271 -0.0541  0.5619
 3444SOL    HW121791   0.655   0.330   8.548 -1.0040 -0.4942  0.0797
 3444SOL    HW221792   0.591   0.327   8.687  0.2975  0.0037  1.0318
 3445SOL     OW21793   4.613   0.468   1.363 -0.8115 -0.2294  0.1274
 3445SOL    HW121794   4.703   0.464   1.332 -1.1040 -1.4594 -0.5813
 3445SOL    HW221795   4.586   0.376   1.367  1.7473 -0.8694  3.1291
 3446SOL     OW21796   3.255   4.022   3.427  0.5908 -0.6142  0.3537
 3446SOL    HW121797   3.172   3.997   3.387 -0.3158  1.2597  1.0554
 3446SOL    HW221798   3.277   4.104   3.383  0.3102 -0.8567 -0.2349
 3447SOL     OW21799   1.849   3.643  10.515  0.3156  0.7348 -1.0283
 3447SOL    HW121800   1.857   3.553  10.482  0.4663  1.6406 -3.4812
 3447SOL    HW221801   1.928   3.674  10.470  1.5198 -0.1779  0.4620
 3448SOL     OW21802   2.287   3.413   1.031 -0.0581  0.3771  0.5694
 3448SOL    HW121803   2.226   3.448   0.966  0.4100  2.6647  1.3917
 3448SOL    HW221804   2.249   3.325   1.039  2.5788 -0.7640  0.6658
 3449SOL     OW21805   3.775   1.320   9.932 -0.4515  0.0413 -0.5612
 3449SOL    HW121806   3.805   1.237   9.969 -0.3977  0.9805  1.5222
 3449SOL    HW221807   3.851   1.344   9.878 -1.1846  2.5800 -0.4680
 3450SOL     OW21808   0.550   4.670  10.020 -0.1788 -0.2729 -0.4670
 3450SOL    HW121809   0.549   4.697   9.928 -1.4840  0.8532 -0.1263
 3450SOL    HW221810   0.527   0.036  10.055  1.7876 -0.1329  0.4935
 3451SOL     OW21811   0.853   3.014  12.923  0.3360  0.2802 -0.0868
 3451SOL    HW121812   0.862   2.932  12.973  2.9078  0.5905 -0.0672
 3451SOL    HW221813   0.893   3.081  12.979 -1.9397  0.9236  0.7812
 3452SOL     OW21814   1.911   0.888   4.701  0.8287  0.3173  0.8954
 3452SOL    HW121815   1.860   0.825   4.752 -1.1742  1.7608  0.6822
 3452SOL    HW221816   1.864   0.968   4.726  0.7988  0.8095 -0.7075
 3453SOL     OW21817   0.019   1.814   1.057  0.2168 -0.3218  0.0281
 3453SOL    HW121818   4.714   1.873   0.986  1.4340 -2.0370 -1.8119
 3453SOL    HW221819   4.693   1.849   1.133 -1.3279 -2.0037 -0.1558
 3454SOL     OW21820   2.875   2.198  10.312  0.2918 -0.3461  0.9946
 3454SOL    HW121821   2.817   2.132  10.350  0.1172  0.3071  1.8854
 3454SOL    HW221822   2.962   2.158  10.317  0.7727  0.5706  0.0317
 3455SOL     OW21823   1.321   2.672   8.507 -0.0522  0.1276 -0.1206
 3455SOL    HW121824   1.371   2.730   8.564  0.4299 -1.6177  1.2123
 3455SOL    HW221825   1.378   2.670   8.430  2.3064  3.0084  1.5915
 3456SOL     OW21826   0.605   4.294  12.870  0.5134 -0.9766 -0.6842
 3456SOL    HW121827   0.515   4.284  12.838 -1.0453  0.9968  3.0653
 3456SOL    HW221828   0.651   4.226  12.821  1.4909 -1.0979  0.3841
 3457SOL     OW21829   1.661   2.162   7.658  0.3467  0.0928  0.6298
 3457SOL    HW121830   1.643   2.078   7.699 -0.5448  0.7563  1.5874
 3457SOL    HW221831   1.754   2.172   7.675  0.0814 -1.1570  2.8483
 3458SOL     OW21832   3.570   1.819   8.233  0.5658  0.7527 -0.6451
 3458SOL    HW121833   3.520   1.792   8.310 -1.2860 -2.0681 -2.8002
 3458SOL    HW221834   3.658   1.800   8.266 -0.4211 -4.7396 -1.0835
 3459SOL     OW21835   2.535   1.684   2.501  0.6818 -0.0203 -0.2879
 3459SOL    HW121836   2.506   1.630   2.574 -1.2955  1.2185 -0.1462
 3459SOL    HW221837   2.501   1.633   2.428  1.1226 -3.7160  2.0854
 3460SOL     OW21838   1.261   4.331   8.604 -0.1717 -0.1667  0.1474
 3460SOL    HW121839   1.171   4.306   8.624  0.2530 -0.4183  1.7396
 3460SOL    HW221840   1.249   4.401   8.540  0.9252  1.1948  1.4365
 3461SOL     OW21841   3.521   2.076   2.377 -0.2841 -0.0133 -0.4575
 3461SOL    HW121842   3.605   2.051   2.340 -1.3244 -0.8982 -2.2553
 3461SOL    HW221843   3.468   2.002   2.345 -1.8742  1.1962 -0.6421
 3462SOL     OW21844   0.268   2.524   3.702  0.3512  1.0204  0.0898
 3462SOL    HW121845   0.325   2.449   3.718  0.2542  0.9868  0.2783
 3462SOL    HW221846   0.319   2.551   3.625  1.8207  0.9885  1.0519
 3463SOL     OW21847   0.684   2.443  15.230  0.1485 -0.2288  0.1889
 3463SOL    HW121848   0.591   2.426  15.248 -0.4976  2.0827 -0.9282
 3463SOL    HW221849   0.704   2.510  15.295 -1.3169  0.3386  0.0518
 3464SOL     OW21850   3.190   0.405   8.974  0.1569  0.4272  1.1768
 3464SOL    HW121851   3.108   0.360   8.995 -0.4945  0.8529 -0.4585
 3464SOL    HW221852   3.182   0.488   9.020  1.6376  1.1951  0.0696
 3465SOL     OW21853   2.028   1.920  12.226  0.0794  0.4065 -0.0255
 3465SOL    HW121854   2.064   1.854  12.167 -1.6527  0.9453 -1.6686
 3465SOL    HW221855   1.982   1.980  12.168 -0.0938 -0.4335 -0.7650
 3466SOL     OW21856   1.943   1.292   7.020  0.3571  0.0061 -1.0476
 3466SOL    HW121857   1.945   1.386   7.033 -1.2585 -0.1805  0.4895
 3466SOL    HW221858   1.878   1.266   7.086 -0.3245  0.7406 -1.4207
 3467SOL     OW21859   0.097   0.030   6.068  0.6361  0.2537 -0.0254
 3467SOL    HW121860   0.115   0.120   6.043 -3.2072  0.9410 -0.3659
 3467SOL    HW221861   0.006   0.024   6.037  0.4394  1.8654  0.2632
 3468SOL     OW21862   3.848   3.222  16.170 -0.1436  0.2215 -0.2404
 3468SOL    HW121863   3.815   3.222  16.260 -0.4573  1.6201 -0.3620
 3468SOL    HW221864   3.824   3.309  16.139 -2.4331  0.1615  1.4000
 3469SOL     OW21865   1.177   3.678   0.311  0.1243  0.8858  0.1359
 3469SOL    HW121866   1.194   3.586   0.287 -2.0903  0.7110 -0.6891
 3469SOL    HW221867   1.137   3.666   0.397 -0.3735  3.7554  0.2779
 3470SOL     OW21868   0.449   3.956   3.539 -0.0362 -0.3053 -0.1295
 3470SOL    HW121869   0.442   3.869   3.579  0.1055 -0.1396  0.2580
 3470SOL    HW221870   0.449   3.939   3.445  0.7183 -0.7182 -0.0485
 3471SOL     OW21871   0.931   2.084   6.904  0.0649 -0.4705  0.6444
 3471SOL    HW121872   0.941   2.067   6.997 -0.1860  1.7880  1.0797
 3471SOL    HW221873   1.020   2.096   6.873  0.3622 -0.9206  1.3370
 3472SOL     OW21874   0.023   4.181  10.747  0.1316  0.1685 -0.5401
 3472SOL    HW121875   4.708   4.193  10.659 -0.3007  0.4050 -0.3340
 3472SOL    HW221876   0.110   4.220  10.743 -0.1989  1.0643  0.9004
 3473SOL     OW21877   3.013   2.611   2.623  0.2806  0.4304  0.6864
 3473SOL    HW121878   2.924   2.644   2.608  0.2659 -1.3254 -3.0005
 3473SOL    HW221879   3.065   2.654   2.555 -1.4459 -1.7218 -1.9521
 3474SOL     OW21880   1.094   4.543   7.136 -0.7695 -0.3505  0.3404
 3474SOL    HW121881   1.190   4.542   7.125 -0.8279 -0.9797 -0.1050
 3474SOL    HW221882   1.064   4.631   7.112  0.0926 -0.0167  0.4631
 3475SOL     OW21883   1.818   2.640  15.524 -0.1974  0.3521 -0.5768
 3475SOL    HW121884   1.894   2.588  15.500 -0.6204 -0.3737 -0.3595
 3475SOL    HW221885   1.840   2.732  15.517 -1.0005  0.5914  0.0169
 3476SOL     OW21886   2.416   3.431   6.667 -0.5017  0.4112  0.4375
 3476SOL    HW121887   2.512   3.425   6.662 -0.5721  1.8990 -2.7669
 3476SOL    HW221888   2.415   3.399   6.757  2.3105  1.2587  0.7948
 3477SOL     OW21889   1.472   2.309   7.553  0.2574 -0.1181  0.4729
 3477SOL    HW121890   1.412   2.252   7.504 -1.6142  1.2619  1.1685
 3477SOL    HW221891   1.548   2.254   7.571  0.5922  0.0615 -0.3758
 3478SOL     OW21892   0.737   4.176   8.702  0.7105 -0.4549 -0.4131
 3478SOL    HW121893   0.702   4.153   8.788 -0.1108  2.4263  0.0271
 3478SOL    HW221894   0.689   4.250   8.665 -1.9399 -1.6343  0.7179
 3479SOL     OW21895   2.813   2.966   2.534  0.0709 -0.2654 -0.3007
 3479SOL    HW121896   2.781   2.880   2.506 -1.1033  0.6956 -1.9214
 3479SOL    HW221897   2.797   2.954   2.627  0.6173 -0.6103 -0.2465
 3480SOL     OW21898   1.476   1.029   8.511  0.1584 -0.2471 -0.3969
 3480SOL    HW121899   1.509   1.054   8.597  0.4412 -0.2949 -0.4904
 3480SOL    HW221900   1.560   1.026   8.466  0.0215 -2.3603 -0.5105
 3481SOL     OW21901   1.205   3.513   3.873 -0.0376  0.0372 -0.6800
 3481SOL    HW121902   1.181   3.449   3.806 -0.3403 -0.8693  0.3065
 3481SOL    HW221903   1.298   3.490   3.878  0.0619  0.2250 -1.5626
 3482SOL     OW21904   4.343   1.246  12.888 -0.2747  0.1537 -0.1522
 3482SOL    HW121905   4.344   1.216  12.979 -0.6537 -0.4556 -0.3478
 3482SOL    HW221906   4.260   1.293  12.882  0.6211  1.6692 -0.5715
 3483SOL     OW21907   4.409   3.728   0.661 -0.2193  0.0268  0.0820
 3483SOL    HW121908   4.459   3.805   0.687 -0.2394 -0.5407  1.7780
 3483SOL    HW221909   4.333   3.776   0.630 -0.5075  0.5055  1.5571
 3484SOL     OW21910   3.356   0.896   2.935  0.1023 -0.1554 -0.3898
 3484SOL    HW121911   3.336   0.844   2.857  1.8385 -1.9708  0.3720
 3484SOL    HW221912   3.372   0.980   2.893 -0.2057  0.3732  0.5483
 3485SOL     OW21913   3.751   4.519   1.980  0.0409 -0.2248 -0.1784
 3485SOL    HW121914   3.687   4.590   1.985 -0.4661 -0.4942 -2.7317
 3485SOL    HW221915   3.777   4.516   2.072  0.4921  1.6856 -0.2425
 3486SOL     OW21916   1.429   4.462  11.220  0.5154 -0.5422  0.4609
 3486SOL    HW121917   1.473   4.486  11.302 -1.0277  2.2108  0.4598
 3486SOL    HW221918   1.407   4.374  11.250 -1.9816 -0.8364 -2.2321
 3487SOL     OW21919   3.768   0.785   6.264 -0.5637  0.1109 -0.6305
 3487SOL    HW121920   3.760   0.827   6.349 -1.6782 -0.6946 -0.3404
 3487SOL    HW221921   3.707   0.840   6.213  0.4479  0.3561 -1.5772
 3488SOL     OW21922   1.190   1.838   9.956 -0.2507 -0.0865 -0.4683
 3488SOL    HW121923   1.172   1.809   9.866 -0.9298  0.6128 -0.5596
 3488SOL    HW221924   1.283   1.853   9.941 -0.4307  1.6266  0.1975
 3489SOL     OW21925   2.288   1.687   1.752  0.7581 -0.1502  0.3148
 3489SOL    HW121926   2.305   1.677   1.659  0.0112  4.2692 -0.2878
 3489SOL    HW221927   2.202   1.729   1.753  0.2914 -1.0690 -1.5592
 3490SOL     OW21928   1.104   2.097   8.163 -0.0282 -0.2614 -0.1555
 3490SOL    HW121929   1.125   2.190   8.150  2.0654 -0.5518  1.1604
 3490SOL    HW221930   1.167   2.064   8.099  1.5676  1.5204  0.4754
 3491SOL     OW21931   1.113   3.964   2.339 -0.1768  0.3797 -0.5084
 3491SOL    HW121932   1.142   3.946   2.428  2.2477  1.7420 -1.0271
 3491SOL    HW221933   1.042   3.900   2.327 -1.0031  1.1000  0.5033
 3492SOL     OW21934   2.061   4.350  13.709 -0.5412 -0.3191 -0.2291
 3492SOL    HW121935   2.144   4.332  13.753 -0.5013  1.7453  0.5041
 3492SOL    HW221936   2.040   4.260  13.681  1.6931 -0.3241 -1.8845
 3493SOL     OW21937   1.542   1.234   3.414 -0.3407  0.2132  0.0596
 3493SOL    HW121938   1.533   1.218   3.320 -1.5609  0.4627  0.1215
 3493SOL    HW221939   1.606   1.168   3.439 -2.5796 -1.1897  2.1840
 3494SOL     OW21940   0.191   3.196  17.084  0.3903 -0.7407 -0.1213
 3494SOL    HW121941   0.151   3.266  17.136  0.5506 -1.2323  0.6676
 3494SOL    HW221942   0.130   3.127  17.109 -1.3106 -0.0285 -2.2343
 3495SOL     OW21943   3.960   4.092   1.367  0.1845  0.5094  0.4201
 3495SOL    HW121944   3.950   4.008   1.411  1.6737 -0.1908 -0.5643
 3495SOL    HW221945   3.959   4.146   1.446 -1.9382 -2.3909  2.3929
 3496SOL     OW21946   1.315   2.939   5.716  0.5955 -0.3104  0.2232
 3496SOL    HW121947   1.270   2.990   5.648 -0.0363 -0.5447  0.4743
 3496SOL    HW221948   1.310   3.006   5.784 -2.8962  0.2062 -0.5657
 3497SOL     OW21949   3.470   3.311   7.853 -0.1760 -0.6585 -0.0964
 3497SOL    HW121950   3.544   3.315   7.793  0.1976  0.3261  0.4201
 3497SOL    HW221951   3.488   3.372   7.926 -1.7846  1.0979 -1.1673
 3498SOL     OW21952   0.932   0.883  10.839  0.4594  0.4130  0.3210
 3498SOL    HW121953   0.979   0.811  10.880  0.2944  1.3877  2.2197
 3498SOL    HW221954   0.883   0.835  10.771  0.1488  0.8733  0.2160
 3499SOL     OW21955   1.219   0.510  10.426 -0.1130  0.4859 -0.1817
 3499SOL    HW121956   1.231   0.526  10.519 -0.2681 -1.6792  0.2105
 3499SOL    HW221957   1.286   0.445  10.406  0.3698  1.0897 -0.5282
 3500SOL     OW21958   3.122   2.917  14.338  0.1861  0.1927  0.4066
 3500SOL    HW121959   3.085   2.912  14.250  1.1974  2.0947 -0.1215
 3500SOL    HW221960   3.107   2.829  14.374 -1.3077  0.9923  1.7502
 3501SOL     OW21961   1.170   4.569   3.293  0.6893 -0.3794  0.2768
 3501SOL    HW121962   1.232   4.618   3.348  0.1766  1.1055 -0.4797
 3501SOL    HW221963   1.218   4.550   3.213  1.5758 -1.7668  1.1377
 3502SOL     OW21964   3.210   0.747  16.996 -0.2369  0.4125 -0.3711
 3502SOL    HW121965   3.300   0.729  16.969  0.2352  0.5578  1.0727
 3502SOL    HW221966   3.228   0.800  17.074 -0.6509  0.3593 -0.2384
 3503SOL     OW21967   1.116   0.808  16.115 -0.2395  0.5381 -0.3147
 3503SOL    HW121968   1.052   0.795  16.184  0.0910  2.0018  0.2688
 3503SOL    HW221969   1.070   0.762  16.045 -1.2340  0.1293  0.6180
 3504SOL     OW21970   3.679   1.026  12.649 -0.1130  0.4548  0.0609
 3504SOL    HW121971   3.738   1.101  12.654  1.5688 -0.9951  1.6480
 3504SOL    HW221972   3.740   0.973  12.597 -0.8276 -0.5917  0.2818
 3505SOL     OW21973   4.116   2.359   2.783 -0.1269  0.7269 -0.0544
 3505SOL    HW121974   4.122   2.381   2.691 -0.5696  1.7614  0.1679
 3505SOL    HW221975   4.141   2.437   2.833  0.2222  0.8845 -0.4753
 3506SOL     OW21976   1.972   2.640   6.007 -0.1604 -0.1322  0.0724
 3506SOL    HW121977   2.038   2.613   5.943  0.5736 -0.7437  1.0936
 3506SOL    HW221978   1.899   2.665   5.951 -0.6450 -0.5435  0.5208
 3507SOL     OW21979   0.386   0.110   3.517 -0.3367  0.1224 -0.0894
 3507SOL    HW121980   0.445   0.171   3.561 -1.8052 -0.5936  2.8800
 3507SOL    HW221981   0.367   0.051   3.590 -0.9352 -0.3532 -0.6380
 3508SOL     OW21982   0.620   3.637  12.485  0.2860  0.1008  0.4526
 3508SOL    HW121983   0.612   3.717  12.432  1.2786 -0.4725 -0.5633
 3508SOL    HW221984   0.673   3.668  12.558  0.9691  0.8038 -0.3418
 3509SOL     OW21985   1.478   3.516   1.058  0.5640 -0.1590  0.4540
 3509SOL    HW121986   1.387   3.518   1.089  0.7812 -0.7284  1.1429
 3509SOL    HW221987   1.508   3.601   1.091 -0.4033  1.0242 -1.7649
 3510SOL     OW21988   2.520   0.147   3.125 -0.2710  0.0237 -0.0500
 3510SOL    HW121989   2.556   0.140   3.214 -1.0515  1.9661  0.4286
 3510SOL    HW221990   2.581   0.214   3.096 -0.4824  1.3386  2.4963
 3511SOL     OW21991   2.488   1.640  10.268  0.0420  0.0657 -0.3340
 3511SOL    HW121992   2.468   1.687  10.188  0.6713  0.4305 -0.2729
 3511SOL    HW221993   2.522   1.557  10.235  0.4947 -0.1709  0.7206
 3512SOL     OW21994   3.728   2.856  11.655  0.1159 -0.5301 -0.4957
 3512SOL    HW121995   3.731   2.762  11.641  0.2296 -0.1892 -2.7076
 3512SOL    HW221996   3.698   2.854  11.746  0.1646  0.5736 -0.4591
 3513SOL     OW21997   1.488   4.196   9.073  0.2917  0.3576  0.2862
 3513SOL    HW121998   1.535   4.210   9.156  3.3295 -1.0461 -1.1965
 3513SOL    HW221999   1.528   4.262   9.018  0.8772  0.3847  0.7479
 3514SOL     OW22000   4.084   2.544   4.381  0.0171  0.1700  0.6141
 3514SOL    HW122001   4.088   2.532   4.476  0.5452 -0.0248  0.5618
 3514SOL    HW222002   4.158   2.493   4.350 -0.8724 -1.1124  0.6233
 3515SOL     OW22003   0.457   1.879   5.041 -0.1528  0.2796  0.4181
 3515SOL    HW122004   0.436   1.796   4.999 -0.2660 -0.4569  1.9166
 3515SOL    HW222005   0.441   1.865   5.134  0.5714 -1.3390  0.3059
 3516SOL     OW22006   2.672   2.463   5.526  0.0098 -0.3793  0.5380
 3516SOL    HW122007   2.703   2.545   5.489 -1.0970 -0.7175 -1.1397
 3516SOL    HW222008   2.577   2.472   5.522  0.1035 -0.7968 -2.3364
 3517SOL     OW22009   0.553   2.337  13.630  0.3290 -0.3974 -0.3652
 3517SOL    HW122010   0.486   2.405  13.628  1.8052  1.0955  0.7200
 3517SOL    HW222011   0.622   2.382  13.679  0.0764 -0.4537  0.0437
 3518SOL     OW22012   2.108   3.878  12.729  0.1070 -0.0411 -0.0396
 3518SOL    HW122013   2.021   3.855  12.695 -0.0908  2.4106 -1.2169
 3518SOL    HW222014   2.095   3.972  12.715  1.5543  0.0795 -0.5047
 3519SOL     OW22015   2.534   4.696   2.900 -0.1231 -0.0367 -0.1027
 3519SOL    HW122016   2.566   0.044   2.959  2.3638 -0.8307 -0.5475
 3519SOL    HW222017   2.462   4.653   2.945  0.2903 -2.1874 -1.4962
 3520SOL     OW22018   0.885   1.460  15.271 -0.3241  0.6433  0.5553
 3520SOL    HW122019   0.887   1.538  15.325  0.2265  1.2912 -0.3973
 3520SOL    HW222020   0.828   1.486  15.198  1.4763  3.3734  0.1209
 3521SOL     OW22021   0.804   1.761   8.498 -0.0742 -0.6591 -0.2570
 3521SOL    HW122022   0.795   1.730   8.408 -0.6623 -1.5934  0.1330
 3521SOL    HW222023   0.752   1.700   8.549  0.3598 -0.2460  0.6935
 3522SOL     OW22024   2.685   3.347  12.064  0.5661  0.3004 -0.2208
 3522SOL    HW122025   2.771   3.321  12.096  1.6007  1.8600 -1.7780
 3522SOL    HW222026   2.630   3.308  12.131  1.1214 -0.2816 -0.1066
 3523SOL     OW22027   1.051   1.457  10.561  0.0917 -0.2190 -0.5632
 3523SOL    HW122028   1.030   1.544  10.526  1.5208  0.5365  0.4752
 3523SOL    HW222029   1.110   1.427  10.492  0.0470 -2.1587  0.2241
 3524SOL     OW22030   2.691   2.995   0.377 -0.1755 -0.0683  0.3369
 3524SOL    HW122031   2.762   3.052   0.347  0.0862 -0.1465  0.8081
 3524SOL    HW222032   2.745   2.919   0.397 -0.5092  0.2374  2.4411
 3525SOL     OW22033   2.302   0.035   8.448  0.1191  0.1853 -0.2155
 3525SOL    HW122034   2.342   0.044   8.361 -0.5524  0.6772 -0.4687
 3525SOL    HW222035   2.342   0.109   8.494 -0.8540  1.7303 -1.8663
 3526SOL     OW22036   1.866   0.373   9.532 -0.0297 -0.4940  0.6776
 3526SOL    HW122037   1.818   0.293   9.553 -0.0141 -0.1723  1.9179
 3526SOL    HW222038   1.949   0.356   9.576  0.5457 -0.8419 -0.5425
 3527SOL     OW22039   0.977   1.935   5.905 -0.1100  0.0815 -0.6462
 3527SOL    HW122040   0.984   2.004   5.839 -1.1748 -0.7273 -1.5912
 3527SOL    HW222041   1.003   1.976   5.988  1.9622 -1.8219 -0.3541
 3528SOL     OW22042   0.407   4.303   6.388 -0.4354  0.4313 -0.2736
 3528SOL    HW122043   0.386   4.368   6.454  2.1700 -0.8107  1.7704
 3528SOL    HW222044   0.470   4.347   6.332 -1.0180  1.1723 -0.3460
 3529SOL     OW22045   3.112   2.526   0.109  0.2499 -0.1642  0.2299
 3529SOL    HW122046   3.180   2.590   0.090  1.6014 -1.9193 -0.9122
 3529SOL    HW222047   3.156   2.445   0.085  0.4707  0.9283 -3.0137
 3530SOL     OW22048   0.615   0.288   3.886  0.1469  0.1116  0.7434
 3530SOL    HW122049   0.597   0.216   3.947 -0.9594  0.0977  0.3968
 3530SOL    HW222050   0.662   0.242   3.816  2.7894  1.5421  1.5768
 3531SOL     OW22051   0.721   0.889  12.789  0.2150 -0.3992 -0.3525
 3531SOL    HW122052   0.726   0.794  12.779  0.2218 -0.6634  2.1158
 3531SOL    HW222053   0.650   0.908  12.727 -1.4008  0.0352  1.6290
 3532SOL     OW22054   0.202   1.661   7.855  0.1746 -0.5368 -0.0139
 3532SOL    HW122055   0.193   1.666   7.950 -0.0627 -0.8734 -0.0166
 3532SOL    HW222056   0.294   1.637   7.851  0.2609 -0.0057 -1.1826
 3533SOL     OW22057   0.232   1.187   5.064  0.3342 -0.2201  0.2496
 3533SOL    HW122058   0.231   1.173   4.969 -0.4478  0.6565  0.1361
 3533SOL    HW222059   0.182   1.112   5.094 -0.8325  0.3773 -0.2112
 3534SOL     OW22060   0.349   2.548   5.054  0.3590 -0.0076  0.2108
 3534SOL    HW122061   0.424   2.550   4.995  0.4945 -2.1617  0.3313
 3534SOL    HW222062   0.296   2.478   5.016  0.4779  0.7341 -1.3196
 3535SOL     OW22063   1.238   4.385   2.575  0.6446 -0.3735 -0.4699
 3535SOL    HW122064   1.255   4.302   2.530  1.4557  0.2647 -1.3350
 3535SOL    HW222065   1.254   4.448   2.505  1.0031 -0.0513 -0.1006
 3536SOL     OW22066   3.645   3.597   6.408 -0.0843 -0.0259  0.1537
 3536SOL    HW122067   3.719   3.561   6.359  1.0978  1.4198  0.9027
 3536SOL    HW222068   3.628   3.520   6.462 -0.2155 -0.3411 -0.3298
 3537SOL     OW22069   1.446   2.728   4.739 -0.2166 -0.2442 -0.0853
 3537SOL    HW122070   1.404   2.800   4.693 -0.6159  2.0794  3.9542
 3537SOL    HW222071   1.495   2.687   4.667  0.0286  0.1223 -0.1279
 3538SOL     OW22072   0.697   0.676   7.200  0.3552 -0.1315 -0.1549
 3538SOL    HW122073   0.733   0.589   7.218  0.2056 -0.3224 -0.8050
 3538SOL    HW222074   0.733   0.687   7.112 -0.4409  2.5542 -0.1409
 3539SOL     OW22075   1.287   0.964   1.759 -0.2660  0.2551  0.3479
 3539SOL    HW122076   1.347   0.956   1.833 -2.2878 -0.0633  1.9512
 3539SOL    HW222077   1.351   0.943   1.690 -0.4518  1.6599 -0.2406
 3540SOL     OW22078   4.289   2.678   5.609  0.4041  0.1796  0.1410
 3540SOL    HW122079   4.275   2.585   5.626 -1.6224  0.5617  0.5416
 3540SOL    HW222080   4.365   2.686   5.551 -0.4927 -0.5033 -1.1307
 3541SOL     OW22081   1.651   2.698   5.498  0.7304 -0.4983 -0.0569
 3541SOL    HW122082   1.660   2.606   5.471  2.2130 -0.1043 -0.9262
 3541SOL    HW222083   1.574   2.720   5.445 -0.1000 -1.9301  0.5413
 3542SOL     OW22084   3.417   3.720   7.445  0.1380  0.2777  0.3931
 3542SOL    HW122085   3.326   3.691   7.442  0.1340  0.3446 -0.0334
 3542SOL    HW222086   3.451   3.685   7.527 -0.9493  0.9382  1.1414
 3543SOL     OW22087   3.412   1.959  15.815 -0.2043 -0.0511 -0.4458
 3543SOL    HW122088   3.387   2.036  15.867  0.6062 -0.5360  0.6676
 3543SOL    HW222089   3.353   1.895  15.855 -0.8744 -0.2832 -1.8305
 3544SOL     OW22090   2.657   2.483   6.971 -0.1848  0.0822 -0.5066
 3544SOL    HW122091   2.710   2.559   6.991  1.8045 -1.2134 -0.8192
 3544SOL    HW222092   2.725   2.416   6.978 -1.0306 -1.1110 -3.5823
 3545SOL     OW22093   2.716   2.330   7.302  0.1631  0.0034 -0.3067
 3545SOL    HW122094   2.657   2.255   7.300  0.2116 -0.0293 -0.5996
 3545SOL    HW222095   2.667   2.397   7.253  2.9578  1.3263 -1.3059
 3546SOL     OW22096   4.605   1.021  11.402  0.4832  0.5773 -0.2176
 3546SOL    HW122097   4.598   1.107  11.359  0.2850  1.0982  0.8407
 3546SOL    HW222098   4.531   0.983  11.355 -0.9768  1.8540  1.0344
 3547SOL     OW22099   2.350   3.685   3.401  0.0476  0.1384  0.6318
 3547SOL    HW122100   2.327   3.778   3.408 -0.9535 -0.0281 -0.4086
 3547SOL    HW222101   2.436   3.681   3.359  0.0707  0.7313  0.6174
 3548SOL     OW22102   0.033   4.294   0.658 -0.0797 -0.6292 -0.1297
 3548SOL    HW122103   0.016   4.221   0.718 -0.2188  1.5704  2.5042
 3548SOL    HW222104   4.705   4.262   0.581 -0.9242  3.0771 -1.1304
 3549SOL     OW22105   3.554   4.453   7.792  0.2618  0.5238  0.1657
 3549SOL    HW122106   3.478   4.402   7.819 -0.2403  0.9602 -0.4313
 3549SOL    HW222107   3.624   4.416   7.846 -1.0474  0.7221  1.9812
 3550SOL     OW22108   0.929   1.490   7.239  0.0953 -0.0692 -0.5053
 3550SOL    HW122109   1.023   1.496   7.257  0.3422 -1.5640 -1.2676
 3550SOL    HW222110   0.942   1.407   7.192  1.5319 -0.1296 -0.0040
 3551SOL     OW22111   2.736   1.069   2.155 -0.0426 -0.5043 -0.3372
 3551SOL    HW122112   2.743   1.162   2.130  0.9773 -0.6011 -0.3718
 3551SOL    HW222113   2.761   1.079   2.246  0.5326  0.1184 -0.5675
 3552SOL     OW22114   4.698   1.381   8.869  0.4032  0.4059 -0.2410
 3552SOL    HW122115   4.651   1.325   8.931  1.8588 -0.6495 -0.0901
 3552SOL    HW222116   0.059   1.331   8.866  0.5981  0.5709  2.5522
 3553SOL     OW22117   0.410   0.831   0.473  0.2634 -1.0430 -0.3150
 3553SOL    HW122118   0.495   0.872   0.458  0.6300 -2.0088 -0.9061
 3553SOL    HW222119   0.349   0.872   0.412  0.2818  0.2685  0.5706
 3554SOL     OW22120   4.713   4.625   4.044 -0.2346  0.5161 -0.0008
 3554SOL    HW122121   4.702   4.577   3.962  1.0604  0.0433  0.0963
 3554SOL    HW222122   4.706   4.552   4.106 -2.2670  1.4332  0.8329
 3555SOL     OW22123   4.542   4.280  12.967 -0.5078 -0.1947 -0.2454
 3555SOL    HW122124   4.525   4.373  12.953  1.1917  0.0056 -0.9085
 3555SOL    HW222125   4.596   4.279  13.046 -2.9173  1.2067  1.4216
 3556SOL     OW22126   2.859   2.942  15.772 -0.7270  0.0238 -0.0204
 3556SOL    HW122127   2.919   2.963  15.701 -0.8791  1.0204  0.1350
 3556SOL    HW222128   2.851   3.026  15.817 -4.6261 -0.2208 -0.2341
 3557SOL     OW22129   0.221   0.883   9.779 -0.5583 -0.1175  0.7888
 3557SOL    HW122130   0.242   0.947   9.847 -2.1810  0.6243  0.5837
 3557SOL    HW222131   0.127   0.897   9.778 -0.4987  0.1904 -0.9986
 3558SOL     OW22132   1.002   0.144   3.481 -0.2907  0.0955 -0.0673
 3558SOL    HW122133   0.920   0.122   3.439 -0.0667 -3.1919  1.2079
 3558SOL    HW222134   1.024   0.229   3.443  1.7736 -0.7571 -0.7887
 3559SOL     OW22135   0.530   0.557   2.119  0.4571  0.1989 -0.3321
 3559SOL    HW122136   0.438   0.536   2.134  0.7309 -1.1843 -0.5470
 3559SOL    HW222137   0.556   0.614   2.191 -1.4076 -0.8530  1.1813
 3560SOL     OW22138   4.354   3.104   6.804  0.2043 -0.2921  0.5540
 3560SOL    HW122139   4.272   3.111   6.755  0.9409  1.4772 -0.4143
 3560SOL    HW222140   4.335   3.160   6.880 -1.0696 -0.6358  0.4958
 3561SOL     OW22141   3.721   3.313   0.871  0.0017 -0.2884 -0.0438
 3561SOL    HW122142   3.640   3.324   0.921 -1.2671 -3.0503 -1.4928
 3561SOL    HW222143   3.696   3.374   0.801  1.8768 -0.1626 -0.6039
 3562SOL     OW22144   1.262   1.291   4.709  0.5347  0.5149  0.2620
 3562SOL    HW122145   1.343   1.242   4.701  0.5715  0.2995  1.9374
 3562SOL    HW222146   1.196   1.222   4.710 -1.6513  2.5948 -0.7036
 3563SOL     OW22147   1.114   4.719   2.592  0.3888  0.0636 -0.0376
 3563SOL    HW122148   1.105   0.045   2.676  1.2640  0.6351 -0.2611
 3563SOL    HW222149   1.028   4.677   2.594  1.2311 -1.5944  1.7295
 3564SOL     OW22150   0.366   0.470  17.391 -0.3918  0.4386  0.2850
 3564SOL    HW122151   0.335   0.380  17.385 -1.0114  0.6606  0.2391
 3564SOL    HW222152   0.388   0.483  17.483 -1.1777 -0.9000  0.6545
 3565SOL     OW22153   1.520   0.323   5.595 -0.2483 -0.6647  0.4783
 3565SOL    HW122154   1.446   0.383   5.588 -0.3578 -1.2164 -3.0862
 3565SOL    HW222155   1.536   0.322   5.689 -1.1388  1.3377  0.6351
 3566SOL     OW22156   3.270   2.676   9.575 -0.0791 -0.1858 -0.5815
 3566SOL    HW122157   3.334   2.646   9.640 -0.1851  0.8030 -0.0122
 3566SOL    HW222158   3.215   2.732   9.629 -0.6579 -0.5141 -0.8381
 3567SOL     OW22159   3.770   0.155   7.713 -0.1129  0.2873 -0.5712
 3567SOL    HW122160   3.843   0.216   7.701 -0.0620  0.2808 -0.2911
 3567SOL    HW222161   3.752   0.160   7.807  0.6010 -0.4352 -0.3905
 3568SOL     OW22162   3.040   3.554   3.671 -0.3707 -0.0819 -0.4944
 3568SOL    HW122163   2.955   3.566   3.713  0.1886 -2.0406  1.1528
 3568SOL    HW222164   3.072   3.644   3.660  1.9160 -0.5791  2.0608
 3569SOL     OW22165   2.127   2.187  12.711 -0.4519  0.2133 -0.1372
 3569SOL    HW122166   2.084   2.261  12.755 -1.0159  0.8100 -1.6962
 3569SOL    HW222167   2.106   2.202  12.619 -0.4953 -0.2078 -0.1939
 3570SOL     OW22168   0.048   2.932  14.974  0.1707  0.4164  0.2327
 3570SOL    HW122169   4.720   3.007  14.939 -0.5309 -0.1930 -0.1097
 3570SOL    HW222170   0.089   2.898  14.894 -0.7812 -0.3129  0.0418
 3571SOL     OW22171   1.751   4.483   8.155  0.2174 -0.1782  0.3553
 3571SOL    HW122172   1.659   4.456   8.156  0.0391  0.4415  0.5607
 3571SOL    HW222173   1.785   4.413   8.211  0.4931 -0.8359 -0.6249
 3572SOL     OW22174   3.516   1.212  13.074 -0.4577 -0.3259  0.2209
 3572SOL    HW122175   3.486   1.265  13.001 -1.2408 -1.0608  0.0044
 3572SOL    HW222176   3.565   1.149  13.021  1.0480  0.4768  0.6632
 3573SOL     OW22177   3.517   4.656   2.065  0.3733 -0.2252 -0.4926
 3573SOL    HW122178   3.460   4.659   1.989  0.7476  1.2193 -0.7236
 3573SOL    HW222179   3.522   0.030   2.082 -1.4104 -0.4296  1.1475
 3574SOL     OW22180   4.426   3.768   8.796 -0.4712 -0.3009 -0.3826
 3574SOL    HW122181   4.427   3.780   8.891 -1.3700 -0.0894 -0.3986
 3574SOL    HW222182   4.393   3.678   8.799 -1.6467  0.1250 -0.3910
 3575SOL     OW22183   4.299   1.308   4.714 -0.2679  0.4081  0.0519
 3575SOL    HW122184   4.372   1.336   4.658  0.2606 -1.2834 -0.1064
 3575SOL    HW222185   4.300   1.384   4.772 -2.2485  0.7992 -0.4481
 3576SOL     OW22186   0.306   1.071   2.684  0.1464 -0.1762 -0.0062
 3576SOL    HW122187   0.350   1.128   2.621 -0.5671  3.0836  2.4776
 3576SOL    HW222188   0.225   1.052   2.637 -0.4627  1.4720  0.3953
 3577SOL     OW22189   3.970   2.529   3.337 -0.3531 -0.0735  0.0290
 3577SOL    HW122190   4.058   2.535   3.373  0.0572  0.7528 -1.1179
 3577SOL    HW222191   3.908   2.541   3.409  1.2920 -0.7143  1.5429
 3578SOL     OW22192   4.250   0.050  14.257 -0.7160  0.0545  0.5408
 3578SOL    HW122193   4.185   0.088  14.198  0.8618  1.0327 -0.5924
 3578SOL    HW222194   4.247   0.101  14.338  0.4748  0.3051  0.4340
 3579SOL     OW22195   2.509   0.476  11.838 -0.3862  0.0043  0.5987
 3579SOL    HW122196   2.416   0.495  11.842 -0.6629 -1.1039 -0.5755
 3579SOL    HW222197   2.525   0.462  11.745 -0.1074 -2.5561  1.0350
 3580SOL     OW22198   1.737   1.005   2.608 -0.3634  0.3058  0.9685
 3580SOL    HW122199   1.738   0.967   2.520 -0.0385 -0.1108  1.1515
 3580SOL    HW222200   1.735   0.930   2.668 -0.2526 -0.9199 -0.5488
 3581SOL     OW22201   3.783   2.262  13.433  0.3404 -0.0179 -0.2748
 3581SOL    HW122202   3.770   2.343  13.483 -0.3558 -1.1614  1.3713
 3581SOL    HW222203   3.859   2.274  13.375  0.0564  0.8016 -0.4804
 3582SOL     OW22204   3.854   3.871   3.111  0.6571  0.4007  0.2117
 3582SOL    HW122205   3.868   3.904   3.200  1.3613 -0.8509  0.5628
 3582SOL    HW222206   3.758   3.873   3.109  0.6555 -0.2312 -0.1446
 3583SOL     OW22207   1.621   2.919  16.113  0.0886 -0.0887 -0.5254
 3583SOL    HW122208   1.677   2.864  16.059  2.3577  0.6976  1.0027
 3583SOL    HW222209   1.573   2.857  16.168  2.5465 -0.0370  1.6792
 3584SOL     OW22210   1.287   3.081  17.565  0.5349 -0.6330 -0.1324
 3584SOL    HW122211   1.313   3.135  17.640 -2.5073 -0.8559  1.0994
 3584SOL    HW222212   1.194   3.076  17.587  0.8524 -0.9750  1.1514
 3585SOL     OW22213   0.241   0.593  15.754  0.5825 -0.2657  0.4731
 3585SOL    HW122214   0.296   0.670  15.771 -0.4450  0.0357  2.4890
 3585SOL    HW222215   0.201   0.628  15.675  0.8684  0.2898  0.5791
 3586SOL     OW22216   1.827   3.789   6.257 -0.3152 -0.1314 -0.3645
 3586SOL    HW122217   1.825   3.856   6.188  0.3093 -0.5450 -0.7874
 3586SOL    HW222218   1.747   3.804   6.307 -1.0628 -0.6624 -1.4044
 3587SOL     OW22219   1.965   2.388  14.652  0.4463 -0.1115 -0.2218
 3587SOL    HW122220   1.982   2.307  14.603 -0.7320 -0.8094  0.5437
 3587SOL    HW222221   1.876   2.411  14.628  0.0049  0.7046  2.2733
 3588SOL     OW22222   2.586   4.242  17.652  0.4883 -1.0734  0.7771
 3588SOL    HW122223   2.549   4.295   0.038  0.9655  0.4574 -0.1244
 3588SOL    HW222224   2.620   4.171   0.021  2.0852 -0.8143  0.1145
 3589SOL     OW22225   1.658   3.506   7.845 -0.1249  0.1586  0.2450
 3589SOL    HW122226   1.688   3.595   7.827  1.7022 -0.5175  0.0188
 3589SOL    HW222227   1.568   3.519   7.874  0.3405  2.0073  0.8708
 3590SOL     OW22228   2.991   2.050  13.608 -0.3327 -0.0961 -0.0694
 3590SOL    HW122229   3.017   2.089  13.525 -2.1041 -0.3350 -0.7552
 3590SOL    HW222230   3.076   2.036  13.648  0.1803  1.6806 -0.5479
 3591SOL     OW22231   1.888   2.749   3.659 -0.1112  0.3394 -0.4062
 3591SOL    HW122232   1.917   2.696   3.585 -2.1183  0.1368 -1.0433
 3591SOL    HW222233   1.793   2.743   3.650 -0.1599  0.1052  0.2423
 3592SOL     OW22234   3.293   1.320   9.045 -0.6852 -0.3381  0.2173
 3592SOL    HW122235   3.337   1.318   8.960 -2.0650  1.8223 -0.5525
 3592SOL    HW222236   3.218   1.261   9.031  0.0328 -1.2703  0.3244
 3593SOL     OW22237   0.363   1.932  17.006  0.0826  0.6178  0.5567
 3593SOL    HW122238   0.455   1.908  16.995  0.3831  1.7405  0.6866
 3593SOL    HW222239   0.336   1.884  17.085 -0.1631  0.3960  0.3386
 3594SOL     OW22240   2.664   2.592   8.583 -0.2628 -0.0075 -0.3489
 3594SOL    HW122241   2.607   2.669   8.587 -1.9012 -1.1598 -1.3315
 3594SOL    HW222242   2.731   2.631   8.527 -1.2639  2.4171  0.1242
 3595SOL     OW22243   2.413   0.278   6.086 -0.4073  0.4194  0.1029
 3595SOL    HW122244   2.499   0.316   6.105 -0.5764  0.9379 -0.1565
 3595SOL    HW222245   2.362   0.336   6.143  0.1731  1.5131 -0.4929
 3596SOL     OW22246   2.177   3.997   7.117 -0.8428 -0.0465 -0.3391
 3596SOL    HW122247   2.194   4.087   7.090  0.9664 -0.3511 -0.2568
 3596SOL    HW222248   2.116   3.973   7.047  0.5418  0.9138 -1.8961
 3597SOL     OW22249   4.296   3.056   8.384 -0.0929 -0.0299 -0.3845
 3597SOL    HW122250   4.224   3.103   8.341 -0.3877 -1.6750 -1.6856
 3597SOL    HW222251   4.330   3.015   8.304  0.5371  0.8553 -0.5684
 3598SOL     OW22252   3.613   2.725  15.183 -0.1369 -0.5174 -0.2748
 3598SOL    HW122253   3.681   2.705  15.248  1.4850  0.7293 -1.5761
 3598SOL    HW222254   3.584   2.636  15.165 -0.6363 -0.3437 -0.3251
 3599SOL     OW22255   2.460   0.065   8.223 -0.0919 -0.4399  0.2876
 3599SOL    HW122256   2.472   0.143   8.168 -1.1487 -1.3300 -1.1833
 3599SOL    HW222257   2.512   0.012   8.163 -1.5402 -0.2217 -1.1318
 3600SOL     OW22258   2.279   0.703  16.026 -0.3996 -0.0093 -0.3554
 3600SOL    HW122259   2.290   0.609  16.010  1.0184 -0.0158  0.5625
 3600SOL    HW222260   2.312   0.746  15.947  0.2914  0.9099  0.4263
 3601SOL     OW22261   0.137   1.848  14.550  0.5507  0.6309 -0.0860
 3601SOL    HW122262   0.122   1.871  14.458  1.7777  0.2621 -0.3719
 3601SOL    HW222263   0.153   1.934  14.589 -0.0583  2.3277 -3.5540
 3602SOL     OW22264   3.743   4.133   1.722 -0.0862  0.4296 -0.7162
 3602SOL    HW122265   3.700   4.186   1.789 -1.7778  1.0227 -2.2829
 3602SOL    HW222266   3.833   4.166   1.717 -0.4304  1.6382  0.8417
 3603SOL     OW22267   0.396   3.172   4.090  0.2154 -0.4621 -0.0852
 3603SOL    HW122268   0.308   3.149   4.120  0.3409 -1.3368 -0.3765
 3603SOL    HW222269   0.408   3.114   4.015 -0.6431 -1.4992  0.5733
 3604SOL     OW22270   2.007   0.177   7.131  0.0925 -0.4179 -0.0252
 3604SOL    HW122271   1.933   0.233   7.154 -0.5043 -0.8589 -0.8873
 3604SOL    HW222272   2.072   0.244   7.110  0.6794 -0.6505  1.0746
 3605SOL     OW22273   0.837   3.672   3.480 -0.3294  0.2865 -0.3579
 3605SOL    HW122274   0.834   3.753   3.429 -3.0903  0.0345 -0.5640
 3605SOL    HW222275   0.762   3.626   3.444 -0.7104  1.8655 -1.5568
 3606SOL     OW22276   2.758   3.241   0.975 -0.4982  0.0175  0.8666
 3606SOL    HW122277   2.791   3.330   0.965 -0.5177 -0.0257  0.4398
 3606SOL    HW222278   2.674   3.249   0.930  0.1143 -1.3536 -0.4991
 3607SOL     OW22279   4.324   1.662   6.140 -0.6400 -0.0935  0.0233
 3607SOL    HW122280   4.257   1.625   6.198 -0.0370 -0.5859  0.4040
 3607SOL    HW222281   4.305   1.631   6.052  1.5427  2.6332 -1.4346
 3608SOL     OW22282   0.753   1.930   5.194  0.1494 -0.0285 -0.0329
 3608SOL    HW122283   0.764   1.884   5.277  1.5753  1.5140  0.6484
 3608SOL    HW222284   0.771   1.860   5.132 -1.7561 -1.7677  1.3714
 3609SOL     OW22285   0.489   1.502   4.515 -0.1215  0.3886 -0.1717
 3609SOL    HW122286   0.528   1.571   4.461  0.6108  0.5399  0.5486
 3609SOL    HW222287   0.396   1.526   4.515 -0.2186  0.0611  1.4241
 3610SOL     OW22288   4.362   1.718   7.262  0.2153  0.1737 -0.3072
 3610SOL    HW122289   4.278   1.673   7.268 -0.4156  1.2131 -1.3875
 3610SOL    HW222290   4.409   1.635   7.268 -0.4824 -0.1270  1.0598
 3611SOL     OW22291   2.482   2.935   6.412 -0.5844 -0.3696  0.6356
 3611SOL    HW122292   2.426   2.896   6.345 -0.5969  0.0857  0.3788
 3611SOL    HW222293   2.550   2.871   6.391 -0.8290  0.0361 -1.3435
 3612SOL     OW22294   1.128   0.125   0.839  0.3086  0.5939 -0.2713
 3612SOL    HW122295   1.211   0.168   0.860  0.3632  0.2513  0.2142
 3612SOL    HW222296   1.116   0.139   0.745 -1.2360  0.2522 -0.1170
 3613SOL     OW22297   3.121   4.665   8.681 -0.0024 -0.3394  0.0332
 3613SOL    HW122298   3.057   4.676   8.611 -0.4640  3.0654  0.9833
 3613SOL    HW222299   3.144   0.035   8.701  2.0001 -0.6009 -1.1146
 3614SOL     OW22300   4.320   1.786   8.222 -0.1877 -0.3058 -0.5868
 3614SOL    HW122301   4.298   1.746   8.138 -0.7920 -1.5428  0.1517
 3614SOL    HW222302   4.358   1.712   8.271  0.5210  0.8289  0.5652
 3615SOL     OW22303   0.915   3.930   7.461  0.0399  0.4413  0.0272
 3615SOL    HW122304   0.920   3.964   7.372  2.6291  0.4052  0.1339
 3615SOL    HW222305   0.909   4.011   7.510  2.3081 -0.2751  1.5090
 3616SOL     OW22306   1.539   1.159   6.719 -0.0004 -0.2026  0.6695
 3616SOL    HW122307   1.560   1.200   6.803  1.4431 -0.4250  0.4181
 3616SOL    HW222308   1.468   1.218   6.693 -2.5616 -3.9803 -0.8892
 3617SOL     OW22309   2.873   0.848   8.266 -0.8665  0.0118 -0.1703
 3617SOL    HW122310   2.851   0.841   8.359  0.9069 -2.0568  0.0805
 3617SOL    HW222311   2.967   0.871   8.267 -0.4790 -1.5782 -1.3934
 3618SOL     OW22312   1.438   4.020   0.854  0.6909  0.1569  0.5155
 3618SOL    HW122313   1.356   3.973   0.839  1.1169 -1.6049  3.5697
 3618SOL    HW222314   1.421   4.076   0.930  0.5882  0.5328  0.2152
 3619SOL     OW22315   3.014   0.442   5.926  0.2620 -0.3278  0.0103
 3619SOL    HW122316   3.072   0.386   5.977  1.7015  1.3100  0.1574
 3619SOL    HW222317   2.961   0.375   5.884  1.6406 -1.6612  0.4137
 3620SOL     OW22318   4.035   1.241   3.426  0.4301 -0.1429 -0.1721
 3620SOL    HW122319   4.114   1.289   3.400 -0.0218  0.6368 -0.1221
 3620SOL    HW222320   4.022   1.287   3.510  1.5616  1.3540 -0.8245
 3621SOL     OW22321   3.522   2.075  12.145 -0.5202  0.0485  0.2289
 3621SOL    HW122322   3.481   1.989  12.146  2.2509 -1.2760 -0.4668
 3621SOL    HW222323   3.461   2.125  12.200 -1.5104 -1.3803  0.4295
 3622SOL     OW22324   3.967   1.953  11.687 -0.2751 -0.0883 -0.2157
 3622SOL    HW122325   3.881   1.990  11.707  0.2694  0.4445  1.1111
 3622SOL    HW222326   4.002   1.936  11.775 -3.4257  1.0939  1.2581
 3623SOL     OW22327   1.027   0.305  12.223  0.5317  0.3379 -0.0384
 3623SOL    HW122328   1.103   0.251  12.201  0.9830  0.9478  0.0289
 3623SOL    HW222329   1.056   0.354  12.300 -0.7775  1.6120 -0.3532
 3624SOL     OW22330   0.833   0.328   6.178  0.6067 -0.2818  0.1640
 3624SOL    HW122331   0.793   0.400   6.227 -0.2453 -1.7329  1.5777
 3624SOL    HW222332   0.823   0.260   6.244 -1.7475 -1.4397 -1.4051
 3625SOL     OW22333   2.303   1.971   1.931  0.0857  0.0417 -0.2092
 3625SOL    HW122334   2.277   1.932   1.847  0.0109 -2.4719  0.9742
 3625SOL    HW222335   2.369   2.032   1.898  2.9509 -1.9094  1.9571
 3626SOL     OW22336   2.781   1.368   2.097 -0.1974 -0.3482 -0.2402
 3626SOL    HW122337   2.766   1.440   2.035  0.8521 -0.2079 -0.3187
 3626SOL    HW222338   2.873   1.372   2.120  0.1709 -2.0370 -1.4517
 3627SOL     OW22339   3.164   3.275   0.037 -0.7145 -0.1392 -0.3118
 3627SOL    HW122340   3.084   3.274  17.669  0.1188  3.6525 -1.6962
 3627SOL    HW222341   3.131   3.224   0.110 -2.1650  0.0568 -0.8414
 3628SOL     OW22342   3.990   3.371   7.470  0.5339  0.6440 -0.6549
 3628SOL    HW122343   3.909   3.420   7.480  0.7549  0.6679  1.0365
 3628SOL    HW222344   4.016   3.399   7.382 -1.1355  0.1578 -1.3052
 3629SOL     OW22345   2.422   4.343   8.472 -0.3707 -0.2797 -0.4874
 3629SOL    HW122346   2.450   4.356   8.562  0.2578 -1.1405 -0.5616
 3629SOL    HW222347   2.402   4.250   8.477  0.2525 -0.4190 -0.6084
 3630SOL     OW22348   1.002   3.024   7.664  0.0941 -0.1000 -0.6806
 3630SOL    HW122349   0.911   3.017   7.636  0.4896 -0.5451 -1.8890
 3630SOL    HW222350   1.025   3.110   7.628  0.0599  1.5731  3.3787
 3631SOL     OW22351   0.254   2.892   7.848 -0.0218  0.6559  0.2943
 3631SOL    HW122352   0.202   2.941   7.783  0.5013 -0.3854 -0.9050
 3631SOL    HW222353   0.213   2.926   7.928  1.9544  0.6923  1.2792
 3632SOL     OW22354   1.902   2.127  10.083  0.7724  0.3331  0.3228
 3632SOL    HW122355   1.900   2.049  10.138  1.5417 -0.0952 -0.2476
 3632SOL    HW222356   1.994   2.132  10.057  0.6509  0.9741  0.0142
 3633SOL     OW22357   2.141   3.841   9.560  0.1763 -0.1272 -0.4641
 3633SOL    HW122358   2.130   3.927   9.522  0.1038  0.8523  1.7598
 3633SOL    HW222359   2.084   3.837   9.638  1.0641 -0.6704  0.1583
 3634SOL     OW22360   3.506   2.718   6.078 -0.5270  0.6400  0.4632
 3634SOL    HW122361   3.442   2.763   6.132 -1.1318  0.4679 -0.1097
 3634SOL    HW222362   3.447   2.644   6.060  0.3619  0.1099 -0.2991
 3635SOL     OW22363   3.071   2.786  13.898 -0.8418  0.9190 -0.2703
 3635SOL    HW122364   3.006   2.715  13.900 -0.6439  0.7534  0.1808
 3635SOL    HW222365   3.117   2.758  13.818  0.3746  0.9785  0.4152
 3636SOL     OW22366   2.044   0.860  12.811 -0.7861  0.0059 -0.0824
 3636SOL    HW122367   2.108   0.805  12.767 -0.6093 -0.2531  0.4946
 3636SOL    HW222368   2.083   0.947  12.806 -1.6102  0.2565 -2.2121
 3637SOL     OW22369   4.136   3.655   1.007  0.1234  0.5281  0.7972
 3637SOL    HW122370   4.202   3.587   1.020 -0.7657 -0.4164  0.3673
 3637SOL    HW222371   4.129   3.651   0.911 -1.5731 -0.9101  0.9794
 3638SOL     OW22372   4.273   1.562   2.048 -0.6106  0.2279 -0.0856
 3638SOL    HW122373   4.341   1.498   2.025  0.8768  1.1576  1.7363
 3638SOL    HW222374   4.266   1.604   1.962 -0.0420  1.7915  0.6393
 3639SOL     OW22375   1.834   1.745   9.157 -0.0771  0.3303 -0.4163
 3639SOL    HW122376   1.923   1.724   9.128 -0.8919 -0.2774 -2.4087
 3639SOL    HW222377   1.835   1.712   9.247 -0.3047  1.2242 -0.0913
 3640SOL     OW22378   1.309   2.148   5.355 -0.4341  0.2025 -0.5850
 3640SOL    HW122379   1.329   2.057   5.331 -0.1266  0.1521 -0.1379
 3640SOL    HW222380   1.354   2.164   5.438 -0.4429 -0.7737 -0.3902
 3641SOL     OW22381   3.041   2.407   6.716 -0.2439  0.2075 -0.2447
 3641SOL    HW122382   2.996   2.393   6.633 -1.1657 -1.4197  0.5246
 3641SOL    HW222383   3.133   2.397   6.692 -0.3792  0.8393 -1.0206
 3642SOL     OW22384   1.395   0.966   3.044 -0.3558 -0.3316  0.0884
 3642SOL    HW122385   1.449   0.892   3.015  1.1924  0.7787  0.1596
 3642SOL    HW222386   1.358   0.983   2.958  0.1236 -0.0874 -0.0665
 3643SOL     OW22387   1.286   0.506   9.731  0.8635 -0.0089  0.3286
 3643SOL    HW122388   1.284   0.564   9.655  1.0573 -0.3494  0.0637
 3643SOL    HW222389   1.368   0.514   9.779  0.1972  1.9869  1.1143
 3644SOL     OW22390   1.483   4.340  14.694 -0.1091 -0.2457  0.0275
 3644SOL    HW122391   1.545   4.404  14.730 -2.6528  2.3709 -0.3706
 3644SOL    HW222392   1.408   4.370  14.745  1.0091  0.5861  1.2076
 3645SOL     OW22393   0.868   2.016   6.643  0.6580 -0.2837  0.2060
 3645SOL    HW122394   0.893   2.041   6.732 -1.2527 -0.6622  0.8434
 3645SOL    HW222395   0.842   2.096   6.598 -0.8348  0.4584  2.3964
 3646SOL     OW22396   1.254   0.057   7.082 -0.8098  0.2263 -0.1656
 3646SOL    HW122397   1.291   0.046   7.170  0.6336  0.3824 -0.7583
 3646SOL    HW222398   1.284   0.146   7.061 -0.4639 -0.0516 -0.8407
 3647SOL     OW22399   3.199   1.816   7.318  0.0445  0.1216 -0.2336
 3647SOL    HW122400   3.266   1.882   7.301 -0.3049  0.8076  1.0608
 3647SOL    HW222401   3.185   1.823   7.412  2.5580  0.9337  0.0903
 3648SOL     OW22402   3.549   2.332  17.413  0.3679  0.2292 -0.3153
 3648SOL    HW122403   3.591   2.367  17.492  1.9320  1.2650 -1.5959
 3648SOL    HW222404   3.619   2.277  17.377  1.6861  1.2494  0.6782
 3649SOL     OW22405   2.128   3.603   9.243  0.0044 -0.0245 -0.1591
 3649SOL    HW122406   2.050   3.657   9.228  0.3353 -0.0204 -1.7922
 3649SOL    HW222407   2.181   3.650   9.179  0.6386 -0.5925 -0.0446
 3650SOL     OW22408   2.823   0.870   8.898  0.0105 -0.0936  0.0053
 3650SOL    HW122409   2.791   0.804   8.959  0.0383 -0.2581 -0.1588
 3650SOL    HW222410   2.792   0.950   8.942 -1.6587 -0.4213 -0.5753
 3651SOL     OW22411   3.899   2.187   5.383 -0.1926 -0.5397  0.2015
 3651SOL    HW122412   3.870   2.275   5.405  2.1801 -0.5208  3.2380
 3651SOL    HW222413   3.993   2.198   5.367 -0.0504  0.5136  1.8289
 3652SOL     OW22414   1.896   1.374   9.769  0.0270  0.5227  0.2944
 3652SOL    HW122415   1.801   1.389   9.762 -0.1860 -1.2208 -0.4994
 3652SOL    HW222416   1.901   1.280   9.786 -1.9619  0.6714  1.6303
 3653SOL     OW22417   1.823   1.649   5.074 -0.5477 -0.8633  0.3335
 3653SOL    HW122418   1.902   1.604   5.103  1.6016  1.6996 -1.5626
 3653SOL    HW222419   1.755   1.582   5.068 -0.2183 -1.0546 -1.1361
 3654SOL     OW22420   3.936   4.469   3.111  0.3302 -0.3380  0.3710
 3654SOL    HW122421   3.895   4.396   3.063  0.2966  0.5027 -0.8805
 3654SOL    HW222422   3.928   4.551   3.062 -0.1853 -0.1913  0.6999
 3655SOL     OW22423   0.808   2.111   8.043  0.4656 -0.5749 -0.3285
 3655SOL    HW122424   0.814   2.203   8.019  0.0856 -0.5505 -0.3326
 3655SOL    HW222425   0.816   2.113   8.139  0.5851  0.1189 -0.3538
 3656SOL     OW22426   2.366   2.326  13.138 -0.1078 -0.4464  0.1099
 3656SOL    HW122427   2.312   2.329  13.058  0.8514  0.1556 -0.5236
 3656SOL    HW222428   2.312   2.323  13.217  1.1947  0.2022  1.0285
 3657SOL     OW22429   1.840   3.418   2.055 -0.3443  0.8548  0.1093
 3657SOL    HW122430   1.784   3.493   2.037 -3.2998 -1.0587  1.3961
 3657SOL    HW222431   1.867   3.443   2.143  0.6921 -0.0778  0.0622
 3658SOL     OW22432   1.632   0.770   8.829 -0.6404  0.2466 -0.4127
 3658SOL    HW122433   1.695   0.698   8.824 -0.2976  0.8029 -3.8073
 3658SOL    HW222434   1.559   0.716   8.859  0.2090  0.2694  1.7166
 3659SOL     OW22435   1.465   1.743   2.736 -0.3131 -0.7052  0.0066
 3659SOL    HW122436   1.440   1.800   2.809 -0.4742 -2.1991  1.1226
 3659SOL    HW222437   1.525   1.795   2.683 -1.0929  1.2452  1.0245
 3660SOL     OW22438   2.214   0.882  11.704 -0.3249  0.5459 -0.5377
 3660SOL    HW122439   2.207   0.962  11.756  0.2472 -0.0696  0.4852
 3660SOL    HW222440   2.280   0.913  11.643 -0.1747  0.2254 -0.5369
 3661SOL     OW22441   3.818   0.409   4.699  0.1904 -0.2015 -0.2858
 3661SOL    HW122442   3.865   0.346   4.753  1.9067  0.0517 -1.4855
 3661SOL    HW222443   3.836   0.489   4.748 -0.1408 -0.9423  1.0360
 3662SOL     OW22444   2.176   2.827   2.396  0.4265  0.2963  0.5010
 3662SOL    HW122445   2.090   2.797   2.426  1.7842 -1.0804  3.0468
 3662SOL    HW222446   2.158   2.912   2.356  0.3330 -0.5139 -1.1649
 3663SOL     OW22447   3.343   3.021  13.955 -0.2733  0.0745 -0.3575
 3663SOL    HW122448   3.323   3.115  13.958 -0.9796 -0.1222  0.7044
 3663SOL    HW222449   3.423   3.020  13.901  1.5372  1.6176  2.3063
 3664SOL     OW22450   3.292   3.277  13.990 -0.4007 -0.0752 -0.2213
 3664SOL    HW122451   3.296   3.354  13.932 -0.9467  1.2785  1.5434
 3664SOL    HW222452   3.250   3.310  14.069  2.6338  0.2694  1.2577
 3665SOL     OW22453   4.683   4.243  14.288 -0.3870 -0.2098  0.2829
 3665SOL    HW122454   4.665   4.306  14.218 -0.1683 -0.3356  0.1130
 3665SOL    HW222455   0.055   4.224  14.274 -0.3339 -0.2033  0.6432
 3666SOL     OW22456   4.484   1.541  16.809  0.3870  0.2654  0.0767
 3666SOL    HW122457   4.463   1.623  16.854 -1.7581  0.2466 -0.8817
 3666SOL    HW222458   4.420   1.550  16.739  0.5810 -3.0148 -0.5275
 3667SOL     OW22459   0.583   1.088   5.065  0.4779  0.2648  0.8595
 3667SOL    HW122460   0.564   0.995   5.051 -1.9720  0.7790  0.8285
 3667SOL    HW222461   0.566   1.120   4.976 -2.4927 -2.2739  0.5123
 3668SOL     OW22462   2.120   0.709   5.009 -0.6162 -0.4347  0.9734
 3668SOL    HW122463   2.149   0.689   5.098  1.6315  0.9964  0.5686
 3668SOL    HW222464   2.192   0.664   4.964  0.0891  1.5223  0.1730
 3669SOL     OW22465   1.140   2.339   2.424 -0.2410 -0.1153 -0.7103
 3669SOL    HW122466   1.198   2.266   2.403 -2.3016 -2.1661  0.7540
 3669SOL    HW222467   1.204   2.408   2.445 -0.3714 -0.2570  0.1459
 3670SOL     OW22468   2.723   1.531   3.811  0.6448 -0.6473  0.5702
 3670SOL    HW122469   2.812   1.566   3.798  0.2080  0.1050 -0.4704
 3670SOL    HW222470   2.672   1.603   3.848 -2.1008 -2.8581  1.0192
 3671SOL     OW22471   4.599   3.952   1.591 -0.0445 -0.0246 -0.3707
 3671SOL    HW122472   4.600   3.893   1.666 -0.0019 -0.1313 -0.4539
 3671SOL    HW222473   4.558   3.895   1.525 -0.6565  0.3701 -0.3359
 3672SOL     OW22474   3.955   0.911  17.476 -0.6057  0.1379 -0.2776
 3672SOL    HW122475   3.936   0.951  17.391  1.4623  0.6605 -0.4805
 3672SOL    HW222476   3.926   0.822  17.456 -1.2384  0.9777 -3.1977
 3673SOL     OW22477   0.045   3.328   5.072 -0.1137  0.3961  0.9730
 3673SOL    HW122478   4.671   3.342   5.080  0.2345  0.8955  4.2770
 3673SOL    HW222479   0.070   3.418   5.055 -0.7764  0.4042  0.0359
 3674SOL     OW22480   2.416   2.611   5.495  0.0483 -0.2236 -0.6622
 3674SOL    HW122481   2.395   2.620   5.402 -2.1880 -0.5218 -0.1848
 3674SOL    HW222482   2.332   2.609   5.540  0.6617 -1.7338  0.3973
 3675SOL     OW22483   2.247   0.117   4.322 -0.0780 -0.6160 -0.4406
 3675SOL    HW122484   2.264   0.028   4.290 -1.2226 -0.9463 -0.1442
 3675SOL    HW222485   2.217   0.104   4.411 -0.4248 -0.1953 -0.4971
 3676SOL     OW22486   4.447   0.637   3.407 -0.5188  0.0945 -0.2113
 3676SOL    HW122487   4.415   0.614   3.494 -0.9058  0.6804 -0.2012
 3676SOL    HW222488   4.386   0.708   3.386 -1.1922 -0.5807 -0.5060
 3677SOL     OW22489   2.046   2.528  14.878  0.1745  0.6138  0.0172
 3677SOL    HW122490   1.954   2.536  14.904 -0.4560 -1.7453 -1.4906
 3677SOL    HW222491   2.051   2.455  14.816  1.7530  0.1338  0.6995
 3678SOL     OW22492   1.797   3.251  11.287 -0.7194  0.1055  0.1262
 3678SOL    HW122493   1.795   3.165  11.330 -1.2472  1.0248  1.9176
 3678SOL    HW222494   1.890   3.272  11.293 -1.0132  1.3064  0.3904
 3679SOL     OW22495   3.917   0.866   0.288 -0.1902 -0.3304  0.2810
 3679SOL    HW122496   4.002   0.872   0.332  0.1277 -0.5062 -0.3151
 3679SOL    HW222497   3.924   0.954   0.251 -1.6296 -0.9655 -1.4663
 3680SOL     OW22498   1.023   3.703   8.120 -0.1894  0.0874  0.5762
 3680SOL    HW122499   1.058   3.702   8.031 -1.9276  0.1735 -0.1070
 3680SOL    HW222500   1.015   3.610   8.142  1.0208 -0.1361  0.0596
 3681SOL     OW22501   1.918   3.331   6.995  0.0953  0.1173 -0.7442
 3681SOL    HW122502   1.862   3.294   7.063  0.3535  1.4932  0.2223
 3681SOL    HW222503   1.927   3.421   7.026 -1.0315  0.1102 -0.4276
 3682SOL     OW22504   2.485   1.233   3.779  0.5304  0.2447 -0.5205
 3682SOL    HW122505   2.528   1.197   3.702  0.7932  1.3106 -0.8804
 3682SOL    HW222506   2.436   1.306   3.740 -0.3028  1.6239  3.0669
 3683SOL     OW22507   4.572   1.292   4.257  0.2540 -0.2109  0.1645
 3683SOL    HW122508   4.577   1.383   4.227 -1.5239 -0.7056 -1.6354
 3683SOL    HW222509   4.559   1.253   4.171 -1.4570 -0.1168  0.3840
 3684SOL     OW22510   1.697   2.751   7.320  0.4270 -0.1328 -0.5492
 3684SOL    HW122511   1.626   2.728   7.379  2.7464 -0.2603  2.2250
 3684SOL    HW222512   1.643   2.744   7.241  1.0500  1.4851 -1.1149
 3685SOL     OW22513   0.421   4.580  16.819  0.2724  0.3152  0.4474
 3685SOL    HW122514   0.355   4.647  16.835  1.4631  1.7000 -0.4624
 3685SOL    HW222515   0.439   4.555  16.910  0.8577  1.6706  0.7003
 3686SOL     OW22516   3.890   3.185   1.760 -0.0315 -0.9355  0.0484
 3686SOL    HW122517   3.980   3.160   1.781  0.7769  1.3367 -0.7241
 3686SOL    HW222518   3.861   3.100   1.725  0.1540 -0.2187 -1.8500
 3687SOL     OW22519   0.881   3.433   6.749  0.3270 -0.3269  0.3383
 3687SOL    HW122520   0.929   3.356   6.779  3.5072  1.9560  1.0521
 3687SOL    HW222521   0.800   3.434   6.800  0.3945 -1.1767  0.4674
 3688SOL     OW22522   0.994   3.416   8.121  0.7895  0.1606 -0.1347
 3688SOL    HW122523   0.997   3.339   8.064 -1.2294 -1.2510  1.6695
 3688SOL    HW222524   1.073   3.404   8.175 -0.4530 -0.7546  1.4727
 3689SOL     OW22525   1.737   2.244  13.195 -0.2776  0.0700  0.2401
 3689SOL    HW122526   1.727   2.339  13.207 -0.4369 -0.0168  0.8015
 3689SOL    HW222527   1.727   2.251  13.100  1.7633 -1.6902 -0.1025
 3690SOL     OW22528   2.235   3.373   8.899  0.3097 -0.3485 -0.3445
 3690SOL    HW122529   2.314   3.425   8.889  0.7164 -0.8998  0.0328
 3690SOL    HW222530   2.196   3.368   8.812 -2.4227 -4.0237  1.1056
 3691SOL     OW22531   3.762   0.472  11.509  0.3807  0.6898 -0.1264
 3691SOL    HW122532   3.810   0.551  11.534  2.2361  0.1505 -2.0351
 3691SOL    HW222533   3.828   0.444  11.446 -0.6589 -0.6365 -0.6306
 3692SOL     OW22534   0.661   0.149  11.651 -0.4038 -0.4508 -0.6221
 3692SOL    HW122535   0.659   0.244  11.667  0.8305 -0.1666 -2.1553
 3692SOL    HW222536   0.640   0.120  11.740 -1.6204 -0.6306 -0.9597
 3693SOL     OW22537   3.915   0.071   6.452 -0.3536  0.1903 -0.2407
 3693SOL    HW122538   3.853   0.036   6.388 -0.8635 -1.3866  1.1064
 3693SOL    HW222539   3.962   0.148   6.420  1.9876 -0.3024  2.0023
 3694SOL     OW22540   4.300   4.134   3.448 -0.3304 -0.1167  0.0928
 3694SOL    HW122541   4.230   4.162   3.508  0.1087  0.2418  0.4404
 3694SOL    HW222542   4.377   4.179   3.483 -0.7544 -0.0413  0.9345
 3695SOL     OW22543   4.513   1.615  14.889  0.3133  0.5346  0.4691
 3695SOL    HW122544   4.484   1.669  14.816  1.8249 -0.8215 -1.1639
 3695SOL    HW222545   4.606   1.612  14.866  0.6738 -3.0720  2.2610
 3696SOL     OW22546   3.416   1.742   1.424 -0.5644 -0.3138 -0.1824
 3696SOL    HW122547   3.429   1.662   1.474  1.4400  1.3883  2.0583
 3696SOL    HW222548   3.343   1.775   1.477  1.6937 -1.7231  3.7891
 3697SOL     OW22549   3.153   3.599   2.401  0.0778 -0.3245  0.7342
 3697SOL    HW122550   3.139   3.557   2.316  0.2098 -0.0290  0.5699
 3697SOL    HW222551   3.106   3.540   2.460 -0.6996 -0.4045  0.0223
 3698SOL     OW22552   1.697   4.111  16.504 -0.5509  0.0968 -0.0950
 3698SOL    HW122553   1.689   4.129  16.411  1.1930  1.5302  0.0148
 3698SOL    HW222554   1.740   4.026  16.502 -1.5197 -0.3734 -0.6385
 3699SOL     OW22555   0.187   3.796   4.208 -0.1779  0.0551  0.1489
 3699SOL    HW122556   0.177   3.876   4.261 -2.4520  0.1610 -0.4156
 3699SOL    HW222557   0.247   3.751   4.268 -0.7679  0.2461  0.8895
 3700SOL     OW22558   1.152   0.393   7.730  0.7776 -0.2680 -0.6190
 3700SOL    HW122559   1.225   0.403   7.791 -2.0072  0.4386  2.5639
 3700SOL    HW222560   1.109   0.477   7.718 -1.3603 -1.3996 -0.9350
 3701SOL     OW22561   3.293   4.311   2.705  0.1813  0.0863 -0.1179
 3701SOL    HW122562   3.298   4.372   2.779 -2.2255  0.5265 -0.3141
 3701SOL    HW222563   3.306   4.223   2.741 -0.5777  0.0965  0.1739
 3702SOL     OW22564   3.678   1.743   8.881  0.4715 -0.1906  0.5962
 3702SOL    HW122565   3.711   1.717   8.967  1.4493 -2.9851 -0.6240
 3702SOL    HW222566   3.731   1.676   8.838  0.7053 -0.6521  1.6140
 3703SOL     OW22567   0.941   0.089   3.738 -0.1925 -0.8713  0.3886
 3703SOL    HW122568   0.952   4.715   3.736 -0.9679 -0.9236 -1.3177
 3703SOL    HW222569   0.987   0.115   3.658  0.4777 -2.1859  0.3431
 3704SOL     OW22570   3.074   1.855   8.728  0.2207 -0.3997 -0.0432
 3704SOL    HW122571   3.136   1.782   8.726  2.4709  1.4552  1.7620
 3704SOL    HW222572   3.006   1.832   8.664  0.4310 -1.7049  0.2133
 3705SOL     OW22573   0.431   2.538   3.464 -0.0601 -0.4356 -0.4701
 3705SOL    HW122574   0.493   2.580   3.523 -0.4146 -1.8296  0.9070
 3705SOL    HW222575   0.477   2.456   3.445 -0.5790 -0.8985  0.2997
 3706SOL     OW22576   4.685   0.997   9.609 -0.2288  0.0120  0.4068
 3706SOL    HW122577   4.706   0.917   9.561  0.7785 -0.7863  2.1601
 3706SOL    HW222578   4.612   1.030   9.557  0.6224  2.1072  0.5220
 3707SOL     OW22579   1.967   1.133   5.317 -0.1837  0.1408 -0.2552
 3707SOL    HW122580   2.025   1.059   5.333  0.1732  0.5365  0.2667
 3707SOL    HW222581   2.012   1.193   5.376 -2.5929  1.1289  0.5978
 3708SOL     OW22582   3.802   3.174  11.095  0.0471  0.5859 -0.3860
 3708SOL    HW122583   3.746   3.097  11.105 -0.1832  0.5558 -1.9276
 3708SOL    HW222584   3.745   3.250  11.102 -1.2860 -0.7261  2.8455
 3709SOL     OW22585   3.946   2.500  12.581  0.2877  0.0768  0.0394
 3709SOL    HW122586   3.924   2.450  12.660 -1.4529 -1.2138 -1.2508
 3709SOL    HW222587   3.935   2.585  12.624  0.9161  0.3236 -0.2784
 3710SOL     OW22588   2.225   3.283   2.202 -0.0620 -0.1874  0.1762
 3710SOL    HW122589   2.181   3.368   2.207  0.1723  0.0751 -2.3658
 3710SOL    HW222590   2.305   3.291   2.150  0.0491  0.1421  0.3971
 3711SOL     OW22591   0.021   1.756  16.709 -0.8734  0.2304  0.3203
 3711SOL    HW122592   0.064   1.838  16.733  1.2481 -1.6248  2.7696
 3711SOL    HW222593   0.094   1.694  16.708  0.9852  2.4563 -1.2227
 3712SOL     OW22594   3.817   1.321  12.982 -0.0494  0.0893  0.3215
 3712SOL    HW122595   3.858   1.341  12.898 -0.5149 -1.3359 -0.2299
 3712SOL    HW222596   3.787   1.231  12.986  0.7598 -0.1798  0.3901
 3713SOL     OW22597   0.000   1.734  14.749 -0.2526  0.0857  0.0811
 3713SOL    HW122598   0.050   1.790  14.689  0.6957 -0.5643  0.2607
 3713SOL    HW222599   0.038   1.649  14.728  1.5434  1.2190 -1.2708
 3714SOL     OW22600   0.704   4.425   2.207  0.9184  0.3142 -0.1945
 3714SOL    HW122601   0.623   4.375   2.196 -0.1228  0.6619  5.9472
 3714SOL    HW222602   0.686   4.495   2.145  0.0455  1.2476  1.0947
 3715SOL     OW22603   0.452   0.059   5.049  0.0772 -0.2442 -0.6431
 3715SOL    HW122604   0.472   0.148   5.020  0.8986  0.2306  1.3463
 3715SOL    HW222605   0.523   0.040   5.110 -0.1822 -1.4503 -0.7198
 3716SOL     OW22606   4.027   1.085   6.618 -0.1826  0.1125  0.1981
 3716SOL    HW122607   3.957   1.148   6.636  1.3770  1.7391  0.4315
 3716SOL    HW222608   3.995   1.015   6.675 -1.7504 -0.0266 -0.8358
 3717SOL     OW22609   0.686   1.810   3.058  0.0124 -0.4741 -0.4081
 3717SOL    HW122610   0.645   1.753   2.993 -1.6191  1.1964 -0.8334
 3717SOL    HW222611   0.692   1.754   3.136  1.7080 -1.2579 -1.1007
 3718SOL     OW22612   0.141   1.737   9.180 -0.0068  0.6593 -0.0137
 3718SOL    HW122613   0.149   1.702   9.269 -0.5905  0.3003 -0.1032
 3718SOL    HW222614   0.170   1.828   9.191 -1.0456  0.8144  1.5016
 3719SOL     OW22615   0.116   4.446  14.751  0.4046  0.0270 -0.0962
 3719SOL    HW122616   0.196   4.475  14.707  1.0151 -1.8253 -0.2040
 3719SOL    HW222617   0.064   4.399  14.686 -0.6393 -0.2850  0.9572
 3720SOL     OW22618   3.847   1.064   2.555  0.1591 -0.2107  0.0607
 3720SOL    HW122619   3.912   1.027   2.614  2.0067  2.8874 -0.0356
 3720SOL    HW222620   3.838   1.150   2.596  0.4600  0.2203 -0.7615
 3721SOL     OW22621   1.517   0.973  17.036 -0.4499 -0.4381 -0.3432
 3721SOL    HW122622   1.437   0.922  17.029  0.1348 -1.5495  0.9003
 3721SOL    HW222623   1.592   0.922  17.004 -1.5829 -1.6698 -1.0000
 3722SOL     OW22624   4.321   0.948   6.114 -0.1645 -0.0469  0.6619
 3722SOL    HW122625   4.267   0.927   6.190  1.5838 -3.9146  0.8528
 3722SOL    HW222626   4.261   0.951   6.039  0.1222 -0.6804  0.4133
 3723SOL     OW22627   0.080   2.618  11.334  0.5804 -0.6258  0.1996
 3723SOL    HW122628   0.018   2.669  11.387 -0.9738  0.3974 -2.5800
 3723SOL    HW222629   0.143   2.685  11.306  1.2504 -0.6483  1.6402
 3724SOL     OW22630   1.731   0.332   6.408 -0.7992  0.2407 -0.0975
 3724SOL    HW122631   1.745   0.350   6.315 -0.7022 -2.6294 -0.6135
 3724SOL    HW222632   1.667   0.401   6.428  0.3158  1.4559 -0.7651
 3725SOL     OW22633   1.371   3.844   8.097  0.5086 -0.1087  0.2540
 3725SOL    HW122634   1.427   3.913   8.063  0.1701  0.6102  1.1549
 3725SOL    HW222635   1.292   3.860   8.044 -2.1003 -0.6518  3.9649
 3726SOL     OW22636   0.983   3.216  12.079  0.1069  0.3587 -0.0133
 3726SOL    HW122637   0.889   3.206  12.095 -0.3940  4.3705 -0.4732
 3726SOL    HW222638   0.997   3.127  12.046  2.4783  0.5516  0.4286
 3727SOL     OW22639   3.207   1.188  17.365  0.4384 -0.3475 -0.3368
 3727SOL    HW122640   3.166   1.144  17.440 -1.7354  0.7646 -0.8793
 3727SOL    HW222641   3.155   1.268  17.364  1.5773  0.3997  0.7299
 3728SOL     OW22642   1.569   4.212   3.062 -0.0888  0.2047  0.6303
 3728SOL    HW122643   1.663   4.217   3.042 -0.2353  0.9041  0.1377
 3728SOL    HW222644   1.582   4.181   3.151  3.4189 -2.2931 -0.7207
 3729SOL     OW22645   2.542   2.106  11.407  0.5092  0.1899  0.2165
 3729SOL    HW122646   2.610   2.173  11.396  0.6957 -0.1063 -0.4513
 3729SOL    HW222647   2.463   2.154  11.432 -0.4324 -2.8483  3.1372
 3730SOL     OW22648   1.494   4.209   4.410  0.3548 -0.0742 -0.3215
 3730SOL    HW122649   1.582   4.221   4.374  0.0890 -1.4162 -1.4107
 3730SOL    HW222650   1.448   4.269   4.350  0.9281  0.9352  0.2453
 3731SOL     OW22651   1.222   3.492   8.572  0.2832  0.6236  0.2469
 3731SOL    HW122652   1.298   3.435   8.586  0.3345  0.3954 -0.9589
 3731SOL    HW222653   1.180   3.454   8.495  2.1471 -0.0547 -0.4357
 3732SOL     OW22654   2.302   3.191   5.854 -0.0960  0.2852 -0.2537
 3732SOL    HW122655   2.233   3.137   5.817 -1.1334  0.5116  1.3639
 3732SOL    HW222656   2.281   3.186   5.947 -0.6355 -3.1138 -0.5425
 3733SOL     OW22657   2.948   2.753   5.584 -0.3889  0.3121  0.0709
 3733SOL    HW122658   3.017   2.709   5.535 -2.7547 -2.7283 -0.4725
 3733SOL    HW222659   2.969   2.846   5.594 -0.2677  0.5064 -1.8756
 3734SOL     OW22660   2.559   2.042   2.486  0.4579  0.2230 -0.1088
 3734SOL    HW122661   2.630   1.989   2.450 -0.2752 -1.1029  0.4271
 3734SOL    HW222662   2.580   2.032   2.579 -0.5672 -0.4919  0.0394
 3735SOL     OW22663   4.168   2.864   2.954  0.3065 -0.2595  0.0828
 3735SOL    HW122664   4.228   2.883   2.881 -1.0721  1.0023 -0.7276
 3735SOL    HW222665   4.166   2.769   2.948  1.2317 -0.3860  2.0149
 3736SOL     OW22666   0.093   3.355   3.121  0.0402  0.2777 -0.0051
 3736SOL    HW122667   0.185   3.328   3.117 -0.0115 -0.1028  1.4453
 3736SOL    HW222668   0.045   3.283   3.163 -0.4247 -0.4062 -1.7258
 3737SOL     OW22669   2.526   1.062   9.732 -0.2202  0.0530 -0.4262
 3737SOL    HW122670   2.511   0.987   9.790 -1.6348  1.2279  0.7244
 3737SOL    HW222671   2.609   1.097   9.765 -1.5994  0.8336  2.2187
 3738SOL     OW22672   3.881   0.218   2.829 -0.0987 -0.1818 -0.2798
 3738SOL    HW122673   3.963   0.176   2.803 -0.5137 -1.7594  0.9211
 3738SOL    HW222674   3.883   0.298   2.777 -1.4168 -0.0687 -0.1778
 3739SOL     OW22675   3.652   1.153   7.723 -0.1223 -0.4737 -0.0792
 3739SOL    HW122676   3.628   1.069   7.685 -1.5973 -0.0921  0.0363
 3739SOL    HW222677   3.570   1.181   7.763 -0.9618 -0.1954 -2.0003
 3740SOL     OW22678   3.686   0.945   7.998 -0.2131 -0.0334 -0.3260
 3740SOL    HW122679   3.737   0.911   7.925  0.9257 -0.0092  0.4589
 3740SOL    HW222680   3.750   0.960   8.068  1.0091 -0.4789 -1.3479
 3741SOL     OW22681   0.458   4.107   1.867  0.0895 -0.6017 -0.1034
 3741SOL    HW122682   0.536   4.118   1.923  0.1796 -1.4699 -0.0610
 3741SOL    HW222683   0.417   4.037   1.917 -0.1142 -1.1343 -1.0198
 3742SOL     OW22684   2.909   0.282   4.009 -0.1483 -0.2753  0.4713
 3742SOL    HW122685   2.821   0.287   3.971 -0.9525  1.3527  2.5728
 3742SOL    HW222686   2.889   0.354   4.068 -0.0540 -1.3263  1.7752
 3743SOL     OW22687   2.774   4.498   4.563  0.2405  0.7328 -0.1233
 3743SOL    HW122688   2.724   4.422   4.535  0.8365 -0.4839  2.1167
 3743SOL    HW222689   2.857   4.470   4.525 -0.0459 -0.4115  0.0869
 3744SOL     OW22690   0.713   3.459   2.904  0.6758  0.0127  0.1414
 3744SOL    HW122691   0.799   3.469   2.945  0.0460  0.7595  1.2904
 3744SOL    HW222692   0.739   3.498   2.821  2.8527 -2.1253 -0.2115
 3745SOL     OW22693   0.827   4.161   7.822  0.5171  0.1635 -0.4323
 3745SOL    HW122694   0.863   4.195   7.904 -1.8599  0.6647  0.4194
 3745SOL    HW222695   0.842   4.237   7.766  1.9239  2.0559  2.4853
 3746SOL     OW22696   1.001   3.719  13.332  0.2409  0.4952 -0.1922
 3746SOL    HW122697   1.078   3.661  13.325 -2.2991 -2.8530 -0.4974
 3746SOL    HW222698   1.035   3.788  13.388  0.2477 -0.0372  0.4507
 3747SOL     OW22699   3.967   3.831   5.648 -0.3662  0.0227 -0.0148
 3747SOL    HW122700   4.004   3.748   5.679 -0.7221  0.0159  0.3845
 3747SOL    HW222701   3.903   3.786   5.592  0.2331  0.5557 -1.1241
 3748SOL     OW22702   4.415   0.250   2.798 -0.4702 -0.0391 -0.8580
 3748SOL    HW122703   4.467   0.322   2.835 -0.3038  0.1371 -1.4375
 3748SOL    HW222704   4.364   0.219   2.872  1.2166 -0.4541  0.1407
 3749SOL     OW22705   0.997   3.594   9.079  0.1605 -0.0425 -0.4289
 3749SOL    HW122706   0.964   3.561   9.162 -3.2707  0.9976 -1.3981
 3749SOL    HW222707   0.930   3.655   9.048 -1.0237  1.1816  4.4827
 3750SOL     OW22708   1.284   3.550  11.569 -0.2227 -0.8300  0.6127
 3750SOL    HW122709   1.357   3.610  11.557  0.2091 -1.4893 -0.0157
 3750SOL    HW222710   1.302   3.513  11.655 -0.4922  1.2333  1.5453
 3751SOL     OW22711   1.664   3.180   5.351 -0.1372 -0.3603  0.2341
 3751SOL    HW122712   1.650   3.101   5.298 -0.0009  1.6663 -2.8188
 3751SOL    HW222713   1.656   3.245   5.281  0.9695  0.2578  0.6870
 3752SOL     OW22714   3.154   3.684   8.115  0.5144 -0.1437  0.9775
 3752SOL    HW122715   3.199   3.612   8.160 -1.2720 -1.6718  0.3265
 3752SOL    HW222716   3.207   3.764   8.115  1.4000 -0.7117 -2.2353
 3753SOL     OW22717   2.111   3.284  12.083  0.2157 -0.5867  0.2642
 3753SOL    HW122718   2.052   3.348  12.121  0.5204  0.9645 -1.8866
 3753SOL    HW222719   2.057   3.205  12.086 -1.5316  0.6258  0.6419
 3754SOL     OW22720   1.620   3.190  14.879  0.3151  0.0670  0.3634
 3754SOL    HW122721   1.614   3.243  14.800 -0.7876  1.1486  1.1831
 3754SOL    HW222722   1.604   3.267  14.933 -0.3208 -0.2964  0.6871
 3755SOL     OW22723   4.649   4.435   4.721  0.0758 -0.2195 -0.3641
 3755SOL    HW122724   4.643   4.504   4.788 -3.3337  1.4375 -2.4041
 3755SOL    HW222725   4.563   4.442   4.679 -0.5403 -1.6240  0.6421
 3756SOL     OW22726   3.914   3.292  11.591  0.8585 -0.1057  0.6891
 3756SOL    HW122727   3.832   3.268  11.635  0.9764 -0.4692  0.7057
 3756SOL    HW222728   3.882   3.348  11.520 -0.5718  0.7976  2.0336
 3757SOL     OW22729   3.854   3.683   4.141 -0.0436 -0.6181  0.2053
 3757SOL    HW122730   3.825   3.646   4.224 -0.2833 -0.3298  0.2449
 3757SOL    HW222731   3.798   3.627   4.087  0.4190  1.0856 -2.0088
 3758SOL     OW22732   0.589   4.008   8.499 -0.8533 -0.2228  0.3724
 3758SOL    HW122733   0.531   3.957   8.556 -2.3427  0.9627 -0.0715
 3758SOL    HW222734   0.579   4.096   8.534  1.5712  0.4389 -0.5819
 3759SOL     OW22735   0.610   4.298   0.765  0.2515  0.5831  0.0851
 3759SOL    HW122736   0.657   4.217   0.788 -1.5832 -0.5142  0.0052
 3759SOL    HW222737   0.572   4.261   0.685 -0.6589  2.2223 -0.2249
 3760SOL     OW22738   1.993   2.337   3.966 -0.1415 -0.3937 -0.0484
 3760SOL    HW122739   2.008   2.422   4.008 -0.2486  0.9016 -2.6682
 3760SOL    HW222740   1.960   2.363   3.880  2.2747  3.7656  0.2432
 3761SOL     OW22741   1.141   2.908  13.061  0.3122 -0.5697  0.3865
 3761SOL    HW122742   1.228   2.897  13.025  1.4609  1.1066  2.6490
 3761SOL    HW222743   1.096   2.951  12.988  0.3213 -1.5357 -0.1875
 3762SOL     OW22744   2.816   3.853   2.891 -0.5620 -0.5683 -0.1273
 3762SOL    HW122745   2.752   3.782   2.902  0.9650 -1.5340  2.4297
 3762SOL    HW222746   2.766   3.926   2.925  0.8659  1.4787 -2.4206
 3763SOL     OW22747   2.530   1.725  15.438  0.1232 -0.7079  0.3990
 3763SOL    HW122748   2.581   1.644  15.435 -1.0450 -1.4329  0.2045
 3763SOL    HW222749   2.544   1.758  15.527 -1.0126  1.1830 -0.1185
 3764SOL     OW22750   1.998   3.032   1.976 -0.5308  0.0903 -0.0354
 3764SOL    HW122751   1.914   3.000   2.011  0.8262 -1.9733  1.3654
 3764SOL    HW222752   1.985   3.028   1.881  0.0788  0.3155 -0.1253
 3765SOL     OW22753   1.096   1.623   0.688 -0.7395 -0.4097 -0.7664
 3765SOL    HW122754   1.177   1.574   0.702 -0.8406  0.1002  1.7185
 3765SOL    HW222755   1.052   1.627   0.773  0.9286  1.4473  0.0261
 3766SOL     OW22756   3.340   3.458   1.590 -0.1119 -0.2270 -0.0903
 3766SOL    HW122757   3.336   3.521   1.661 -1.2539 -0.9888  0.5133
 3766SOL    HW222758   3.432   3.457   1.561  0.2668 -1.6565  1.1614
 3767SOL     OW22759   4.246   3.750   1.374 -0.6393 -1.2102 -0.0469
 3767SOL    HW122760   4.186   3.680   1.350 -0.8075 -1.4175  1.0009
 3767SOL    HW222761   4.334   3.712   1.376  0.0526  0.3561 -0.2932
 3768SOL     OW22762   1.311   4.718  12.668 -0.4874  0.1617  0.0840
 3768SOL    HW122763   1.404   0.013  12.647 -0.1482 -2.0096 -0.0237
 3768SOL    HW222764   1.304   4.624  12.656 -0.6508  0.1560  0.2335
 3769SOL     OW22765   0.881   0.224   5.930  0.3850 -0.2343 -0.2317
 3769SOL    HW122766   0.873   0.268   6.015  3.0348  1.5321 -0.8850
 3769SOL    HW222767   0.970   0.191   5.934  0.8125  1.0449  0.9369
 3770SOL     OW22768   0.539   3.780   7.147  0.1877  0.0718  0.7963
 3770SOL    HW122769   0.592   3.751   7.073  1.5385  1.9682  1.0159
 3770SOL    HW222770   0.588   3.753   7.225  0.1422 -0.6284  0.5831
 3771SOL     OW22771   0.934   2.738   7.933 -0.0222  0.5889 -0.2057
 3771SOL    HW122772   0.861   2.796   7.915 -0.9051 -0.8305 -1.1994
 3771SOL    HW222773   0.894   2.663   7.976  2.4945 -1.5335 -1.5203
 3772SOL     OW22774   3.186   2.407   0.498  0.4069  0.8927 -0.0355
 3772SOL    HW122775   3.264   2.461   0.502 -0.5541  2.3624 -1.4341
 3772SOL    HW222776   3.216   2.347   0.430  0.1602  0.7067  0.0155
 3773SOL     OW22777   4.629   3.405   2.608  0.3775  0.2682  0.2656
 3773SOL    HW122778   4.634   3.498   2.583  0.2502  0.1481 -0.2109
 3773SOL    HW222779   4.657   3.389   2.698  0.4772  1.7285  0.5063
 3774SOL     OW22780   4.310   1.026  11.345  0.0836 -0.3720 -0.2355
 3774SOL    HW122781   4.318   0.936  11.377  1.0184  0.1236  0.8964
 3774SOL    HW222782   4.269   1.080  11.413  1.5246 -1.2733  1.3320
 3775SOL     OW22783   0.852   1.283   6.518 -0.0486 -0.1231 -0.1016
 3775SOL    HW122784   0.796   1.357   6.495 -0.6665 -0.1889  1.1660
 3775SOL    HW222785   0.934   1.297   6.471 -0.6481  1.7619 -0.5590
 3776SOL     OW22786   3.636   3.024   4.586  0.5591 -0.1786  0.0495
 3776SOL    HW122787   3.568   3.048   4.523  0.6923  0.2933  0.0842
 3776SOL    HW222788   3.628   3.107   4.633  0.8901  1.4191 -2.7121
 3777SOL     OW22789   3.036   0.728   9.141 -0.7061 -0.1375  0.4535
 3777SOL    HW122790   3.107   0.742   9.079 -1.4862  0.1830 -0.3651
 3777SOL    HW222791   3.064   0.649   9.188 -2.7038 -0.9736  0.2758
 3778SOL     OW22792   0.416   3.079   7.232  0.2239  0.0920  1.2060
 3778SOL    HW122793   0.383   3.087   7.142  1.9200 -1.1396  0.4690
 3778SOL    HW222794   0.507   3.053   7.214  0.0725 -0.4134  1.1707
 3779SOL     OW22795   2.823   2.246   5.997 -0.2811 -0.7868  0.1851
 3779SOL    HW122796   2.840   2.337   6.022 -1.4878  0.0720 -2.1115
 3779SOL    HW222797   2.745   2.256   5.943 -1.7249  0.9327  2.5921
 3780SOL     OW22798   2.469   1.899   3.045  0.3702  0.2196 -0.1490
 3780SOL    HW122799   2.435   1.826   3.098  0.3493 -1.2531 -2.2067
 3780SOL    HW222800   2.564   1.896   3.050  0.3797 -3.3040 -2.6765
 3781SOL     OW22801   2.484   4.352   0.970  0.2805 -0.6836 -0.4207
 3781SOL    HW122802   2.510   4.347   0.878  1.2053 -0.9617 -0.1441
 3781SOL    HW222803   2.498   4.265   1.007 -0.6950 -0.6138  0.1144
 3782SOL     OW22804   4.260   3.835   3.012  0.2285 -0.3840  0.3319
 3782SOL    HW122805   4.201   3.788   3.071  0.1703  0.7077  1.1228
 3782SOL    HW222806   4.299   3.897   3.072  0.9121 -0.9815  0.5089
 3783SOL     OW22807   4.143   4.699   7.456  0.1272 -0.0329 -0.0625
 3783SOL    HW122808   4.156   4.671   7.365  1.4984 -0.3646  0.2281
 3783SOL    HW222809   4.181   0.067   7.458 -0.8273  0.4577 -3.1824
 3784SOL     OW22810   1.705   0.999   8.367 -0.0616  0.0633 -0.0828
 3784SOL    HW122811   1.701   1.059   8.292  0.9478 -0.0078 -0.1955
 3784SOL    HW222812   1.788   1.017   8.412  1.0981 -1.5986 -1.5407
 3785SOL     OW22813   0.321   1.050   5.792 -0.0772  0.2283 -0.1187
 3785SOL    HW122814   0.320   0.955   5.780 -0.3215  0.0710  1.1447
 3785SOL    HW222815   0.331   1.088   5.705  0.6770  3.1881  1.2388
 3786SOL     OW22816   4.075   2.843   6.311  0.0041  0.2823  0.4401
 3786SOL    HW122817   4.136   2.892   6.367 -0.6224  0.8939  0.5926
 3786SOL    HW222818   3.995   2.896   6.313  0.7887  1.4758  0.3077
 3787SOL     OW22819   4.709   1.612  11.751  0.5213 -0.2727  0.2706
 3787SOL    HW122820   4.617   1.592  11.768  0.3406  0.9896  0.7917
 3787SOL    HW222821   0.007   1.692  11.800 -1.9766  0.1945  0.4481
 3788SOL     OW22822   4.594   1.345  14.931  0.2576  0.3025 -0.2105
 3788SOL    HW122823   4.551   1.424  14.899  1.0272  0.4088 -0.9806
 3788SOL    HW222824   4.648   1.316  14.858  1.1722 -2.1027  1.4133
 3789SOL     OW22825   4.168   4.019   5.492 -0.0728  0.2140 -0.6046
 3789SOL    HW122826   4.262   4.000   5.491 -0.4323 -1.6565  2.1207
 3789SOL    HW222827   4.137   3.938   5.531 -1.0287  0.3369 -1.1281
 3790SOL     OW22828   2.611   0.971  15.037 -0.6049 -0.7301 -0.8837
 3790SOL    HW122829   2.628   1.031  14.965  1.0755 -0.3441 -0.1455
 3790SOL    HW222830   2.683   0.908  15.030 -0.7728 -1.0848  0.6146
 3791SOL     OW22831   3.088   2.820  11.452 -0.6930  0.3259 -0.2300
 3791SOL    HW122832   3.117   2.910  11.466  2.8144 -0.4544 -2.5612
 3791SOL    HW222833   3.114   2.797  11.363 -3.0937 -0.0410 -0.8490
 3792SOL     OW22834   0.632   0.746  13.678  0.2287  0.1975 -0.1759
 3792SOL    HW122835   0.553   0.796  13.700 -0.8933 -2.2694  1.3928
 3792SOL    HW222836   0.701   0.809  13.658 -2.8015  4.4309  2.6972
 3793SOL     OW22837   2.355   3.844  14.416  0.1707  0.1309  0.3458
 3793SOL    HW122838   2.285   3.834  14.352  1.3804  1.2357 -1.1634
 3793SOL    HW222839   2.392   3.757  14.430 -0.2427 -0.1184 -0.1008
 3794SOL     OW22840   3.892   0.173   7.115 -0.5709 -0.6822 -0.0409
 3794SOL    HW122841   3.798   0.178   7.132 -0.5680 -1.6698  0.3179
 3794SOL    HW222842   3.908   0.081   7.138  0.4709 -0.5890 -0.4006
 3795SOL     OW22843   0.525   3.910  16.049 -0.1201 -0.1597  0.0866
 3795SOL    HW122844   0.476   3.835  16.083  0.1507  0.4402  1.7597
 3795SOL    HW222845   0.495   3.908  15.958  0.2692  0.4578 -0.0515
 3796SOL     OW22846   3.120   4.049  10.543 -0.2149 -0.2946  0.2757
 3796SOL    HW122847   3.188   4.107  10.509 -0.4667  0.2552  0.7050
 3796SOL    HW222848   3.170   3.967  10.541  0.7294  0.2659  0.5389
 3797SOL     OW22849   0.669   0.605  14.268 -0.3109  0.5967  0.0425
 3797SOL    HW122850   0.690   0.676  14.207  2.1423 -0.2100 -0.0488
 3797SOL    HW222851   0.758   0.579  14.288 -0.7416  0.3701  1.6567
 3798SOL     OW22852   1.078   0.656   6.444  0.3852 -0.0880 -0.0677
 3798SOL    HW122853   1.121   0.679   6.527 -1.4533  1.7823  0.3671
 3798SOL    HW222854   1.073   0.742   6.403  0.8209 -0.4410 -0.8576
 3799SOL     OW22855   4.267   3.983   7.689  0.0573  0.6744 -0.2636
 3799SOL    HW122856   4.208   4.056   7.709  0.9751  1.0232  1.1686
 3799SOL    HW222857   4.200   3.930   7.646  0.6449  0.9168 -1.4926
 3800SOL     OW22858   1.311   0.110   1.573 -0.0854 -0.7429  0.2034
 3800SOL    HW122859   1.264   0.028   1.588 -2.2369  0.4156 -0.1277
 3800SOL    HW222860   1.389   0.082   1.525 -1.1675 -2.1672 -0.7155
 3801SOL     OW22861   0.404   4.196  12.382  0.3103 -0.2948 -0.1522
 3801SOL    HW122862   0.449   4.159  12.458 -0.4315  0.6927  0.7776
 3801SOL    HW222863   0.334   4.245  12.425  0.3364  1.0328 -1.6391
 3802SOL     OW22864   0.084   4.052  11.083 -0.4691 -0.3080 -0.4913
 3802SOL    HW122865   0.174   4.083  11.069 -1.9421  3.9934 -0.4324
 3802SOL    HW222866   0.064   4.090  11.169 -1.4437  1.1661 -1.3746
 3803SOL     OW22867   2.499   0.345   5.788  0.3093  0.1369  0.1388
 3803SOL    HW122868   2.540   0.275   5.738  1.1711  0.7556 -0.0241
 3803SOL    HW222869   2.487   0.296   5.870 -0.2131 -2.5931 -1.5745
 3804SOL     OW22870   2.989   3.564   6.585 -0.4449  0.2740 -0.3624
 3804SOL    HW122871   3.044   3.501   6.631  0.1379  0.5890 -0.6285
 3804SOL    HW222872   2.919   3.505   6.557  0.2700 -2.4678  3.7123
 3805SOL     OW22873   4.111   4.163   4.769  0.8057  0.4591  0.1136
 3805SOL    HW122874   4.026   4.152   4.811  0.8968  0.9580  0.4288
 3805SOL    HW222875   4.148   4.079   4.794 -0.2010  0.0828  0.3466
 3806SOL     OW22876   0.979   2.033   9.030 -0.2566  0.6416  0.2910
 3806SOL    HW122877   0.891   2.021   8.994  0.8997 -1.1857 -1.9506
 3806SOL    HW222878   0.971   2.115   9.078 -0.2513 -0.2311  1.7933
 3807SOL     OW22879   1.832   3.369  16.291  0.3030 -0.3844 -0.2855
 3807SOL    HW122880   1.773   3.384  16.217 -0.2058  2.5743  0.7132
 3807SOL    HW222881   1.831   3.274  16.295 -3.7664 -0.2894  1.1175
 3808SOL     OW22882   3.485   2.276   8.275  0.2463  0.5605  0.4839
 3808SOL    HW122883   3.399   2.234   8.282  0.8734 -0.6893  0.7092
 3808SOL    HW222884   3.490   2.337   8.348  0.3704  2.0254 -0.7488
 3809SOL     OW22885   2.025   2.449   2.260  0.5200 -0.3311  0.1418
 3809SOL    HW122886   2.075   2.393   2.320  0.6665  0.5990  0.8906
 3809SOL    HW222887   2.033   2.540   2.289  0.4085 -1.2916  3.2236
 3810SOL     OW22888   1.622   2.324   2.756 -0.1959  0.4387 -0.5255
 3810SOL    HW122889   1.667   2.271   2.822 -1.9090 -0.7883 -0.3537
 3810SOL    HW222890   1.686   2.317   2.685 -0.3391  2.1432 -0.8257
 3811SOL     OW22891   4.381   1.263   2.049  0.5128  0.2144 -0.4946
 3811SOL    HW122892   4.308   1.217   2.009  1.6475 -2.0471  0.0437
 3811SOL    HW222893   4.416   1.315   1.976 -3.7001  2.1914 -1.0840
 3812SOL     OW22894   1.035   1.252   3.638 -0.0603 -0.1317  0.8191
 3812SOL    HW122895   1.078   1.245   3.553  0.5277 -0.8645  1.1790
 3812SOL    HW222896   0.969   1.183   3.637 -2.4212  2.1822 -1.2402
 3813SOL     OW22897   2.815   1.406   1.128 -0.1008  0.6700 -0.2837
 3813SOL    HW122898   2.777   1.488   1.096 -2.8475 -1.0284 -1.2850
 3813SOL    HW222899   2.800   1.430   1.220 -2.6068 -1.1025 -0.2496
 3814SOL     OW22900   2.915   2.153   2.588  0.4486 -0.2617  0.5299
 3814SOL    HW122901   2.926   2.168   2.494 -0.9162 -1.0713  0.2322
 3814SOL    HW222902   2.912   2.241   2.625 -0.9755 -0.0143 -0.1719
 3815SOL     OW22903   2.610   1.384   7.550  0.2309 -0.0285 -0.0831
 3815SOL    HW122904   2.695   1.344   7.567 -0.9250 -2.5556 -0.3310
 3815SOL    HW222905   2.559   1.321   7.498  0.9219 -0.3697 -0.3388
 3816SOL     OW22906   2.092   1.311   7.797 -0.0562 -0.0306 -0.0599
 3816SOL    HW122907   2.165   1.360   7.761 -0.4764  1.0618  0.5817
 3816SOL    HW222908   2.075   1.353   7.881 -0.6785  0.1869 -0.2935
 3817SOL     OW22909   0.848   0.723   6.975 -0.2154 -0.0489 -0.1069
 3817SOL    HW122910   0.830   0.738   6.882 -1.7767  0.2630  0.2396
 3817SOL    HW222911   0.923   0.665   6.967 -1.1258 -1.1613 -0.6404
 3818SOL     OW22912   1.713   4.629   5.948  0.2139 -0.1121  0.4017
 3818SOL    HW122913   1.770   4.586   5.885 -1.1333 -1.1025 -0.1486
 3818SOL    HW222914   1.656   4.672   5.885  2.1996  0.9842 -0.6137
 3819SOL     OW22915   1.241   4.293  12.130  0.2449 -0.2735 -0.7730
 3819SOL    HW122916   1.237   4.235  12.054 -1.3164  2.4334 -2.7676
 3819SOL    HW222917   1.188   4.252  12.199  0.5680 -0.1677 -0.4626
 3820SOL     OW22918   2.558   1.859  11.595  0.0022 -0.4836  0.8293
 3820SOL    HW122919   2.563   1.949  11.562 -1.1629 -0.6312  0.2798
 3820SOL    HW222920   2.481   1.821  11.554  2.2752 -3.4191 -0.6700
 3821SOL     OW22921   2.556   0.563   4.285  0.5549  0.3807 -0.2693
 3821SOL    HW122922   2.551   0.469   4.266 -1.3136  0.4906 -0.2800
 3821SOL    HW222923   2.509   0.605   4.213  0.1716  2.6615  1.3192
 3822SOL     OW22924   0.423   3.341   0.048 -0.7272 -0.1264  0.2171
 3822SOL    HW122925   0.447   3.393   0.125 -0.1607  0.0635 -0.0841
 3822SOL    HW222926   0.505   3.306   0.014 -0.6058  0.7142 -0.3432
 3823SOL     OW22927   3.225   2.624   6.427 -0.1456 -0.3598 -0.4539
 3823SOL    HW122928   3.192   2.602   6.340 -1.0843 -1.1012  0.0939
 3823SOL    HW222929   3.279   2.703   6.416 -0.8388  0.0328 -1.0050
 3824SOL     OW22930   3.035   3.174   3.631 -0.1847 -0.1160  0.7676
 3824SOL    HW122931   3.022   3.147   3.721  0.5902  0.4349  1.0452
 3824SOL    HW222932   2.945   3.197   3.608  0.0185  1.3728  1.4033
 3825SOL     OW22933   1.624   3.334  12.578  0.0101 -0.5061 -0.2616
 3825SOL    HW122934   1.660   3.336  12.667 -1.9197 -0.4343  0.4998
 3825SOL    HW222935   1.701   3.360  12.527 -1.0124 -1.8033 -2.4799
 3826SOL     OW22936   1.614   3.484   6.329 -0.3255  0.3503  0.3183
 3826SOL    HW122937   1.576   3.440   6.405  0.6800  1.7972  1.6724
 3826SOL    HW222938   1.554   3.551   6.297  2.2644  2.7495  0.5016
 3827SOL     OW22939   2.316   0.304   1.607 -0.1592  0.0393  0.2700
 3827SOL    HW122940   2.346   0.395   1.603 -1.1983  0.4273  1.1628
 3827SOL    HW222941   2.264   0.295   1.528  2.7719 -3.1319 -1.2864
 3828SOL     OW22942   1.084   2.920   4.733  0.3183  0.3123 -0.0327
 3828SOL    HW122943   1.177   2.923   4.752  0.2776 -2.1694  0.6112
 3828SOL    HW222944   1.079   2.940   4.639  0.1438  1.3190  0.1906
 3829SOL     OW22945   1.792   0.380   5.505  0.0345  0.5279  0.0960
 3829SOL    HW122946   1.712   0.336   5.535 -0.1438 -0.6219 -2.1010
 3829SOL    HW222947   1.780   0.427   5.423 -0.8231 -0.4130 -0.3137
 3830SOL     OW22948   4.200   1.186   0.231  0.1049  0.1216 -0.0375
 3830SOL    HW122949   4.248   1.242   0.171  1.6295 -0.1383  0.9555
 3830SOL    HW222950   4.263   1.173   0.302 -1.7677  1.1513  1.8111
 3831SOL     OW22951   3.276   3.344   7.129  0.0401 -0.1036 -0.4706
 3831SOL    HW122952   3.291   3.333   7.036 -0.1166  2.2340 -0.7580
 3831SOL    HW222953   3.228   3.426   7.130 -1.0076 -0.7258  0.7819
 3832SOL     OW22954   0.821   0.179   4.758  0.1610 -0.0764  0.5338
 3832SOL    HW122955   0.742   0.181   4.704  1.1642 -0.4322 -0.9461
 3832SOL    HW222956   0.844   0.087   4.771  0.9655  0.0329 -0.1170
 3833SOL     OW22957   1.063   2.357   4.753  0.1141 -0.5071  0.1842
 3833SOL    HW122958   1.035   2.430   4.698 -0.8275 -2.0871 -1.4378
 3833SOL    HW222959   1.158   2.359   4.747 -0.0832 -1.5450 -3.2537
 3834SOL     OW22960   4.272   1.856   7.723 -0.7757  0.0805  0.2969
 3834SOL    HW122961   4.320   1.939   7.734  1.4040 -1.0270 -0.8020
 3834SOL    HW222962   4.192   1.876   7.772 -0.9169 -0.2565  0.2038
 3835SOL     OW22963   2.608   0.738   3.556  0.0035  0.1298 -0.3767
 3835SOL    HW122964   2.693   0.783   3.561 -0.0842  0.2325  0.2147
 3835SOL    HW222965   2.634   0.646   3.554  2.4282  0.7646  1.9634
 3836SOL     OW22966   4.112   0.062   1.630 -0.0094  0.6310 -1.0078
 3836SOL    HW122967   4.154   0.018   1.556  0.0375  1.2771 -1.3669
 3836SOL    HW222968   4.108   4.715   1.698 -0.2610  0.3916 -1.2627
 3837SOL     OW22969   3.878   2.566   7.976 -0.5894 -0.4418  0.3057
 3837SOL    HW122970   3.840   2.493   8.025 -0.1697  0.1685  1.5303
 3837SOL    HW222971   3.971   2.549   7.965 -0.6635  0.4097 -1.6298
 3838SOL     OW22972   4.184   4.429   4.694 -0.4737  0.1336 -0.0806
 3838SOL    HW122973   4.114   4.385   4.742 -0.3354 -0.9710 -0.8862
 3838SOL    HW222974   4.221   4.353   4.648  1.1089 -0.1970  1.7405
 3839SOL     OW22975   0.826   2.970   4.824  0.1714  0.6078 -0.3024
 3839SOL    HW122976   0.802   2.883   4.791 -3.5863  0.7974  1.9107
 3839SOL    HW222977   0.917   2.975   4.796  0.0296  1.5534 -0.5962
 3840SOL     OW22978   0.056   1.639  13.583 -0.0378  0.8127 -0.6819
 3840SOL    HW122979   0.137   1.689  13.591  0.4466  0.0309 -0.7119
 3840SOL    HW222980   0.023   1.660  13.671  0.8088 -2.3693  0.3800
 3841SOL     OW22981   3.755   3.249  16.407 -0.1659  0.4961 -0.1870
 3841SOL    HW122982   3.679   3.304  16.389 -0.3416  0.7308  1.2981
 3841SOL    HW222983   3.702   3.177  16.441 -0.1679  1.0898  1.0962
 3842SOL     OW22984   3.083   3.801   8.520  0.2401  0.7519 -0.2804
 3842SOL    HW122985   3.142   3.799   8.596  1.5762  0.6311 -1.3143
 3842SOL    HW222986   3.098   3.891   8.491 -1.3035  0.6272 -1.4413
 3843SOL     OW22987   0.983   1.583   6.530  0.4206 -0.3018 -0.1480
 3843SOL    HW122988   0.919   1.556   6.596  2.0576  0.1227  1.5842
 3843SOL    HW222989   0.965   1.677   6.524  0.0910 -0.5633 -3.3006
 3844SOL     OW22990   3.078   3.739  14.756  0.3064  0.4991  0.3092
 3844SOL    HW122991   3.010   3.676  14.733 -0.6898  0.8162  2.3927
 3844SOL    HW222992   3.099   3.776  14.670  0.7116 -0.9539 -0.2149
 3845SOL     OW22993   0.853   4.613  11.957 -0.6452  0.0322 -0.1825
 3845SOL    HW122994   0.945   4.590  11.940 -1.3726 -2.6920 -0.4485
 3845SOL    HW222995   0.850   4.690  12.014 -1.2435  0.9958 -1.5376
 3846SOL     OW22996   1.527   1.972  16.588  0.8941  0.5259  0.2653
 3846SOL    HW122997   1.476   1.913  16.533 -2.7799  1.8054  2.2451
 3846SOL    HW222998   1.567   2.023  16.518 -1.5576  0.2306 -1.3567
 3847SOL     OW22999   3.705   4.327   5.006 -0.2718 -0.2048  0.5936
 3847SOL    HW123000   3.611   4.310   5.012 -0.0772 -1.5693 -0.3056
 3847SOL    HW223001   3.727   4.360   5.093  0.3851  0.3328  0.2287
 3848SOL     OW23002   2.906   1.928   7.635  0.0941  0.5872 -0.0937
 3848SOL    HW123003   2.850   1.947   7.560 -0.1870  0.7228  0.1527
 3848SOL    HW223004   2.869   1.843   7.657 -0.4998  0.9908  0.4500
 3849SOL     OW23005   1.469   3.921   8.833  0.5922  0.4243  0.4644
 3849SOL    HW123006   1.404   3.971   8.783  0.7995 -0.8732 -1.1032
 3849SOL    HW223007   1.508   3.866   8.765 -2.4935 -1.3082  0.0693
 3850SOL     OW23008   0.853   0.617   3.892 -0.1896 -0.3420  0.0863
 3850SOL    HW123009   0.897   0.692   3.852 -1.9836  0.5425 -0.2125
 3850SOL    HW223010   0.900   0.617   3.975  0.5378 -0.6689 -0.3217
 3851SOL     OW23011   2.560   3.888   6.249 -0.0516 -0.5366 -0.0296
 3851SOL    HW123012   2.578   3.805   6.294 -0.3625  0.3142  1.6708
 3851SOL    HW223013   2.593   3.867   6.162  0.8312  2.0034 -0.3112
 3852SOL     OW23014   2.375   0.219   8.646  0.3577  0.1347  0.3553
 3852SOL    HW123015   2.319   0.278   8.596 -2.3661 -2.2396  0.6142
 3852SOL    HW223016   2.335   0.217   8.732  0.9833  0.3479  0.6523
 3853SOL     OW23017   0.239   4.716  14.895  1.0495  0.7968  0.1254
 3853SOL    HW123018   0.267   4.634  14.935  0.5447  0.1586 -0.8459
 3853SOL    HW223019   0.241   4.703  14.800  0.3556 -1.2020  0.3956
 3854SOL     OW23020   2.690   2.418  13.893 -0.2057 -0.0435  0.2348
 3854SOL    HW123021   2.708   2.343  13.950  0.8114 -0.0046 -0.0474
 3854SOL    HW223022   2.630   2.473  13.943 -0.8330 -0.4871 -0.0270
 3855SOL     OW23023   0.809   4.457   3.058  0.1076  0.1665  0.3513
 3855SOL    HW123024   0.816   4.459   2.963 -0.5905  3.2207  0.3735
 3855SOL    HW223025   0.890   4.411   3.079  0.9184  1.1529 -0.6368
 3856SOL     OW23026   4.347   3.703   5.718 -0.0015 -0.2398 -0.3043
 3856SOL    HW123027   4.298   3.622   5.733 -1.7909  0.8707 -0.2557
 3856SOL    HW223028   4.397   3.680   5.639  1.2198 -0.9106  0.6576
 3857SOL     OW23029   1.117   3.670   2.426  0.3761  0.4796  0.2494
 3857SOL    HW123030   1.031   3.644   2.391  1.2142 -2.6879  0.4761
 3857SOL    HW223031   1.118   3.647   2.519  1.1414  0.6603  0.2847
 3858SOL     OW23032   1.617   4.646   5.270  0.5904 -0.0565 -0.3002
 3858SOL    HW123033   1.673   4.705   5.321  0.0490  0.7578 -0.6603
 3858SOL    HW223034   1.546   4.710   5.270 -1.1104 -1.9388  1.5167
 3859SOL     OW23035   1.917   2.001   8.304 -0.0007  0.1728  0.5995
 3859SOL    HW123036   1.914   2.080   8.359 -0.1825 -0.0724  0.9414
 3859SOL    HW223037   1.958   1.946   8.371 -0.7914  0.7127  1.5353
 3860SOL     OW23038   3.265   3.109   7.541 -0.4556 -0.0220 -0.0960
 3860SOL    HW123039   3.300   3.196   7.560 -1.6997  0.3062  0.6805
 3860SOL    HW223040   3.292   3.094   7.450  2.2658  1.4285  0.4685
 3861SOL     OW23041   2.645   1.603   6.169  0.2450 -0.2791  0.2702
 3861SOL    HW123042   2.574   1.538   6.174 -2.4974  2.5572 -1.1542
 3861SOL    HW223043   2.658   1.585   6.076 -0.1620 -1.4028  0.4236
 3862SOL     OW23044   2.124   3.679  10.612  0.4509  0.1817  0.1082
 3862SOL    HW123045   2.134   3.758  10.559 -1.2272  0.5437  0.3331
 3862SOL    HW223046   2.207   3.685  10.659 -0.2648 -0.5848  1.4933
 3863SOL     OW23047   0.288   0.127   5.472 -0.1947  0.3930  0.1198
 3863SOL    HW123048   0.272   0.073   5.395  0.0408  0.7185 -0.1542
 3863SOL    HW223049   0.303   0.213   5.433 -1.6446  0.3256 -0.5837
 3864SOL     OW23050   3.146   4.447   5.511 -0.1445 -0.4627 -0.1944
 3864SOL    HW123051   3.114   4.376   5.566  1.0704 -1.6766 -1.0780
 3864SOL    HW223052   3.143   4.415   5.421 -0.5188  0.5439 -0.5384
 3865SOL     OW23053   3.451   3.725   3.762  0.2819  0.5595  0.0954
 3865SOL    HW123054   3.512   3.794   3.733  1.7062  0.4285  2.8097
 3865SOL    HW223055   3.511   3.685   3.825  0.0784 -0.2501 -0.2302
 3866SOL     OW23056   1.680   0.979   5.632  0.1460  0.0349  0.2348
 3866SOL    HW123057   1.635   0.902   5.596  3.4235 -0.9671 -1.7722
 3866SOL    HW223058   1.628   0.986   5.711  1.1449 -0.8800  0.9657
 3867SOL     OW23059   4.694   0.569   8.613 -0.0512 -0.1473 -0.4887
 3867SOL    HW123060   0.010   0.501   8.557  3.9958  3.6234 -2.3949
 3867SOL    HW223061   0.008   0.646   8.568 -0.5528 -0.4445 -1.3712
 3868SOL     OW23062   3.705   1.193   1.821 -0.0767  0.6715  0.3416
 3868SOL    HW123063   3.639   1.137   1.861  0.7141 -2.2974 -2.5420
 3868SOL    HW223064   3.648   1.240   1.760  0.1042  0.7309  0.2165
 3869SOL     OW23065   3.112   4.239  11.295 -0.2781  1.0292 -0.2636
 3869SOL    HW123066   3.197   4.212  11.260  0.4481  0.4938  1.8726
 3869SOL    HW223067   3.057   4.218  11.220  1.0448  1.4769 -1.3487
 3870SOL     OW23068   3.314   3.427   0.720 -0.5457 -0.1452  0.1953
 3870SOL    HW123069   3.282   3.338   0.706 -2.5573  0.3348  1.7210
 3870SOL    HW223070   3.234   3.477   0.737 -0.6942 -0.5340  0.6104
 3871SOL     OW23071   0.675   0.277   3.583 -0.2641  0.3747  0.0640
 3871SOL    HW123072   0.758   0.324   3.595 -0.4790  0.8238 -0.2327
 3871SOL    HW223073   0.699   0.211   3.518 -0.5548  3.2820 -2.9890
 3872SOL     OW23074   2.187   2.440   4.796 -0.1256 -0.4131 -0.1143
 3872SOL    HW123075   2.211   2.532   4.797  0.4951 -0.5661 -0.7678
 3872SOL    HW223076   2.274   2.401   4.798 -0.5058 -1.2469  0.3107
 3873SOL     OW23077   4.096   4.176   3.663 -0.0966 -0.3094  0.2379
 3873SOL    HW123078   4.091   4.225   3.745 -0.8966  0.2070 -0.1212
 3873SOL    HW223079   4.085   4.089   3.700  0.4371 -0.1989  0.6585
 3874SOL     OW23080   0.283   1.133   5.475  1.0833 -0.2312  0.2578
 3874SOL    HW123081   0.245   1.046   5.467  4.0365 -1.4023 -0.9432
 3874SOL    HW223082   0.351   1.133   5.409  1.1487 -0.7339  0.3249
 3875SOL     OW23083   3.710   2.181  14.839 -0.0857  0.1448 -0.4119
 3875SOL    HW123084   3.659   2.128  14.901  0.1239  2.0895  1.4465
 3875SOL    HW223085   3.801   2.167  14.864  0.1152 -0.3587 -1.4759
 3876SOL     OW23086   0.494   1.321   3.425  0.5126  0.0832 -0.5248
 3876SOL    HW123087   0.419   1.381   3.419 -1.5772 -2.4009  0.6080
 3876SOL    HW223088   0.555   1.375   3.475 -1.5558  0.6670  1.3596
 3877SOL     OW23089   3.251   0.566   3.659  0.1725 -0.1644 -0.0101
 3877SOL    HW123090   3.214   0.488   3.699 -0.4841 -0.7699 -1.8068
 3877SOL    HW223091   3.298   0.532   3.583  0.5474  0.2050  0.0551
 3878SOL     OW23092   3.254   3.444  10.739  0.9431 -0.7977 -0.4879
 3878SOL    HW123093   3.309   3.404  10.807  1.3284  1.7798  0.7076
 3878SOL    HW223094   3.314   3.514  10.713  1.1265 -0.8635 -0.2422
 3879SOL     OW23095   0.100   3.566  17.164  0.1609  0.3923 -0.3633
 3879SOL    HW123096   0.050   3.486  17.183  0.2903  0.1063 -1.1978
 3879SOL    HW223097   0.080   3.622  17.238  2.9752  0.0154  0.6739
 3880SOL     OW23098   0.729   3.236   2.560 -0.2169  0.5146 -0.2525
 3880SOL    HW123099   0.753   3.144   2.559  0.5163  0.6953  0.5597
 3880SOL    HW223100   0.745   3.265   2.470 -0.3321  1.4018  0.0076
 3881SOL     OW23101   2.069   4.012   9.194  0.3019  0.0760 -0.1866
 3881SOL    HW123102   2.011   3.940   9.170 -0.0489 -0.0254  0.9481
 3881SOL    HW223103   2.044   4.088   9.142  0.3321  0.4151  0.2983
 3882SOL     OW23104   3.561   4.142   0.900  0.2688 -0.2723  0.2951
 3882SOL    HW123105   3.561   4.047   0.895 -0.9602 -0.3799  2.4882
 3882SOL    HW223106   3.567   4.160   0.994 -0.1709 -1.5554  0.5603
 3883SOL     OW23107   0.500   0.520   8.806 -0.2327  0.0800  0.3218
 3883SOL    HW123108   0.435   0.560   8.748 -2.1829 -1.7749  1.2441
 3883SOL    HW223109   0.467   0.529   8.895  0.1290  0.0099  0.4620
 3884SOL     OW23110   1.466   0.417   9.369 -0.8746 -0.2186 -0.0873
 3884SOL    HW123111   1.532   0.479   9.336 -0.0952 -0.4600  1.0110
 3884SOL    HW223112   1.411   0.464   9.432 -0.8147  0.0197 -0.2104
 3885SOL     OW23113   2.232   0.630  11.254 -0.2166 -0.2602  0.0696
 3885SOL    HW123114   2.319   0.659  11.282  0.3506  0.0424 -2.0608
 3885SOL    HW223115   2.203   0.715  11.221 -0.4948  0.6132  2.5509
 3886SOL     OW23116   4.716   0.489   7.613 -0.1812 -0.6822 -0.0829
 3886SOL    HW123117   4.704   0.580   7.588 -0.2816 -0.7251 -0.1879
 3886SOL    HW223118   0.018   0.450   7.529 -0.4879  1.0113 -0.9449
 3887SOL     OW23119   0.629   1.508   3.570 -0.4221  0.7587 -0.0071
 3887SOL    HW123120   0.661   1.515   3.660  2.0166  1.6638 -0.9390
 3887SOL    HW223121   0.613   1.599   3.546 -0.3002  1.1324  1.3038
 3888SOL     OW23122   4.618   1.044   6.247 -0.0879  0.5480  0.3932
 3888SOL    HW123123   4.566   1.092   6.312 -1.9556 -1.2488  0.2183
 3888SOL    HW223124   4.693   1.009   6.295 -0.0445  0.1974  0.0610
 3889SOL     OW23125   4.082   3.109   6.708 -0.7402 -0.0665 -0.2335
 3889SOL    HW123126   4.072   3.058   6.627 -1.8679  0.0879 -0.1965
 3889SOL    HW223127   4.076   3.039   6.773  0.7792  2.8392  3.0081
 3890SOL     OW23128   0.504   0.837   5.044 -0.1956 -0.2073  0.2669
 3890SOL    HW123129   0.507   0.794   4.959  1.0925  1.1816 -0.3958
 3890SOL    HW223130   0.503   0.754   5.093 -1.9094  1.2153  2.6653
 3891SOL     OW23131   3.696   3.910   5.939 -0.3186  0.2219  0.6318
 3891SOL    HW123132   3.675   3.846   5.871  1.1713 -0.3723  0.7191
 3891SOL    HW223133   3.610   3.926   5.979 -0.8846 -0.5468 -0.2966
 3892SOL     OW23134   3.487   1.003  16.026 -0.3184  0.1718 -0.3465
 3892SOL    HW123135   3.530   0.931  16.072  0.7316  0.4047 -0.9633
 3892SOL    HW223136   3.542   1.078  16.048 -0.3617 -0.6121  2.3944
 3893SOL     OW23137   4.374   1.452   4.418  0.7352  0.3188  0.0180
 3893SOL    HW123138   4.279   1.461   4.423  0.6974 -0.0620 -0.0404
 3893SOL    HW223139   4.380   1.416   4.330  0.9500  1.5916 -0.4923
 3894SOL     OW23140   4.117   3.722   4.986  0.4571 -0.0651 -0.2018
 3894SOL    HW123141   4.111   3.730   5.081 -0.3954  0.0313 -0.2644
 3894SOL    HW223142   4.029   3.704   4.951 -0.2693  1.8545  0.6615
 3895SOL     OW23143   3.844   0.185   5.771  0.5581  0.3657  0.5677
 3895SOL    HW123144   3.845   0.166   5.677  0.3391  2.0766  0.2196
 3895SOL    HW223145   3.875   0.276   5.772  0.8537  0.2762 -0.5077
 3896SOL     OW23146   3.056   0.075   5.236 -0.6227 -0.4859  0.1506
 3896SOL    HW123147   3.098   4.720   5.195 -0.8301 -0.1119 -0.7474
 3896SOL    HW223148   3.023   0.122   5.160  2.1263 -1.2380 -1.5038
 3897SOL     OW23149   0.671   0.473   1.917  0.3378  0.2311  0.0368
 3897SOL    HW123150   0.625   0.513   1.990 -1.6100  0.1090 -1.1418
 3897SOL    HW223151   0.754   0.467   1.965  0.2784 -0.4946  0.0594
 3898SOL     OW23152   2.667   0.901   7.218  0.1781  0.4722 -0.2579
 3898SOL    HW123153   2.734   0.833   7.221  0.4039  0.7435  0.9042
 3898SOL    HW223154   2.627   0.912   7.305 -2.1153 -0.3254 -1.2112
 3899SOL     OW23155   2.640   3.511  14.720 -0.4115 -0.1547  0.1083
 3899SOL    HW123156   2.596   3.426  14.715 -0.5617 -0.0630 -0.0851
 3899SOL    HW223157   2.582   3.555  14.783 -0.4005 -1.2634  0.8941
 3900SOL     OW23158   2.924   2.769  11.948 -0.4133  0.4142 -0.2458
 3900SOL    HW123159   2.949   2.736  11.862 -0.3383 -0.0310 -0.0555
 3900SOL    HW223160   2.994   2.830  11.971 -0.3668  0.5910 -0.8723
 3901SOL     OW23161   2.753   0.538  11.535  0.5028 -0.2626 -0.2158
 3901SOL    HW123162   2.799   0.492  11.605 -0.1225  1.2279  1.1747
 3901SOL    HW223163   2.663   0.509  11.548  0.9739 -1.3713  0.5209
 3902SOL     OW23164   4.322   0.168   2.537 -0.5108  0.3215 -0.1213
 3902SOL    HW123165   4.379   0.106   2.492  0.2367  0.5973  0.4542
 3902SOL    HW223166   4.363   0.178   2.623 -1.3890 -0.0181  0.3412
 3903SOL     OW23167   1.551   1.975   5.208  0.1716  0.2707 -0.1060
 3903SOL    HW123168   1.595   1.930   5.280  0.3575  0.5148 -0.0661
 3903SOL    HW223169   1.507   1.915   5.149  0.5308  0.6423 -0.7533
 3904SOL     OW23170   2.398   2.966   9.235 -0.6235 -0.1863 -0.0516
 3904SOL    HW123171   2.370   3.044   9.187  0.4506  1.3070  1.7265
 3904SOL    HW223172   2.392   2.989   9.328  0.8018  0.2226 -0.0542
 3905SOL     OW23173   4.199   2.714   5.060  0.0664 -0.3481 -0.0505
 3905SOL    HW123174   4.184   2.717   4.965 -2.4402  0.5434  0.3767
 3905SOL    HW223175   4.295   2.718   5.061  0.1027 -1.0595 -0.7119
 3906SOL     OW23176   1.121   4.066   9.660 -0.2186 -0.2398  0.8709
 3906SOL    HW123177   1.065   4.104   9.593 -0.9523 -1.8968  0.5339
 3906SOL    HW223178   1.158   4.142   9.705 -1.0539 -1.2724  3.3302
 3907SOL     OW23179   1.241   3.617   5.617  0.1626 -0.7872  0.3483
 3907SOL    HW123180   1.261   3.593   5.527  1.6078  0.2151  0.4039
 3907SOL    HW223181   1.251   3.536   5.666  2.0246 -0.5498  0.3663
 3908SOL     OW23182   4.114   1.640   7.642 -0.5837 -0.5003 -0.1480
 3908SOL    HW123183   4.085   1.604   7.726 -1.1902 -1.8802 -0.9655
 3908SOL    HW223184   4.153   1.724   7.668 -2.5881 -0.1828  1.8580
 3909SOL     OW23185   2.029   4.266   8.995  0.2505  0.4515 -0.2278
 3909SOL    HW123186   2.119   4.235   8.984  0.0079  0.3887 -1.9497
 3909SOL    HW223187   2.041   4.355   9.030  1.3198  1.1579 -2.3768
 3910SOL     OW23188   1.901   1.771   6.223  0.2241 -0.1472 -0.2757
 3910SOL    HW123189   1.892   1.680   6.195 -0.9265  0.0033 -0.4043
 3910SOL    HW223190   1.810   1.799   6.237  0.4791  1.6836 -2.1759
 3911SOL     OW23191   2.435   2.569   6.786 -0.1855 -0.1502  0.2466
 3911SOL    HW123192   2.457   2.623   6.710  2.2578 -0.7024  0.5605
 3911SOL    HW223193   2.522   2.559   6.824 -0.3083 -1.3595  0.1923
 3912SOL     OW23194   1.034   1.441   5.461  0.6847  0.3683 -0.3488
 3912SOL    HW123195   0.972   1.501   5.420 -1.0493 -0.9195  0.3777
 3912SOL    HW223196   1.076   1.499   5.524 -1.6395 -0.8580  2.3575
 3913SOL     OW23197   3.769   3.785   2.732  0.0785  0.0793 -0.0868
 3913SOL    HW123198   3.744   3.726   2.803 -1.4338 -0.0478 -0.7133
 3913SOL    HW223199   3.864   3.788   2.743  0.3723 -0.9719 -2.5467
 3914SOL     OW23200   3.106   3.845   6.693 -0.3423  0.0467  0.2309
 3914SOL    HW123201   3.124   3.914   6.630 -1.7488  0.2977  0.1158
 3914SOL    HW223202   3.119   3.766   6.639  2.4905  1.5625 -1.2968
 3915SOL     OW23203   0.301   0.810   7.728  0.3829 -0.2539 -0.1616
 3915SOL    HW123204   0.336   0.893   7.695 -1.7376  1.1824  1.2141
 3915SOL    HW223205   0.296   0.827   7.822  0.3027  0.0547 -0.2216
 3916SOL     OW23206   0.237   2.951   2.235 -1.0036 -0.0652  0.1394
 3916SOL    HW123207   0.201   2.883   2.291 -1.0192  0.3256  0.6096
 3916SOL    HW223208   0.233   3.029   2.291  0.7049 -0.2600  0.5414
 3917SOL     OW23209   2.510   4.282   4.165 -0.1503  0.5679  0.8889
 3917SOL    HW123210   2.423   4.258   4.198  0.2039 -0.5210  1.0486
 3917SOL    HW223211   2.500   4.249   4.075 -0.0417  0.1930  1.0145
 3918SOL     OW23212   2.883   3.639  14.603 -0.0434 -0.3735 -0.0364
 3918SOL    HW123213   2.884   3.614  14.510 -0.8823 -0.1453 -0.1054
 3918SOL    HW223214   2.800   3.599  14.628 -0.5622  0.0078 -1.1635
 3919SOL     OW23215   0.984   0.162  16.473 -0.2402 -0.5156  0.1596
 3919SOL    HW123216   1.051   0.212  16.520 -0.2934 -1.0478  0.7864
 3919SOL    HW223217   1.001   0.179  16.380 -1.3926 -1.5366 -0.2298
 3920SOL     OW23218   4.244   1.886  12.184 -0.1484 -0.1654 -0.0895
 3920SOL    HW123219   4.201   1.828  12.247  1.2045 -0.4770  0.5661
 3920SOL    HW223220   4.302   1.826  12.136 -1.6843  0.0150 -2.1747
 3921SOL     OW23221   0.462   1.095   0.278  0.8565 -0.1562  0.7249
 3921SOL    HW123222   0.418   1.179   0.264  1.0551 -0.1221  0.2832
 3921SOL    HW223223   0.383   1.044   0.297  0.2587 -0.2871 -2.0076
 3922SOL     OW23224   4.155   3.930   3.312  0.5320  0.4751 -0.3908
 3922SOL    HW123225   4.227   3.984   3.345  1.5186 -0.8258 -0.4230
 3922SOL    HW223226   4.087   3.998   3.313 -0.1685 -0.2333 -0.5332
 3923SOL     OW23227   3.136   4.495   5.107 -0.2673 -0.3549  0.1752
 3923SOL    HW123228   3.048   4.457   5.114 -0.0402 -0.8418  0.3313
 3923SOL    HW223229   3.185   4.439   5.167 -0.8605  0.2199  1.1917
 3924SOL     OW23230   2.053   2.514   9.258 -0.3652  0.2154 -0.4669
 3924SOL    HW123231   1.961   2.532   9.277 -0.4671 -0.5348 -0.2347
 3924SOL    HW223232   2.084   2.604   9.271 -3.2947  1.1283  0.1596
 3925SOL     OW23233   0.988   2.787  15.848  0.5345  0.1218  0.8333
 3925SOL    HW123234   1.043   2.750  15.916 -0.0850 -2.0029  0.1804
 3925SOL    HW223235   1.011   2.880  15.837 -0.6265  0.6084  2.5827
 3926SOL     OW23236   3.227   1.488   7.216  0.1996 -0.3278  0.2650
 3926SOL    HW123237   3.186   1.557   7.165 -2.4147 -0.3479  2.3123
 3926SOL    HW223238   3.319   1.512   7.229  0.0682  0.9668 -1.2589
 3927SOL     OW23239   1.454   2.271  13.943 -0.2124 -0.5074  0.0491
 3927SOL    HW123240   1.547   2.286  13.925 -0.1671 -1.5680 -0.6375
 3927SOL    HW223241   1.452   2.358  13.983  0.5390  0.6683 -2.5168
 3928SOL     OW23242   1.806   0.609   6.552  0.0644 -0.2607  0.1396
 3928SOL    HW123243   1.751   0.598   6.629  0.8310  0.1507  0.7432
 3928SOL    HW223244   1.819   0.704   6.551 -0.6568 -0.1683 -0.2751
 3929SOL     OW23245   1.103   3.664   4.729  0.4858 -0.0282 -0.1662
 3929SOL    HW123246   1.177   3.634   4.783 -0.2426 -1.2252  0.1648
 3929SOL    HW223247   1.129   3.619   4.649 -0.7704  0.0311 -0.5991
 3930SOL     OW23248   2.807   2.448   0.630  0.1278  0.2240  0.6049
 3930SOL    HW123249   2.824   2.532   0.673  2.9894  0.4117 -0.8753
 3930SOL    HW223250   2.890   2.401   0.639 -0.2679 -0.1476  2.2178
 3931SOL     OW23251   4.170   0.610   0.072  0.0870  0.3285  0.7449
 3931SOL    HW123252   4.260   0.580   0.090 -0.4749 -2.1071 -0.5259
 3931SOL    HW223253   4.174   0.608  17.661 -3.6099 -0.8174  0.6338
 3932SOL     OW23254   4.716   2.648   9.304  0.2139 -0.4933  0.7430
 3932SOL    HW123255   0.009   2.718   9.369  0.2268  0.7934 -0.6348
 3932SOL    HW223256   4.632   2.679   9.270  1.0234 -1.6571 -2.2370
 3933SOL     OW23257   2.709   3.488  17.492  0.1482  0.6582  0.0508
 3933SOL    HW123258   2.773   3.522  17.429 -0.2973  2.0489  0.3332
 3933SOL    HW223259   2.641   3.556  17.488 -0.8455 -0.3679 -0.8047
 3934SOL     OW23260   4.658   2.212   4.556 -0.2412 -0.4261 -0.0138
 3934SOL    HW123261   0.030   2.207   4.531 -0.2283  1.8746 -0.5008
 3934SOL    HW223262   4.609   2.168   4.488 -0.7211  1.5481 -0.9624
 3935SOL     OW23263   0.726   3.694   6.951  0.3199 -0.2334 -0.4464
 3935SOL    HW123264   0.682   3.761   6.898  0.3346 -0.4148 -0.6890
 3935SOL    HW223265   0.713   3.614   6.900  0.3301  0.0722 -0.9328
 3936SOL     OW23266   0.145   4.416   5.613  0.1127  0.5777 -0.6824
 3936SOL    HW123267   0.103   4.479   5.671  0.5655  1.0182 -0.8368
 3936SOL    HW223268   0.219   4.413   5.673  0.7185  1.5164 -1.3935
 3937SOL     OW23269   2.185   4.281  16.109 -0.5335  0.3637 -0.0845
 3937SOL    HW123270   2.267   4.310  16.070 -0.9022  1.9505  0.3506
 3937SOL    HW223271   2.123   4.353  16.114 -1.8436 -0.8026  0.6421
 3938SOL     OW23272   1.981   2.390   5.466 -0.5455 -0.0037 -0.1747
 3938SOL    HW123273   2.012   2.305   5.496 -1.8754 -0.1736  0.7296
 3938SOL    HW223274   2.019   2.389   5.379  0.1531 -1.2041  0.1477
 3939SOL     OW23275   0.524   2.296   1.903 -0.2638 -0.4239 -0.1416
 3939SOL    HW123276   0.551   2.311   1.994  0.8134 -1.6919 -0.2525
 3939SOL    HW223277   0.499   2.383   1.872 -1.8681  0.2745  3.0815
 3940SOL     OW23278   2.612   2.376  17.611  0.3274 -0.2142 -0.2898
 3940SOL    HW123279   2.702   2.345  17.621  0.9887  0.9502 -2.5748
 3940SOL    HW223280   2.600   2.387   0.021 -2.1627  0.3289 -0.6746
 3941SOL     OW23281   4.483   4.036  13.685  0.8675 -0.3883 -0.3208
 3941SOL    HW123282   4.530   4.104  13.637  0.6941 -0.0171  0.0332
 3941SOL    HW223283   4.485   4.084  13.768  3.0879  1.4760 -1.4719
 3942SOL     OW23284   3.682   4.177  13.788  0.6261  0.2651  0.0593
 3942SOL    HW123285   3.749   4.121  13.750  1.2074  1.5120 -0.7439
 3942SOL    HW223286   3.616   4.107  13.787  0.3410  0.4976  2.3849
 3943SOL     OW23287   4.418   3.957  12.608 -0.1623 -0.2165  0.0064
 3943SOL    HW123288   4.347   3.995  12.557  0.0378  0.1223 -0.0179
 3943SOL    HW223289   4.369   3.948  12.690  0.0233  0.3240  0.1777
 3944SOL     OW23290   3.076   2.828   9.751  0.0601  0.5763  0.0954
 3944SOL    HW123291   3.062   2.822   9.846 -2.8686  0.1535 -0.3582
 3944SOL    HW223292   2.985   2.841   9.725  0.4146 -1.2441 -2.0251
 3945SOL     OW23293   3.980   0.371   3.162  0.4534 -0.3122  0.2988
 3945SOL    HW123294   3.921   0.359   3.237  0.1433 -1.5965 -0.1503
 3945SOL    HW223295   3.917   0.418   3.108  0.4021  3.8465  3.9299
 3946SOL     OW23296   1.965   4.194  16.494  0.0982  0.1359  0.3552
 3946SOL    HW123297   1.981   4.268  16.553 -1.2146  0.1527  0.6824
 3946SOL    HW223298   1.909   4.133  16.543  0.1728  0.3920  0.7582
 3947SOL     OW23299   4.612   1.795   6.452  0.1494  0.7105 -0.1449
 3947SOL    HW123300   4.676   1.865   6.460  0.7785  0.0957  0.1918
 3947SOL    HW223301   4.682   1.730   6.456 -0.1696  0.3398 -0.5388
 3948SOL     OW23302   3.272   2.376   6.592  0.0333 -0.3622 -0.5323
 3948SOL    HW123303   3.245   2.457   6.548  1.7129  1.3001  1.5074
 3948SOL    HW223304   3.324   2.344   6.519  1.1398  1.5048 -0.5554
 3949SOL     OW23305   0.948   0.204   7.662 -0.4836  0.1938  0.6529
 3949SOL    HW123306   0.986   0.290   7.677 -0.0634  0.2667 -0.9048
 3949SOL    HW223307   0.994   0.174   7.584 -0.4718 -1.5594  1.3217
 3950SOL     OW23308   3.102   2.211   4.095  0.3298  0.6717  0.8458
 3950SOL    HW123309   3.157   2.133   4.104 -1.1975 -0.5162 -0.4150
 3950SOL    HW223310   3.097   2.212   4.000 -0.8422  2.3924  0.9270
 3951SOL     OW23311   3.171   3.794  14.284 -0.6139  0.2770  0.3362
 3951SOL    HW123312   3.181   3.765  14.375  1.2071 -2.8084 -0.8498
 3951SOL    HW223313   3.230   3.869  14.287  0.1449 -0.2283 -2.2691
 3952SOL     OW23314   3.327   2.571  12.030  0.0303  0.3443  0.6609
 3952SOL    HW123315   3.392   2.562  12.100  1.3392 -2.1548 -0.8665
 3952SOL    HW223316   3.251   2.591  12.085  0.0136 -1.2280  1.2234
 3953SOL     OW23317   3.400   1.552   2.337 -0.2271 -0.6113 -0.7517
 3953SOL    HW123318   3.430   1.631   2.292 -1.5148  0.2227 -0.1562
 3953SOL    HW223319   3.325   1.533   2.281  1.9194 -2.6386 -2.9318
 3954SOL     OW23320   2.839   3.012   9.665 -0.0561  0.1155 -0.6470
 3954SOL    HW123321   2.854   3.018   9.759 -0.8979 -1.6546 -0.4143
 3954SOL    HW223322   2.924   3.049   9.641  1.0935 -0.9419  1.8800
 3955SOL     OW23323   3.375   1.404   2.757 -0.4697 -0.1932 -0.7793
 3955SOL    HW123324   3.292   1.442   2.784 -0.8934 -1.2372 -0.5883
 3955SOL    HW223325   3.422   1.481   2.726 -1.6926  1.2183  0.9042
 3956SOL     OW23326   0.373   2.137  17.367 -0.2079  0.6179 -0.4430
 3956SOL    HW123327   0.455   2.114  17.324 -1.5462 -0.5512 -2.4093
 3956SOL    HW223328   0.390   2.111  17.457  0.4029  1.5895 -0.2920
 3957SOL     OW23329   0.385   2.724  10.641  0.0909 -0.3112 -0.0497
 3957SOL    HW123330   0.462   2.779  10.652 -0.1026 -0.1563  0.5425
 3957SOL    HW223331   0.319   2.792  10.621  0.7225 -0.6263 -3.1939
 3958SOL     OW23332   1.077   0.114   7.456  0.4314 -0.3477  0.1073
 3958SOL    HW123333   1.162   0.072   7.457  0.4487 -0.3006  1.5302
 3958SOL    HW223334   1.088   0.171   7.380 -1.1136 -1.4280 -0.9413
 3959SOL     OW23335   1.845   4.459  15.897 -0.1883  0.0932 -0.2828
 3959SOL    HW123336   1.799   4.407  15.963  0.2347 -0.4378 -0.4031
 3959SOL    HW223337   1.790   4.448  15.819  0.1633 -2.4102 -0.1922
 3960SOL     OW23338   0.571   4.192   5.053  0.1505 -0.0415 -0.0677
 3960SOL    HW123339   0.576   4.121   4.989  0.5199 -0.6287  0.6147
 3960SOL    HW223340   0.528   4.151   5.128  0.8349 -0.5303  0.0617
 3961SOL     OW23341   2.076   2.342   1.947 -0.0988 -0.3468 -0.0712
 3961SOL    HW123342   2.048   2.260   1.988  0.6316 -1.1701 -1.2534
 3961SOL    HW223343   2.163   2.360   1.982 -0.3854  0.2569  0.3450
 3962SOL     OW23344   2.368   1.276   3.181 -0.8116  0.0858  0.4139
 3962SOL    HW123345   2.313   1.348   3.149 -2.3795 -2.3044 -2.2720
 3962SOL    HW223346   2.405   1.253   3.095  1.0422  0.2200  1.1755
 3963SOL     OW23347   0.505   0.171   6.906  0.0010 -0.3300  0.8710
 3963SOL    HW123348   0.483   0.078   6.919  2.8496 -1.0742  0.3559
 3963SOL    HW223349   0.444   0.190   6.835 -3.2126 -1.2684  3.3897
 3964SOL     OW23350   3.532   1.059   1.964 -0.3692 -0.0023  0.7112
 3964SOL    HW123351   3.517   1.084   2.055 -1.4442  0.7942  0.3123
 3964SOL    HW223352   3.520   0.967   1.988  0.1333  0.3641  2.3562
 3965SOL     OW23353   1.657   2.759   6.870  0.1727 -0.8635 -0.2379
 3965SOL    HW123354   1.593   2.796   6.810 -1.4383  0.3025  2.2179
 3965SOL    HW223355   1.711   2.837   6.886 -3.0185  1.0784  1.0531
 3966SOL     OW23356   4.029   4.445  10.237  0.0972 -0.0407 -0.6892
 3966SOL    HW123357   4.015   4.400  10.321  0.0194  1.3511  0.0437
 3966SOL    HW223358   3.938   4.475  10.228 -0.1383 -0.4833  0.1444
 3967SOL     OW23359   1.634   2.228   7.979 -0.0053  0.0820 -0.1294
 3967SOL    HW123360   1.590   2.243   7.895  3.9519 -1.4095 -2.4423
 3967SOL    HW223361   1.559   2.217   8.038  1.2445 -2.1538  1.0300
 3968SOL     OW23362   2.769   0.363   0.672  0.3011 -0.4385  0.0403
 3968SOL    HW123363   2.829   0.413   0.616 -1.1994  1.0956 -0.1954
 3968SOL    HW223364   2.682   0.377   0.635  0.8801  1.5202 -0.5865
 3969SOL     OW23365   4.658   0.167  16.361  0.1445  0.8083  0.4203
 3969SOL    HW123366   4.606   0.093  16.393  0.8474  0.0015 -0.2898
 3969SOL    HW223367   4.647   0.170  16.266 -0.3578  0.2012  0.4568
 3970SOL     OW23368   2.242   2.877   4.607 -0.0696 -0.7609  0.3369
 3970SOL    HW123369   2.191   2.945   4.651  0.3909  0.2350 -0.6865
 3970SOL    HW223370   2.322   2.889   4.659  0.9572 -1.3593 -1.0914
 3971SOL     OW23371   0.535   4.183   2.151  0.1101  0.1975  0.2488
 3971SOL    HW123372   0.487   4.225   2.080  1.5286 -0.9301 -1.3620
 3971SOL    HW223373   0.477   4.199   2.225  0.9221  1.5777  0.5928
 3972SOL     OW23374   3.754   0.414   4.429 -0.1693 -0.4322  0.5663
 3972SOL    HW123375   3.704   0.333   4.421 -0.2344 -0.5472  2.0947
 3972SOL    HW223376   3.794   0.408   4.516  0.0585  1.1806  0.5686
 3973SOL     OW23377   3.504   4.143   5.969 -0.1268  0.0366 -0.1663
 3973SOL    HW123378   3.475   4.115   6.056 -0.3480 -1.1289 -0.6179
 3973SOL    HW223379   3.570   4.207   5.994 -0.2970 -0.2169  0.9662
 3974SOL     OW23380   0.010   3.016  17.164 -0.0206  0.0108  0.0284
 3974SOL    HW123381   4.720   2.928  17.200 -2.6039  0.5483  0.5886
 3974SOL    HW223382   4.660   3.059  17.213  0.5745 -1.1347  1.8892
 3975SOL     OW23383   4.039   4.340   3.433 -0.5108 -0.7496  0.2303
 3975SOL    HW123384   4.074   4.298   3.512 -3.1696 -1.6179  0.9603
 3975SOL    HW223385   4.111   4.399   3.410  0.3146 -1.0238  2.1269
 3976SOL     OW23386   2.910   3.051   5.468 -0.4368 -0.0759  0.1789
 3976SOL    HW123387   2.992   3.060   5.516  0.4583 -1.6699 -1.0232
 3976SOL    HW223388   2.932   3.048   5.375 -1.1427 -0.0682  0.0126
 3977SOL     OW23389   0.624   3.411   8.536 -0.1396  0.1455 -0.1482
 3977SOL    HW123390   0.702   3.359   8.557 -1.5117 -1.3678  1.1546
 3977SOL    HW223391   0.661   3.446   8.455  1.8481 -0.0658  0.6489
 3978SOL     OW23392   1.691   3.658   5.218 -0.6614 -0.3206  0.6409
 3978SOL    HW123393   1.781   3.636   5.242 -0.7107  0.6367  1.7202
 3978SOL    HW223394   1.709   3.706   5.138 -0.6270  0.4859  1.1285
 3979SOL     OW23395   2.741   1.368   6.474  0.0264  0.1278  0.3308
 3979SOL    HW123396   2.822   1.341   6.431 -0.2477  0.3437 -0.3286
 3979SOL    HW223397   2.684   1.318   6.416 -1.0011  0.8073  0.7572
 3980SOL     OW23398   2.580   3.771   9.264  0.6963  0.8397 -0.1770
 3980SOL    HW123399   2.529   3.720   9.328  1.8282  0.4025  0.3791
 3980SOL    HW223400   2.507   3.821   9.229  2.1049  1.2114 -2.5653
 3981SOL     OW23401   1.604   1.470   3.241 -0.5133 -1.0384 -0.2752
 3981SOL    HW123402   1.532   1.517   3.283  0.5966  2.9080 -2.8291
 3981SOL    HW223403   1.569   1.382   3.250 -1.2491 -0.5402  1.7958
 3982SOL     OW23404   0.240   3.584   1.402  0.3287 -0.4294 -0.1696
 3982SOL    HW123405   0.162   3.600   1.455  1.1176 -3.3405  1.8829
 3982SOL    HW223406   0.314   3.609   1.457  0.2372 -0.0595 -0.2106
 3983SOL     OW23407   4.110   2.614   6.543  0.3812  0.5783 -0.0424
 3983SOL    HW123408   4.089   2.525   6.569 -3.4281  1.9304  1.5210
 3983SOL    HW223409   4.083   2.616   6.452  0.7282  1.9388 -0.1194
 3984SOL     OW23410   0.315   4.281  13.628 -0.4773 -0.2048 -0.6124
 3984SOL    HW123411   0.326   4.295  13.534  0.7420 -0.6165 -0.5348
 3984SOL    HW223412   0.406   4.257  13.648 -1.5552 -1.5812  2.6105
 3985SOL     OW23413   3.583   3.991   4.475  0.0791  0.1346 -0.6294
 3985SOL    HW123414   3.625   3.988   4.389  0.2845 -0.0177 -0.5208
 3985SOL    HW223415   3.608   4.074   4.515  1.3576 -0.7439  0.3744
 3986SOL     OW23416   2.689   0.612   6.235  0.9268  0.3846  0.4531
 3986SOL    HW123417   2.771   0.661   6.241  0.6430  1.2348 -2.6274
 3986SOL    HW223418   2.716   0.524   6.261  0.4985  0.0495 -0.2374
 3987SOL     OW23419   2.460   3.963   2.809 -1.0217  0.1382 -0.0330
 3987SOL    HW123420   2.413   4.032   2.857  1.2790  0.0501  2.3737
 3987SOL    HW223421   2.418   3.885   2.845  0.4912 -1.0751 -0.8847
 3988SOL     OW23422   0.378   1.619   8.399  0.5050  0.5707  0.3091
 3988SOL    HW123423   0.382   1.575   8.484 -2.3690 -1.7851 -0.7610
 3988SOL    HW223424   0.401   1.708   8.422 -0.1542  0.5043  1.2391
 3989SOL     OW23425   4.605   0.702   7.242  0.1814 -0.4301 -0.6310
 3989SOL    HW123426   4.535   0.725   7.181 -1.4463 -0.1309  1.3590
 3989SOL    HW223427   4.587   0.750   7.323 -0.8929  4.3861 -3.7160
 3990SOL     OW23428   3.435   2.136  17.554  0.3897 -0.0402 -0.7480
 3990SOL    HW123429   3.457   2.186  17.475  1.2855  1.3681  0.3814
 3990SOL    HW223430   3.520   2.138  17.599  0.7893 -3.1324 -1.4149
 3991SOL     OW23431   1.313   1.774  17.165 -0.1862  0.0709 -0.3082
 3991SOL    HW123432   1.233   1.752  17.212 -0.6075  1.8288 -0.2184
 3991SOL    HW223433   1.327   1.690  17.121 -0.4983 -1.1791  1.9842
 3992SOL     OW23434   2.733   2.562  11.981 -0.2810 -0.2061 -0.4642
 3992SOL    HW123435   2.696   2.571  11.894  0.4429  0.0609 -0.7421
 3992SOL    HW223436   2.804   2.626  11.977 -0.1103 -0.3708 -0.0767
 3993SOL     OW23437   3.752   0.288   6.265  0.7360  0.3966  0.3650
 3993SOL    HW123438   3.813   0.353   6.231 -2.0738  2.3981 -0.7999
 3993SOL    HW223439   3.695   0.340   6.322  1.0524 -0.6910  1.6885
 3994SOL     OW23440   2.066   2.731   4.766  0.1858 -0.1789 -0.6787
 3994SOL    HW123441   2.011   2.694   4.697 -2.0347  0.8266  0.5674
 3994SOL    HW223442   2.128   2.770   4.704 -1.1315  2.4635 -0.3366
 3995SOL     OW23443   4.129   1.202   1.147 -0.7042  0.1502 -0.6200
 3995SOL    HW123444   4.106   1.111   1.127 -0.2969  0.0837 -0.7859
 3995SOL    HW223445   4.121   1.248   1.063  1.5689 -0.8173 -1.3825
 3996SOL     OW23446   2.425   2.885   5.065 -0.6162  0.2097  0.8381
 3996SOL    HW123447   2.507   2.861   5.109  0.3741  0.7594 -0.6991
 3996SOL    HW223448   2.379   2.910   5.144 -0.9408  0.4577  0.5698
 3997SOL     OW23449   1.664   2.665   8.016  0.1625 -0.4369 -0.2013
 3997SOL    HW123450   1.664   2.652   7.921 -1.3434 -0.3403 -0.2068
 3997SOL    HW223451   1.580   2.710   8.023 -0.5215 -1.6984 -0.2040
 3998SOL     OW23452   2.352   4.122   0.689 -0.8376  0.0239  0.1896
 3998SOL    HW123453   2.418   4.069   0.734 -1.2517 -0.1233  0.6217
 3998SOL    HW223454   2.383   4.212   0.686  0.0759 -0.2950 -0.0289
 3999SOL     OW23455   3.632   4.505   3.573 -0.0533  0.3871  0.8399
 3999SOL    HW123456   3.644   4.561   3.496 -0.9435 -1.7935 -0.8648
 3999SOL    HW223457   3.695   4.433   3.568 -0.7207 -0.1336 -0.0401
 4000SOL     OW23458   0.796   4.271   3.472  0.4538  0.1632 -0.5246
 4000SOL    HW123459   0.737   4.344   3.489 -1.5311 -1.2113 -1.5598
 4000SOL    HW223460   0.825   4.291   3.383 -0.2670  0.6308 -0.6524
 4001SOL     OW23461   3.044   2.263   9.760  0.1499  0.1065 -0.4916
 4001SOL    HW123462   3.035   2.191   9.698  2.3970 -0.5780  0.0150
 4001SOL    HW223463   3.075   2.334   9.703 -0.9299  0.0483 -1.1595
 4002SOL     OW23464   0.230   1.427   3.471  0.4154  0.0251  0.2845
 4002SOL    HW123465   0.185   1.368   3.532 -0.8988  0.1402 -0.5741
 4002SOL    HW223466   0.184   1.511   3.477 -1.3258 -1.0105  1.5647
 4003SOL     OW23467   2.038   1.829   8.497 -0.2520 -0.0954 -0.4028
 4003SOL    HW123468   2.086   1.751   8.527  0.5608 -0.0296 -1.5473
 4003SOL    HW223469   1.975   1.844   8.568  1.0022  0.3949  0.6138
 4004SOL     OW23470   4.079   3.354   4.134  0.3122 -0.2871  0.7495
 4004SOL    HW123471   4.091   3.266   4.169 -0.8119  0.1963  2.3533
 4004SOL    HW223472   4.121   3.404   4.204  1.4008  1.5864 -1.2598
 4005SOL     OW23473   2.923   0.339  12.843 -0.6265  0.0572  0.6539
 4005SOL    HW123474   2.914   0.310  12.934  3.6836 -0.8725  0.7934
 4005SOL    HW223475   2.832   0.361  12.825 -0.6935  0.7142  1.7896
 4006SOL     OW23476   4.461   1.716   4.578  0.7470 -0.0379  0.1883
 4006SOL    HW123477   4.394   1.654   4.549  1.1546 -0.3165 -0.1687
 4006SOL    HW223478   4.537   1.686   4.528  1.1456  1.5951 -0.1861
 4007SOL     OW23479   0.919   1.877   4.067 -0.1903  0.0972 -0.4866
 4007SOL    HW123480   0.828   1.874   4.095  0.3670  1.8674  1.5377
 4007SOL    HW223481   0.946   1.960   4.106  3.0167 -0.8586 -0.6459
 4008SOL     OW23482   0.095   2.123  11.316  0.3648  0.5647 -0.0591
 4008SOL    HW123483   0.041   2.046  11.299 -1.2420  2.1931 -2.4110
 4008SOL    HW223484   0.030   2.188  11.288 -0.8757 -1.1227 -1.0526
 4009SOL     OW23485   3.378   3.060   1.891  0.4068 -0.0460 -0.3655
 4009SOL    HW123486   3.331   2.980   1.870 -0.5339  0.2921  0.4247
 4009SOL    HW223487   3.326   3.124   1.841  2.1431  1.1668 -0.6478
 4010SOL     OW23488   0.913   0.711   0.254 -0.1123 -0.1437 -0.1150
 4010SOL    HW123489   0.909   0.804   0.275  1.1418 -0.1560  0.1850
 4010SOL    HW223490   0.999   0.708   0.213 -0.3963 -0.5619 -0.6838
 4011SOL     OW23491   1.492   3.882   3.217  0.1010 -0.2513 -0.0962
 4011SOL    HW123492   1.460   3.792   3.208  2.4004 -1.1903  1.0361
 4011SOL    HW223493   1.504   3.902   3.124 -1.6125 -0.4590 -0.3587
 4012SOL     OW23494   4.642   4.096   4.588 -0.0559 -0.5423 -0.3754
 4012SOL    HW123495   4.636   4.001   4.599 -1.8721 -0.5240 -1.1098
 4012SOL    HW223496   4.620   4.128   4.675 -0.0981 -0.9951 -0.2193
 4013SOL     OW23497   3.023   2.280  11.256 -0.0190 -0.3012 -0.4598
 4013SOL    HW123498   2.981   2.246  11.336  0.1367  1.5604  0.4245
 4013SOL    HW223499   3.005   2.208  11.196  2.2877 -1.0226 -0.2917
 4014SOL     OW23500   0.262   0.889  15.784 -0.0766  0.5059  0.1205
 4014SOL    HW123501   0.284   0.976  15.818 -0.0188  0.3188  0.5583
 4014SOL    HW223502   0.169   0.904  15.771  0.1384  1.2185 -0.5805
 4015SOL     OW23503   3.103   0.698   6.669  0.4751 -0.9960  0.4971
 4015SOL    HW123504   3.168   0.628   6.661  1.1717 -0.5214  1.9919
 4015SOL    HW223505   3.068   0.698   6.579  0.9549 -0.6137  0.3089
 4016SOL     OW23506   2.004   4.127   6.309 -0.0888 -0.6885  0.2122
 4016SOL    HW123507   2.061   4.109   6.384  1.3742 -0.0154 -0.7276
 4016SOL    HW223508   2.013   4.221   6.294  1.5913 -0.6717  1.3146
 4017SOL     OW23509   2.601   4.358   9.746  0.3040  0.3804  0.7867
 4017SOL    HW123510   2.587   4.264   9.733  0.9487  0.1508  1.6952
 4017SOL    HW223511   2.573   4.402   9.666  0.3244 -0.0997  0.5214
 4018SOL     OW23512   1.420   0.718   8.660 -0.5115  0.2336 -0.6732
 4018SOL    HW123513   1.394   0.777   8.590 -1.6673  2.1223  1.3618
 4018SOL    HW223514   1.334   0.691   8.691  0.1090 -1.0720 -0.0664
 4019SOL     OW23515   4.483   0.882   2.868 -0.5248  0.5439  0.0483
 4019SOL    HW123516   4.509   0.862   2.958 -0.2189  0.0237 -0.1537
 4019SOL    HW223517   4.529   0.965   2.862  0.0971  0.2724  1.0673
 4020SOL     OW23518   2.339   3.681   8.086 -0.0330 -0.6171 -0.3429
 4020SOL    HW123519   2.275   3.648   8.149  0.5228 -0.8176  0.1085
 4020SOL    HW223520   2.393   3.741   8.137 -1.4200  0.0550  0.3283
 4021SOL     OW23521   0.306   1.367  14.516  0.1679 -0.4465  0.9022
 4021SOL    HW123522   0.329   1.361  14.423  0.4967 -0.5879  0.9917
 4021SOL    HW223523   0.375   1.304  14.537  0.4088  0.1156  1.7875
 4022SOL     OW23524   0.005   0.545   4.004  0.0268  0.0996  0.4728
 4022SOL    HW123525   0.092   0.515   4.029  0.5806  1.1126 -0.2696
 4022SOL    HW223526   0.001   0.553   3.909  1.2541 -0.0043  0.4213
 4023SOL     OW23527   3.835   3.058   5.422 -0.0406 -0.4828 -0.2238
 4023SOL    HW123528   3.921   3.016   5.425 -0.8617 -2.1111  1.1507
 4023SOL    HW223529   3.778   2.982   5.409  2.1229 -2.1915  0.2192
 4024SOL     OW23530   3.284   4.569   8.189 -0.1897 -0.0086 -0.6255
 4024SOL    HW123531   3.251   4.659   8.198 -1.8426 -0.7555  0.7067
 4024SOL    HW223532   3.208   4.516   8.164 -0.0707 -0.1036 -0.7858
 4025SOL     OW23533   3.473   1.521   5.319  0.2496  0.1690 -0.2755
 4025SOL    HW123534   3.378   1.515   5.327  0.3246  0.3813  0.7191
 4025SOL    HW223535   3.480   1.616   5.321 -0.6107  0.1875  1.6514
 4026SOL     OW23536   2.357   1.016   4.395  0.2181 -0.3997 -0.3857
 4026SOL    HW123537   2.314   0.990   4.313  0.4657  0.6264 -0.8472
 4026SOL    HW223538   2.397   0.935   4.425 -0.2862 -0.8127 -0.8214
 4027SOL     OW23539   4.449   2.263   7.165  0.3140 -0.8035  0.3171
 4027SOL    HW123540   4.450   2.167   7.161  1.7975 -0.9577  4.0875
 4027SOL    HW223541   4.440   2.290   7.073 -0.8266  1.3120  1.0530
 4028SOL     OW23542   1.187   3.757  15.424 -0.5171 -0.3146  0.1244
 4028SOL    HW123543   1.223   3.844  15.405 -1.1693 -0.5513 -2.2660
 4028SOL    HW223544   1.141   3.780  15.505 -2.4067  0.4144 -1.1374
 4029SOL     OW23545   4.274   4.583  10.209  0.2392  0.2834  0.0943
 4029SOL    HW123546   4.182   4.563  10.190  0.2928 -0.3604  0.5495
 4029SOL    HW223547   4.276   4.553  10.299  2.5145 -1.3925 -0.5137
 4030SOL     OW23548   1.108   0.198   6.473 -1.2287 -0.0616  0.0993
 4030SOL    HW123549   1.178   0.235   6.526 -1.7450  0.2923  0.5240
 4030SOL    HW223550   1.037   0.262   6.474  1.4858  2.9196  1.4142
 4031SOL     OW23551   3.426   2.571   9.775 -0.3570  0.1790 -0.0120
 4031SOL    HW123552   3.411   2.477   9.762 -1.7458  0.1982  1.4561
 4031SOL    HW223553   3.512   2.563   9.817  0.3258 -1.4032 -1.6537
 4032SOL     OW23554   1.088   1.795   2.451 -0.1912 -0.4457 -0.0493
 4032SOL    HW123555   1.011   1.781   2.506  1.4376  1.0987  2.6404
 4032SOL    HW223556   1.127   1.857   2.513  0.9361 -1.7070  0.4826
 4033SOL     OW23557   1.005   1.924  17.197  0.5373 -0.7975 -0.3291
 4033SOL    HW123558   1.034   1.887  17.280 -0.6153 -0.7976  0.0688
 4033SOL    HW223559   0.962   1.846  17.164 -1.3683 -0.4287  1.2833
 4034SOL     OW23560   4.661   3.687   2.088 -0.4233 -0.4369  0.4232
 4034SOL    HW123561   4.638   3.611   2.035 -2.6553  0.5584 -0.0575
 4034SOL    HW223562   0.032   3.676   2.114  0.4643  1.2809 -1.9753
 4035SOL     OW23563   2.712   3.684  13.556  0.2831  0.0134  0.1803
 4035SOL    HW123564   2.629   3.709  13.597  1.1730  1.6371  0.9902
 4035SOL    HW223565   2.685   3.679  13.464  2.0538  0.7003 -0.3787
 4036SOL     OW23566   2.541   4.365   4.747 -0.0172 -0.1185  0.6002
 4036SOL    HW123567   2.510   4.413   4.824  1.2299  0.6628  0.6278
 4036SOL    HW223568   2.454   4.364   4.708  1.1158  1.0993 -2.0110
 4037SOL     OW23569   0.271   4.332   2.071  0.3726 -0.5465 -0.7858
 4037SOL    HW123570   0.195   4.385   2.047  0.6867  0.6585  0.9056
 4037SOL    HW223571   0.225   4.256   2.106 -0.2274  0.9697  1.6709
 4038SOL     OW23572   0.177   4.622   0.738 -0.4546 -0.4119  0.1223
 4038SOL    HW123573   0.220   4.686   0.795  0.1826  1.7911 -2.8553
 4038SOL    HW223574   0.256   4.601   0.688 -1.1670  0.1328 -1.2271
 4039SOL     OW23575   1.604   3.245  14.350 -0.3006 -0.0577  0.5659
 4039SOL    HW123576   1.697   3.236  14.329 -0.1088  0.5001  1.1693
 4039SOL    HW223577   1.573   3.335  14.346 -0.5463 -0.2708 -2.1467
 4040SOL     OW23578   4.524   4.214  12.057  0.0167  0.1299  0.0521
 4040SOL    HW123579   4.595   4.246  12.112  1.1655 -3.1272  0.4789
 4040SOL    HW223580   4.467   4.290  12.071  1.9907  1.6082 -0.0360
 4041SOL     OW23581   4.101   1.867   7.939  0.6334  0.2160 -0.2308
 4041SOL    HW123582   4.036   1.810   7.980  0.9755  0.9575  1.3325
 4041SOL    HW223583   4.122   1.932   8.006  1.8139 -0.7948  0.3807
 4042SOL     OW23584   2.486   3.266   6.893  0.5168 -0.0024 -0.3477
 4042SOL    HW123585   2.418   3.200   6.880  1.6488 -1.5432  1.5814
 4042SOL    HW223586   2.507   3.251   6.986 -0.5362 -1.6378 -0.3846
 4043SOL     OW23587   0.219   3.237  17.504 -0.1871 -0.4081  0.0788
 4043SOL    HW123588   0.197   3.211  17.593 -2.0859 -0.4340 -0.4133
 4043SOL    HW223589   0.314   3.226  17.501 -0.0633  1.3040 -2.7797
 4044SOL     OW23590   4.538   3.610   5.176  0.5244  0.1288  0.0872
 4044SOL    HW123591   4.520   3.578   5.088  1.3408 -3.6187  1.3264
 4044SOL    HW223592   4.486   3.548   5.228  0.7663 -0.0763  0.0809
 4045SOL     OW23593   3.862   2.093  10.497 -0.3163 -0.0121  0.5126
 4045SOL    HW123594   3.926   2.145  10.448  0.1590 -0.0646  1.0716
 4045SOL    HW223595   3.782   2.146  10.494  0.0262  0.5607  1.3623
 4046SOL     OW23596   3.209   3.098  11.660  0.5803  0.3702 -0.2309
 4046SOL    HW123597   3.241   3.008  11.663 -0.9308 -0.1771 -0.4476
 4046SOL    HW223598   3.124   3.099  11.704  0.9183 -1.2167  0.4227
 4047SOL     OW23599   2.092   1.384   0.424  0.1962  0.5185 -0.0599
 4047SOL    HW123600   2.021   1.365   0.362 -0.5825 -1.6836  1.5090
 4047SOL    HW223601   2.104   1.293   0.451 -0.7019  0.8626  1.4748
 4048SOL     OW23602   2.786   0.239   7.515 -1.3380  0.0881  0.7618
 4048SOL    HW123603   2.839   0.191   7.451 -2.1280  0.9144 -0.5212
 4048SOL    HW223604   2.859   0.267   7.569 -0.6973 -3.7101  1.8564
 4049SOL     OW23605   2.435   1.235  10.555  0.4450  0.2580  0.3761
 4049SOL    HW123606   2.403   1.325  10.547  2.5390  1.0244  0.6546
 4049SOL    HW223607   2.528   1.250  10.538  0.0938 -1.1306 -2.9111
 4050SOL     OW23608   3.710   0.842  17.206 -0.2981 -0.3149 -0.2694
 4050SOL    HW123609   3.658   0.918  17.232  0.4520  0.1588 -0.1492
 4050SOL    HW223610   3.660   0.809  17.132 -0.3538 -1.6685  0.3822
 4051SOL     OW23611   1.765   0.266   8.658 -0.0883  0.0563 -0.1518
 4051SOL    HW123612   1.807   0.190   8.620 -0.8836  0.3039 -1.5426
 4051SOL    HW223613   1.836   0.329   8.651 -0.8670  0.8507 -1.0396
 4052SOL     OW23614   2.166   3.873   7.533  0.2309  0.0756  0.5658
 4052SOL    HW123615   2.136   3.929   7.604  3.6990  0.8640  1.3783
 4052SOL    HW223616   2.133   3.922   7.458  0.2278 -1.1151 -0.2143
 4053SOL     OW23617   0.292   0.632   8.346  0.2725 -0.3504  0.2351
 4053SOL    HW123618   0.223   0.661   8.287  0.9913  2.3126  0.7222
 4053SOL    HW223619   0.370   0.627   8.291 -0.4822  1.2714 -0.9704
 4054SOL     OW23620   0.235   4.248   8.142 -0.8417 -0.6004  0.0589
 4054SOL    HW123621   0.180   4.199   8.082 -0.5468  0.8396 -1.3763
 4054SOL    HW223622   0.286   4.177   8.180  1.0549  0.6454 -0.1336
 4055SOL     OW23623   0.352   4.593   3.254  0.0975  0.2080 -0.1843
 4055SOL    HW123624   0.313   4.567   3.337 -0.5285  2.1880  0.1480
 4055SOL    HW223625   0.275   4.641   3.225 -0.1080  0.1871  0.3320
 4056SOL     OW23626   0.526   2.133   2.576 -0.5552 -0.3157  0.1994
 4056SOL    HW123627   0.566   2.208   2.620  0.1642 -0.7605  0.2975
 4056SOL    HW223628   0.490   2.187   2.505  0.1675 -0.4443 -0.2649
 4057SOL     OW23629   3.685   3.712   1.619  0.1769 -0.2001 -0.1660
 4057SOL    HW123630   3.659   3.624   1.593  0.1626 -0.4231  0.6026
 4057SOL    HW223631   3.696   3.702   1.713  0.3219  1.4727  0.0004
 4058SOL     OW23632   3.922   1.035   3.310 -0.1463  0.3686 -0.0564
 4058SOL    HW123633   3.939   1.118   3.355 -1.7512 -0.3272  1.8334
 4058SOL    HW223634   3.961   1.060   3.226 -1.7260  3.5147  0.1410
 4059SOL     OW23635   4.179   3.267   3.405  0.3395  0.2213 -0.5612
 4059SOL    HW123636   4.168   3.195   3.467  0.8882  1.2488  0.7192
 4059SOL    HW223637   4.120   3.255   3.330  0.3749 -2.2492 -0.2096
 4060SOL     OW23638   1.605   1.994   7.421  0.2815 -0.4930 -0.6589
 4060SOL    HW123639   1.697   2.016   7.406  0.9318 -3.3311 -0.7800
 4060SOL    HW223640   1.599   1.970   7.514  1.3100 -0.8029 -0.6738
 4061SOL     OW23641   1.057   4.157   4.250 -0.0292  0.0501 -0.4178
 4061SOL    HW123642   0.988   4.178   4.187  0.0052  0.7787 -0.2196
 4061SOL    HW223643   1.041   4.067   4.278 -1.1207  1.1262  2.4778
 4062SOL     OW23644   2.286   4.594   4.209  0.2694 -0.1463 -0.1786
 4062SOL    HW123645   2.255   4.568   4.122 -1.8668  1.6157  0.0545
 4062SOL    HW223646   2.375   4.561   4.197 -0.8008 -2.7800 -0.8895
 4063SOL     OW23647   3.171   2.358   5.592  0.3526  0.2305  0.2702
 4063SOL    HW123648   3.161   2.264   5.609  0.2642  0.8774  3.7554
 4063SOL    HW223649   3.147   2.373   5.500  0.9317  0.9870  0.2492
 4064SOL     OW23650   2.221   2.178  16.372  0.3270  0.2458  0.4939
 4064SOL    HW123651   2.313   2.202  16.387 -0.1627  1.6557  1.1954
 4064SOL    HW223652   2.183   2.167  16.460  1.3333  0.0178  0.9016
 4065SOL     OW23653   3.306   2.163   8.572 -0.4080  0.1659 -0.7729
 4065SOL    HW123654   3.365   2.213   8.629 -0.2178 -0.1629 -0.6854
 4065SOL    HW223655   3.345   2.076   8.579  2.6105  1.5521 -0.2978
 4066SOL     OW23656   0.352   0.732   6.424  0.3829  0.3247 -0.6439
 4066SOL    HW123657   0.354   0.810   6.367  0.5507 -1.8702 -3.6566
 4066SOL    HW223658   0.316   0.762   6.507 -1.1839 -1.1829 -0.7803
 4067SOL     OW23659   1.263   2.060  16.873  0.5759  0.7522  0.8170
 4067SOL    HW123660   1.352   2.080  16.904 -0.2568  0.8385  3.1905
 4067SOL    HW223661   1.254   1.965  16.863 -0.5869  1.0049 -0.3845
 4068SOL     OW23662   2.508   4.126   8.199  0.2903  0.0383 -0.4027
 4068SOL    HW123663   2.520   4.212   8.240  0.0219  0.8252 -1.9724
 4068SOL    HW223664   2.423   4.099   8.234  0.1576 -1.6025 -1.9988
 4069SOL     OW23665   2.099   2.131   6.077  0.5771 -0.0810 -0.4353
 4069SOL    HW123666   2.062   2.219   6.066  0.5727 -0.4904 -3.7213
 4069SOL    HW223667   2.115   2.101   5.987  1.4225  1.9802 -0.9714
 4070SOL     OW23668   0.726   4.665   3.819 -0.1922  0.0231 -0.2480
 4070SOL    HW123669   0.799   4.717   3.786 -0.2333  1.7586  2.3976
 4070SOL    HW223670   0.699   4.614   3.743  0.8756 -0.1993 -0.4655
 4071SOL     OW23671   1.746   4.339   9.102  0.2825  0.2851 -0.0259
 4071SOL    HW123672   1.749   4.372   9.012 -2.4483  0.8297  0.0723
 4071SOL    HW223673   1.799   4.260   9.089  2.3429  1.5246  0.9127
 4072SOL     OW23674   3.826   0.917  15.020  0.0746 -0.3193  0.2575
 4072SOL    HW123675   3.765   0.913  15.094  0.4453 -1.0453  0.5265
 4072SOL    HW223676   3.906   0.953  15.060  0.2208 -0.1960 -0.1444
 4073SOL     OW23677   0.022   2.817   4.978  0.9476 -0.3242  0.1828
 4073SOL    HW123678   0.041   2.911   4.979 -0.3825 -0.0937  2.9190
 4073SOL    HW223679   0.075   2.790   4.902 -1.7517 -1.2821 -1.3583
 4074SOL     OW23680   0.810   4.462   2.761 -0.6779 -0.5033  0.1880
 4074SOL    HW123681   0.797   4.428   2.673 -0.1014  1.1994 -0.5557
 4074SOL    HW223682   0.870   4.394   2.790 -0.3359  0.0487  0.7783
 4075SOL     OW23683   0.514   1.380  16.100 -0.1220  0.5773 -0.3932
 4075SOL    HW123684   0.439   1.437  16.116  0.6111  2.1142 -2.5654
 4075SOL    HW223685   0.574   1.448  16.068 -0.5942  1.0530 -0.2644
 4076SOL     OW23686   1.217   1.891   5.318  0.1060 -0.1708 -0.7491
 4076SOL    HW123687   1.271   1.840   5.257 -0.7519 -2.3356  0.2854
 4076SOL    HW223688   1.139   1.836   5.317 -0.6257  0.8514  0.2779
 4077SOL     OW23689   3.314   3.116   0.626 -0.1178  0.4714  0.6024
 4077SOL    HW123690   3.309   3.098   0.720 -1.6691  1.5884  0.7374
 4077SOL    HW223691   3.378   3.187   0.620 -0.2670  0.7689  2.4073
 4078SOL     OW23692   4.313   4.035   9.542 -0.1940 -0.0695  0.2096
 4078SOL    HW123693   4.366   3.955   9.545 -0.9502 -0.6143 -0.8235
 4078SOL    HW223694   4.238   3.994   9.584 -0.7024  0.7841  0.1304
 4079SOL     OW23695   0.674   1.389   0.105 -0.3278 -0.3669 -0.1876
 4079SOL    HW123696   0.762   1.426   0.107 -0.4511 -0.1807  1.4950
 4079SOL    HW223697   0.666   1.347   0.191  0.0943 -0.1328 -0.0394
 4080SOL     OW23698   2.551   1.660   8.800 -0.3163 -0.1070 -0.3113
 4080SOL    HW123699   2.602   1.680   8.721 -0.4318 -2.7419 -1.0376
 4080SOL    HW223700   2.623   1.662   8.862 -0.9141  1.8278  0.3368
 4081SOL     OW23701   4.339   1.951  10.315  0.7005  0.9153 -0.4240
 4081SOL    HW123702   4.281   1.880  10.287 -0.6742  1.3097  1.3680
 4081SOL    HW223703   4.369   1.920  10.401  1.1159 -0.0228 -0.9033
 4082SOL     OW23704   1.149   1.556   2.317 -0.0606  0.5536  0.4062
 4082SOL    HW123705   1.137   1.640   2.362 -0.0182  0.0982  1.2838
 4082SOL    HW223706   1.089   1.565   2.244  0.4020 -2.8523 -0.3968
 4083SOL     OW23707   2.321   2.180   6.212  0.1047  0.1277  0.2729
 4083SOL    HW123708   2.300   2.240   6.283 -0.6200 -1.3703  1.3188
 4083SOL    HW223709   2.236   2.137   6.202 -1.1130  2.0733  2.5177
 4084SOL     OW23710   3.465   0.276   3.663  0.5193  0.1373 -0.1089
 4084SOL    HW123711   3.509   0.263   3.747  1.9779  0.4270 -0.8267
 4084SOL    HW223712   3.401   0.205   3.666  1.2355 -0.5109 -0.1964
 4085SOL     OW23713   1.491   0.879   8.175  0.0636  0.0148 -0.6420
 4085SOL    HW123714   1.433   0.923   8.113 -0.5634  0.2407  0.1203
 4085SOL    HW223715   1.499   0.958   8.229  1.3514 -1.3190  1.0895
 4086SOL     OW23716   1.114   3.405   6.445 -0.1268 -0.4699 -0.2521
 4086SOL    HW123717   1.079   3.333   6.393 -3.1853  1.1707 -0.4572
 4086SOL    HW223718   1.080   3.389   6.533  0.9441 -2.6085 -0.2159
 4087SOL     OW23719   0.788   3.900   3.325 -0.4912  0.0071  0.4050
 4087SOL    HW123720   0.826   3.953   3.256  0.6206 -1.3254  0.0111
 4087SOL    HW223721   0.693   3.904   3.317 -0.4649  1.9766  1.2025
 4088SOL     OW23722   2.979   0.549   6.258 -0.2275  0.0777  0.0348
 4088SOL    HW123723   2.943   0.555   6.170  1.5509 -0.3869 -0.7074
 4088SOL    HW223724   2.919   0.486   6.300  0.8354  0.1949  1.7221
 4089SOL     OW23725   4.638   2.434   7.902  0.6755  0.2774 -0.2592
 4089SOL    HW123726   4.565   2.475   7.949  0.9086  3.3771 -2.5689
 4089SOL    HW223727   4.711   2.425   7.963 -1.4101 -0.0371  2.1561
 4090SOL     OW23728   2.419   3.308   5.417 -0.0031 -0.5099 -0.4326
 4090SOL    HW123729   2.335   3.335   5.453  1.1355  0.8196  1.2665
 4090SOL    HW223730   2.417   3.213   5.432  0.1282 -0.4181  0.1626
 4091SOL     OW23731   1.890   4.401  11.051 -0.8710 -0.1552 -0.1736
 4091SOL    HW123732   1.909   4.489  11.019 -0.1854 -0.0642  0.4835
 4091SOL    HW223733   1.967   4.348  11.029 -0.3253  0.8860 -0.7866
 4092SOL     OW23734   1.984   1.820  16.377  0.7476  0.2521  0.3925
 4092SOL    HW123735   1.998   1.901  16.426  1.5577  1.5646 -1.9787
 4092SOL    HW223736   1.891   1.816  16.401  0.3394 -0.8826 -1.2849
 4093SOL     OW23737   4.379   2.676  15.113 -0.0040 -0.3068 -0.0318
 4093SOL    HW123738   4.400   2.674  15.020 -1.2327 -2.2061 -0.2745
 4093SOL    HW223739   4.313   2.606  15.116 -0.1097 -0.1882  0.5831
 4094SOL     OW23740   1.603   0.081   0.922  0.2432  0.5731  0.3923
 4094SOL    HW123741   1.530   0.041   0.876 -0.2499  0.2914  1.4258
 4094SOL    HW223742   1.630   0.009   0.979  0.4725  2.1860  2.2970
 4095SOL     OW23743   2.123   4.531   9.109  0.6832  0.4365  0.3070
 4095SOL    HW123744   2.085   4.584   9.039  0.3567 -2.7913 -1.9843
 4095SOL    HW223745   2.088   4.578   9.184  0.3600  2.0481 -0.8566
 4096SOL     OW23746   2.797   2.556   9.647  0.1342 -0.0788  0.2713
 4096SOL    HW123747   2.704   2.535   9.644  0.2155 -0.1481 -1.5660
 4096SOL    HW223748   2.799   2.584   9.738 -0.1356 -2.1525  0.9005
 4097SOL     OW23749   0.366   0.182   6.170  0.3613  0.0064 -0.1243
 4097SOL    HW123750   0.381   0.120   6.098 -1.6523 -0.6688  0.0456
 4097SOL    HW223751   0.440   0.150   6.222 -1.9349  0.1431  3.2142
 4098SOL     OW23752   2.012   0.536  11.419  0.4325  0.2210 -0.7259
 4098SOL    HW123753   1.986   0.591  11.494 -1.9353  0.0147 -1.4238
 4098SOL    HW223754   2.092   0.584  11.399  0.4298  1.0131  1.0826
 4099SOL     OW23755   0.332   2.104   0.968  0.0663  0.0837  0.5355
 4099SOL    HW123756   0.360   2.075   0.881  0.2793 -0.3507  0.7493
 4099SOL    HW223757   0.265   2.170   0.950  1.0995  0.8585 -0.4212
 4100SOL     OW23758   4.176   3.924  11.722 -0.3737  0.0389 -0.3120
 4100SOL    HW123759   4.250   3.874  11.757 -1.4487 -0.5608  1.1306
 4100SOL    HW223760   4.099   3.882  11.760  0.1927  0.6960  1.6099
 4101SOL     OW23761   2.677   1.006  12.969 -0.6918 -0.4772  0.4887
 4101SOL    HW123762   2.736   0.947  12.922  1.8608 -0.4130  3.6264
 4101SOL    HW223763   2.725   1.030  13.048  0.4477 -0.7921 -0.0949
 4102SOL     OW23764   3.133   2.483   9.002  0.2167  0.2503 -0.7450
 4102SOL    HW123765   3.076   2.560   9.004 -2.9274 -2.0465 -0.8186
 4102SOL    HW223766   3.139   2.467   9.096 -1.0459 -0.5528 -0.8026
 4103SOL     OW23767   0.910   3.798   5.415  0.4009  0.0700 -0.4968
 4103SOL    HW123768   0.927   3.890   5.395  3.5604 -0.3395  0.2370
 4103SOL    HW223769   0.954   3.763   5.338  1.1249 -0.7915  0.3002
 4104SOL     OW23770   2.752   1.990   5.478 -0.0257  0.5000 -0.2948
 4104SOL    HW123771   2.771   2.084   5.475  2.7283 -0.1566 -3.5747
 4104SOL    HW223772   2.824   1.969   5.538 -0.9108  0.0692  0.6148
 4105SOL     OW23773   3.892   1.566   8.806 -0.0063  0.1791  0.1249
 4105SOL    HW123774   3.987   1.573   8.794  0.0720 -0.4433  0.4127
 4105SOL    HW223775   3.887   1.555   8.901  2.3885 -0.1266  0.2284
 4106SOL     OW23776   2.570   3.164   7.932 -0.2280 -0.2298  0.5566
 4106SOL    HW123777   2.653   3.155   7.978 -0.9194  0.0297  1.8538
 4106SOL    HW223778   2.582   3.100   7.862  0.0116 -0.7848  1.1009
 4107SOL     OW23779   1.513   2.701   7.094  0.3145  0.3092 -0.5237
 4107SOL    HW123780   1.417   2.700   7.097  0.3638  0.2418  0.9979
 4107SOL    HW223781   1.532   2.727   7.004  1.0596 -0.7282 -0.6627
 4108SOL     OW23782   1.183   4.119  11.624  0.0748 -0.1736  0.1413
 4108SOL    HW123783   1.205   4.026  11.620 -0.1469 -0.3219  2.4484
 4108SOL    HW223784   1.160   4.140  11.534  0.0070  0.5627  0.3348
 4109SOL     OW23785   3.406   4.361   8.411  0.5716  0.3692 -0.2908
 4109SOL    HW123786   3.376   4.423   8.345  0.2404 -0.6292 -1.0766
 4109SOL    HW223787   3.381   4.417   8.485  0.3596  0.5283 -0.4848
 4110SOL     OW23788   1.002   3.090   3.314  0.4498 -0.0629  0.0944
 4110SOL    HW123789   0.971   3.115   3.227  0.1188  0.0325  0.2426
 4110SOL    HW223790   1.090   3.128   3.314 -1.2722  3.8957  2.0577
 4111SOL     OW23791   2.285   3.380   8.527 -0.2182 -0.6166  0.2796
 4111SOL    HW123792   2.228   3.324   8.473  0.5266 -2.2503  1.1836
 4111SOL    HW223793   2.365   3.333   8.504  1.1004  0.7917  1.9281
 4112SOL     OW23794   0.277   4.553   2.871 -0.5760  0.1815 -0.1227
 4112SOL    HW123795   0.357   4.516   2.833  0.1326  3.1427 -1.4799
 4112SOL    HW223796   0.303   4.644   2.883 -1.5489  0.3901  0.4527
 4113SOL     OW23797   0.575   1.505  14.020 -0.1181  0.4579  0.4494
 4113SOL    HW123798   0.487   1.529  13.989  0.9869  0.8105 -2.3676
 4113SOL    HW223799   0.631   1.566  13.973 -1.2701  1.0592 -0.1560
 4114SOL     OW23800   2.849   3.032   4.643  0.5368  0.3679  0.5331
 4114SOL    HW123801   2.900   3.001   4.568 -0.9374 -0.6073 -0.0693
 4114SOL    HW223802   2.781   2.966   4.659 -0.1361  0.3543 -2.3541
 4115SOL     OW23803   4.314   1.256   9.371 -0.0931  0.1381 -0.1317
 4115SOL    HW123804   4.378   1.324   9.349  0.2230 -0.7368 -1.9232
 4115SOL    HW223805   4.290   1.232   9.282 -0.7254 -0.0522  0.0945
 4116SOL     OW23806   3.058   3.951   2.912  0.4778 -0.1348  0.3213
 4116SOL    HW123807   3.094   3.864   2.929 -1.6718 -0.5000  2.8775
 4116SOL    HW223808   2.965   3.938   2.925  0.5228 -0.3235  0.4443
 4117SOL     OW23809   0.181   0.297   5.054 -0.0220  0.2955  0.1735
 4117SOL    HW123810   0.116   0.257   4.995  1.1521 -1.5906  0.1354
 4117SOL    HW223811   0.254   0.239   5.033 -1.2366 -0.8612 -0.9062
 4118SOL     OW23812   3.771   2.351  11.462 -0.0239 -0.2314  0.0221
 4118SOL    HW123813   3.695   2.293  11.464  1.6230 -2.3490  1.2200
 4118SOL    HW223814   3.843   2.288  11.465  0.3723  0.3024  1.8890
 4119SOL     OW23815   2.044   2.148  13.288 -0.1760 -0.4333  0.2869
 4119SOL    HW123816   2.058   2.166  13.195  1.4440  1.8681  0.9760
 4119SOL    HW223817   2.076   2.230  13.325  1.0061 -1.9903  2.7493
 4120SOL     OW23818   1.832   2.983  11.323  0.2405  0.0516 -0.1137
 4120SOL    HW123819   1.755   2.925  11.323  0.7916 -0.6892 -0.3447
 4120SOL    HW223820   1.848   2.990  11.229 -0.8179  0.2235 -0.2806
 4121SOL     OW23821   0.822   2.755   5.639 -0.2847  0.6222 -0.4768
 4121SOL    HW123822   0.792   2.675   5.595 -2.7318  1.4889 -0.4031
 4121SOL    HW223823   0.819   2.814   5.564 -0.4607  0.0883 -0.8870
 4122SOL     OW23824   1.266   0.551  10.690  0.4454  0.1036  0.5984
 4122SOL    HW123825   1.329   0.608  10.732 -0.8505 -0.4218  3.2343
 4122SOL    HW223826   1.197   0.536  10.754  0.2631 -2.2386 -0.1368
 4123SOL     OW23827   2.816   1.816  10.681 -0.1927 -0.5317 -0.3707
 4123SOL    HW123828   2.873   1.825  10.757 -2.1312 -0.8933  1.1398
 4123SOL    HW223829   2.747   1.880  10.700  0.7273  0.0265  1.1015
 4124SOL     OW23830   1.718   2.367   8.244  0.8124  0.5619 -0.0293
 4124SOL    HW123831   1.628   2.399   8.243  0.5784  0.0226  1.9680
 4124SOL    HW223832   1.709   2.301   8.176 -2.3629  3.3867 -2.3309
 4125SOL     OW23833   3.570   0.637   6.521 -0.1929  0.0563 -0.4837
 4125SOL    HW123834   3.520   0.631   6.602 -1.4470 -0.3177 -1.2987
 4125SOL    HW223835   3.604   0.725   6.535 -0.0069 -0.0895 -0.0227
 4126SOL     OW23836   3.628   0.796   3.055  0.0997 -0.0531  0.3422
 4126SOL    HW123837   3.541   0.836   3.048  0.0082  0.0535  1.9304
 4126SOL    HW223838   3.678   0.844   2.989  0.3615 -1.0188 -0.1607
 4127SOL     OW23839   0.074   2.196  13.157 -0.3695 -0.1768 -0.0025
 4127SOL    HW123840   0.133   2.133  13.199 -0.0242  1.4357  1.9865
 4127SOL    HW223841   0.093   2.268  13.219  1.7735 -1.3246  0.6663
 4128SOL     OW23842   4.233   0.563  17.080  0.4584 -0.2517  0.0789
 4128SOL    HW123843   4.204   0.474  17.064  3.8269 -1.3437  0.0577
 4128SOL    HW223844   4.326   0.553  17.103 -0.0541  0.0018  2.3150
 4129SOL     OW23845   3.336   2.638  12.747  0.5712  0.3306 -0.5617
 4129SOL    HW123846   3.251   2.647  12.791  1.7113 -0.8848  1.9083
 4129SOL    HW223847   3.375   2.723  12.764 -0.2597  0.3748  1.1847
 4130SOL     OW23848   1.015   3.864   3.044  0.0408 -0.0751 -0.4772
 4130SOL    HW123849   0.936   3.815   3.022 -0.7079  0.0194  2.0339
 4130SOL    HW223850   0.985   3.951   3.073 -1.4030 -0.6155 -0.3226
 4131SOL     OW23851   2.238   2.640  17.095  0.2071  0.9954 -0.0533
 4131SOL    HW123852   2.230   2.585  17.174 -2.5461  0.0152 -1.0134
 4131SOL    HW223853   2.332   2.654  17.089  0.4479 -0.1023  1.1625
 4132SOL     OW23854   0.913   0.405   1.524 -0.2466  0.1350 -0.3579
 4132SOL    HW123855   0.921   0.310   1.509 -2.5360 -0.2053  0.4721
 4132SOL    HW223856   0.943   0.405   1.615  0.9392 -1.6505 -0.7579
 4133SOL     OW23857   0.954   1.014   5.274  0.2602 -0.1748  0.1884
 4133SOL    HW123858   1.026   1.001   5.212  1.2313  0.2605  1.2148
 4133SOL    HW223859   0.994   0.970   5.349 -1.0722 -1.2336  0.2664
 4134SOL     OW23860   2.040   2.586   3.455 -0.4780 -0.1139 -0.0572
 4134SOL    HW123861   2.136   2.592   3.459 -0.5746  0.8833  0.8775
 4134SOL    HW223862   2.038   2.588   3.360  0.6149 -2.4580 -0.1344
 4135SOL     OW23863   4.118   1.371   7.241  0.1668  0.2635 -0.0360
 4135SOL    HW123864   4.168   1.302   7.196  0.4318  0.9831 -0.8412
 4135SOL    HW223865   4.040   1.317   7.228  0.2231  0.4285 -1.0749
 4136SOL     OW23866   1.214   3.991   3.289 -0.6556  0.5205  0.3886
 4136SOL    HW123867   1.199   3.971   3.381 -0.3687  3.5089  1.0825
 4136SOL    HW223868   1.283   3.932   3.260 -0.7303 -0.0098  1.2909
 4137SOL     OW23869   0.178   2.962  10.537 -0.0719 -0.6425  0.9785
 4137SOL    HW123870   0.112   3.003  10.593 -2.0846  0.1094 -1.9714
 4137SOL    HW223871   0.119   2.915  10.479  1.0376 -1.1137  0.2223
 4138SOL     OW23872   3.802   0.206   5.155 -0.4416  0.4855 -0.0203
 4138SOL    HW123873   3.857   0.210   5.076  0.0091 -1.6593  0.1923
 4138SOL    HW223874   3.759   0.121   5.147 -2.2762  1.5172 -0.9815
 4139SOL     OW23875   0.285   2.476   4.322  0.6081 -0.7270  0.2274
 4139SOL    HW123876   0.227   2.439   4.256  0.8220 -1.3024  0.3553
 4139SOL    HW223877   0.278   2.571   4.315 -1.9073 -1.1689 -2.8362
 4140SOL     OW23878   2.179   0.585   2.830 -0.1163  0.7380  0.1551
 4140SOL    HW123879   2.246   0.539   2.779 -1.3440  0.0150 -0.7995
 4140SOL    HW223880   2.191   0.676   2.801 -0.9732  0.4717 -0.9969
 4141SOL     OW23881   0.710   0.115  10.623  0.1642 -0.5972 -0.2589
 4141SOL    HW123882   0.742   0.192  10.669  0.1745 -1.6003  1.4177
 4141SOL    HW223883   0.741   0.123  10.532 -1.1856 -1.0592 -0.7564
 4142SOL     OW23884   1.733   1.278  10.045  0.7006  0.6986  0.9486
 4142SOL    HW123885   1.775   1.363  10.041  1.0476  0.3859 -2.0081
 4142SOL    HW223886   1.732   1.268  10.141 -1.4170  1.4480  1.0080
 4143SOL     OW23887   0.332   4.147   6.160  0.4740  0.0560 -0.4876
 4143SOL    HW123888   0.341   4.205   6.235  0.2297  0.3883 -0.7139
 4143SOL    HW223889   0.420   4.131   6.125  0.9518 -0.4385  0.9686
 4144SOL     OW23890   0.125   2.986   7.624  0.2340 -0.2391 -0.3955
 4144SOL    HW123891   0.204   3.003   7.573  0.0418  1.7300 -0.0232
 4144SOL    HW223892   0.051   2.996   7.564 -1.9309  0.3234  2.3646
 4145SOL     OW23893   0.178   4.566   8.060  0.0085  0.9496 -0.6019
 4145SOL    HW123894   0.135   4.591   8.142 -2.4266  1.3881 -2.0007
 4145SOL    HW223895   0.256   4.523   8.096 -0.3466  0.7858 -0.0151
 4146SOL     OW23896   3.868   2.341   6.658  0.6650 -0.2170  0.0009
 4146SOL    HW123897   3.779   2.306   6.658 -0.4099  2.5345  1.4482
 4146SOL    HW223898   3.871   2.376   6.747 -2.2523 -0.1093  0.0460
 4147SOL     OW23899   2.071   2.535   2.855 -0.2471 -0.1188  0.2694
 4147SOL    HW123900   2.101   2.622   2.882  1.2757 -0.4453 -0.3250
 4147SOL    HW223901   1.979   2.536   2.881 -0.1320  1.3355  0.5845
 4148SOL     OW23902   1.163   3.837   7.905 -0.1954 -0.4002 -0.1172
 4148SOL    HW123903   1.071   3.860   7.915  0.1378  0.2471  1.5162
 4148SOL    HW223904   1.191   3.923   7.874 -1.4262  0.0043 -0.0809
 4149SOL     OW23905   1.694   1.749   7.930 -0.1621 -0.1632 -0.0797
 4149SOL    HW123906   1.711   1.706   8.014  1.5840 -0.1718 -0.4256
 4149SOL    HW223907   1.723   1.835   7.961  0.6839 -0.5292  0.1612
 4150SOL     OW23908   0.284   4.608  17.478 -0.2903  0.3527  0.2762
 4150SOL    HW123909   0.335   4.593  17.558  0.1098 -3.1817 -0.6518
 4150SOL    HW223910   0.201   4.561  17.489  0.2854 -1.1603 -2.0483
 4151SOL     OW23911   1.577   0.569   4.072 -0.0316  0.3996 -0.5195
 4151SOL    HW123912   1.567   0.521   3.990  0.4701  0.5224 -0.6520
 4151SOL    HW223913   1.628   0.643   4.040  1.6688 -0.0935  1.0228
 4152SOL     OW23914   0.734   1.886   7.208  0.2094 -0.2703 -0.0730
 4152SOL    HW123915   0.773   1.820   7.265  1.3239  0.1308 -0.3744
 4152SOL    HW223916   0.647   1.912   7.241  0.7654 -0.1017  1.2555
 4153SOL     OW23917   0.018   0.816   8.488 -0.1455 -0.2254  0.2031
 4153SOL    HW123918   0.071   0.892   8.513  0.8242 -1.3790  1.6693
 4153SOL    HW223919   4.656   0.862   8.500  0.4798  0.7272  0.9062
 4154SOL     OW23920   1.460   1.475   5.141 -0.1194 -0.1110  0.0955
 4154SOL    HW123921   1.511   1.531   5.199  1.9144 -1.0650 -0.7558
 4154SOL    HW223922   1.371   1.492   5.170 -0.0701 -0.6184  0.5628
 4155SOL     OW23923   1.910   1.932   4.525 -0.1684 -0.6477 -0.7156
 4155SOL    HW123924   1.832   1.986   4.539 -0.1253 -0.8936  0.4500
 4155SOL    HW223925   1.896   1.866   4.593  0.4579  0.4549  0.4897
 4156SOL     OW23926   3.497   0.774   8.553  0.4682 -0.0548  0.0657
 4156SOL    HW123927   3.439   0.713   8.508 -0.8371  0.5124  0.9705
 4156SOL    HW223928   3.548   0.810   8.481  0.1524  0.0741 -0.0912
 4157SOL     OW23929   3.323   1.750   1.167  0.2292  0.3987  0.7434
 4157SOL    HW123930   3.376   1.748   1.247  0.7794 -1.3682  0.3342
 4157SOL    HW223931   3.246   1.792   1.203 -0.1471  0.7525 -0.4835
 4158SOL     OW23932   0.763   3.178  14.018  0.0378 -0.3131 -0.3651
 4158SOL    HW123933   0.700   3.181  14.089 -0.9439 -1.2564 -1.1982
 4158SOL    HW223934   0.714   3.225  13.950  1.3025 -0.7002 -1.5509
 4159SOL     OW23935   3.859   2.633   3.960 -0.1117  0.5297 -0.6038
 4159SOL    HW123936   3.884   2.650   3.869  0.6564 -1.1424 -0.7066
 4159SOL    HW223937   3.899   2.711   3.999  0.5559  1.9548 -4.1437
 4160SOL     OW23938   0.134   1.803  13.048  0.3432 -0.2363  0.1759
 4160SOL    HW123939   0.194   1.861  13.095  0.6103 -0.6243  0.3182
 4160SOL    HW223940   0.151   1.713  13.077 -1.1875 -1.3620 -2.4307
 4161SOL     OW23941   0.032   3.652   0.098  0.1010  0.3148 -0.5271
 4161SOL    HW123942   0.111   3.611   0.133 -0.4851  0.3540  0.8710
 4161SOL    HW223943   4.691   3.604   0.153  0.6182 -1.5069 -1.5703
 4162SOL     OW23944   2.388   4.352   2.509 -0.4224  0.0766 -0.5486
 4162SOL    HW123945   2.370   4.265   2.542  0.5880  1.6638  4.2304
 4162SOL    HW223946   2.299   4.371   2.482  0.1802  1.6146 -1.4754
 4163SOL     OW23947   0.154   3.549   5.464  0.6015 -0.1379 -0.1657
 4163SOL    HW123948   0.169   3.558   5.370 -1.4597 -2.3484 -0.6995
 4163SOL    HW223949   0.205   3.624   5.495 -0.6353  1.1136 -1.1608
 4164SOL     OW23950   0.803   2.762   8.413 -0.0634  0.0298  0.0296
 4164SOL    HW123951   0.865   2.695   8.382 -0.2010 -0.0614 -0.0444
 4164SOL    HW223952   0.851   2.806   8.483  2.0117 -1.4354 -0.4660
 4165SOL     OW23953   0.410   2.062   0.301  0.0863 -0.0430  0.4654
 4165SOL    HW123954   0.427   1.985   0.356  0.6561 -1.5377 -1.8099
 4165SOL    HW223955   0.315   2.061   0.290 -0.0950  1.7466  1.9446
 4166SOL     OW23956   0.105   1.355  15.683  0.2578 -0.1434  0.2403
 4166SOL    HW123957   0.111   1.434  15.630 -2.4069  0.6664  1.1432
 4166SOL    HW223958   0.197   1.332  15.696  0.7531  0.8945 -1.4529
 4167SOL     OW23959   0.851   0.075  16.724 -0.4592  0.0205  0.1075
 4167SOL    HW123960   0.767   0.032  16.708 -0.5208 -0.4477  1.6532
 4167SOL    HW223961   0.867   0.118  16.640  2.4394 -1.0593  0.1037
 4168SOL     OW23962   2.943   3.276   4.337  0.1789  0.0803  0.1001
 4168SOL    HW123963   2.871   3.257   4.277 -0.1194  0.0192  0.4784
 4168SOL    HW223964   2.911   3.247   4.422  1.4923  0.4657  0.7202
 4169SOL     OW23965   0.341   4.164  12.962 -0.3324  0.0718  0.1490
 4169SOL    HW123966   0.370   4.145  13.052  0.9979  1.2595 -0.0239
 4169SOL    HW223967   0.365   4.086  12.913  2.2494 -0.1921  1.7984
 4170SOL     OW23968   0.309   4.349  14.556  0.1004 -0.2438  0.0688
 4170SOL    HW123969   0.279   4.338  14.466  0.4924  0.1366 -0.1085
 4170SOL    HW223970   0.389   4.296  14.558  1.3844  1.6679 -0.2013
 4171SOL     OW23971   0.314   1.955   0.014  0.1520  0.0150 -0.0361
 4171SOL    HW123972   0.250   1.933   0.081  1.1589  0.3573  1.0382
 4171SOL    HW223973   0.375   1.884   0.038 -1.5299 -1.0740  1.0252
 4172SOL     OW23974   3.101   1.771   9.223  0.4434  0.8880 -0.1682
 4172SOL    HW123975   3.056   1.819   9.153  3.0819  2.3784 -0.8485
 4172SOL    HW223976   3.034   1.764   9.292 -1.0595 -0.9513 -1.7949
 4173SOL     OW23977   3.644   2.270   5.575  0.3833  0.4895 -0.0768
 4173SOL    HW123978   3.603   2.286   5.660 -0.6866  0.8957 -0.6695
 4173SOL    HW223979   3.700   2.195   5.594 -1.1567 -1.0927 -1.6818
 4174SOL     OW23980   1.619   4.340   6.918 -0.0905 -0.4981 -0.0088
 4174SOL    HW123981   1.614   4.250   6.886  2.9927 -0.3589 -0.8448
 4174SOL    HW223982   1.604   4.326   7.012 -0.5989 -0.2833 -0.0546
 4175SOL     OW23983   0.551   3.079   2.832  0.5534  0.0120 -0.3693
 4175SOL    HW123984   0.600   3.043   2.758 -0.4770  1.0191 -1.5323
 4175SOL    HW223985   0.616   3.091   2.901  1.2309  0.9986 -1.1839
 4176SOL     OW23986   0.195   1.116   6.139 -0.1220  0.0854  0.3528
 4176SOL    HW123987   0.144   1.197   6.131 -0.8195 -0.2069  1.8683
 4176SOL    HW223988   0.134   1.047   6.113 -0.0488  0.0880  0.1741
 4177SOL     OW23989   0.106   0.967   2.298 -0.3112 -0.3239  0.0719
 4177SOL    HW123990   0.162   0.974   2.221 -1.2226 -0.1914 -0.5772
 4177SOL    HW223991   0.045   1.041   2.292  0.0785  0.1452  1.8069
 4178SOL     OW23992   2.121   4.250   0.866  0.3458  0.1094  0.6176
 4178SOL    HW123993   2.188   4.225   0.802 -2.5926 -0.7228 -2.1656
 4178SOL    HW223994   2.048   4.291   0.819  0.8992  0.3139 -0.0677
 4179SOL     OW23995   4.430   0.073   8.491 -0.2963  1.0219  0.0720
 4179SOL    HW123996   4.426   0.057   8.585  1.2855  2.8115  0.4301
 4179SOL    HW223997   4.502   0.136   8.486  0.7451 -0.1064  0.6107
 4180SOL     OW23998   3.880   0.279   8.215  0.5060  0.1601 -0.1173
 4180SOL    HW123999   3.842   0.329   8.287  0.3149  0.1662 -0.2205
 4180SOL    HW224000   3.967   0.314   8.197  2.1723 -3.5675  0.7607
 4181SOL     OW24001   2.575   3.798   2.526  0.6531  0.1860  0.2020
 4181SOL    HW124002   2.532   3.765   2.605 -1.0309  1.5725 -0.1384
 4181SOL    HW224003   2.631   3.721   2.513  0.3296 -0.1006  0.5362
 4182SOL     OW24004   0.592   4.274   6.905  0.1120 -0.3061 -0.7037
 4182SOL    HW124005   0.569   4.182   6.913  0.8913 -0.4459 -0.0746
 4182SOL    HW224006   0.668   4.269   6.847  0.5318 -0.7741 -0.1088
 4183SOL     OW24007   2.531   2.818  13.495  0.4091  0.6324  0.0473
 4183SOL    HW124008   2.459   2.784  13.548  0.7606  2.5273  1.7514
 4183SOL    HW224009   2.510   2.909  13.513  0.7895  0.4888  1.2995
 4184SOL     OW24010   0.220   1.564  16.663  0.2752 -0.5319  0.1637
 4184SOL    HW124011   0.304   1.584  16.704 -0.6845  2.5416  0.6464
 4184SOL    HW224012   0.227   1.623  16.588  3.8778 -1.0448  0.1112
 4185SOL     OW24013   1.998   0.565   4.264  0.7039 -0.6182 -0.6191
 4185SOL    HW124014   1.919   0.601   4.225  0.6816 -0.3614 -0.3396
 4185SOL    HW224015   2.045   0.532   4.188 -0.5506 -2.8964 -0.4228
 4186SOL     OW24016   3.762   0.334   5.404 -0.3971  0.7137  0.1185
 4186SOL    HW124017   3.707   0.267   5.444  1.1883 -1.5668 -1.5312
 4186SOL    HW224018   3.785   0.289   5.323  1.2488 -2.0746  2.1288
 4187SOL     OW24019   4.166   4.298   0.419 -0.3078  0.1507  0.8077
 4187SOL    HW124020   4.178   4.214   0.464 -2.5269  0.7541  2.4940
 4187SOL    HW224021   4.088   4.336   0.459  0.8095 -0.5629  3.7033
 4188SOL     OW24022   2.980   3.607   4.530 -0.0200 -0.2344  0.0468
 4188SOL    HW124023   2.983   3.632   4.437  0.2014  1.9139  0.6391
 4188SOL    HW224024   2.903   3.658   4.557 -0.2835 -1.6635  1.9829
 4189SOL     OW24025   0.081   3.922  13.302 -0.4514  0.2651 -0.3483
 4189SOL    HW124026   0.129   3.959  13.376 -0.2256 -0.1868 -0.2684
 4189SOL    HW224027   0.066   3.832  13.331 -0.3585  0.4425  0.2483
 4190SOL     OW24028   2.095   3.372  17.275 -0.1178  0.0463 -0.8360
 4190SOL    HW124029   2.050   3.381  17.358  1.7540  0.9473  0.0869
 4190SOL    HW224030   2.092   3.457  17.231  0.9013 -0.0086 -1.0107
 4191SOL     OW24031   3.629   1.986   3.203 -0.7499  0.4172 -0.5124
 4191SOL    HW124032   3.548   1.984   3.153 -0.6831  0.7751 -0.6403
 4191SOL    HW224033   3.625   2.065   3.258  2.4736 -0.0126  0.3514
 4192SOL     OW24034   1.445   4.292   5.463 -0.2010  0.0959 -0.4065
 4192SOL    HW124035   1.453   4.316   5.370  2.0131 -1.2396 -0.5748
 4192SOL    HW224036   1.457   4.198   5.456 -3.9700 -0.4518  0.7085
 4193SOL     OW24037   1.877   2.340   7.980  0.7517  0.1245  0.7666
 4193SOL    HW124038   1.788   2.303   7.981  0.0155  1.8913  1.3385
 4193SOL    HW224039   1.863   2.399   7.906 -0.5394 -2.2919 -0.9561
 4194SOL     OW24040   2.256   3.677  17.609  0.0705  0.3774 -0.5977
 4194SOL    HW124041   2.196   3.613  17.647 -0.4001  0.8157 -0.5999
 4194SOL    HW224042   2.195   3.750  17.596  2.6516  2.8440  1.1607
 4195SOL     OW24043   1.297   4.293   3.637  0.0108  0.1351  0.3554
 4195SOL    HW124044   1.304   4.280   3.543 -0.6020  0.3642  0.2757
 4195SOL    HW224045   1.241   4.217   3.654  1.5237 -0.4698  2.6425
 4196SOL     OW24046   0.478   1.601   7.829 -0.4456 -0.5873 -0.2361
 4196SOL    HW124047   0.531   1.681   7.823 -0.6325 -0.3549  1.1975
 4196SOL    HW224048   0.539   1.528   7.830  2.1052  1.5634  0.7384
 4197SOL     OW24049   3.115   1.801   3.673  0.0886 -0.2597  0.0970
 4197SOL    HW124050   3.124   1.895   3.654  0.5860  0.2795  2.9686
 4197SOL    HW224051   3.103   1.766   3.584  1.1322  1.4227 -0.7185
 4198SOL     OW24052   0.349   4.012   5.642 -0.0451  0.7387  0.7335
 4198SOL    HW124053   0.325   3.959   5.565 -2.0821 -0.1192  1.9358
 4198SOL    HW224054   0.262   4.049   5.655  0.2864  1.1550  1.7363
 4199SOL     OW24055   4.386   3.882   5.278  0.1197  0.3327 -0.3069
 4199SOL    HW124056   4.428   3.919   5.355 -1.3635  3.4289 -0.9803
 4199SOL    HW224057   4.440   3.807   5.251  1.2605  0.6463  1.1271
 4200SOL     OW24058   3.420   3.927   9.621 -0.3738 -0.4420 -0.5509
 4200SOL    HW124059   3.465   3.886   9.547  1.2779  0.4087 -0.0228
 4200SOL    HW224060   3.333   3.948   9.589 -0.2985 -0.1571 -0.5696
 4201SOL     OW24061   0.535   3.980   7.937  0.5320 -0.0313 -0.2897
 4201SOL    HW124062   0.463   3.949   7.991  1.1906 -0.7329  0.1771
 4201SOL    HW224063   0.615   3.964   7.987  1.7410 -0.1856 -2.2662
 4202SOL     OW24064   0.916   2.716   2.966  0.1907 -0.8056 -0.2360
 4202SOL    HW124065   1.004   2.745   2.987  0.3604 -1.4654 -0.0550
 4202SOL    HW224066   0.867   2.785   3.012  1.5629  0.2343 -0.3453
 4203SOL     OW24067   0.453   3.712   6.793  0.9715 -0.3079  0.2208
 4203SOL    HW124068   0.388   3.773   6.827  0.8430  0.0500 -0.6633
 4203SOL    HW224069   0.410   3.638   6.750  0.3635  0.3972 -0.3767
 4204SOL     OW24070   4.530   0.957   5.299  0.4671  0.5067  0.1015
 4204SOL    HW124071   4.581   0.967   5.379  2.5158 -0.9587 -1.0389
 4204SOL    HW224072   4.594   0.955   5.228 -0.0438 -3.2027 -0.2151
 4205SOL     OW24073   0.282   3.094  14.854 -0.1747 -0.3085  0.6140
 4205SOL    HW124074   0.200   3.119  14.812 -0.2112 -0.6335  0.4893
 4205SOL    HW224075   0.280   3.000  14.834 -2.9506 -0.1523  0.0748
 4206SOL     OW24076   2.084   1.766   6.004 -0.6387 -0.1503 -0.0015
 4206SOL    HW124077   2.028   1.780   6.080 -2.7557  0.7486 -1.7254
 4206SOL    HW224078   2.166   1.747   6.050 -0.6267 -1.8590 -0.7182
 4207SOL     OW24079   1.108   0.593   4.775 -0.0279 -0.1958  0.1303
 4207SOL    HW124080   1.079   0.627   4.860  1.3695  0.4195  0.3631
 4207SOL    HW224081   1.063   0.650   4.714  1.7738  1.0206 -0.0595
 4208SOL     OW24082   2.535   2.860   8.713 -0.3119  0.7230  0.0983
 4208SOL    HW124083   2.535   2.890   8.804  1.4172  1.5842 -0.1967
 4208SOL    HW224084   2.554   2.945   8.673 -0.3880  0.3595 -0.7120
 4209SOL     OW24085   4.129   4.229  15.400  0.1420  0.3494  0.4827
 4209SOL    HW124086   4.223   4.212  15.406  0.5159  2.1409 -0.2960
 4209SOL    HW224087   4.103   4.139  15.421  1.3746 -0.0740  0.1561
 4210SOL     OW24088   0.823   1.724   5.045  0.7872  0.1808 -0.5173
 4210SOL    HW124089   0.779   1.652   5.090  1.3193 -0.2194 -0.6270
 4210SOL    HW224090   0.860   1.685   4.965  1.5701 -0.1087 -0.0098
 4211SOL     OW24091   4.645   4.428   3.872  0.5153  0.1237 -0.0103
 4211SOL    HW124092   4.717   4.378   3.910  0.7538 -0.7601 -1.6671
 4211SOL    HW224093   4.646   4.417   3.777  3.1080 -1.1639  0.1837
 4212SOL     OW24094   0.686   0.812   4.789  0.2064  0.4065  0.4557
 4212SOL    HW124095   0.720   0.743   4.845 -0.0043 -0.3324 -0.3294
 4212SOL    HW224096   0.672   0.761   4.709  2.1407  0.5357  0.0223
 4213SOL     OW24097   3.641   2.603  11.522 -0.0601  0.0070 -0.4592
 4213SOL    HW124098   3.694   2.527  11.497  1.3260  0.1970  1.8439
 4213SOL    HW224099   3.594   2.573  11.600  1.3543 -0.9869  0.0087
 4214SOL     OW24100   3.615   2.560   8.239 -0.2201 -0.7814  0.1028
 4214SOL    HW124101   3.624   2.520   8.152 -0.8435  0.7750 -0.6654
 4214SOL    HW224102   3.707   2.565   8.265 -0.3088  0.7181  0.1264
 4215SOL     OW24103   0.796   0.438   9.062  0.0188 -0.7566 -0.3587
 4215SOL    HW124104   0.805   0.354   9.016  0.0656  0.0938 -1.8990
 4215SOL    HW224105   0.777   0.407   9.151  0.8525 -1.2423 -0.3450
 4216SOL     OW24106   0.675   0.433   2.868  0.1254  0.0277  0.0288
 4216SOL    HW124107   0.744   0.428   2.801  0.4552  0.3645  0.3390
 4216SOL    HW224108   0.690   0.350   2.914  0.5204 -0.0627 -0.2632
 4217SOL     OW24109   0.873   4.369   7.093 -0.5442 -0.0218  0.2132
 4217SOL    HW124110   0.830   4.349   7.176  0.0368  1.2400  0.8127
 4217SOL    HW224111   0.945   4.420   7.129  1.0168 -3.0459  1.3535
 4218SOL     OW24112   0.015   2.978   5.321  0.1165 -0.5887 -0.1559
 4218SOL    HW124113   4.684   2.922   5.263 -2.2460  1.5753 -0.1612
 4218SOL    HW224114   4.669   3.037   5.356  1.6624  1.4633 -0.6883
 4219SOL     OW24115   2.664   2.736  14.273  0.2362  0.7264  0.0204
 4219SOL    HW124116   2.674   2.824  14.236 -1.1008  0.8368 -0.0714
 4219SOL    HW224117   2.577   2.741  14.314  1.3841  1.7642  2.3428
 4220SOL     OW24118   1.187   1.653  10.191 -0.5573  0.3270 -0.2590
 4220SOL    HW124119   1.094   1.671  10.209 -0.8365 -1.0948 -0.3306
 4220SOL    HW224120   1.198   1.709  10.114  1.3407  0.5517  0.1914
 4221SOL     OW24121   0.919   0.832  11.621 -0.2161 -0.0237 -0.4260
 4221SOL    HW124122   0.925   0.741  11.650 -0.5022 -0.0206 -0.3594
 4221SOL    HW224123   0.872   0.865  11.697 -0.7901 -1.3741 -0.1846
 4222SOL     OW24124   1.347   2.472   4.871  0.1517  0.4606 -0.3309
 4222SOL    HW124125   1.403   2.432   4.805  0.8731  2.1320 -0.7429
 4222SOL    HW224126   1.359   2.564   4.847  1.1882  0.7236  1.1891
 4223SOL     OW24127   4.245   0.192  16.832 -0.3236  0.1613 -0.2727
 4223SOL    HW124128   4.258   0.230  16.919  0.6362 -2.9553  0.9492
 4223SOL    HW224129   4.210   0.267  16.784 -1.4754 -0.1713  0.0650
 4224SOL     OW24130   2.464   0.316   6.513  0.3533 -0.4747  0.2965
 4224SOL    HW124131   2.377   0.350   6.490  0.1209 -0.4882  1.1461
 4224SOL    HW224132   2.510   0.397   6.538  1.0674 -0.2326 -1.8036
 4225SOL     OW24133   3.180   4.155  11.919  0.2643  0.7799  0.6395
 4225SOL    HW124134   3.130   4.228  11.883 -1.9874  0.7490  3.7028
 4225SOL    HW224135   3.254   4.146  11.859 -0.7199 -1.0961 -0.2989
 4226SOL     OW24136   4.533   0.201   8.137  0.5273  0.1542 -0.0005
 4226SOL    HW124137   4.439   0.216   8.141  0.2422 -1.4860 -0.5284
 4226SOL    HW224138   4.564   0.225   8.225  0.3876  1.7364 -0.3821
 4227SOL     OW24139   1.644   3.777   8.321  0.0078 -0.8484  0.1365
 4227SOL    HW124140   1.596   3.710   8.273 -1.9885  1.6669 -1.4255
 4227SOL    HW224141   1.581   3.840   8.356  1.2329 -0.2523  1.2502
 4228SOL     OW24142   0.949   2.533   9.120 -0.2949  0.1220 -0.0120
 4228SOL    HW124143   1.037   2.557   9.149  1.0273 -1.6609 -2.5393
 4228SOL    HW224144   0.903   2.616   9.132 -1.8182 -0.9511  1.4645
 4229SOL     OW24145   0.313   3.054   3.847  0.3622 -0.2265  0.2479
 4229SOL    HW124146   0.243   3.119   3.838  0.9356 -0.0493 -2.6899
 4229SOL    HW224147   0.322   3.021   3.758 -1.3945 -0.1866  0.0544
 4230SOL     OW24148   0.985   1.063  16.264 -0.6211  0.4615 -0.5869
 4230SOL    HW124149   1.011   1.018  16.184  0.1590 -0.8377  0.4070
 4230SOL    HW224150   1.070   1.075  16.307 -0.1016 -3.1627 -0.6373
 4231SOL     OW24151   1.274   4.187  12.741  0.5381 -0.1063 -0.1267
 4231SOL    HW124152   1.250   4.178  12.834 -1.1025  2.8573 -0.2560
 4231SOL    HW224153   1.248   4.106  12.697 -1.4559 -0.7716  2.2767
 4232SOL     OW24154   4.375   1.587   5.637 -0.4060 -0.1468 -0.3503
 4232SOL    HW124155   4.341   1.506   5.674  0.5358 -0.7254 -0.7331
 4232SOL    HW224156   4.315   1.605   5.565 -0.5741  1.6097  0.2227
 4233SOL     OW24157   0.891   3.351  14.186 -0.2550  0.1445  1.2112
 4233SOL    HW124158   0.950   3.396  14.126  1.1332 -0.0325  2.4416
 4233SOL    HW224159   0.834   3.300  14.127 -1.0549 -1.1186  3.0919
 4234SOL     OW24160   2.613   4.611   2.483 -0.1508 -0.9308  0.4118
 4234SOL    HW124161   2.604   4.624   2.389  3.0767 -0.6793  0.1227
 4234SOL    HW224162   2.532   4.569   2.511  0.9049 -1.9444  1.9668
 4235SOL     OW24163   3.888   1.648  12.555  0.6574  0.1863  0.3964
 4235SOL    HW124164   3.887   1.738  12.588 -1.4675  0.4665 -0.4712
 4235SOL    HW224165   3.842   1.651  12.472  0.0807 -0.8743  0.6803
 4236SOL     OW24166   4.178   2.917   3.213 -0.3167  0.3118 -0.0461
 4236SOL    HW124167   4.272   2.902   3.208 -0.0856  1.6652  0.0870
 4236SOL    HW224168   4.159   2.898   3.121  0.4748 -0.0561 -0.1310
 4237SOL     OW24169   3.702   3.937   5.317  0.3140 -0.4661  0.5069
 4237SOL    HW124170   3.719   3.843   5.312 -1.5862 -0.7558 -0.4175
 4237SOL    HW224171   3.705   3.958   5.224  0.4792  0.7752  0.7919
 4238SOL     OW24172   0.437   0.006   5.953  0.6605  0.0417 -0.0938
 4238SOL    HW124173   0.476   0.084   5.913  0.2469 -0.1931 -0.9501
 4238SOL    HW224174   0.375   4.707   5.883  0.7309  1.2339 -0.4934
 4239SOL     OW24175   1.373   0.278   4.959  0.1939 -0.5905 -0.1930
 4239SOL    HW124176   1.418   0.355   4.925 -1.2662 -0.8640 -2.7342
 4239SOL    HW224177   1.426   0.209   4.919  2.2993  0.1017  1.4154
 4240SOL     OW24178   2.239   1.606   7.872  0.2529  0.6602 -0.3294
 4240SOL    HW124179   2.299   1.603   7.798  1.8586 -1.8958  1.0641
 4240SOL    HW224180   2.250   1.522   7.916 -0.7479  1.1153  0.8127
 4241SOL     OW24181   4.514   2.261   3.692  0.3162 -0.5505 -0.0591
 4241SOL    HW124182   4.447   2.197   3.668  0.5669 -0.1316 -1.8712
 4241SOL    HW224183   4.571   2.244   3.617 -1.9082 -1.9115 -1.4435
 4242SOL     OW24184   3.844   0.564   5.538  0.1337 -0.0996  0.3500
 4242SOL    HW124185   3.874   0.534   5.623 -1.2606 -2.3910  0.0143
 4242SOL    HW224186   3.811   0.483   5.500 -0.3995  0.3293 -0.1204
 4243SOL     OW24187   2.185   1.083  17.217  0.6108  0.1474 -0.3709
 4243SOL    HW124188   2.201   1.028  17.294 -1.9827 -1.0297 -0.6426
 4243SOL    HW224189   2.261   1.087  17.160 -0.0041 -0.3025 -1.2347
 4244SOL     OW24190   1.357   1.749  15.078 -0.0422 -0.2057  0.3181
 4244SOL    HW124191   1.389   1.659  15.084  1.7891  0.2618 -2.3581
 4244SOL    HW224192   1.340   1.773  15.169 -2.5624 -2.3789  0.4125
 4245SOL     OW24193   0.887   2.903   3.505  0.3949 -0.2641  0.1688
 4245SOL    HW124194   0.964   2.946   3.468 -0.3091  0.2321 -0.7466
 4245SOL    HW224195   0.819   2.966   3.480  2.7302  2.0462 -0.2704
 4246SOL     OW24196   1.582   3.211  15.646  0.0618  0.2766  0.1101
 4246SOL    HW124197   1.556   3.119  15.649  0.2600  0.1969 -0.9559
 4246SOL    HW224198   1.673   3.204  15.617  0.2333 -1.1561  0.9846
 4247SOL     OW24199   4.086   3.493   1.519  0.3000  0.4184  0.2583
 4247SOL    HW124200   4.163   3.445   1.489 -0.2728 -0.5123  0.2768
 4247SOL    HW224201   4.035   3.511   1.440  1.1650  0.5627 -0.2656
 4248SOL     OW24202   0.809   2.541  13.421  0.1432 -0.2724 -0.4931
 4248SOL    HW124203   0.843   2.626  13.450  0.2435 -0.5421  0.1775
 4248SOL    HW224204   0.795   2.490  13.501 -0.6741  0.5651 -0.0937
 4249SOL     OW24205   1.424   2.915   6.745  0.3639  0.4136  0.1111
 4249SOL    HW124206   1.387   2.916   6.833  0.9008  0.9161  0.3305
 4249SOL    HW224207   1.343   2.912   6.694 -0.2598 -0.0537  1.1318
 4250SOL     OW24208   2.824   1.867   9.277 -0.7348 -0.3441  0.8638
 4250SOL    HW124209   2.852   1.945   9.229  0.5077 -1.4214 -0.1451
 4250SOL    HW224210   2.730   1.880   9.265 -0.6988 -0.3883  0.5355
 4251SOL     OW24211   1.411   0.356  12.158  0.2537  0.3311  0.1860
 4251SOL    HW124212   1.419   0.307  12.076 -0.1800  1.0004 -0.2602
 4251SOL    HW224213   1.351   0.298  12.204  0.8761  0.3722  1.0538
 4252SOL     OW24214   1.200   0.241   1.788  0.2408  0.1371 -0.1282
 4252SOL    HW124215   1.274   0.210   1.841  0.2045 -2.5012 -1.6355
 4252SOL    HW224216   1.234   0.235   1.699 -0.6879 -0.8795 -0.4123
 4253SOL     OW24217   0.968   2.704   6.590  0.5293 -0.4876  0.3889
 4253SOL    HW124218   0.873   2.695   6.594  0.7837 -3.7811 -0.8709
 4253SOL    HW224219   0.987   2.611   6.576  0.3712 -0.0063 -3.0751
 4254SOL     OW24220   2.027   1.857   7.466 -0.0998 -0.4479  0.2146
 4254SOL    HW124221   1.984   1.943   7.463 -0.2273 -0.4912  0.6842
 4254SOL    HW224222   2.013   1.824   7.555 -1.2741  0.5585  0.4042
 4255SOL     OW24223   3.083   3.557   2.141 -0.1480  0.2769 -0.0983
 4255SOL    HW124224   3.069   3.649   2.120 -0.5558  0.2510  0.0684
 4255SOL    HW224225   3.140   3.528   2.069 -0.0077  0.8650 -0.2238
 4256SOL     OW24226   1.888   2.987  15.759  0.1356  0.3769 -0.3492
 4256SOL    HW124227   1.952   2.916  15.769  1.0736  1.2893  0.0858
 4256SOL    HW224228   1.865   2.963  15.669  0.6723 -0.0416 -0.3740
 4257SOL     OW24229   0.043   2.757   1.016  0.4539  0.1904  0.0104
 4257SOL    HW124230   4.674   2.731   1.035  0.0535  1.1835 -0.5008
 4257SOL    HW224231   0.096   2.688   1.056  0.4354 -0.0306 -0.3462
 4258SOL     OW24232   1.304   2.056  15.945  0.0634 -0.0597 -0.7445
 4258SOL    HW124233   1.335   2.020  15.862  0.4337  3.2408 -2.0552
 4258SOL    HW224234   1.324   2.149  15.930  0.1975 -0.2213 -1.5645
 4259SOL     OW24235   3.283   3.757  14.528 -0.0751 -0.0374 -0.5627
 4259SOL    HW124236   3.331   3.801  14.599 -0.8571  0.3843 -0.2974
 4259SOL    HW224237   3.356   3.731  14.472 -1.2163 -1.1512 -1.5423
 4260SOL     OW24238   4.359   3.235  12.736  0.8191 -0.2835  0.1985
 4260SOL    HW124239   4.275   3.279  12.750  1.4544  1.2247 -0.8203
 4260SOL    HW224240   4.421   3.286  12.787  1.4720 -1.1201  0.2385
 4261SOL     OW24241   0.362   0.329   2.616  0.4713  0.0511  0.6257
 4261SOL    HW124242   0.340   0.412   2.658  1.1869  1.0205 -0.9147
 4261SOL    HW224243   0.418   0.365   2.547  1.0467 -1.1655  0.4697
 4262SOL     OW24244   4.062   2.140   7.381  0.1060  0.1253  0.6092
 4262SOL    HW124245   4.148   2.099   7.395 -0.6007 -1.9321 -1.0303
 4262SOL    HW224246   4.034   2.113   7.294  0.5927  0.7746  0.2501
 4263SOL     OW24247   4.370   2.824   2.767  0.4493  0.0915 -0.2475
 4263SOL    HW124248   4.439   2.890   2.766  0.4249  0.1116 -0.6662
 4263SOL    HW224249   4.422   2.743   2.761 -1.6522 -1.0921 -2.4511
 4264SOL     OW24250   3.491   2.310  13.506  0.5549 -0.3366 -0.2166
 4264SOL    HW124251   3.492   2.218  13.531  0.7780  0.0354  1.1655
 4264SOL    HW224252   3.497   2.292  13.413  1.7432  0.7275 -0.3582
 4265SOL     OW24253   2.827   1.565   5.589 -0.2456 -0.0306  0.2690
 4265SOL    HW124254   2.748   1.615   5.566  0.0813 -0.8032 -2.5974
 4265SOL    HW224255   2.788   1.477   5.585 -0.6375  0.1369  0.3686
 4266SOL     OW24256   3.205   4.121   8.899 -0.0700 -0.6013 -0.6599
 4266SOL    HW124257   3.172   4.169   8.974  0.4632 -2.0583  0.5009
 4266SOL    HW224258   3.264   4.188   8.864 -1.6892  1.4595  0.5695
 4267SOL     OW24259   1.375   0.630   7.691  0.2399 -0.0070  0.0417
 4267SOL    HW124260   1.438   0.584   7.635 -0.9011 -1.3278 -0.1780
 4267SOL    HW224261   1.418   0.630   7.776 -0.3548  1.3882  0.3413
 4268SOL     OW24262   4.442   2.273   9.619  0.2268 -0.0456 -0.3620
 4268SOL    HW124263   4.381   2.347   9.623  1.0041  0.6503 -1.6060
 4268SOL    HW224264   4.417   2.223   9.697  0.1019 -1.3941 -1.2724
 4269SOL     OW24265   3.436   4.376   1.152  0.4824  0.6337 -0.0016
 4269SOL    HW124266   3.387   4.315   1.207 -0.0629  0.4778 -0.6578
 4269SOL    HW224267   3.493   4.404   1.223 -0.4929 -0.7717  1.3404
 4270SOL     OW24268   1.121   4.488  14.571 -0.0412 -0.0539 -0.7777
 4270SOL    HW124269   1.068   4.460  14.496  0.0859 -1.4055 -0.3670
 4270SOL    HW224270   1.103   4.407  14.619 -1.8447 -0.3419 -1.9275
 4271SOL     OW24271   2.575   1.595  15.169 -0.1449  0.5012  0.1554
 4271SOL    HW124272   2.507   1.577  15.105  1.9750 -2.0504 -1.3658
 4271SOL    HW224273   2.590   1.687  15.149  0.2247 -0.0185 -1.9037
 4272SOL     OW24274   1.303   1.203   4.064 -0.5794  0.6908 -0.0758
 4272SOL    HW124275   1.298   1.299   4.061 -0.5612  0.6633 -1.1326
 4272SOL    HW224276   1.355   1.200   4.144  1.2234 -0.4096 -1.3050
 4273SOL     OW24277   2.601   0.335   8.569 -0.1985  0.0522  0.0640
 4273SOL    HW124278   2.521   0.303   8.610 -0.3710  0.8114  0.3226
 4273SOL    HW224279   2.626   0.402   8.633 -1.0528  0.7172 -0.2860
 4274SOL     OW24280   2.090   3.321   3.221  0.0900 -0.2513  0.4176
 4274SOL    HW124281   2.044   3.262   3.281  1.6215 -0.6104  1.2327
 4274SOL    HW224282   2.020   3.335   3.157 -0.1541 -1.3028  0.4629
 4275SOL     OW24283   2.484   2.246   3.292 -0.3226 -0.3554  0.2554
 4275SOL    HW124284   2.450   2.244   3.202  1.3135  0.9678 -0.3962
 4275SOL    HW224285   2.507   2.154   3.304  1.2094 -0.1421 -0.9482
 4276SOL     OW24286   0.275   4.109   4.032  0.1848 -0.0848  0.3238
 4276SOL    HW124287   0.268   4.057   4.112 -0.1113  0.2133  0.4880
 4276SOL    HW224288   0.324   4.051   3.973 -0.2897 -0.2158  0.0610
 4277SOL     OW24289   4.697   3.321   2.856 -0.1750 -0.7103  0.5319
 4277SOL    HW124290   4.687   3.347   2.948  0.9218 -1.1329  0.7719
 4277SOL    HW224291   0.064   3.357   2.839 -0.4663  0.0720  0.6684
 4278SOL     OW24292   1.756   3.296   8.295  0.8978  0.4044  0.5479
 4278SOL    HW124293   1.790   3.208   8.278 -1.2457  0.4290 -3.9051
 4278SOL    HW224294   1.786   3.346   8.220 -1.0996 -2.0912 -1.8983
 4279SOL     OW24295   1.597   2.631   7.738 -0.3383  0.4190 -0.3530
 4279SOL    HW124296   1.613   2.708   7.684 -1.5683  0.6620 -0.3687
 4279SOL    HW224297   1.508   2.610   7.709 -0.4044  0.4121 -0.1434
 4280SOL     OW24298   2.078   3.636   7.787  0.4708  0.3079  0.1283
 4280SOL    HW124299   2.025   3.715   7.799 -0.9516 -0.8405  1.5514
 4280SOL    HW224300   2.155   3.658   7.840  1.7666 -2.0362 -0.7843
 4281SOL     OW24301   1.580   2.881   3.586 -0.1307  0.4047 -0.5654
 4281SOL    HW124302   1.544   2.799   3.621 -0.7535  1.3522  1.0298
 4281SOL    HW224303   1.507   2.941   3.605 -0.6494 -0.3508 -0.1208
 4282SOL     OW24304   4.030   3.287  10.970 -0.1111  0.3645  0.7133
 4282SOL    HW124305   3.993   3.375  10.975 -0.2226  0.2849  1.2456
 4282SOL    HW224306   3.975   3.239  11.032 -1.6514 -0.1783 -1.0881
 4283SOL     OW24307   1.844   1.845   4.273  0.4658  0.0907 -0.0636
 4283SOL    HW124308   1.772   1.784   4.291 -0.0350  1.2015  1.6971
 4283SOL    HW224309   1.865   1.885   4.357  2.6687  2.1091 -1.5823
 4284SOL     OW24310   1.179   3.544  10.074  0.6666  0.2812  0.0576
 4284SOL    HW124311   1.115   3.473  10.078  0.6505  0.2943  0.0358
 4284SOL    HW224312   1.196   3.554   9.980  0.4956 -0.4268 -0.0508
 4285SOL     OW24313   2.476   2.636  10.589 -0.3689  0.5330 -0.7045
 4285SOL    HW124314   2.460   2.625  10.682 -2.2581  0.6634 -1.0108
 4285SOL    HW224315   2.387   2.644  10.553 -0.6139  1.3957  0.1137
 4286SOL     OW24316   4.328   2.091   9.453 -0.3952 -0.2207 -0.0706
 4286SOL    HW124317   4.398   2.156   9.463 -0.2156 -0.3663 -0.3556
 4286SOL    HW224318   4.255   2.136   9.494 -0.1865  0.3729 -0.3491
 4287SOL     OW24319   3.715   1.345   8.976  0.1311  0.1554  0.4021
 4287SOL    HW124320   3.797   1.301   8.998  1.5549  3.4788  1.7027
 4287SOL    HW224321   3.721   1.428   9.023 -0.4979  0.0784  0.6195
 4288SOL     OW24322   4.633   3.920   6.097 -0.4674  0.7325  0.2695
 4288SOL    HW124323   4.670   3.992   6.148  0.1078 -0.8587  2.0705
 4288SOL    HW224324   4.637   3.954   6.007  1.0766  1.6828  0.6966
 4289SOL     OW24325   2.859   1.849  13.490  0.3342 -0.3004 -0.5982
 4289SOL    HW124326   2.766   1.864  13.508  0.4624 -1.7029  1.1864
 4289SOL    HW224327   2.898   1.924  13.535 -1.4929  0.6444 -0.5949
 4290SOL     OW24328   0.401   3.842   4.719  0.1579 -0.1995 -0.3421
 4290SOL    HW124329   0.397   3.933   4.689  1.8050  0.3241  1.0281
 4290SOL    HW224330   0.324   3.809   4.673  0.7681 -0.8336 -0.9001
 4291SOL     OW24331   3.914   0.070   1.072  0.6033  0.2200 -0.1382
 4291SOL    HW124332   3.838   0.118   1.038 -0.0628 -1.5770 -1.1734
 4291SOL    HW224333   3.994   0.113   1.039  0.1499  0.8684 -0.3860
 4292SOL     OW24334   3.624   0.657   5.393 -0.0307 -0.2156  0.2290
 4292SOL    HW124335   3.612   0.568   5.359 -1.3717 -0.4977  1.4705
 4292SOL    HW224336   3.700   0.646   5.450 -0.0047 -0.0148  0.2326
 4293SOL     OW24337   1.403   1.203   6.403 -0.2918  0.3083 -0.0877
 4293SOL    HW124338   1.358   1.219   6.485  1.5177 -1.5653  1.2634
 4293SOL    HW224339   1.416   1.294   6.374  1.8664 -0.4032 -1.3326
 4294SOL     OW24340   2.049   1.862   1.348 -0.4388  0.0283  0.3350
 4294SOL    HW124341   1.993   1.884   1.273 -0.5436  1.0795  0.7256
 4294SOL    HW224342   1.988   1.829   1.414  0.8746 -0.0986  1.4811
 4295SOL     OW24343   3.375   3.548   5.765  0.0385  0.5963 -0.3294
 4295SOL    HW124344   3.311   3.614   5.792 -1.8551 -0.9078 -1.1288
 4295SOL    HW224345   3.382   3.480   5.832 -2.6024  1.1808  0.5435
 4296SOL     OW24346   2.707   3.105   9.161 -0.0820 -0.3513 -0.2177
 4296SOL    HW124347   2.743   3.193   9.156 -0.8805  0.0169  0.5471
 4296SOL    HW224348   2.630   3.108   9.218  1.0749 -2.2826  1.4446
 4297SOL     OW24349   1.198   4.335   2.842  0.7874  0.1074 -0.3331
 4297SOL    HW124350   1.230   4.369   2.759  0.5015 -1.3512 -1.0516
 4297SOL    HW224351   1.179   4.419   2.883 -0.7228  0.9612 -2.8070
 4298SOL     OW24352   3.933   0.507   0.371  0.2466  0.3571  0.1252
 4298SOL    HW124353   3.936   0.530   0.278 -1.0106  0.4654  0.1074
 4298SOL    HW224354   4.001   0.565   0.403  2.0640 -0.9026 -1.4294
 4299SOL     OW24355   3.683   3.166   8.144  0.0109  0.7465  0.1042
 4299SOL    HW124356   3.694   3.243   8.088 -0.3003  0.0375 -0.9222
 4299SOL    HW224357   3.595   3.158   8.182  0.1955  0.2364  0.4210
 4300SOL     OW24358   2.202   1.209   7.135  0.0685 -0.7997  0.2720
 4300SOL    HW124359   2.177   1.263   7.210  2.6431  0.2207  0.3848
 4300SOL    HW224360   2.145   1.238   7.063  1.8433  1.6664 -0.1509
 4301SOL     OW24361   0.311   1.368   6.545 -0.4401  0.1505  0.2938
 4301SOL    HW124362   0.313   1.431   6.473  3.1890 -0.8808 -0.4991
 4301SOL    HW224363   0.383   1.408   6.594  0.9926 -1.2414 -0.6659
 4302SOL     OW24364   0.687   2.739  13.130 -0.1427  0.4809 -0.6205
 4302SOL    HW124365   0.782   2.734  13.125 -0.0652  1.6485 -0.2742
 4302SOL    HW224366   0.678   2.655  13.085 -0.2503  0.3900 -0.4288
 4303SOL     OW24367   0.007   3.240  15.176  0.4518 -0.4178  0.4925
 4303SOL    HW124368   4.659   3.283  15.228 -0.4155 -2.4826  1.0411
 4303SOL    HW224369   0.010   3.146  15.195 -0.8782 -0.8371 -1.3919
 4304SOL     OW24370   0.321   2.388   0.188  0.2233 -0.4685  0.3334
 4304SOL    HW124371   0.374   2.321   0.229  0.2536 -1.3001 -1.0834
 4304SOL    HW224372   0.270   2.351   0.116  0.0576  0.1358  0.1407
 4305SOL     OW24373   0.416   0.058  17.322  0.0676  0.4729  0.5203
 4305SOL    HW124374   0.504   0.040  17.355  0.5205  0.6656 -0.5749
 4305SOL    HW224375   0.369   0.002  17.384 -0.5623 -0.1683 -0.5368
 4306SOL     OW24376   2.597   4.632  11.755 -0.1144 -0.0140 -0.5800
 4306SOL    HW124377   2.626   4.547  11.721  0.9851  0.8886 -1.8732
 4306SOL    HW224378   2.504   4.620  11.737 -0.1830  0.0692 -0.2920
 4307SOL     OW24379   4.555   0.634   0.795 -0.9050 -0.3306 -0.1154
 4307SOL    HW124380   4.541   0.679   0.712 -2.5565 -2.0232 -0.7551
 4307SOL    HW224381   4.461   0.620   0.807 -0.6037  0.0141  2.6472
 4308SOL     OW24382   1.078   1.027   6.640 -0.4103  0.3250  0.4763
 4308SOL    HW124383   1.088   1.083   6.563 -2.8377  0.8412  0.5186
 4308SOL    HW224384   1.052   0.943   6.601  1.9008 -1.2758  2.3782
 4309SOL     OW24385   1.715   4.160   5.969 -0.2972 -0.7039  0.6365
 4309SOL    HW124386   1.771   4.205   5.906 -2.3603  0.2736 -0.4934
 4309SOL    HW224387   1.630   4.202   5.958  0.0156 -0.2740 -0.1307
 4310SOL     OW24388   4.221   2.300   4.036 -0.3314  0.1696 -0.7551
 4310SOL    HW124389   4.226   2.394   4.051  0.2558 -0.1375  0.9530
 4310SOL    HW224390   4.147   2.293   3.976 -1.5988 -0.8429  0.9025
 4311SOL     OW24391   2.387   4.057   1.524 -0.2479 -0.3712  0.2701
 4311SOL    HW124392   2.435   4.074   1.605  1.0060 -3.3039  0.1520
 4311SOL    HW224393   2.454   4.051   1.456  0.3481 -1.0721  0.9306
 4312SOL     OW24394   0.981   3.014  17.550  0.1123 -0.0618 -0.3841
 4312SOL    HW124395   0.900   3.022  17.499  0.7045  2.7325 -0.8808
 4312SOL    HW224396   0.985   3.102  17.589 -0.2696 -0.9124  1.5516
 4313SOL     OW24397   1.271   0.290  11.399  0.3728 -0.0172 -0.0234
 4313SOL    HW124398   1.223   0.254  11.474  1.6325 -0.6623  0.4651
 4313SOL    HW224399   1.331   0.216  11.394 -0.1810 -0.4715  0.1595
 4314SOL     OW24400   0.574   0.668  11.607  0.8981 -0.7358  0.0542
 4314SOL    HW124401   0.503   0.634  11.552  0.0183 -0.8400  1.2674
 4314SOL    HW224402   0.537   0.754  11.623  2.0082 -0.4924  1.3366
 4315SOL     OW24403   3.716   1.619   6.783 -0.2102 -0.6348 -0.0629
 4315SOL    HW124404   3.787   1.613   6.719 -0.2016 -0.7342 -0.0440
 4315SOL    HW224405   3.673   1.702   6.762 -0.7502 -0.2810  2.4207
 4316SOL     OW24406   2.770   0.495   2.776 -0.2382 -0.1769 -0.0995
 4316SOL    HW124407   2.805   0.478   2.688 -2.4408 -0.5500 -0.9068
 4316SOL    HW224408   2.800   0.583   2.797 -0.1545 -0.8672  2.6856
 4317SOL     OW24409   4.002   2.024   3.173  0.2397  0.1456 -0.0767
 4317SOL    HW124410   4.057   1.946   3.185  1.8371  1.3036  0.1621
 4317SOL    HW224411   4.013   2.030   3.078 -0.1791  0.9705 -0.0734
 4318SOL     OW24412   3.955   2.663   8.581 -0.1536  0.6826  0.0844
 4318SOL    HW124413   3.932   2.623   8.665  0.2121  0.2951  0.0038
 4318SOL    HW224414   4.043   2.625   8.586 -0.1568  0.1739 -3.4581
 4319SOL     OW24415   3.505   1.168   5.414  0.1433  0.4121 -0.2986
 4319SOL    HW124416   3.415   1.196   5.433 -0.1907  0.7860 -2.3494
 4319SOL    HW224417   3.515   1.202   5.325  0.6406  0.9718 -0.0298
 4320SOL     OW24418   0.625   0.430  11.742 -0.0251  0.3819 -0.1884
 4320SOL    HW124419   0.549   0.441  11.800 -1.1504 -0.4651 -1.4784
 4320SOL    HW224420   0.610   0.507  11.687 -0.9679  0.3359 -0.0013
 4321SOL     OW24421   0.343   1.649   3.712 -0.4396 -0.3277 -0.2319
 4321SOL    HW124422   0.407   1.721   3.713 -0.5883 -0.2169  1.4717
 4321SOL    HW224423   0.404   1.575   3.711 -2.5879 -2.1038  1.6292
 4322SOL     OW24424   0.856   3.046   7.250 -0.3935 -0.4985 -0.3388
 4322SOL    HW124425   0.827   3.133   7.277  0.9799  0.0333 -0.5683
 4322SOL    HW224426   0.774   2.998   7.238 -0.4036 -0.7664  0.8103
 4323SOL     OW24427   2.366   3.110   2.950 -0.5053  0.8639  0.4178
 4323SOL    HW124428   2.452   3.138   2.920  0.6355 -2.0779  0.9483
 4323SOL    HW224429   2.315   3.131   2.871 -4.1832 -1.0162  2.2804
 4324SOL     OW24430   4.211   4.311   8.579 -0.2071 -0.3528  0.0541
 4324SOL    HW124431   4.139   4.374   8.570  0.3974  0.5602  1.5176
 4324SOL    HW224432   4.170   4.228   8.602 -2.1797  0.9138  1.1021
 4325SOL     OW24433   1.424   3.333   8.617  0.1470  0.2243 -0.2700
 4325SOL    HW124434   1.403   3.243   8.591  1.3371  0.0513 -0.6271
 4325SOL    HW224435   1.495   3.366   8.562 -0.1490  1.9892  0.4197
 4326SOL     OW24436   3.195   0.492  11.882  0.3256 -0.1521 -0.6415
 4326SOL    HW124437   3.272   0.451  11.842  0.0386 -1.5321  0.2371
 4326SOL    HW224438   3.179   0.444  11.963  1.4097  3.3394  1.6596
 4327SOL     OW24439   2.318   1.770   6.852  0.6839  0.0369  0.4394
 4327SOL    HW124440   2.234   1.806   6.823 -0.1516 -1.9570  0.3945
 4327SOL    HW224441   2.360   1.850   6.884 -0.0036  0.5744  0.0008
 4328SOL     OW24442   1.263   2.077   4.281 -0.6110  0.1676  0.8112
 4328SOL    HW124443   1.338   2.129   4.252 -0.6803  0.2104  0.7074
 4328SOL    HW224444   1.233   2.049   4.194 -1.7254  1.0917  0.8980
 4329SOL     OW24445   2.014   4.341  15.566 -0.1431  0.6726  0.1307
 4329SOL    HW124446   2.053   4.310  15.483 -0.1735  4.0734 -1.1724
 4329SOL    HW224447   2.072   4.311  15.636 -1.0321 -1.8859 -0.2149
 4330SOL     OW24448   3.742   3.620   1.889 -0.4722  0.6190  0.8188
 4330SOL    HW124449   3.837   3.614   1.878 -0.4811  0.9900  0.5175
 4330SOL    HW224450   3.718   3.556   1.955  0.1987 -0.2653  0.2109
 4331SOL     OW24451   4.190   2.307  12.230 -0.3198 -0.4718  0.2074
 4331SOL    HW124452   4.207   2.389  12.184 -1.7944 -1.6217 -2.3749
 4331SOL    HW224453   4.121   2.263  12.180 -0.8914 -0.5963  1.1142
 4332SOL     OW24454   3.282   2.615   7.997  0.3290 -0.1090  0.1137
 4332SOL    HW124455   3.223   2.584   7.928 -1.3526 -2.7885  2.7694
 4332SOL    HW224456   3.281   2.540   8.056  0.0828  0.1485  0.4338
 4333SOL     OW24457   0.807   3.723   2.948 -0.2126 -0.2572 -0.5265
 4333SOL    HW124458   0.793   3.710   2.854 -0.1733  0.3344 -0.6179
 4333SOL    HW224459   0.839   3.636   2.970 -2.1730 -1.0749 -0.9992
 4334SOL     OW24460   3.426   3.476  15.224 -0.0509 -0.3336  0.2313
 4334SOL    HW124461   3.414   3.489  15.318  0.3101  1.7366 -0.0093
 4334SOL    HW224462   3.519   3.452  15.226  0.4559  1.4822 -0.9732
 4335SOL     OW24463   3.176   3.404   3.441 -0.0917  0.3891 -0.0677
 4335SOL    HW124464   3.111   3.431   3.506 -1.4447  0.2132 -1.3467
 4335SOL    HW224465   3.197   3.311   3.450  0.4228  0.3682 -1.4370
 4336SOL     OW24466   2.437   4.247   7.639  0.0910 -0.1143 -0.0885
 4336SOL    HW124467   2.498   4.275   7.571  1.7319 -1.1794  0.9322
 4336SOL    HW224468   2.363   4.306   7.626  0.3284 -0.1792 -1.7084
 4337SOL     OW24469   2.279   4.324   9.223  0.2668  0.7088  0.1905
 4337SOL    HW124470   2.222   4.384   9.176 -0.6711 -1.2027 -1.0971
 4337SOL    HW224471   2.304   4.372   9.302  1.5161  3.7699 -2.0913
 4338SOL     OW24472   4.194   0.497   3.061 -0.5414 -0.1270 -0.4234
 4338SOL    HW124473   4.175   0.563   3.128 -0.8247  1.6864 -2.3067
 4338SOL    HW224474   4.130   0.429   3.084  0.8988 -1.2447  0.2768
 4339SOL     OW24475   1.701   2.948   0.953  0.2609  0.8767 -0.2497
 4339SOL    HW124476   1.754   2.931   0.875  0.1408 -1.1608  0.1227
 4339SOL    HW224477   1.647   2.870   0.968 -0.5064  1.5954  0.6857
 4340SOL     OW24478   1.589   3.772   7.843  0.0014  0.5137  0.0366
 4340SOL    HW124479   1.599   3.804   7.754  0.9572  0.1627  0.0119
 4340SOL    HW224480   1.590   3.855   7.891  0.3712  1.0053 -0.8107
 4341SOL     OW24481   4.346   3.266   7.019 -0.4206 -0.4686  0.2323
 4341SOL    HW124482   4.274   3.234   7.073  1.3992 -1.9810  1.7758
 4341SOL    HW224483   4.413   3.288   7.084 -0.6442 -0.3622  0.4226
 4342SOL     OW24484   1.830   4.090   8.138  0.4322  0.1566 -0.4942
 4342SOL    HW124485   1.841   4.149   8.213  0.3759 -0.9110  0.3522
 4342SOL    HW224486   1.919   4.080   8.104  0.7653  0.3583  0.2985
 4343SOL     OW24487   2.461   1.155   5.746 -0.2239  0.2499  0.2904
 4343SOL    HW124488   2.456   1.120   5.835  0.5299  0.1557  0.2956
 4343SOL    HW224489   2.547   1.129   5.713 -0.7150 -0.2546 -0.6019
 4344SOL     OW24490   0.358   2.879   6.698 -0.3577 -0.3797 -0.0573
 4344SOL    HW124491   0.409   2.846   6.624 -0.5516 -0.0526 -0.3326
 4344SOL    HW224492   0.282   2.912   6.649  0.0413 -0.6601 -0.8739
 4345SOL     OW24493   3.033   0.450   2.279 -0.2769  0.1421  0.4258
 4345SOL    HW124494   3.020   0.388   2.351  1.2919  0.3453  0.8679
 4345SOL    HW224495   3.063   0.392   2.209 -1.6766  2.4131 -2.0730
 4346SOL     OW24496   0.293   3.332   7.344 -0.2619  0.2744 -0.2664
 4346SOL    HW124497   0.328   3.264   7.287  0.6639  0.5150  0.0107
 4346SOL    HW224498   0.376   3.371   7.374 -0.7282  2.4177 -1.7872
 4347SOL     OW24499   3.229   3.493  16.561  0.1112  0.3176 -0.3765
 4347SOL    HW124500   3.187   3.573  16.530  0.3229  0.2156 -0.9141
 4347SOL    HW224501   3.226   3.446  16.478 -2.3285 -1.1960  0.5896
 4348SOL     OW24502   1.119   0.360   8.068 -0.0766 -0.2161  0.2017
 4348SOL    HW124503   1.057   0.433   8.067  0.6434  0.3915  0.5742
 4348SOL    HW224504   1.066   0.286   8.037  1.1333 -1.0357  0.0839
 4349SOL     OW24505   0.074   0.330  15.728  0.0532  0.9226 -0.0249
 4349SOL    HW124506   0.004   0.387  15.760 -1.1947  0.5917 -2.1195
 4349SOL    HW224507   0.151   0.383  15.746 -1.5381  3.4557 -0.5956
 4350SOL     OW24508   1.951   1.034   7.302 -0.1468 -0.0057  0.4714
 4350SOL    HW124509   2.021   1.064   7.359  1.2855 -0.8454 -0.8477
 4350SOL    HW224510   1.984   1.031   7.212 -0.3215 -2.7535  0.4891
 4351SOL     OW24511   0.802   4.344   1.405  0.3699 -0.4563  0.0688
 4351SOL    HW124512   0.836   4.372   1.321 -1.5134 -1.1941 -0.9327
 4351SOL    HW224513   0.882   4.331   1.457  0.9825  1.7241 -0.3384
 4352SOL     OW24514   0.134   1.174  16.460 -0.7799 -0.1882 -0.4195
 4352SOL    HW124515   0.121   1.217  16.376  1.6876  1.5425  0.0755
 4352SOL    HW224516   0.064   1.220  16.506  0.6903 -0.3604  2.0174
 4353SOL     OW24517   2.661   0.165   1.439  0.4687  0.5616  0.5221
 4353SOL    HW124518   2.718   0.208   1.374  0.1068 -1.6727 -1.2529
 4353SOL    HW224519   2.693   0.075   1.440  1.0752  0.7683  0.3718
 4354SOL     OW24520   4.104   0.420  14.008  0.1077 -0.1447  0.0022
 4354SOL    HW124521   4.072   0.331  14.026 -1.6937  0.6875  0.8777
 4354SOL    HW224522   4.141   0.441  14.093 -0.6612 -0.8732  0.5179
 4355SOL     OW24523   3.242   3.226   4.584 -0.3551  0.4351  0.1063
 4355SOL    HW124524   3.147   3.232   4.597 -0.3415  0.3530  0.2408
 4355SOL    HW224525   3.272   3.210   4.673 -3.3706 -2.0631  0.6666
 4356SOL     OW24526   4.161   2.139  11.317 -0.5170  0.2671  0.0170
 4356SOL    HW124527   4.203   2.225  11.322 -1.1202  0.4733  1.7348
 4356SOL    HW224528   4.108   2.151  11.396 -2.7107  1.7045 -1.7029
 4357SOL     OW24529   4.493   4.267   0.030  0.0616 -0.5221  0.0187
 4357SOL    HW124530   4.408   4.235   0.062 -0.3778 -0.7440 -1.3537
 4357SOL    HW224531   4.457   4.309  17.636 -2.0980 -2.9345 -0.2991
 4358SOL     OW24532   2.000   2.153   6.990  0.5564  0.3272 -0.2353
 4358SOL    HW124533   2.066   2.083   6.991  0.2760  0.0850  0.6959
 4358SOL    HW224534   2.052   2.233   6.981  0.0358  0.6042 -0.7361
 4359SOL     OW24535   0.903   2.068   7.769  0.0247  0.2535  0.4079
 4359SOL    HW124536   0.835   2.121   7.726  0.2414  2.4442  2.7733
 4359SOL    HW224537   0.883   2.084   7.862 -1.7705 -0.9876  0.2392
 4360SOL     OW24538   2.677   3.002   4.344 -0.7500  0.0473 -0.0377
 4360SOL    HW124539   2.700   2.980   4.254  3.5653  2.0394  0.5794
 4360SOL    HW224540   2.671   2.915   4.386  0.8740 -1.0485 -2.1086
 4361SOL     OW24541   3.457   2.613   5.234  0.8167  0.0033 -0.4315
 4361SOL    HW124542   3.514   2.578   5.302  0.1830 -1.1093 -0.4820
 4361SOL    HW224543   3.503   2.682   5.186  1.6136 -0.8230 -0.8452
 4362SOL     OW24544   0.185   2.475   9.203  0.2260 -0.4355 -0.4186
 4362SOL    HW124545   0.131   2.532   9.257  0.9593  0.3658 -0.5176
 4362SOL    HW224546   0.118   2.436   9.147  0.1284 -1.3256  0.3203
 4363SOL     OW24547   1.597   2.278   1.737  0.7644 -0.5637  0.2343
 4363SOL    HW124548   1.662   2.224   1.693  0.3900 -1.6528  1.0240
 4363SOL    HW224549   1.564   2.218   1.804 -1.5350  1.1283  0.6262
 4364SOL     OW24550   1.288   3.220   7.191  1.0384  0.7344  0.1016
 4364SOL    HW124551   1.362   3.173   7.152  1.2946  1.3947 -0.2012
 4364SOL    HW224552   1.234   3.144   7.215  2.4276 -0.0771  0.6631
 4365SOL     OW24553   2.778   0.392   8.085  0.6946 -0.0503  0.2991
 4365SOL    HW124554   2.759   0.486   8.080 -0.1476 -0.3252 -1.7545
 4365SOL    HW224555   2.871   0.390   8.062  0.4508 -2.5411 -0.4832
 4366SOL     OW24556   0.110   1.981   4.149 -0.1329  0.0349  0.8245
 4366SOL    HW124557   0.145   1.907   4.099  0.4096  1.7677 -1.3839
 4366SOL    HW224558   0.041   1.939   4.201 -2.4668  0.6162 -1.8154
 4367SOL     OW24559   2.960   0.541   4.230  0.1218  0.0633 -0.2541
 4367SOL    HW124560   2.947   0.471   4.295  1.6280  0.6719  0.7207
 4367SOL    HW224561   3.052   0.524   4.209  0.6777  3.1966 -0.2964
 4368SOL     OW24562   3.528   0.358   7.802  0.3004 -0.8456  0.7095
 4368SOL    HW124563   3.533   0.362   7.707 -1.9423  1.3171  0.6834
 4368SOL    HW224564   3.604   0.416   7.814 -0.5640  0.7702 -1.7074
 4369SOL     OW24565   3.014   4.268   3.718 -0.2793 -0.4763 -0.2814
 4369SOL    HW124566   3.037   4.361   3.722 -0.1426 -0.5143 -0.2095
 4369SOL    HW224567   3.092   4.213   3.721  0.0552  0.0421  0.3054
 4370SOL     OW24568   1.947   1.564   8.382 -0.0106 -0.3160 -0.0487
 4370SOL    HW124569   2.031   1.580   8.424  0.8231 -0.5312 -1.6259
 4370SOL    HW224570   1.963   1.597   8.293  1.4145  1.5683  0.9132
 4371SOL     OW24571   1.910   1.486  12.131 -0.6925 -0.2635 -0.4972
 4371SOL    HW124572   1.854   1.453  12.060 -0.5184 -1.3505 -0.1381
 4371SOL    HW224573   1.863   1.453  12.207 -1.0472  1.1319 -0.1229
 4372SOL     OW24574   4.712   1.736   8.236  0.2111 -0.0718 -0.3652
 4372SOL    HW124575   0.085   1.731   8.220  0.4905  0.5432  1.0697
 4372SOL    HW224576   4.676   1.725   8.148  0.2506  0.8745 -0.4952
 4373SOL     OW24577   2.227   1.550   4.548 -0.0759  0.4143  0.7449
 4373SOL    HW124578   2.173   1.611   4.497  0.8849  1.3495  0.8485
 4373SOL    HW224579   2.272   1.615   4.602  1.1172 -0.4707  0.8063
 4374SOL     OW24580   0.721   1.176   5.274 -0.9595  0.7011 -0.1442
 4374SOL    HW124581   0.799   1.121   5.277 -1.2562  0.2989  0.2099
 4374SOL    HW224582   0.698   1.157   5.183  1.1322 -0.0576 -0.4983
 4375SOL     OW24583   3.211   3.533   0.009 -0.2748 -0.1806 -0.0364
 4375SOL    HW124584   3.175   3.445   0.021  1.0910 -0.4621  2.0661
 4375SOL    HW224585   3.286   3.515  17.637  0.7684  0.8392  1.0227
 4376SOL     OW24586   0.353   2.981   3.196 -0.0323  0.1128  0.6748
 4376SOL    HW124587   0.294   2.912   3.225 -0.8525  1.5151  2.3647
 4376SOL    HW224588   0.423   2.930   3.157  0.6469 -0.4155  2.5763
 4377SOL     OW24589   0.967   4.372   4.476  0.4231 -0.1497  0.0300
 4377SOL    HW124590   0.905   4.299   4.462 -1.0614  0.5439  3.0575
 4377SOL    HW224591   0.923   4.451   4.446  0.3367  0.3809  1.5681
 4378SOL     OW24592   1.718   4.551   6.711 -0.6847  0.6694  0.3193
 4378SOL    HW124593   1.752   4.607   6.641 -2.7949  0.2809 -1.0214
 4378SOL    HW224594   1.638   4.508   6.681 -0.2364 -0.3870  0.6422
 4379SOL     OW24595   2.005   1.192  17.033 -0.3664 -0.1569 -0.7251
 4379SOL    HW124596   1.997   1.283  17.061 -0.3015  0.2900 -2.1541
 4379SOL    HW224597   2.046   1.143  17.104  1.4459  4.5928  1.5127
 4380SOL     OW24598   3.913   0.657   0.115 -0.7293  0.0638 -0.0687
 4380SOL    HW124599   4.004   0.641   0.090 -0.3852 -0.7403  1.6769
 4380SOL    HW224600   3.924   0.736   0.168  0.1249  0.7488 -1.2696
 4381SOL     OW24601   2.657   2.087   8.684 -0.0696  0.0344 -0.3851
 4381SOL    HW124602   2.637   2.155   8.620  1.8151  0.3326 -0.6744
 4381SOL    HW224603   2.571   2.075   8.723 -0.4655 -1.7886 -1.8490
 4382SOL     OW24604   2.749   3.756   7.974 -0.0957 -0.3546 -0.4129
 4382SOL    HW124605   2.797   3.674   7.960 -0.6941 -1.1441  2.0932
 4382SOL    HW224606   2.697   3.754   7.894 -0.9195 -1.1659  0.1424
 4383SOL     OW24607   1.662   0.978  11.350 -0.4786  0.1969  0.2628
 4383SOL    HW124608   1.696   1.049  11.404 -0.3517  0.2618  0.0968
 4383SOL    HW224609   1.677   1.014  11.263  1.3812 -1.6297 -0.1847
 4384SOL     OW24610   1.918   0.656   7.223 -0.3639 -0.6609  0.1394
 4384SOL    HW124611   1.872   0.572   7.228 -1.5932 -0.0076 -0.3716
 4384SOL    HW224612   1.997   0.629   7.175 -1.0877  1.2706 -2.1415
 4385SOL     OW24613   0.455   3.173   7.721 -0.0524 -0.4500  0.0507
 4385SOL    HW124614   0.379   3.170   7.780 -0.6411  0.3516 -0.6722
 4385SOL    HW224615   0.421   3.156   7.634 -0.5150  1.2804 -0.1035
 4386SOL     OW24616   3.693   4.350   5.289  0.1627 -0.0371 -0.3560
 4386SOL    HW124617   3.743   4.296   5.350 -0.5633  0.2093  0.4523
 4386SOL    HW224618   3.705   4.428   5.342 -0.0495  0.0645 -0.4577
 4387SOL     OW24619   1.954   0.417   5.171 -0.3158  0.5501 -0.3957
 4387SOL    HW124620   1.910   0.499   5.194  1.9069  1.4579  0.7093
 4387SOL    HW224621   2.031   0.420   5.229 -0.2784  2.7793 -0.5437
 4388SOL     OW24622   4.000   3.857  17.509 -0.3940  0.4014  0.1543
 4388SOL    HW124623   4.028   3.770  17.478 -4.0946 -1.3851  1.7731
 4388SOL    HW224624   3.949   3.885  17.433  0.5503  0.7619 -0.3346
 4389SOL     OW24625   4.668   3.173   7.830  0.3493 -0.6513 -0.9059
 4389SOL    HW124626   0.026   3.227   7.830  0.6774 -1.1580  2.1626
 4389SOL    HW224627   4.712   3.092   7.804  2.2373  0.2899 -0.6717
 4390SOL     OW24628   1.107   1.922   4.975 -0.3337  0.1319  0.2842
 4390SOL    HW124629   1.043   1.854   4.994  0.5760  0.0526  3.0088
 4390SOL    HW224630   1.081   1.964   4.893  1.3833  1.7406  0.5540
 4391SOL     OW24631   0.412   0.347   4.577 -0.1447  0.8005 -0.4800
 4391SOL    HW124632   0.331   0.387   4.545 -0.2774 -0.2851 -1.4975
 4391SOL    HW224633   0.452   0.428   4.608  0.0654  1.5722 -2.7530
 4392SOL     OW24634   1.507   2.596   6.344  0.2360 -0.0499  0.0939
 4392SOL    HW124635   1.576   2.643   6.392 -0.0297  0.9799 -0.5510
 4392SOL    HW224636   1.432   2.608   6.403 -0.0174 -1.3268  0.0256
 4393SOL     OW24637   3.844   2.384   3.133 -0.1386  0.2177  0.1680
 4393SOL    HW124638   3.908   2.424   3.192 -1.7567 -0.4338  2.3901
 4393SOL    HW224639   3.817   2.314   3.193  1.8739 -2.2579 -1.8386
 4394SOL     OW24640   2.900   1.717   5.072 -0.2128 -0.1414  0.7791
 4394SOL    HW124641   2.870   1.659   5.142  0.0327  0.2815  1.2416
 4394SOL    HW224642   2.976   1.666   5.043 -0.0076  0.0284  1.0100
 4395SOL     OW24643   3.983   2.805   0.923 -0.1694  0.2044 -0.0193
 4395SOL    HW124644   4.012   2.838   1.009  2.8462  0.7481 -1.2483
 4395SOL    HW224645   3.947   2.888   0.892 -1.1394  0.9321  3.0246
 4396SOL     OW24646   3.194   1.880   2.401 -0.4342  0.5676 -0.2048
 4396SOL    HW124647   3.123   1.880   2.465  0.4718  1.2292  0.8033
 4396SOL    HW224648   3.224   1.971   2.403 -1.1266  0.8008 -0.8248
 4397SOL     OW24649   0.583   0.904   7.973  0.4129 -0.6387  0.2825
 4397SOL    HW124650   0.532   0.855   8.038 -2.1975  2.3139  0.4708
 4397SOL    HW224651   0.581   0.992   8.012  2.4282 -0.6433  0.3768
 4398SOL     OW24652   1.750   1.386   6.624  0.2142 -0.4133 -0.0624
 4398SOL    HW124653   1.736   1.447   6.697 -0.4753 -0.8469  0.1626
 4398SOL    HW224654   1.683   1.424   6.567 -0.3293  0.9841  1.4972
 4399SOL     OW24655   1.850   3.785   5.015 -0.2660  0.0910 -0.2404
 4399SOL    HW124656   1.799   3.842   4.957 -1.8086 -0.6820  0.3748
 4399SOL    HW224657   1.871   3.711   4.957 -0.1493  0.4242 -0.6263
 4400SOL     OW24658   0.525   4.192  14.584  0.0305 -0.2015 -0.9917
 4400SOL    HW124659   0.505   4.101  14.562 -1.4288  0.0065 -0.5289
 4400SOL    HW224660   0.617   4.198  14.559 -0.5110  1.3463 -2.5542
 4401SOL     OW24661   2.438   2.592   4.060 -0.2337 -0.0782 -0.1207
 4401SOL    HW124662   2.463   2.540   3.983  1.4822 -1.1593  1.1565
 4401SOL    HW224663   2.356   2.545   4.078  0.2233 -0.5012  0.8791
 4402SOL     OW24664   4.005   0.435  11.819  0.1378  0.2366 -0.1361
 4402SOL    HW124665   4.009   0.412  11.726  1.4901  0.7110 -0.2009
 4402SOL    HW224666   4.091   0.471  11.841  1.3650 -2.2347 -0.8357
 4403SOL     OW24667   1.886   3.397   3.040  0.5541  0.1502  0.4464
 4403SOL    HW124668   1.792   3.389   3.022  0.8285 -0.4188 -0.7393
 4403SOL    HW224669   1.896   3.489   3.017 -1.1814 -0.0815 -1.2422
 4404SOL     OW24670   4.546   3.826   4.456 -0.1643  0.2184  0.3901
 4404SOL    HW124671   4.462   3.796   4.421 -1.1347  0.2338  2.6782
 4404SOL    HW224672   4.584   3.873   4.382  0.7088  2.3673  2.2012
 4405SOL     OW24673   2.601   2.492   3.820  0.3511 -0.6687 -0.6507
 4405SOL    HW124674   2.696   2.477   3.824  0.5450  0.7378 -0.0779
 4405SOL    HW224675   2.606   2.522   3.729  1.9420  1.3840  0.1016
 4406SOL     OW24676   1.665   0.551   9.630 -0.1051 -0.5157 -0.3567
 4406SOL    HW124677   1.734   0.494   9.597  0.9379  1.3309 -1.3063
 4406SOL    HW224678   1.594   0.553   9.565  1.5128 -1.8042 -2.1371
 4407SOL     OW24679   3.831   3.660   4.880  0.6333 -0.0209 -0.0140
 4407SOL    HW124680   3.817   3.654   4.786 -2.5818  0.5186  0.4216
 4407SOL    HW224681   3.738   3.664   4.903  0.2283 -0.1549 -1.6611
 4408SOL     OW24682   2.668   2.719  15.816 -0.4251  0.0611 -0.2260
 4408SOL    HW124683   2.731   2.762  15.758 -0.6127  2.5905  1.4123
 4408SOL    HW224684   2.712   2.730  15.901  0.2385 -0.9757 -0.4435
 4409SOL     OW24685   2.176   2.649   9.525  0.9645 -0.3606 -0.2227
 4409SOL    HW124686   2.091   2.624   9.563  1.4090  0.2524  1.1650
 4409SOL    HW224687   2.146   2.725   9.475  2.4316 -0.1328 -0.7388
 4410SOL     OW24688   4.101   0.071   7.954  0.7510  0.1139 -0.1462
 4410SOL    HW124689   4.050   0.013   8.012 -1.2435  0.4034 -1.6420
 4410SOL    HW224690   4.034   0.130   7.919  1.1167 -0.3740 -1.6520
 4411SOL     OW24691   0.155   4.285   3.877 -0.7062  0.0129  0.0714
 4411SOL    HW124692   0.231   4.343   3.885 -0.4280 -0.4024  0.4907
 4411SOL    HW224693   0.193   4.224   3.940  0.5152 -1.8115 -2.4262
 4412SOL     OW24694   3.821   2.135  12.735 -0.4383  0.4999  0.1394
 4412SOL    HW124695   3.858   2.125  12.823 -1.8311 -0.3728  0.6340
 4412SOL    HW224696   3.754   2.202  12.752 -0.4362  0.2048  1.3349
 4413SOL     OW24697   1.343   3.808   4.417 -0.1857  0.2315 -0.3529
 4413SOL    HW124698   1.369   3.815   4.326  0.6026  0.1546 -0.1359
 4413SOL    HW224699   1.383   3.887   4.454  0.1794  0.9173 -2.2472
 4414SOL     OW24700   2.746   1.428  15.733  0.6073 -0.2744 -0.0386
 4414SOL    HW124701   2.676   1.365  15.752  0.3100  0.4311  1.2608
 4414SOL    HW224702   2.707   1.493  15.674  0.5998 -0.8434 -0.6581
 4415SOL     OW24703   3.172   1.994  10.636 -0.1604 -0.4562 -0.1755
 4415SOL    HW124704   3.260   1.986  10.675  0.3548 -0.6153 -1.3786
 4415SOL    HW224705   3.163   1.899  10.626  2.4917 -0.9194  1.5773
 4416SOL     OW24706   4.040   1.244  13.171  0.4223  0.0509  0.4285
 4416SOL    HW124707   4.025   1.319  13.227  2.0337  1.8520 -1.5502
 4416SOL    HW224708   4.134   1.246  13.158  0.7103 -1.2587  2.3240
 4417SOL     OW24709   4.290   0.324  11.727 -0.1842  0.4852  0.3699
 4417SOL    HW124710   4.280   0.397  11.788  0.1582 -0.4466  1.5384
 4417SOL    HW224711   4.384   0.326  11.707 -0.3454  1.0161 -0.3267
 4418SOL     OW24712   2.273   2.439   7.365  0.0599 -0.3064 -0.4429
 4418SOL    HW124713   2.352   2.492   7.359  0.5491 -1.1525 -1.2997
 4418SOL    HW224714   2.309   2.358   7.400  2.1050  1.1897  0.9113
 4419SOL     OW24715   4.621   1.251   2.503 -0.0187 -0.4916  0.6097
 4419SOL    HW124716   4.705   1.293   2.485 -1.2936  1.4846 -0.7563
 4419SOL    HW224717   4.608   1.204   2.420  1.6736 -1.7007  1.0168
 4420SOL     OW24718   4.283   1.877   3.058  0.1303 -0.4234  0.1700
 4420SOL    HW124719   4.308   1.874   3.151 -2.4862 -0.4228  0.8763
 4420SOL    HW224720   4.293   1.972   3.045  1.4367  0.0511  4.4400
 4421SOL     OW24721   2.252   1.123  10.715 -0.7049 -0.0357  0.0239
 4421SOL    HW124722   2.305   1.165  10.647  1.4338 -0.0832  1.6898
 4421SOL    HW224723   2.302   1.046  10.742  0.8514  0.4648 -1.4407
 4422SOL     OW24724   2.306   1.717   6.126 -0.0264  0.3133 -0.2921
 4422SOL    HW124725   2.326   1.635   6.170 -0.1914  1.9346  2.7865
 4422SOL    HW224726   2.329   1.777   6.197  1.3997 -1.7025  0.9650
 4423SOL     OW24727   3.198   4.072   8.368 -0.4011 -0.1129  0.2376
 4423SOL    HW124728   3.246   4.144   8.327 -3.2837  1.7688  0.2099
 4423SOL    HW224729   3.266   4.038   8.426 -0.0820  0.0062 -0.0654
 4424SOL     OW24730   1.040   0.898   5.542 -0.0308  0.2314 -0.1168
 4424SOL    HW124731   1.024   0.804   5.530 -1.5495  0.4272  0.2778
 4424SOL    HW224732   1.000   0.915   5.627 -0.3446 -2.4668  0.2550
 4425SOL     OW24733   0.184   1.241   7.671 -0.1397 -0.4469 -0.4838
 4425SOL    HW124734   0.230   1.319   7.640  0.7121 -0.3245  1.1249
 4425SOL    HW224735   0.197   1.264   7.763 -0.4042  2.9867 -1.3066
 4426SOL     OW24736   0.747   4.717   2.077  0.0957  0.1904 -0.0187
 4426SOL    HW124737   0.694   0.036   2.007 -0.5006 -0.4574  0.0690
 4426SOL    HW224738   0.821   4.687   2.025  1.1569  2.1281  0.3644
 4427SOL     OW24739   4.109   3.004   1.554  0.1188 -0.1514 -0.1046
 4427SOL    HW124740   4.068   2.969   1.474  1.4955 -1.3646 -0.2591
 4427SOL    HW224741   4.030   2.988   1.605 -1.6520  2.9280 -1.8375
 4428SOL     OW24742   2.692   0.723  10.594  0.3897  0.3460  0.2305
 4428SOL    HW124743   2.728   0.805  10.628 -0.2522  0.9933 -0.6551
 4428SOL    HW224744   2.708   0.721  10.499  0.3559  0.4063  0.2235
 4429SOL     OW24745   3.853   2.461  11.031 -0.2744  0.2675 -0.0207
 4429SOL    HW124746   3.912   2.400  11.076 -0.3270  1.2503  1.3790
 4429SOL    HW224747   3.806   2.491  11.108  1.1365  1.8380  0.2301
 4430SOL     OW24748   3.298   4.360   5.311  0.5635  0.1022 -0.5436
 4430SOL    HW124749   3.279   4.266   5.313  0.1425  0.2078  0.3139
 4430SOL    HW224750   3.350   4.363   5.391 -0.5239  0.5333  0.1430
 4431SOL     OW24751   0.450   2.774   8.769  0.1143  0.2142 -0.3224
 4431SOL    HW124752   0.533   2.822   8.764  1.4777 -1.9369  1.2344
 4431SOL    HW224753   0.463   2.734   8.856 -0.3102  0.5639 -0.1027
 4432SOL     OW24754   1.564   1.179   9.650  0.6477  0.3788 -0.1277
 4432SOL    HW124755   1.583   1.267   9.683 -0.2404  0.9037 -1.0067
 4432SOL    HW224756   1.649   1.139   9.630 -0.3369 -1.9787  0.4252
 4433SOL     OW24757   3.077   0.164  11.607  0.4143  0.4452  0.2264
 4433SOL    HW124758   3.095   0.082  11.653  0.5409  0.6158  0.4834
 4433SOL    HW224759   3.021   0.202  11.675  0.1803 -1.7629  1.2591
 4434SOL     OW24760   3.480   2.237   7.772 -0.2347 -0.1128 -0.2228
 4434SOL    HW124761   3.391   2.202   7.776 -0.8947  1.6895  0.7281
 4434SOL    HW224762   3.512   2.217   7.859  2.1025  0.7907 -0.8765
 4435SOL     OW24763   2.506   0.047   4.743 -0.1103  0.2278 -0.0566
 4435SOL    HW124764   2.478   0.018   4.657 -1.2665  0.3841  0.2758
 4435SOL    HW224765   2.418   0.041   4.779 -0.8867  5.4317 -1.0891
 4436SOL     OW24766   0.421   2.154   8.677  0.1480  0.0340 -1.0040
 4436SOL    HW124767   0.420   2.091   8.750  0.0570  1.1769 -0.0200
 4436SOL    HW224768   0.405   2.231   8.732  1.1251  1.2168 -2.3929
 4437SOL     OW24769   3.511   0.001   5.895 -0.3204 -0.3548  0.4371
 4437SOL    HW124770   3.450   4.648   5.899  0.6181 -1.1240  0.8033
 4437SOL    HW224771   3.485   0.051   5.818  0.6801 -0.8418 -0.2266
 4438SOL     OW24772   4.321   3.052  10.810  0.1921  0.1614  0.1525
 4438SOL    HW124773   4.328   2.964  10.846  0.7329 -0.2661 -1.0007
 4438SOL    HW224774   4.397   3.064  10.752 -0.0846 -0.4450 -0.3302
 4439SOL     OW24775   1.182   1.987   4.004  0.0458  0.7293 -0.1105
 4439SOL    HW124776   1.233   1.928   3.948  1.9013  1.7761  0.4773
 4439SOL    HW224777   1.094   1.983   3.967 -0.2864  2.0717  0.5701
 4440SOL     OW24778   3.362   1.442  16.295  0.1721  0.0143 -0.6820
 4440SOL    HW124779   3.274   1.453  16.259 -0.2218  2.5800  1.0164
 4440SOL    HW224780   3.356   1.348  16.315  1.5231  0.0694 -0.0186
 4441SOL     OW24781   0.726   3.204  12.139  0.5332 -0.1610 -0.3119
 4441SOL    HW124782   0.667   3.130  12.152 -0.9324  0.9132 -0.8878
 4441SOL    HW224783   0.681   3.276  12.183 -3.5124 -2.6385 -0.4321
 4442SOL     OW24784   4.689   3.427   6.308 -0.4959 -0.1630 -0.7928
 4442SOL    HW124785   0.056   3.435   6.347 -1.9812 -0.6649  2.6388
 4442SOL    HW224786   4.713   3.359   6.245  0.2090 -1.0674  0.4686
 4443SOL     OW24787   4.464   1.841  16.742 -0.4040  0.5034  0.8463
 4443SOL    HW124788   4.523   1.767  16.759  0.4122  0.5430 -1.6761
 4443SOL    HW224789   4.481   1.890  16.822  1.0855 -0.4352  1.1223
 4444SOL     OW24790   0.674   1.971   4.883  0.5044 -0.3273 -0.6625
 4444SOL    HW124791   0.602   1.948   4.941  0.3043 -0.4088 -0.9394
 4444SOL    HW224792   0.747   1.938   4.936  0.9296  3.0445  0.8617
 4445SOL     OW24793   0.437   3.833   2.250 -0.7242 -0.0500  0.2200
 4445SOL    HW124794   0.372   3.768   2.223 -2.0218  1.1251  0.5399
 4445SOL    HW224795   0.490   3.848   2.171  1.4370 -1.2966  1.4277
 4446SOL     OW24796   0.475   3.232   8.251  0.6551 -0.1998 -0.1105
 4446SOL    HW124797   0.469   3.178   8.330 -0.9351  0.5871  0.2934
 4446SOL    HW224798   0.419   3.309   8.253  2.1350  0.8700 -0.5882
 4447SOL     OW24799   0.454   1.151   1.656  0.0843 -0.0434 -0.1775
 4447SOL    HW124800   0.396   1.166   1.731  0.9871 -0.0170  0.5176
 4447SOL    HW224801   0.525   1.211   1.679 -0.6919  0.3315  1.2405
 4448SOL     OW24802   3.540   2.052   4.568 -0.4582 -0.3352  0.5667
 4448SOL    HW124803   3.566   2.122   4.628  1.4901 -0.6161  0.0452
 4448SOL    HW224804   3.626   2.020   4.542 -1.0312 -0.9733 -0.5302
 4449SOL     OW24805   1.476   4.050   4.902 -0.7474  0.6887  0.1388
 4449SOL    HW124806   1.403   4.083   4.954 -0.0643  0.6023  1.1435
 4449SOL    HW224807   1.438   4.048   4.814 -2.1260  1.5434  0.7137
 4450SOL     OW24808   0.202   1.214   8.873  0.3409 -0.4060 -0.3898
 4450SOL    HW124809   0.266   1.268   8.918 -0.6261  0.4775 -0.0789
 4450SOL    HW224810   0.221   1.127   8.910 -0.3836 -0.5391 -0.3363
 4451SOL     OW24811   2.661   2.989  14.144 -0.0931  0.6923  0.2737
 4451SOL    HW124812   2.625   3.078  14.140 -1.5136  0.1221  0.0833
 4451SOL    HW224813   2.642   2.952  14.057  0.8108 -1.6079  1.0501
 4452SOL     OW24814   0.454   3.559   4.356  0.2427 -0.0870  0.0727
 4452SOL    HW124815   0.387   3.619   4.389  0.8744 -0.1605  1.4982
 4452SOL    HW224816   0.451   3.507   4.436  2.6637  0.4683  0.5249
 4453SOL     OW24817   1.925   4.527   0.669  0.0136  0.9060 -0.2934
 4453SOL    HW124818   1.929   4.537   0.764  2.7809  1.0801 -0.4305
 4453SOL    HW224819   1.971   4.445   0.653  0.8846  1.8982 -2.7616
 4454SOL     OW24820   1.853   3.807   0.808  0.2888 -0.2566 -0.0159
 4454SOL    HW124821   1.932   3.795   0.862  0.2406  1.4065  0.4415
 4454SOL    HW224822   1.844   3.901   0.823  0.5005  0.0641 -1.9909
 4455SOL     OW24823   0.808   0.188   7.900 -0.1799 -0.2255 -0.0658
 4455SOL    HW124824   0.873   0.167   7.833 -0.4831  2.0495 -1.0551
 4455SOL    HW224825   0.794   0.106   7.947 -0.5797  0.8172  1.6195
 4456SOL     OW24826   3.464   1.058   6.575 -0.1006 -0.2106  0.0071
 4456SOL    HW124827   3.478   0.980   6.521 -1.3812 -0.7007  0.3650
 4456SOL    HW224828   3.375   1.038   6.605 -0.0279  1.1292  1.1080
 4457SOL     OW24829   0.633   3.423   6.856  0.6991 -0.2346 -0.5490
 4457SOL    HW124830   0.568   3.373   6.807 -0.9252  1.6511 -0.3064
 4457SOL    HW224831   0.575   3.441   6.930 -0.9794  2.7939 -2.6147
 4458SOL     OW24832   3.489   4.702   4.754 -0.5303 -0.2757 -0.0327
 4458SOL    HW124833   3.560   0.026   4.708 -0.8938  0.1907 -0.1343
 4458SOL    HW224834   3.526   4.667   4.836 -1.0126  1.6668  1.0225
 4459SOL     OW24835   1.742   4.035   2.848 -0.1082 -0.2899  0.3847
 4459SOL    HW124836   1.714   3.992   2.767 -1.5062 -0.2549  0.8459
 4459SOL    HW224837   1.805   4.096   2.810 -0.7577 -0.1433 -0.4700
 4460SOL     OW24838   2.555   2.006   4.252 -0.1197 -0.2014 -0.0822
 4460SOL    HW124839   2.558   1.911   4.262  0.3327 -0.2151 -0.3292
 4460SOL    HW224840   2.617   2.019   4.180  0.5077 -0.2094  0.4561
 4461SOL     OW24841   3.909   4.561  15.980  0.4146  0.0028  0.5203
 4461SOL    HW124842   3.828   4.523  15.946  1.1452 -2.0767  1.1252
 4461SOL    HW224843   3.966   4.494  15.943  0.6229 -0.5967  1.9314
 4462SOL     OW24844   4.563   0.602  14.852  0.0005  0.2797 -0.0489
 4462SOL    HW124845   4.579   0.600  14.757 -1.0719  1.7434 -0.2685
 4462SOL    HW224846   4.639   0.561  14.893  0.7030  2.5285  0.8927
 4463SOL     OW24847   0.798   0.471   3.333  0.0669 -0.2246  0.4561
 4463SOL    HW124848   0.744   0.432   3.264 -1.5832  0.9630  1.0859
 4463SOL    HW224849   0.733   0.532   3.368 -1.5008 -1.5891 -0.0778
 4464SOL     OW24850   3.669   3.285  14.548 -0.4811 -0.2477 -0.1982
 4464SOL    HW124851   3.581   3.316  14.525 -0.6770 -2.2163 -2.0797
 4464SOL    HW224852   3.677   3.348  14.620 -3.2913 -0.9522  0.7134
 4465SOL     OW24853   1.800   1.489   3.006 -0.8734 -0.1920 -0.2086
 4465SOL    HW124854   1.863   1.509   3.075 -0.9948 -1.5362  0.3076
 4465SOL    HW224855   1.754   1.572   3.012 -0.4376 -0.0880  1.5685
 4466SOL     OW24856   1.900   2.156  10.419 -0.0856 -0.0067 -0.3471
 4466SOL    HW124857   1.961   2.187  10.352  2.7266 -2.7157  0.9433
 4466SOL    HW224858   1.821   2.188  10.375  1.4686  0.9627 -2.4376
 4467SOL     OW24859   0.465   3.921  12.282 -0.2265  0.5222  0.3177
 4467SOL    HW124860   0.454   4.008  12.320  0.6654  0.9674 -0.4383
 4467SOL    HW224861   0.557   3.917  12.307  0.7276 -1.7565 -3.6222
 4468SOL     OW24862   3.109   1.113   9.005  0.0678 -0.0140 -0.1688
 4468SOL    HW124863   3.054   1.092   9.080 -0.1154 -1.9444 -0.8291
 4468SOL    HW224864   3.068   1.060   8.937  1.2410 -1.5267  0.2937
 4469SOL     OW24865   4.038   1.139   5.106 -0.0674 -0.1304  0.6719
 4469SOL    HW124866   4.038   1.105   5.195 -0.2280  0.3820  0.8671
 4469SOL    HW224867   4.132   1.147   5.089  0.3655 -1.9833  2.3341
 4470SOL     OW24868   3.704   3.313   6.998 -0.1498  0.4577 -0.3513
 4470SOL    HW124869   3.703   3.218   6.999  1.2520  0.4463 -0.4013
 4470SOL    HW224870   3.789   3.330   6.957  0.3907 -1.8717 -0.1653
 4471SOL     OW24871   2.321   2.119   1.620 -0.0394 -0.3509  0.0219
 4471SOL    HW124872   2.302   2.183   1.552  2.1015  0.4016  0.1256
 4471SOL    HW224873   2.234   2.120   1.661  0.5340 -0.9891  1.2714
 4472SOL     OW24874   1.740   3.257   6.655 -0.0522 -0.3020 -0.0500
 4472SOL    HW124875   1.768   3.299   6.574 -0.7202  0.7698  0.2803
 4472SOL    HW224876   1.725   3.334   6.710  0.7846 -0.1922  0.0265
 4473SOL     OW24877   2.733   1.892   4.879  0.5121 -0.0345  0.4110
 4473SOL    HW124878   2.660   1.895   4.941 -1.7912 -1.7731 -2.2261
 4473SOL    HW224879   2.802   1.836   4.915  0.7404  0.4411  0.7217
 4474SOL     OW24880   2.243   1.460   3.020  0.4329  0.2824 -0.1774
 4474SOL    HW124881   2.164   1.423   2.980  1.7874 -1.7431 -0.9609
 4474SOL    HW224882   2.279   1.512   2.948  1.3854  2.4265  1.8560
 4475SOL     OW24883   4.617   3.121   4.019 -0.3003  0.1997 -0.5080
 4475SOL    HW124884   4.596   3.189   4.083  2.2360  0.9667 -0.4896
 4475SOL    HW224885   4.596   3.166   3.937  0.1664  0.5329 -0.4429
 4476SOL     OW24886   2.035   0.370   5.615  0.2389 -0.5665  0.6169
 4476SOL    HW124887   1.948   0.346   5.584  1.5126 -0.2613 -3.2145
 4476SOL    HW224888   2.046   0.460   5.583  1.0041 -0.4766  1.1367
 4477SOL     OW24889   4.539   4.634   8.138  0.5719  0.3770 -0.4628
 4477SOL    HW124890   4.606   4.649   8.204 -1.3130 -1.6775  1.9322
 4477SOL    HW224891   4.489   4.713   8.120 -0.9778 -0.3130  0.7998
 4478SOL     OW24892   2.728   1.280   6.924  0.6700 -0.0150 -0.9025
 4478SOL    HW124893   2.703   1.371   6.943  0.8567  0.1945 -1.6388
 4478SOL    HW224894   2.666   1.266   6.852  2.3939 -0.3341 -2.3025
 4479SOL     OW24895   2.335   0.062   7.823 -0.6949  0.1980 -0.7606
 4479SOL    HW124896   2.317   4.698   7.864  0.7226  0.4932  0.4611
 4479SOL    HW224897   2.374   0.109   7.897 -4.5537 -1.0946  2.0816
 4480SOL     OW24898   3.085   0.870  13.465 -0.4856 -0.1196 -0.0884
 4480SOL    HW124899   3.159   0.914  13.422  0.6829 -2.1733 -0.1541
 4480SOL    HW224900   3.021   0.885  13.395 -0.4817 -2.3384 -0.5666
 4481SOL     OW24901   2.687   3.782   7.311  0.4987 -0.3681 -0.2044
 4481SOL    HW124902   2.615   3.785   7.248  1.5780 -3.0970 -1.5764
 4481SOL    HW224903   2.675   3.869   7.348  1.0698 -0.3951  0.0488
 4482SOL     OW24904   2.032   0.562  12.267 -0.2566 -0.0750  0.4511
 4482SOL    HW124905   2.092   0.546  12.194 -2.1281  0.5268 -1.2089
 4482SOL    HW224906   2.100   0.564  12.335 -0.8553 -2.8249  1.1384
 4483SOL     OW24907   2.050   0.322  10.779 -0.1339 -0.0226  0.7340
 4483SOL    HW124908   2.068   0.304  10.871 -1.9350  3.2464  1.7169
 4483SOL    HW224909   2.028   0.234  10.748  2.7207 -0.3331 -0.4322
 4484SOL     OW24910   2.946   1.862   4.458 -0.3220  0.0622 -0.4673
 4484SOL    HW124911   2.959   1.910   4.377 -0.7080  1.9169  0.5426
 4484SOL    HW224912   2.867   1.809   4.449  1.6526 -2.7250 -1.1003
 4485SOL     OW24913   0.260   3.129   2.000 -0.6637 -0.7116 -0.0379
 4485SOL    HW124914   0.227   3.111   2.088 -1.1140  1.2989  0.1974
 4485SOL    HW224915   0.185   3.174   1.961 -0.1571  1.5776  1.6838
 4486SOL     OW24916   3.115   0.285   8.089 -0.0729  0.3351  1.0133
 4486SOL    HW124917   3.184   0.327   8.037 -1.1271  1.1743  0.2912
 4486SOL    HW224918   3.061   0.270   8.012 -1.8440 -0.3473  2.4084
 4487SOL     OW24919   3.888   0.205   1.379 -0.6197 -0.5048 -0.2218
 4487SOL    HW124920   3.817   0.237   1.435 -1.0926 -2.5870  0.3525
 4487SOL    HW224921   3.890   0.262   1.302 -0.7695  1.1911  1.0458
 4488SOL     OW24922   1.539   2.759   4.419  0.2438  0.8039 -0.0746
 4488SOL    HW124923   1.520   2.667   4.403 -2.8378  1.4658 -0.3741
 4488SOL    HW224924   1.451   2.798   4.416 -0.0486  0.0439 -1.4623
 4489SOL     OW24925   4.003   2.982   8.772 -0.4078  0.8905  0.3540
 4489SOL    HW124926   4.019   2.998   8.865  0.6617 -1.4587  0.5640
 4489SOL    HW224927   4.043   3.061   8.734  0.8741  0.6240  1.1487
 4490SOL     OW24928   2.721   1.638  13.710 -0.5086  0.3053  0.2577
 4490SOL    HW124929   2.704   1.602  13.623  1.0301 -2.8672  1.2815
 4490SOL    HW224930   2.644   1.615  13.762  0.2661 -1.0444  0.8037
 4491SOL     OW24931   3.803   2.840  11.236 -0.0165  0.3152  0.3243
 4491SOL    HW124932   3.832   2.764  11.186 -1.0310  1.6283 -2.2485
 4491SOL    HW224933   3.719   2.845  11.190 -0.4315 -0.9716  0.9340
 4492SOL     OW24934   0.597   1.472   0.507  0.3854  0.0031 -0.4440
 4492SOL    HW124935   0.589   1.557   0.464  1.7869  1.1458  1.5642
 4492SOL    HW224936   0.603   1.413   0.432 -0.1530 -0.3129 -0.2407
 4493SOL     OW24937   2.597   1.343   4.620 -0.0642 -0.2398 -0.1005
 4493SOL    HW124938   2.654   1.317   4.692 -1.2385 -2.4835  0.0047
 4493SOL    HW224939   2.604   1.438   4.625 -1.6741 -0.1608  0.6892
 4494SOL     OW24940   2.045   4.091   5.505  0.0627 -0.5221 -0.2149
 4494SOL    HW124941   2.128   4.079   5.458 -0.4024 -0.0237 -1.1508
 4494SOL    HW224942   2.007   4.017   5.458 -1.5438  1.5027 -2.0994
 4495SOL     OW24943   0.408   2.553   3.040 -0.0953  0.7521  0.1201
 4495SOL    HW124944   0.441   2.582   2.956  0.7336  1.1264  0.5764
 4495SOL    HW224945   0.480   2.555   3.103 -0.8879  0.1304  1.0721
 4496SOL     OW24946   0.278   0.753   5.940 -0.2712 -0.0216 -0.7150
 4496SOL    HW124947   0.298   0.692   6.011 -2.6892  2.1531  1.8247
 4496SOL    HW224948   0.371   0.771   5.923  0.0808 -0.8866  0.2860
 4497SOL     OW24949   2.791   0.366   2.060  0.1377 -0.1220 -0.1457
 4497SOL    HW124950   2.715   0.371   2.002  0.1591 -1.0448 -0.2503
 4497SOL    HW224951   2.745   0.333   2.138  0.5691 -2.2694 -0.7991
 4498SOL     OW24952   3.406   4.232   0.386  0.0860  0.7695  0.1349
 4498SOL    HW124953   3.433   4.256   0.474  1.9395  0.1761 -0.2838
 4498SOL    HW224954   3.320   4.192   0.397 -0.1475  0.5218 -2.5842
 4499SOL     OW24955   3.148   1.020  13.908  0.0001 -0.2218  0.0056
 4499SOL    HW124956   3.227   1.034  13.857  0.5598  0.3174  1.0394
 4499SOL    HW224957   3.116   1.110  13.917 -1.3861 -0.8151  0.9724
 4500SOL     OW24958   4.020   3.032  11.638 -0.5859 -0.4512 -0.5795
 4500SOL    HW124959   3.991   3.121  11.620  1.2732  0.3488  0.3934
 4500SOL    HW224960   4.080   3.013  11.565  1.1127  0.1949  0.6327
 4501SOL     OW24961   4.483   3.519   2.340 -0.1449 -0.2579 -0.0384
 4501SOL    HW124962   4.445   3.596   2.298  0.7767  1.1153  1.6075
 4501SOL    HW224963   4.431   3.531   2.420  1.5420  1.4514  0.8007
 4502SOL     OW24964   1.656   2.389   8.781 -0.4276  0.0584 -0.0257
 4502SOL    HW124965   1.593   2.348   8.722  0.8998 -2.4421  0.3340
 4502SOL    HW224966   1.724   2.418   8.721 -1.6647 -1.1516 -2.0219
 4503SOL     OW24967   0.109   3.939   1.202 -0.3849  0.2466 -0.0581
 4503SOL    HW124968   0.100   3.849   1.169 -3.2818  0.6775 -0.4673
 4503SOL    HW224969   0.109   3.924   1.296 -0.1906  0.6750  0.0071
 4504SOL     OW24970   3.261   4.101   3.690  0.3141 -0.1858  0.4154
 4504SOL    HW124971   3.355   4.096   3.705  0.4024  0.3550  0.0692
 4504SOL    HW224972   3.250   4.062   3.603 -1.2115  3.6577 -1.1323
 4505SOL     OW24973   4.701   1.090   9.224  0.3878  0.7701  0.3562
 4505SOL    HW124974   4.701   0.998   9.250  0.0702  0.9434  0.9776
 4505SOL    HW224975   0.075   1.092   9.208  0.8019  0.6605  2.8573
 4506SOL     OW24976   4.427   3.038  12.223  0.0318  0.3557  0.0264
 4506SOL    HW124977   4.441   3.015  12.315 -0.2271  1.5497  0.3681
 4506SOL    HW224978   4.448   3.132  12.224 -1.8497  0.7697  2.8021
 4507SOL     OW24979   1.363   3.828   4.140  0.4523 -0.3376 -0.4900
 4507SOL    HW124980   1.380   3.918   4.168 -2.6322  0.8423 -2.4304
 4507SOL    HW224981   1.269   3.838   4.132  0.6170  1.4209 -0.3149
 4508SOL     OW24982   1.773   3.316   8.601  0.5274  0.3467  0.0178
 4508SOL    HW124983   1.841   3.249   8.606 -1.8656 -2.0909 -0.0131
 4508SOL    HW224984   1.739   3.303   8.513 -0.0227 -0.5175  0.3516
 4509SOL     OW24985   4.053   0.607  13.804  0.2899  0.7197 -0.0743
 4509SOL    HW124986   4.130   0.663  13.818 -0.3918  1.7486 -0.4163
 4509SOL    HW224987   4.064   0.537  13.869  0.2619  1.9102  1.2172
 4510SOL     OW24988   4.344   3.750   2.315  0.2084 -0.1896  0.2236
 4510SOL    HW124989   4.259   3.781   2.347  1.0385  0.0060  2.2680
 4510SOL    HW224990   4.335   3.779   2.224 -0.9886 -1.4748 -0.0482
 4511SOL     OW24991   4.309   3.388   1.383  0.6927  0.0251 -0.2466
 4511SOL    HW124992   4.279   3.302   1.355 -1.7036  0.3594  1.2533
 4511SOL    HW224993   4.320   3.427   1.297  1.6868 -0.7403 -0.4579
 4512SOL     OW24994   4.511   4.140   8.009 -0.2050 -0.0200 -0.6778
 4512SOL    HW124995   4.452   4.089   8.065 -1.0243 -0.3235 -1.8122
 4512SOL    HW224996   4.455   4.217   8.015  1.5265  1.3528 -2.1313
 4513SOL     OW24997   2.895   2.931   4.987 -0.4027 -0.2616 -0.1039
 4513SOL    HW124998   2.935   2.870   4.927 -1.3714 -0.4599 -0.5497
 4513SOL    HW224999   2.935   3.008   4.947  1.4686 -2.0111 -1.5483
 4514SOL     OW25000   4.399   2.572   4.591 -0.2130 -0.0715 -0.3613
 4514SOL    HW125001   4.469   2.624   4.629  2.2311 -4.9716  1.8070
 4514SOL    HW225002   4.360   2.522   4.663 -3.0218  1.3979 -0.8603
 4515SOL     OW25003   2.563   4.497   7.020 -0.2753 -0.6857 -0.1781
 4515SOL    HW125004   2.604   4.570   6.973  1.5445  1.1628  4.3086
 4515SOL    HW225005   2.491   4.542   7.065 -0.5644 -1.9807  0.6605
 4516SOL     OW25006   2.206   1.086   6.617  0.5047 -0.4666  0.0159
 4516SOL    HW125007   2.210   0.994   6.643  0.0837 -0.5203 -0.1120
 4516SOL    HW225008   2.156   1.118   6.692 -0.0805 -2.8678  0.6743
 4517SOL     OW25009   3.835   1.313   7.850 -0.4825  0.2832  0.0337
 4517SOL    HW125010   3.777   1.385   7.873 -0.7998 -0.3396  1.1933
 4517SOL    HW225011   3.781   1.240   7.820  0.0920  0.1299 -0.6380
 4518SOL     OW25012   0.213   1.377   3.050 -0.2177  0.1302 -0.1215
 4518SOL    HW125013   0.265   1.383   2.969  0.4899 -0.6273  0.2818
 4518SOL    HW225014   0.276   1.403   3.117  0.5923 -0.9279 -0.4707
 4519SOL     OW25015   4.184   2.597   2.961  0.5678  0.3854  0.1144
 4519SOL    HW125016   4.193   2.594   3.056 -0.9894 -0.9213  0.2246
 4519SOL    HW225017   4.256   2.538   2.939 -0.3065 -0.7794  0.4358
 4520SOL     OW25018   2.806   1.438  16.516  0.3823 -0.4712 -0.2402
 4520SOL    HW125019   2.867   1.504  16.484 -2.5515  1.5584 -1.6195
 4520SOL    HW225020   2.801   1.381  16.439 -0.9884 -0.3006 -0.2603
 4521SOL     OW25021   0.984   2.499  16.853 -0.1223 -0.5236 -0.0763
 4521SOL    HW125022   1.003   2.411  16.886 -1.2150 -0.1243  1.6359
 4521SOL    HW225023   0.917   2.474  16.790 -1.9164  1.6459  0.9812
 4522SOL     OW25024   4.297   3.530   2.563 -0.2640  0.3674 -0.3911
 4522SOL    HW125025   4.230   3.589   2.597 -0.2586 -1.3945  2.6481
 4522SOL    HW225026   4.311   3.472   2.638  1.8226 -1.1036 -1.9444
 4523SOL     OW25027   3.855   3.327   2.076 -0.1241  0.1864 -0.0893
 4523SOL    HW125028   3.898   3.274   2.009  0.7155 -0.6660  1.1257
 4523SOL    HW225029   3.770   3.338   2.034  0.4203  0.4589 -1.1137
 4524SOL     OW25030   3.443   3.469   4.209 -0.0148 -0.2234  0.0698
 4524SOL    HW125031   3.390   3.429   4.140  1.4678  0.0252 -1.1943
 4524SOL    HW225032   3.370   3.499   4.263 -1.6428 -1.4122 -1.4584
 4525SOL     OW25033   0.930   3.645  16.226 -0.3783 -0.4819  0.2557
 4525SOL    HW125034   1.010   3.696  16.217  0.9087 -2.4785  0.5262
 4525SOL    HW225035   0.865   3.715  16.215 -1.9399 -2.1606 -1.1795
 4526SOL     OW25036   3.100   2.268   3.814  0.1046  0.5071  0.0366
 4526SOL    HW125037   3.163   2.321   3.764  0.2397  0.7544  0.4671
 4526SOL    HW225038   3.096   2.195   3.753 -0.2954  1.9625 -1.6961
 4527SOL     OW25039   3.610   0.414   3.236 -0.0557 -0.4448  0.3181
 4527SOL    HW125040   3.678   0.440   3.298  1.7529  0.3300 -1.9921
 4527SOL    HW225041   3.538   0.402   3.298  0.5069 -0.0605  1.0414
 4528SOL     OW25042   2.644   4.153   6.003  0.1149  0.1837  0.1179
 4528SOL    HW125043   2.589   4.145   5.925 -1.2708  2.4960  0.8479
 4528SOL    HW225044   2.672   4.244   5.994 -2.9112  1.1138 -0.2023
 4529SOL     OW25045   2.318   2.536   3.501 -0.5580  0.4227  0.3880
 4529SOL    HW125046   2.371   2.458   3.520  0.4770  0.4000 -2.5362
 4529SOL    HW225047   2.386   2.583   3.453  1.2002 -1.4188  1.0653
 4530SOL     OW25048   2.463   2.692   2.080 -0.2371  0.2774  0.1295
 4530SOL    HW125049   2.509   2.773   2.099 -0.3042  0.2209  0.5450
 4530SOL    HW225050   2.442   2.665   2.170  2.4958  1.7083  1.1832
 4531SOL     OW25051   3.575   2.602   4.664  0.0864  0.2959  0.4702
 4531SOL    HW125052   3.603   2.682   4.708 -0.0028  1.0118 -0.7872
 4531SOL    HW225053   3.573   2.539   4.737  0.2345 -0.4703 -0.1890
 4532SOL     OW25054   0.347   2.234   2.202 -0.2626  0.0743 -0.3130
 4532SOL    HW125055   0.263   2.252   2.160  0.8054  2.1602 -1.6016
 4532SOL    HW225056   0.331   2.270   2.289 -0.4144 -0.8012  0.0212
 4533SOL     OW25057   4.575   0.148   4.568  0.4586  0.0345  0.5547
 4533SOL    HW125058   4.664   0.178   4.585  0.3111 -0.4741  2.1936
 4533SOL    HW225059   4.581   0.119   4.476  1.4889  0.1263  0.5899
 4534SOL     OW25060   0.295   1.022  12.524  0.2110 -0.1573  0.4653
 4534SOL    HW125061   0.283   1.007  12.430 -2.1165 -1.2463  0.9486
 4534SOL    HW225062   0.220   1.074  12.552 -0.6258 -0.2155 -1.6764
 4535SOL     OW25063   4.587   2.594   1.444 -0.6000 -0.5680  0.2537
 4535SOL    HW125064   4.682   2.605   1.436 -0.6116 -1.3294 -0.8454
 4535SOL    HW225065   4.577   2.584   1.350 -0.4463  0.3093  0.1398
 4536SOL     OW25066   4.340   0.050  10.710 -0.1613  0.4714  0.0650
 4536SOL    HW125067   4.425   0.012  10.691 -0.0307  0.9153 -0.2240
 4536SOL    HW225068   4.290   0.011  10.638 -1.5440 -0.2358  1.3948
 4537SOL     OW25069   1.663   1.784   0.153 -0.7652  0.0451  0.0852
 4537SOL    HW125070   1.625   1.867   0.182 -0.5648  1.1997 -2.8931
 4537SOL    HW225071   1.756   1.802   0.138 -0.6788 -1.4564 -1.1420
 4538SOL     OW25072   3.873   4.478   9.092  0.4304  0.1454 -0.2955
 4538SOL    HW125073   3.920   4.417   9.034 -1.5151  0.2520 -2.0057
 4538SOL    HW225074   3.790   4.434   9.111  1.3332 -1.7647 -0.6908
 4539SOL     OW25075   3.568   1.382  11.776  0.5245 -0.1675 -0.1834
 4539SOL    HW125076   3.526   1.457  11.735 -3.2311 -0.8104  2.5257
 4539SOL    HW225077   3.524   1.313  11.727  2.1693 -1.1995 -0.2253
 4540SOL     OW25078   4.185   0.230  16.201 -0.1522  0.1087  0.0919
 4540SOL    HW125079   4.165   0.262  16.289 -1.6631  1.2636 -0.6817
 4540SOL    HW225080   4.240   0.156  16.228 -2.2212 -0.9437  1.4126
 4541SOL     OW25081   3.400   1.173  16.321 -0.2720  0.0057  0.3535
 4541SOL    HW125082   3.394   1.111  16.393  1.1523 -1.3507 -0.6827
 4541SOL    HW225083   3.323   1.141  16.273 -0.1757  1.2874 -0.6628
 4542SOL     OW25084   3.397   1.716   8.439 -0.7920 -0.0629 -0.2891
 4542SOL    HW125085   3.372   1.770   8.514 -0.3438  0.4286 -0.4956
 4542SOL    HW225086   3.310   1.710   8.399 -0.2876 -0.1790 -1.3764
 4543SOL     OW25087   0.597   3.955   7.493 -0.2172 -0.0293 -0.0725
 4543SOL    HW125088   0.687   3.923   7.489 -0.1944 -0.2894  2.3136
 4543SOL    HW225089   0.599   4.019   7.422  1.2702 -0.1748 -0.1663
 4544SOL     OW25090   2.811   0.368   6.801 -0.1210 -0.2909 -0.3016
 4544SOL    HW125091   2.905   0.363   6.784 -0.2598  1.1605 -1.4027
 4544SOL    HW225092   2.804   0.350   6.895  1.1584  1.2038  0.0816
 4545SOL     OW25093   3.256   1.125   0.786  0.3701 -0.2092  1.3093
 4545SOL    HW125094   3.231   1.107   0.696 -0.2381 -3.4013  2.1212
 4545SOL    HW225095   3.336   1.074   0.782  1.0688  0.7875  2.3985
 4546SOL     OW25096   2.800   3.592   9.767 -0.1657  0.1537  0.3281
 4546SOL    HW125097   2.826   3.612   9.677 -0.4256 -2.3968 -0.3161
 4546SOL    HW225098   2.854   3.514   9.779  1.4476  0.9993 -1.3935
 4547SOL     OW25099   2.899   4.610   1.634  0.1163 -0.5542 -0.1992
 4547SOL    HW125100   2.878   4.616   1.728 -1.5854  0.2440 -0.6243
 4547SOL    HW225101   2.976   4.666   1.622  0.8432 -1.7926 -1.2796
 4548SOL     OW25102   0.054   0.598  16.254 -0.0964  0.4277  0.0740
 4548SOL    HW125103   0.144   0.597  16.285 -0.7036  0.6997  1.8488
 4548SOL    HW225104   0.057   0.611  16.159 -1.0423  0.9020  0.1066
 4549SOL     OW25105   3.449   4.359   4.339 -0.6080 -0.2776 -0.4532
 4549SOL    HW125106   3.364   4.338   4.300 -0.2739 -1.9612 -0.2780
 4549SOL    HW225107   3.501   4.382   4.262  0.2756 -0.8257 -0.0196
 4550SOL     OW25108   0.461   3.129  16.558 -0.3950  0.3978 -0.1235
 4550SOL    HW125109   0.533   3.177  16.517 -0.7519  1.7238  0.8384
 4550SOL    HW225110   0.464   3.164  16.647  1.3808 -2.5798  1.0280
 4551SOL     OW25111   0.540   3.393   7.854 -0.3948  0.3148 -0.4188
 4551SOL    HW125112   0.516   3.315   7.805 -0.9245 -0.3070  0.8485
 4551SOL    HW225113   0.491   3.380   7.935  1.4411  1.4679  0.8807
 4552SOL     OW25114   0.822   3.415   7.847  0.3286  0.1104  0.1879
 4552SOL    HW125115   0.726   3.411   7.846  0.2919  0.1870  2.3272
 4552SOL    HW225116   0.840   3.321   7.852  2.5075  0.5351  0.4079
 4553SOL     OW25117   3.294   4.506  16.561  0.0269  0.8271 -0.2431
 4553SOL    HW125118   3.310   4.597  16.584  0.6845  0.0756  2.2423
 4553SOL    HW225119   3.262   4.469  16.643  0.2064  0.3387 -0.3911
 4554SOL     OW25120   4.008   0.956   2.741  0.0357  0.5458 -0.0478
 4554SOL    HW125121   4.067   0.885   2.718  1.0898  1.5678 -0.5218
 4554SOL    HW225122   4.057   0.988   2.817 -0.0283 -2.1264  1.1201
 4555SOL     OW25123   3.143   3.518   4.719 -0.6748  0.4970 -0.1811
 4555SOL    HW125124   3.076   3.529   4.652  0.9186 -0.2896 -1.8917
 4555SOL    HW225125   3.080   3.489   4.785 -2.3935  2.2556 -1.0407
 4556SOL     OW25126   4.435   0.547   6.906  0.2314  0.1823  0.0591
 4556SOL    HW125127   4.510   0.503   6.868 -1.1223  0.1775 -2.5607
 4556SOL    HW225128   4.413   0.480   6.972  1.0386 -0.4987 -0.3692
 4557SOL     OW25129   3.209   0.569   9.729 -0.2168 -0.4444  0.2883
 4557SOL    HW125130   3.275   0.530   9.787  0.7572 -0.5803 -0.9130
 4557SOL    HW225131   3.141   0.597   9.791  1.6097 -0.5180  2.3509
 4558SOL     OW25132   4.265   0.413   5.697 -0.0935 -0.0634 -0.1953
 4558SOL    HW125133   4.173   0.420   5.672 -0.3888 -1.6910  0.4364
 4558SOL    HW225134   4.303   0.381   5.615  0.7636  0.3244  0.0559
 4559SOL     OW25135   3.200   3.661  15.400 -0.5495  0.3259  0.0649
 4559SOL    HW125136   3.159   3.743  15.427  1.8078  1.3726  0.4812
 4559SOL    HW225137   3.136   3.612  15.349  0.8745 -0.2149 -1.1891
 4560SOL     OW25138   1.972   0.923   5.672  0.1117 -0.2220  0.0674
 4560SOL    HW125139   1.895   0.970   5.704  1.0420  0.5176  1.1883
 4560SOL    HW225140   1.923   0.878   5.603 -0.0296  0.6971 -0.4248
 4561SOL     OW25141   0.272   3.122   2.448 -0.1272  0.0765  0.2306
 4561SOL    HW125142   0.239   3.056   2.510 -1.2569  1.5894  1.2485
 4561SOL    HW225143   0.307   3.192   2.503  2.7370 -1.6466  0.5747
 4562SOL     OW25144   3.892   4.456   6.170 -0.6496 -0.0913 -0.1801
 4562SOL    HW125145   3.847   4.538   6.192 -0.6230  0.4673 -2.1327
 4562SOL    HW225146   3.816   4.399   6.165 -1.2095  0.6348  0.0386
 4563SOL     OW25147   1.174   0.010  14.748 -0.8496 -0.1712 -0.6938
 4563SOL    HW125148   1.269   0.013  14.760 -1.2481  1.1215  2.3201
 4563SOL    HW225149   1.161   4.647  14.703  0.1891 -1.3223  1.1249
 4564SOL     OW25150   0.033   3.827   9.104  0.5805 -0.0579  0.1034
 4564SOL    HW125151   0.013   3.789   9.189  0.4956  2.2158  1.1044
 4564SOL    HW225152   4.719   3.752   9.055  1.0494  0.3069 -0.7941
 4565SOL     OW25153   2.110   1.021  15.922  0.2641 -0.1294  0.1274
 4565SOL    HW125154   2.026   0.982  15.947  0.4493  0.6835  2.0287
 4565SOL    HW225155   2.111   1.014  15.827  0.0412  0.6447  0.0690
 4566SOL     OW25156   0.395   0.228   3.235 -0.7117  0.4488  0.2057
 4566SOL    HW125157   0.426   0.161   3.295 -2.6052 -0.1221  0.5197
 4566SOL    HW225158   0.317   0.186   3.199 -1.7642  1.0718  1.7584
 4567SOL     OW25159   0.791   3.921   6.205 -0.5130  0.5037 -0.0192
 4567SOL    HW125160   0.758   3.927   6.116  0.0681 -3.5118 -0.5376
 4567SOL    HW225161   0.727   3.857   6.237  1.6655 -1.9777 -0.5336
 4568SOL     OW25162   0.010   1.654   6.093  0.3634 -0.4675  0.3044
 4568SOL    HW125163   4.664   1.618   6.034  0.5153  1.9613 -1.3748
 4568SOL    HW225164   4.691   1.622   6.174 -3.2199 -0.8931 -1.6234
 4569SOL     OW25165   3.568   1.521   3.526  0.0215 -0.1671  0.5021
 4569SOL    HW125166   3.547   1.592   3.586  0.9650 -0.2986  0.9825
 4569SOL    HW225167   3.648   1.547   3.481 -1.1562  0.6702 -1.1090
 4570SOL     OW25168   1.168   2.662  16.021  0.2490  0.6554 -0.4412
 4570SOL    HW125169   1.214   2.629  15.943  0.3222 -0.7398  0.1936
 4570SOL    HW225170   1.153   2.581  16.069 -1.5147  2.2814  1.7345
 4571SOL     OW25171   3.135   3.404   7.572 -0.5341  0.8125 -0.3003
 4571SOL    HW125172   3.187   3.479   7.601  0.4263  0.5633 -1.3500
 4571SOL    HW225173   3.199   3.368   7.510 -0.2036  0.4970  0.2301
 4572SOL     OW25174   0.373   4.397  12.752 -0.1324 -0.4397  0.0242
 4572SOL    HW125175   0.364   4.359  12.665 -1.0659  2.0321 -0.9443
 4572SOL    HW225176   0.391   4.491  12.744 -1.5384 -0.1314  0.6165
 4573SOL     OW25177   0.672   2.480  10.601 -0.9222  0.6259 -0.1676
 4573SOL    HW125178   0.764   2.474  10.575 -1.0843 -0.1842 -0.5309
 4573SOL    HW225179   0.684   2.569  10.634  2.4723 -0.4384  1.4579
 4574SOL     OW25180   1.038   0.989  17.198 -0.3541 -0.0163  0.1563
 4574SOL    HW125181   1.127   1.016  17.218 -0.1870 -0.5602  0.1497
 4574SOL    HW225182   1.054   0.898  17.173  0.4313  0.3663 -0.7165
 4575SOL     OW25183   3.201   1.756   6.631 -0.0818 -0.2327 -0.2379
 4575SOL    HW125184   3.219   1.850   6.635  1.1301 -0.5009  0.4452
 4575SOL    HW225185   3.122   1.748   6.577 -0.5782 -1.0984  0.6355
 4576SOL     OW25186   1.239   1.895   8.988  0.2190  0.2053  0.1319
 4576SOL    HW125187   1.277   1.949   8.918  1.0237 -0.5878 -0.0427
 4576SOL    HW225188   1.153   1.934   9.002  0.5585  0.0564  2.6412
 4577SOL     OW25189   2.339   1.348   1.241 -0.5083  0.5968 -0.4763
 4577SOL    HW125190   2.322   1.292   1.165  3.2165  1.4489 -1.9263
 4577SOL    HW225191   2.385   1.275   1.283 -1.3386 -0.9625 -2.2537
 4578SOL     OW25192   1.960   0.204  13.972 -0.2290  0.2220  0.0368
 4578SOL    HW125193   1.973   0.162  14.057 -1.1712 -2.2517 -1.0252
 4578SOL    HW225194   1.912   0.129  13.936  2.3816 -1.9634  1.0591
 4579SOL     OW25195   4.210   4.715   0.647  0.0223  0.1567  0.2867
 4579SOL    HW125196   4.119   4.683   0.648  0.3767 -0.7131  3.7343
 4579SOL    HW225197   4.256   4.633   0.632  1.2801  0.9432 -0.1428
 4580SOL     OW25198   4.533   3.393   9.784  0.1258  1.0009  0.4495
 4580SOL    HW125199   4.488   3.335   9.723  3.4730 -1.6878  0.5438
 4580SOL    HW225200   4.508   3.354   9.867  1.7644 -1.3429 -0.1545
 4581SOL     OW25201   3.411   2.005   3.066  0.1509  0.3308 -0.1882
 4581SOL    HW125202   3.339   1.941   3.060  1.9638 -1.7774  0.4826
 4581SOL    HW225203   3.361   2.085   3.084 -1.2612 -0.9914  1.8217
 4582SOL     OW25204   2.975   0.997  16.322 -0.4374  0.3988  0.0495
 4582SOL    HW125205   2.950   0.924  16.378 -1.9575  1.0897  0.2547
 4582SOL    HW225206   2.993   0.962  16.234  3.1662 -0.7302  1.2044
 4583SOL     OW25207   4.551   3.777   7.569 -0.5315  0.0459 -0.0654
 4583SOL    HW125208   4.464   3.739   7.581 -0.1512 -0.8871 -0.2444
 4583SOL    HW225209   4.581   3.775   7.660  0.9103  0.9820 -0.5302
 4584SOL     OW25210   3.159   4.150   3.952  0.6660 -0.4585 -0.8389
 4584SOL    HW125211   3.116   4.080   3.904 -1.9223  1.1186 -0.7775
 4584SOL    HW225212   3.234   4.158   3.893  0.0351  1.8951 -1.3209
 4585SOL     OW25213   4.140   0.919  16.495 -0.6597 -0.0619  0.4799
 4585SOL    HW125214   4.205   0.849  16.484 -0.9586 -0.2175 -0.2850
 4585SOL    HW225215   4.200   0.992  16.507 -0.7457 -0.1601  1.5976
 4586SOL     OW25216   2.690   4.304   2.988 -0.5064 -0.2441  0.1983
 4586SOL    HW125217   2.781   4.329   3.002 -0.3087 -1.0677  0.3845
 4586SOL    HW225218   2.667   4.361   2.915 -0.0145  0.0974  0.3109
 4587SOL     OW25219   3.012   2.739   1.021  0.1973 -0.5376 -0.4651
 4587SOL    HW125220   2.965   2.747   0.938 -0.0007 -2.9190 -0.5870
 4587SOL    HW225221   2.984   2.817   1.070 -2.3182 -0.8171 -1.4397
 4588SOL     OW25222   1.063   3.148   6.042  0.2779 -0.1950 -0.5761
 4588SOL    HW125223   1.107   3.143   5.957 -0.9590  0.1173 -1.2339
 4588SOL    HW225224   1.022   3.062   6.036  3.6352 -1.7626 -0.9195
 4589SOL     OW25225   4.129   4.185  11.607  0.2910 -0.1179  0.0821
 4589SOL    HW125226   4.089   4.238  11.676  0.2931  0.0855 -0.0721
 4589SOL    HW225227   4.157   4.107  11.654 -0.5553 -2.7272 -3.7565
 4590SOL     OW25228   3.112   1.403   6.124  0.4333 -0.2606 -0.3613
 4590SOL    HW125229   3.144   1.316   6.099 -0.0982 -0.6155  0.1996
 4590SOL    HW225230   3.027   1.410   6.081  0.3229 -0.5973 -0.1966
 4591SOL     OW25231   0.730   2.156   4.652 -0.1598  0.0153  0.1300
 4591SOL    HW125232   0.731   2.232   4.710 -0.3362  0.8490 -0.9525
 4591SOL    HW225233   0.718   2.094   4.724  2.9208 -0.6117  0.1031
 4592SOL     OW25234   2.265   0.827   4.176  0.0330  0.3009  0.3451
 4592SOL    HW125235   2.234   0.836   4.266  0.3079  0.0183  0.4701
 4592SOL    HW225236   2.182   0.806   4.133  0.3112 -1.5739  0.7161
 4593SOL     OW25237   3.203   2.746   5.476 -0.3318 -0.2749 -0.0481
 4593SOL    HW125238   3.237   2.831   5.506  1.7080 -2.1745  3.0185
 4593SOL    HW225239   3.247   2.737   5.392  1.8541  0.3035  1.0252
 4594SOL     OW25240   0.209   2.296   4.510  0.3737 -0.1490 -0.4652
 4594SOL    HW125241   0.255   2.356   4.451  0.3917  0.1470 -0.1529
 4594SOL    HW225242   0.270   2.222   4.511  1.1794  0.5157 -0.3053
 4595SOL     OW25243   0.711   1.141  10.787 -0.3867  0.9771 -0.2033
 4595SOL    HW125244   0.682   1.118  10.875 -0.8249 -2.4553 -1.2691
 4595SOL    HW225245   0.666   1.072  10.739 -0.8191  1.0190  0.1444
 4596SOL     OW25246   1.181   1.364  10.781  0.3839  0.0726 -0.3211
 4596SOL    HW125247   1.128   1.296  10.822 -2.0805  1.0754 -1.8211
 4596SOL    HW225248   1.139   1.378  10.695  0.8975 -0.3309 -0.6325
 4597SOL     OW25249   3.913   0.542   6.207  0.6347 -0.0768 -0.5085
 4597SOL    HW125250   4.001   0.558   6.173  0.9131 -0.5336  0.0114
 4597SOL    HW225251   3.872   0.627   6.225  0.0829 -0.3465 -0.4764
 4598SOL     OW25252   4.047   4.388   5.624  0.0401 -0.2649 -0.4601
 4598SOL    HW125253   4.045   4.458   5.690 -2.7890  1.6661 -2.6322
 4598SOL    HW225254   4.097   4.320   5.670  0.0541  0.5113  0.6792
 4599SOL     OW25255   4.563   4.167   0.500  0.0636  0.2543 -0.1806
 4599SOL    HW125256   4.521   4.109   0.437  0.5238 -3.6744  3.1083
 4599SOL    HW225257   4.487   4.175   0.557  0.1486 -0.5225  0.0437
 4600SOL     OW25258   3.424   1.429   8.822 -0.1046 -0.2115  0.3585
 4600SOL    HW125259   3.513   1.394   8.826 -0.8287 -2.0709  0.2981
 4600SOL    HW225260   3.405   1.425   8.728  1.2295 -2.1802  0.1638
 4601SOL     OW25261   0.713   3.297   3.302 -0.0339  0.4247 -0.3833
 4601SOL    HW125262   0.746   3.382   3.272  2.1936 -0.6250 -0.8678
 4601SOL    HW225263   0.738   3.290   3.394 -0.3833  0.7010 -0.2659
 4602SOL     OW25264   3.846   0.491   2.095 -0.7600  0.4277  0.2851
 4602SOL    HW125265   3.818   0.566   2.044 -1.2221 -0.8775 -1.3594
 4602SOL    HW225266   3.932   0.461   2.064 -1.4672 -1.2881 -0.0088
 4603SOL     OW25267   2.246   3.675   6.477 -0.5384  0.0262  0.1207
 4603SOL    HW125268   2.189   3.631   6.414  1.8713 -0.7747 -1.4907
 4603SOL    HW225269   2.238   3.760   6.434  0.5483 -0.7545 -1.6084
 4604SOL     OW25270   2.429   0.179   7.131  0.1640  0.3835  0.1864
 4604SOL    HW125271   2.361   0.244   7.111  0.3009  0.7716  0.9892
 4604SOL    HW225272   2.498   0.240   7.156  1.3064 -1.0207  0.4327
 4605SOL     OW25273   1.937   3.506   2.280 -0.1317 -0.0641 -0.1398
 4605SOL    HW125274   1.919   3.516   2.373  0.8353  0.2968  0.0039
 4605SOL    HW225275   2.032   3.513   2.269 -0.1782  0.7392 -0.0599
 4606SOL     OW25276   0.911   4.585   3.393 -0.2014 -0.0506 -0.7063
 4606SOL    HW125277   0.853   4.643   3.344 -0.3084  2.5653  2.5021
 4606SOL    HW225278   0.995   4.594   3.348 -0.8062 -1.7042 -2.1491
 4607SOL     OW25279   2.006   4.683   5.559  0.1490 -0.4824 -0.1698
 4607SOL    HW125280   2.026   4.672   5.652 -1.5478  1.2976  0.4149
 4607SOL    HW225281   2.043   4.602   5.524  0.0687 -1.0358  1.0163
 4608SOL     OW25282   3.788   4.203   3.199 -0.2830  0.6390  0.3839
 4608SOL    HW125283   3.739   4.234   3.275 -1.6939 -2.2407  0.6549
 4608SOL    HW225284   3.807   4.114   3.226 -0.6733  1.4606  3.3098
 4609SOL     OW25285   0.397   0.794  12.990 -0.4264 -0.5006 -0.4887
 4609SOL    HW125286   0.384   0.852  12.915 -1.4323 -2.1311 -1.5752
 4609SOL    HW225287   0.438   0.855  13.051  0.9908 -3.0767  1.1212
 4610SOL     OW25288   1.332   0.869  15.973 -0.0961 -0.0965  1.0894
 4610SOL    HW125289   1.262   0.841  16.031 -0.6500 -0.4986  0.2225
 4610SOL    HW225290   1.382   0.932  16.025 -0.4338  1.0080  0.0741
 4611SOL     OW25291   0.612   3.793   2.038 -0.1917  0.0102 -0.5382
 4611SOL    HW125292   0.663   3.868   2.008  0.2454  0.6092  1.7024
 4611SOL    HW225293   0.678   3.735   2.074 -1.9449 -1.4039  0.4144
 4612SOL     OW25294   1.590   0.598   4.383  0.0400  0.6811 -0.2341
 4612SOL    HW125295   1.615   0.586   4.292  2.5105 -1.6794  0.7609
 4612SOL    HW225296   1.666   0.650   4.408 -1.1480  1.6385  1.4429
 4613SOL     OW25297   1.447   2.582   9.028  0.4306 -0.0277 -0.4787
 4613SOL    HW125298   1.489   2.542   9.104  2.3521 -0.4494 -1.7695
 4613SOL    HW225299   1.475   2.673   9.041  0.0001  0.0311  0.0091
 4614SOL     OW25300   0.750   2.131   2.409  0.1483 -0.0134 -0.6056
 4614SOL    HW125301   0.661   2.100   2.424 -1.2356  4.5798  0.9526
 4614SOL    HW225302   0.766   2.076   2.332  2.0511 -0.1745 -0.0823
 4615SOL     OW25303   0.962   0.277   4.445  0.0733  0.4506  0.1626
 4615SOL    HW125304   1.024   0.258   4.515 -0.0268  2.0653  0.6826
 4615SOL    HW225305   1.015   0.282   4.365  1.4405  1.9971  1.1532
 4616SOL     OW25306   0.731   1.841   2.757 -0.1740  0.0929 -0.3311
 4616SOL    HW125307   0.807   1.796   2.793 -1.1432 -0.1653  1.4173
 4616SOL    HW225308   0.764   1.931   2.766  1.4728 -0.4225 -1.3308
 4617SOL     OW25309   0.815   4.139   3.160 -0.6121  0.2032 -0.1826
 4617SOL    HW125310   0.873   4.206   3.197  0.6370 -1.5196  0.9901
 4617SOL    HW225311   0.740   4.184   3.120 -0.5057  0.1403 -0.4532
 4618SOL     OW25312   3.539   0.926   3.836  0.0666 -0.0540 -0.4131
 4618SOL    HW125313   3.483   0.852   3.861  0.1980  0.0276  0.1268
 4618SOL    HW225314   3.514   0.940   3.745  0.0222  0.8456 -0.2626
 4619SOL     OW25315   1.434   4.106  13.929 -0.0161 -0.1951 -0.4090
 4619SOL    HW125316   1.451   4.195  13.897 -2.6713 -0.8472 -3.6072
 4619SOL    HW225317   1.513   4.060  13.900 -0.0517  0.4317 -1.4916
 4620SOL     OW25318   0.455   4.238   8.580  0.4437 -0.4714  0.1103
 4620SOL    HW125319   0.369   4.235   8.537 -0.6216  0.2328  2.2045
 4620SOL    HW225320   0.440   4.275   8.667 -2.0126 -1.3358  0.0610
 4621SOL     OW25321   0.136   4.636  17.225 -0.4081  0.1809  0.3272
 4621SOL    HW125322   0.137   4.582  17.146 -2.6405  0.1637  0.3202
 4621SOL    HW225323   0.226   4.627  17.259 -1.8696 -2.6763  3.4773
 4622SOL     OW25324   0.121   3.678   6.557 -0.2385 -0.2825  0.0100
 4622SOL    HW125325   0.028   3.702   6.562 -0.0468  0.7432 -1.4994
 4622SOL    HW225326   0.166   3.757   6.527  1.3600 -1.3848 -0.4284
 4623SOL     OW25327   3.596   2.467   3.057 -0.5337 -0.0820 -0.3220
 4623SOL    HW125328   3.685   2.433   3.064  0.4532  1.9591 -2.7587
 4623SOL    HW225329   3.618   2.561   3.058 -1.0539  0.0377 -0.3104
 4624SOL     OW25330   2.318   0.563   8.753 -0.3493 -0.0022  0.6732
 4624SOL    HW125331   2.309   0.561   8.658 -0.3359  2.3028  0.6127
 4624SOL    HW225332   2.237   0.516   8.772  0.2353 -1.0513  0.5683
 4625SOL     OW25333   2.958   0.937  12.358  0.0464  0.3191  0.0630
 4625SOL    HW125334   2.913   0.931  12.442 -1.8375  0.5548 -0.9164
 4625SOL    HW225335   3.051   0.954  12.373 -0.5649 -0.0386  4.0703
 4626SOL     OW25336   2.698   2.531  16.895  0.4900 -0.1879  0.0620
 4626SOL    HW125337   2.732   2.492  16.815  1.6303  1.9391 -0.4919
 4626SOL    HW225338   2.684   2.452  16.947  1.3816 -0.4137 -0.0368
 4627SOL     OW25339   2.717   0.881   5.922 -0.2738 -0.4474  0.1140
 4627SOL    HW125340   2.705   0.806   5.863 -1.8452 -1.0841  1.2299
 4627SOL    HW225341   2.728   0.835   6.006 -0.4203  1.9543  1.4595
 4628SOL     OW25342   4.511   1.563  10.244  0.0238 -0.3119  0.4473
 4628SOL    HW125343   4.445   1.607  10.190  0.6998 -0.8077 -0.7830
 4628SOL    HW225344   4.570   1.636  10.262 -0.6918  0.2117  0.6728
 4629SOL     OW25345   1.298   0.808   5.541  0.3803 -0.1254  0.6130
 4629SOL    HW125346   1.315   0.829   5.449  1.0434  0.0477  0.7725
 4629SOL    HW225347   1.207   0.837   5.555  0.8071  1.1558  0.7633
 4630SOL     OW25348   2.831   1.413   7.806 -0.7384 -0.4469  0.2243
 4630SOL    HW125349   2.838   1.355   7.729  1.6370 -0.3007  0.3483
 4630SOL    HW225350   2.854   1.499   7.771  0.4675 -0.8175  0.0984
 4631SOL     OW25351   3.547   0.998   1.600  0.4946 -0.1310  0.0569
 4631SOL    HW125352   3.458   1.001   1.636  1.0226 -0.4526  1.3562
 4631SOL    HW225353   3.595   0.948   1.665  0.3581  0.0715  0.3110
 4632SOL     OW25354   1.636   0.247   7.906 -0.1712  0.4876  0.0210
 4632SOL    HW125355   1.542   0.267   7.900 -0.0261  1.0883 -0.2541
 4632SOL    HW225356   1.646   0.181   7.974 -3.2253  0.4031  0.3860
 4633SOL     OW25357   1.762   0.027   6.201 -0.7712  0.0055 -0.0249
 4633SOL    HW125358   1.738   0.119   6.195  1.9472  0.5910 -1.8906
 4633SOL    HW225359   1.754   4.715   6.112  1.0539 -1.2127  0.2455
 4634SOL     OW25360   4.697   0.754  17.063  0.0394  0.5279  0.4141
 4634SOL    HW125361   4.702   0.849  17.054  0.2230  0.2948 -1.8172
 4634SOL    HW225362   0.050   0.730  17.006 -0.5365 -1.3347  0.4777
 4635SOL     OW25363   0.443   2.822  12.970  0.3334  0.1342 -0.0404
 4635SOL    HW125364   0.488   2.744  12.939 -1.5132 -1.1598  0.5384
 4635SOL    HW225365   0.359   2.818  12.923 -0.5161  1.1983  1.3879
 4636SOL     OW25366   1.482   2.203   8.257  0.0818  0.2809 -0.1192
 4636SOL    HW125367   1.388   2.211   8.239  0.0403  2.2672  1.0203
 4636SOL    HW225368   1.496   2.108   8.249 -3.7128 -0.2666 -0.4503
 4637SOL     OW25369   3.617   3.202   7.468  0.0850 -0.6116 -0.1340
 4637SOL    HW125370   3.568   3.131   7.427  1.4222 -0.7769 -1.4259
 4637SOL    HW225371   3.633   3.259   7.393 -0.7571  0.5957  0.6061
 4638SOL     OW25372   2.428   4.116   2.300 -0.8702  0.4868 -0.3928
 4638SOL    HW125373   2.344   4.093   2.259 -2.6105  0.3337  3.2753
 4638SOL    HW225374   2.403   4.125   2.392 -0.9071  1.0927 -0.4631
 4639SOL     OW25375   4.298   3.719   1.743 -0.5190 -0.2933 -0.1123
 4639SOL    HW125376   4.347   3.686   1.668  1.0823 -1.4867  1.4528
 4639SOL    HW225377   4.359   3.785   1.777 -1.0901  0.3992 -0.4205
 4640SOL     OW25378   4.054   0.802   1.324 -0.0403  0.4236  0.6994
 4640SOL    HW125379   4.125   0.739   1.320  0.1999  0.7016  0.6033
 4640SOL    HW225380   4.020   0.789   1.412 -2.1021 -1.2951 -0.3613
 4641SOL     OW25381   0.245   0.144   9.389  0.8832 -0.3461  0.4054
 4641SOL    HW125382   0.287   0.134   9.304 -1.0788  0.3675 -0.6300
 4641SOL    HW225383   0.323   0.132   9.444  2.1222  0.2171 -1.2463
 4642SOL     OW25384   0.301   2.863   4.020 -0.0464 -0.1130  0.3775
 4642SOL    HW125385   0.225   2.815   3.986  1.0081 -3.0393  2.1693
 4642SOL    HW225386   0.339   2.915   3.949  0.6886  2.1865  2.4367
 4643SOL     OW25387   1.575   4.061   1.785 -0.4749 -0.4685  0.3220
 4643SOL    HW125388   1.602   4.038   1.874  0.4201 -0.4721  0.0479
 4643SOL    HW225389   1.484   4.036   1.803 -0.6966  0.3515  0.3605
 4644SOL     OW25390   2.388   0.262   1.858 -0.1906 -0.2734  0.2236
 4644SOL    HW125391   2.357   0.247   1.769  1.9439 -0.6636 -0.4682
 4644SOL    HW225392   2.324   0.327   1.886 -0.7786 -0.3820 -0.8828
 4645SOL     OW25393   2.400   1.497  10.536  0.3899  0.4129  0.3005
 4645SOL    HW125394   2.410   1.575  10.481 -0.4074  0.8396  0.7683
 4645SOL    HW225395   2.480   1.502  10.588  1.4132 -2.6898 -1.0001
 4646SOL     OW25396   0.725   3.978   1.780 -0.3128  0.0024  0.1477
 4646SOL    HW125397   0.801   3.921   1.775 -0.4372  0.0487 -2.4260
 4646SOL    HW225398   0.758   4.064   1.805 -0.0321 -0.1953  0.4507
 4647SOL     OW25399   0.448   2.868   5.676 -0.2002  0.1770  0.1680
 4647SOL    HW125400   0.394   2.947   5.680  1.0891  1.1401 -1.5033
 4647SOL    HW225401   0.514   2.883   5.743 -0.7390  3.5691 -0.0612
 4648SOL     OW25402   0.343   0.584   1.898 -0.3394 -0.4121 -0.4333
 4648SOL    HW125403   0.435   0.605   1.909 -0.3023  0.0741 -1.6676
 4648SOL    HW225404   0.340   0.491   1.873  1.2287 -0.8267  0.9408
 4649SOL     OW25405   4.516   3.455  14.262 -0.0068  0.0391  0.1918
 4649SOL    HW125406   4.588   3.424  14.207  0.4574 -0.7739  1.2524
 4649SOL    HW225407   4.507   3.390  14.331 -1.3945 -0.3946 -0.4160
 4650SOL     OW25408   0.946   3.878  12.785  0.2437  0.4661  0.1244
 4650SOL    HW125409   1.016   3.828  12.825  0.0348 -0.4165 -0.6332
 4650SOL    HW225410   0.998   3.904  12.709  1.6934 -0.0148  0.9593
 4651SOL     OW25411   1.881   1.457  12.440 -0.7177 -0.8030  0.8110
 4651SOL    HW125412   1.911   1.540  12.476  1.1025 -0.1571 -2.2481
 4651SOL    HW225413   1.952   1.397  12.463 -0.9698 -0.9373  1.2510
 4652SOL     OW25414   1.546   1.246   8.790  0.0221  0.2214  0.2167
 4652SOL    HW125415   1.515   1.335   8.776 -0.5403  0.2042  1.3710
 4652SOL    HW225416   1.633   1.251   8.749  0.0061  3.7092  0.6661
 4653SOL     OW25417   4.583   3.883  14.999 -0.3622 -0.1697 -0.2760
 4653SOL    HW125418   4.524   3.852  14.930 -0.3035 -0.2346 -0.2970
 4653SOL    HW225419   4.620   3.804  15.039  2.0061  2.0856  1.8835
 4654SOL     OW25420   1.028   4.625   1.338 -0.0578 -0.3085  0.1569
 4654SOL    HW125421   1.078   4.570   1.278  0.6059 -0.3161  0.7157
 4654SOL    HW225422   0.946   4.614   1.290  0.6744 -0.9308 -0.9442
 4655SOL     OW25423   3.185   0.782   8.722 -0.5461  0.0388 -0.1213
 4655SOL    HW125424   3.203   0.696   8.683 -0.5632 -0.2098  0.4114
 4655SOL    HW225425   3.265   0.825   8.691  0.4499 -1.7719 -0.0666
 4656SOL     OW25426   2.589   0.646  13.094  0.0504  0.7184 -0.5234
 4656SOL    HW125427   2.662   0.630  13.154 -0.0007  0.4578 -0.5299
 4656SOL    HW225428   2.564   0.558  13.065 -2.3835  0.4925  2.3472
 4657SOL     OW25429   1.876   2.498   1.553 -0.2476 -0.5382  0.0220
 4657SOL    HW125430   1.860   2.586   1.518  1.6020 -0.2468 -0.0782
 4657SOL    HW225431   1.864   2.509   1.647 -0.9282  0.0018 -0.1351
 4658SOL     OW25432   2.696   2.405   2.391  0.1436 -0.3165 -0.1683
 4658SOL    HW125433   2.668   2.411   2.482 -0.9024  1.2291 -0.5897
 4658SOL    HW225434   2.634   2.345   2.350  0.5771 -1.7291  1.2446
 4659SOL     OW25435   0.194   0.185   1.251 -0.4148  0.3987 -0.1727
 4659SOL    HW125436   0.284   0.160   1.228  0.2730 -1.7467  4.7339
 4659SOL    HW225437   0.157   0.100   1.227  1.3141 -0.8223  1.4469
 4660SOL     OW25438   4.511   3.064   3.449 -0.6948  0.4171  0.1245
 4660SOL    HW125439   4.545   3.106   3.370  1.5390  1.2058  1.4990
 4660SOL    HW225440   4.438   3.120   3.475 -0.9262 -0.0380  0.4653
 4661SOL     OW25441   1.468   3.366   8.315 -0.3768 -0.2434 -0.2868
 4661SOL    HW125442   1.473   3.447   8.264  1.2574  0.4821  1.0095
 4661SOL    HW225443   1.561   3.347   8.303 -0.0245  0.9377  0.4999
 4662SOL     OW25444   0.420   3.219   5.212  0.0517 -0.5523 -0.1287
 4662SOL    HW125445   0.364   3.147   5.243 -0.1737 -0.0812  0.5503
 4662SOL    HW225446   0.393   3.225   5.121 -1.4367 -1.4393  0.2557
 4663SOL     OW25447   4.186   0.279  17.142  0.8782  0.1086  0.1335
 4663SOL    HW125448   4.144   0.293  17.226 -0.0557 -1.1014 -0.1342
 4663SOL    HW225449   4.248   0.210  17.165 -0.9695 -1.6386 -0.1385
 4664SOL     OW25450   2.007   2.704   6.266  0.4532  0.3693 -0.2517
 4664SOL    HW125451   1.981   2.795   6.279  1.8558  0.4448  2.0780
 4664SOL    HW225452   1.994   2.695   6.172 -1.3595 -3.5720  0.3677
 4665SOL     OW25453   3.009   2.088   6.770  0.2117 -0.4073  0.0453
 4665SOL    HW125454   3.017   2.167   6.824 -1.0223  0.7336 -1.4606
 4665SOL    HW225455   3.085   2.087   6.712 -0.4575 -1.4837 -0.7983
 4666SOL     OW25456   1.773   1.623   7.690  0.1533  0.4507  0.5704
 4666SOL    HW125457   1.865   1.642   7.708  0.3948 -1.8839  1.8906
 4666SOL    HW225458   1.737   1.684   7.754 -0.2274  3.2048 -2.2936
 4667SOL     OW25459   0.943   3.674   4.961  0.2097 -0.3247  0.0342
 4667SOL    HW125460   0.972   3.686   4.871  0.1078 -1.3274 -0.1294
 4667SOL    HW225461   0.932   3.579   4.965 -0.3951 -0.3188 -1.7903
 4668SOL     OW25462   4.157   3.448   6.924  0.0367 -0.2776 -0.1842
 4668SOL    HW125463   4.242   3.406   6.933  0.3795  0.3202 -0.6089
 4668SOL    HW225464   4.189   3.537   6.940 -0.1602 -0.0700 -0.9654
 4669SOL     OW25465   1.900   2.020   6.488 -0.3389 -0.0537 -0.4294
 4669SOL    HW125466   1.897   2.025   6.393  2.5661  0.3271 -0.5153
 4669SOL    HW225467   1.953   2.099   6.502 -0.8327  0.2395 -0.2213
 4670SOL     OW25468   4.547   2.754   8.238 -0.0218 -0.2244  0.7703
 4670SOL    HW125469   4.485   2.823   8.214  2.2940  1.7417  0.3869
 4670SOL    HW225470   4.628   2.798   8.213  0.1736 -0.4325  1.0429
 4671SOL     OW25471   3.436   2.303   6.390 -0.4625  0.3483 -0.1025
 4671SOL    HW125472   3.504   2.368   6.368  0.3210 -0.0970  0.9941
 4671SOL    HW225473   3.437   2.239   6.319 -0.0447 -1.1570  1.2789
 4672SOL     OW25474   4.250   0.681   7.385  0.8377 -0.2255 -0.2735
 4672SOL    HW125475   4.331   0.708   7.428  0.5122  0.0018  0.1899
 4672SOL    HW225476   4.204   0.758   7.352  1.5773  0.1272 -0.4778
 4673SOL     OW25477   1.721   4.569   7.786  0.0625 -0.4055  0.4240
 4673SOL    HW125478   1.670   4.618   7.721  0.3963 -0.1437  0.3614
 4673SOL    HW225479   1.656   4.563   7.856 -1.6892 -2.9188 -1.4105
 4674SOL     OW25480   2.136   4.125   6.528 -0.1754 -0.5086 -0.5205
 4674SOL    HW125481   2.221   4.165   6.541 -1.4227  1.8535  0.4103
 4674SOL    HW225482   2.155   4.039   6.565 -0.6804  0.0914  1.1210
 4675SOL     OW25483   1.752   1.243   2.884  0.1684 -0.1245 -0.2142
 4675SOL    HW125484   1.763   1.335   2.906 -0.9035  0.1543 -0.8364
 4675SOL    HW225485   1.659   1.226   2.901  0.1139 -1.1192 -1.4364
 4676SOL     OW25486   1.038   0.765  10.466  0.1465  0.1578  0.0342
 4676SOL    HW125487   1.101   0.771  10.538 -0.9215  1.3783  0.8713
 4676SOL    HW225488   1.097   0.760  10.391 -1.6797  1.6940 -1.4891
 4677SOL     OW25489   0.458   2.652   4.729  0.1569  0.1220 -0.4306
 4677SOL    HW125490   0.453   2.586   4.660  1.9525  1.1941 -1.5737
 4677SOL    HW225491   0.496   2.592   4.794  2.2271  0.8535 -0.9551
 4678SOL     OW25492   1.680   1.416   9.448  0.0464 -0.0866  0.2568
 4678SOL    HW125493   1.612   1.463   9.497 -1.1806  0.1263 -1.6751
 4678SOL    HW225494   1.624   1.347   9.412  0.4345 -0.1514 -0.2109
 4679SOL     OW25495   2.088   2.237   8.822  0.5331  0.3825  0.2040
 4679SOL    HW125496   2.135   2.313   8.788 -0.8936  0.7307 -1.0017
 4679SOL    HW225497   2.098   2.251   8.916 -1.2549  2.7111  0.0646
 4680SOL     OW25498   4.530   3.992   9.302  0.6205 -0.3735  0.9046
 4680SOL    HW125499   4.587   4.013   9.376 -1.2254  0.5061  2.0892
 4680SOL    HW225500   4.527   3.896   9.309 -1.0795 -0.3024  1.2515
 4681SOL     OW25501   1.339   1.834   5.809 -0.3410 -0.3112 -0.3175
 4681SOL    HW125502   1.290   1.869   5.734  1.1108 -0.8489 -1.5259
 4681SOL    HW225503   1.430   1.832   5.780 -0.5787 -0.0720 -1.0989
 4682SOL     OW25504   2.807   2.807  13.159  0.1988 -0.5676 -0.4618
 4682SOL    HW125505   2.895   2.822  13.194 -0.2108  0.9352 -0.0706
 4682SOL    HW225506   2.825   2.796  13.065 -0.7113  3.5257 -1.1214
 4683SOL     OW25507   4.523   2.349   8.698  0.4246 -0.2229 -0.4581
 4683SOL    HW125508   4.438   2.317   8.728  0.1104 -0.7474 -1.9281
 4683SOL    HW225509   4.496   2.436   8.666 -0.4832 -0.4932 -0.4246
 4684SOL     OW25510   4.445   2.314   2.619  0.3476  0.3117 -0.2760
 4684SOL    HW125511   4.419   2.256   2.547 -2.1130  0.2968  0.6562
 4684SOL    HW225512   4.537   2.335   2.600 -0.1697  0.9106 -2.1144
 4685SOL     OW25513   3.858   1.733   7.419  0.0132  0.5473  0.3288
 4685SOL    HW125514   3.945   1.694   7.408  1.1788  2.8737  1.3428
 4685SOL    HW225515   3.799   1.687   7.358  1.7015 -0.9244 -0.2067
 4686SOL     OW25516   3.703   1.484   2.628  0.0565  0.1173  0.3898
 4686SOL    HW125517   3.772   1.517   2.571  1.1132 -1.9745  0.4652
 4686SOL    HW225518   3.622   1.525   2.597  1.2230 -1.0082 -4.2268
 4687SOL     OW25519   0.398   0.087   2.209 -0.2731  0.4286  0.7058
 4687SOL    HW125520   0.453   0.078   2.287 -1.1684 -0.5288  1.2401
 4687SOL    HW225521   0.329   0.147   2.238 -0.8468 -0.8085  1.9246
 4688SOL     OW25522   1.838   3.840   7.487 -0.0419  0.1458  0.0727
 4688SOL    HW125523   1.833   3.894   7.408  1.3282  0.8339  0.4459
 4688SOL    HW225524   1.850   3.753   7.449  1.2778  0.9842 -1.4249
 4689SOL     OW25525   3.867   3.723   0.957 -0.2590 -0.5606 -0.7306
 4689SOL    HW125526   3.844   3.685   1.042  3.9689 -0.0035  0.6806
 4689SOL    HW225527   3.959   3.746   0.971 -0.2684 -1.3549  0.6415
 4690SOL     OW25528   1.239   1.028  16.278  0.0604 -0.6944 -0.2131
 4690SOL    HW125529   1.270   0.938  16.273  1.6021 -0.0424 -2.4780
 4690SOL    HW225530   1.289   1.080  16.215 -0.7672  0.5324  0.1272
 4691SOL     OW25531   4.536   4.292   4.385 -0.3865  0.7001  0.0693
 4691SOL    HW125532   4.444   4.288   4.412 -0.9960 -0.9978 -2.2907
 4691SOL    HW225533   4.567   4.234   4.454 -0.9905 -0.7441 -0.8785
 4692SOL     OW25534   0.777   0.676   8.917 -0.2981  0.2106 -0.1218
 4692SOL    HW125535   0.871   0.690   8.911 -0.5557  1.0736 -2.0378
 4692SOL    HW225536   0.781   0.595   8.969  1.7828  0.3258 -0.0858
 4693SOL     OW25537   4.222   3.927   5.791 -0.5476  0.1674  0.0996
 4693SOL    HW125538   4.134   3.893   5.774  0.4223 -1.8453 -0.8982
 4693SOL    HW225539   4.277   3.850   5.777 -3.0711 -1.4951 -0.7789
 4694SOL     OW25540   2.178   1.522  10.300 -0.5035  0.0973 -0.7028
 4694SOL    HW125541   2.208   1.516  10.390  0.1711  2.4943 -0.7849
 4694SOL    HW225542   2.226   1.453  10.254  0.2980  0.3746 -0.2795
 4695SOL     OW25543   2.505   1.733   8.155 -0.4221  0.1999  0.3113
 4695SOL    HW125544   2.464   1.748   8.240 -1.1958 -0.0327 -0.0162
 4695SOL    HW225545   2.549   1.817   8.143  3.2483 -2.1778 -2.8276
 4696SOL     OW25546   0.108   3.970  12.299 -0.0927 -0.0209  0.0156
 4696SOL    HW125547   0.025   3.928  12.324 -1.1413 -0.6486 -4.5473
 4696SOL    HW225548   0.155   3.941  12.377  1.0424 -0.0861 -0.6938
 4697SOL     OW25549   3.579   4.466   6.724 -0.1561  0.1985  0.2970
 4697SOL    HW125550   3.598   4.460   6.818 -1.2208  0.2596  0.5214
 4697SOL    HW225551   3.587   4.372   6.707  1.2071  0.1793  1.0502
 4698SOL     OW25552   2.791   3.674   6.741  0.1968 -0.0131  0.1121
 4698SOL    HW125553   2.833   3.654   6.657  2.5858  0.5816  1.1640
 4698SOL    HW225554   2.865   3.717   6.784 -0.3872  2.1051 -0.9887
 4699SOL     OW25555   0.404   2.834   0.915 -0.0617 -0.3769  0.5156
 4699SOL    HW125556   0.363   2.748   0.906 -2.5976  1.0087 -1.1386
 4699SOL    HW225557   0.372   2.857   1.003  1.0351  1.1675  0.5151
 4700SOL     OW25558   1.303   4.590   4.506 -0.3165 -0.3594 -0.1662
 4700SOL    HW125559   1.281   4.638   4.585 -0.7215 -0.2201 -0.3649
 4700SOL    HW225560   1.281   4.656   4.440 -1.9413  0.0371  0.7994
 4701SOL     OW25561   2.653   3.433  16.054 -0.0971  0.0551 -0.3140
 4701SOL    HW125562   2.600   3.511  16.036 -4.2280 -2.5726  0.4128
 4701SOL    HW225563   2.612   3.372  15.993 -0.5680 -1.5262  1.5759
 4702SOL     OW25564   4.459   1.851  12.459 -0.0513  0.3585  0.1596
 4702SOL    HW125565   4.453   1.940  12.425  2.6309  0.1528 -0.8315
 4702SOL    HW225566   4.383   1.856  12.518 -0.3032  2.3585 -0.3406
 4703SOL     OW25567   3.244   0.556   8.619  0.2056 -0.2141 -0.0732
 4703SOL    HW125568   3.198   0.487   8.571  0.6287 -0.3801 -0.2458
 4703SOL    HW225569   3.304   0.503   8.671  0.7718 -0.5771 -1.0933
 4704SOL     OW25570   4.720   3.228   8.610 -0.1261  0.1783  0.5551
 4704SOL    HW125571   0.065   3.193   8.550 -0.0549  0.3954  0.5034
 4704SOL    HW225572   4.637   3.193   8.579  0.1298  1.0146 -1.0599
 4705SOL     OW25573   2.231   1.115   3.952 -0.2241  0.4566 -0.3304
 4705SOL    HW125574   2.326   1.127   3.956 -0.0620  0.0444 -3.0254
 4705SOL    HW225575   2.217   1.030   3.912  1.4161 -0.6943  1.5458
 4706SOL     OW25576   2.613   4.003   0.106 -0.1446 -0.1920 -0.1400
 4706SOL    HW125577   2.545   3.947   0.142 -0.3695  0.9098  1.1182
 4706SOL    HW225578   2.685   3.941   0.123 -0.6204 -0.2256  1.7004
 4707SOL     OW25579   3.003   2.794   4.754 -0.3674  0.2665 -0.1710
 4707SOL    HW125580   3.008   2.825   4.664  1.2973 -1.4424 -0.6545
 4707SOL    HW225581   2.908   2.808   4.761 -0.7447 -0.5698 -3.6583
 4708SOL     OW25582   3.791   4.197  15.358 -0.0755 -0.7894  0.4109
 4708SOL    HW125583   3.796   4.172  15.450  1.0588  0.3253  0.6597
 4708SOL    HW225584   3.882   4.177  15.333 -0.2470  0.6226 -1.3512
 4709SOL     OW25585   1.718   2.026  11.667  0.2373  0.2200 -0.0822
 4709SOL    HW125586   1.702   2.049  11.759 -1.8996  0.5597 -0.5521
 4709SOL    HW225587   1.813   2.039  11.664  0.1404  1.0989  0.6631
 4710SOL     OW25588   3.863   2.288   8.057 -0.9595  0.0595 -0.0045
 4710SOL    HW125589   3.901   2.262   8.141 -0.2419  1.0871 -0.0082
 4710SOL    HW225590   3.794   2.221   8.053  0.1765 -0.9813 -2.2160
 4711SOL     OW25591   3.688   2.096   7.293  0.7945 -0.4149 -0.3112
 4711SOL    HW125592   3.749   2.032   7.329 -0.6811 -1.3114  0.5525
 4711SOL    HW225593   3.718   2.180   7.328  1.1360 -0.0386 -1.4854
 4712SOL     OW25594   1.641   3.142   7.865  0.6936  0.0690  0.3194
 4712SOL    HW125595   1.550   3.152   7.893  1.1318 -1.1469  2.2181
 4712SOL    HW225596   1.682   3.227   7.881  0.6917  0.2589 -0.6888
 4713SOL     OW25597   2.065   2.126   1.725  0.6554  0.2029  0.3793
 4713SOL    HW125598   1.978   2.133   1.766  0.2109 -0.2975 -0.4721
 4713SOL    HW225599   2.041   2.172   1.644  1.5684  0.5353  0.2991
 4714SOL     OW25600   0.448   2.577   5.757 -0.2996 -0.1229  0.5684
 4714SOL    HW125601   0.369   2.592   5.706  1.3693  0.5678 -1.7816
 4714SOL    HW225602   0.486   2.665   5.760 -0.3368 -0.1003  0.3602
 4715SOL     OW25603   2.702   3.803   6.998  0.0534 -0.0924 -0.1976
 4715SOL    HW125604   2.678   3.729   6.943 -2.2763  0.5989 -0.1174
 4715SOL    HW225605   2.794   3.818   6.975  0.0717  1.0121  0.5951
 4716SOL     OW25606   4.572   4.008   1.265  0.5080  0.3715  0.7029
 4716SOL    HW125607   4.663   4.001   1.236  0.3291  0.5648  0.0814
 4716SOL    HW225608   4.528   4.019   1.181  0.1599 -0.2683  0.8015
 4717SOL     OW25609   2.955   1.541   6.964 -0.3801  0.3199 -0.4117
 4717SOL    HW125610   2.911   1.546   6.879 -1.3438  1.5375  0.1636
 4717SOL    HW225611   3.038   1.585   6.945  0.3852 -0.8114  0.3450
 4718SOL     OW25612   0.224   4.488   6.074  0.5428  0.1356  0.4942
 4718SOL    HW125613   0.204   4.492   6.168 -1.2741 -2.1424  0.1941
 4718SOL    HW225614   0.224   4.581   6.049 -0.2274 -0.4000 -1.4551
 4719SOL     OW25615   1.128   4.551  12.425 -0.0069 -0.2163  0.2367
 4719SOL    HW125616   1.115   4.461  12.454 -0.9211  0.3962  1.6974
 4719SOL    HW225617   1.209   4.577  12.468  1.5085 -0.6275 -2.3380
 4720SOL     OW25618   4.069   4.174  15.029 -0.2567 -0.1548  0.7975
 4720SOL    HW125619   4.047   4.257  15.070 -0.1228  0.1886  0.1823
 4720SOL    HW225620   4.141   4.202  14.972 -0.3883  0.5354  0.9783
 4721SOL     OW25621   3.075   0.543   6.916 -0.8222 -0.4112  0.9092
 4721SOL    HW125622   3.014   0.614   6.897 -0.4650 -0.5881 -0.9100
 4721SOL    HW225623   3.110   0.544   6.827  0.6836 -1.6548  1.4891
 4722SOL     OW25624   4.378   4.414   3.982  0.3360 -0.1456 -0.2485
 4722SOL    HW125625   4.460   4.446   3.945  0.5914 -0.9263 -0.3604
 4722SOL    HW225626   4.327   4.438   3.905 -1.4353 -4.3154 -0.3768
 4723SOL     OW25627   2.307   3.359   3.053 -0.0330 -0.3726  0.4187
 4723SOL    HW125628   2.329   3.274   3.015 -3.4202 -0.0340 -2.2947
 4723SOL    HW225629   2.245   3.325   3.118 -1.0879  0.9892  0.1362
 4724SOL     OW25630   0.354   4.050   0.330 -0.4034  0.6466 -0.1525
 4724SOL    HW125631   0.371   4.118   0.395 -2.9616  1.8828 -0.7330
 4724SOL    HW225632   0.444   4.021   0.320 -0.3955 -0.1599  2.3870
 4725SOL     OW25633   4.299   1.293  15.016 -0.1580  0.3878  0.4741
 4725SOL    HW125634   4.356   1.295  15.093 -0.6356  0.2349  0.8316
 4725SOL    HW225635   4.309   1.199  15.002  2.2525  0.5386  1.2171
 4726SOL     OW25636   1.825   2.664   4.921 -0.3173 -0.0237  0.2820
 4726SOL    HW125637   1.903   2.713   4.897  0.1449 -0.8858 -0.0078
 4726SOL    HW225638   1.847   2.575   4.948  0.8825  0.7584  1.8460
 4727SOL     OW25639   3.164   4.281   7.871 -0.3103 -0.1490  0.2483
 4727SOL    HW125640   3.227   4.316   7.934  1.4896 -3.2705  0.1886
 4727SOL    HW225641   3.144   4.361   7.821 -2.2404 -1.5084 -1.1667
 4728SOL     OW25642   0.637   1.823  13.630 -0.5894 -0.4021  0.0201
 4728SOL    HW125643   0.663   1.910  13.601  1.4546 -1.2407 -0.6158
 4728SOL    HW225644   0.667   1.773  13.555 -0.1071  0.3203 -0.2609
 4729SOL     OW25645   0.808   3.764   1.377 -0.9266  0.2353 -0.2677
 4729SOL    HW125646   0.798   3.780   1.283 -2.0955 -2.3334 -0.5866
 4729SOL    HW225647   0.789   3.670   1.380 -0.5364  0.1703  0.1253
 4730SOL     OW25648   2.694   1.927   9.644 -0.2009  0.2461 -0.5410
 4730SOL    HW125649   2.700   2.000   9.582 -2.1928 -0.1438 -1.1835
 4730SOL    HW225650   2.781   1.890   9.629 -0.3726  0.0517 -1.0623
 4731SOL     OW25651   3.783   2.235   9.782 -0.0099  0.3180  0.0095
 4731SOL    HW125652   3.703   2.198   9.820  0.7330 -0.3818  0.9098
 4731SOL    HW225653   3.850   2.168   9.800 -0.0010  0.1421 -0.6833
 4732SOL     OW25654   3.068   3.154   2.656  0.7464 -0.0997  0.4246
 4732SOL    HW125655   3.111   3.158   2.571 -1.5676 -0.4161 -0.7452
 4732SOL    HW225656   3.136   3.170   2.722  3.3398  0.3278 -2.3490
 4733SOL     OW25657   2.069   3.563   3.686 -0.3039  0.0471 -0.2238
 4733SOL    HW125658   1.983   3.529   3.664 -1.7752  3.3001  0.4577
 4733SOL    HW225659   2.111   3.543   3.602  1.0656  2.8642 -0.2266
 4734SOL     OW25660   0.691   2.939   5.055 -0.2799  0.5985  0.1558
 4734SOL    HW125661   0.728   2.957   4.968  0.5597  1.6299  0.7246
 4734SOL    HW225662   0.772   2.948   5.106  0.7746 -1.7700 -1.0666
 4735SOL     OW25663   4.235   0.217   7.391  0.7295 -0.1264  0.2695
 4735SOL    HW125664   4.190   0.282   7.338 -0.3587 -1.4754 -0.4371
 4735SOL    HW225665   4.323   0.211   7.354  0.9626  0.4284  0.7155
 4736SOL     OW25666   2.478   1.240   2.929  0.3704 -0.8684  0.6962
 4736SOL    HW125667   2.412   1.271   2.868  0.4505 -2.0920 -0.0098
 4736SOL    HW225668   2.533   1.189   2.870 -0.6679 -0.7225 -0.3930
 4737SOL     OW25669   4.683   4.390   0.924 -0.3660  0.0382 -0.3973
 4737SOL    HW125670   4.715   4.303   0.902  2.1354  1.3351 -1.9441
 4737SOL    HW225671   4.697   4.390   1.019 -3.0416  0.8378 -0.0263
 4738SOL     OW25672   0.027   4.521  16.999  0.2677  0.0931 -0.2222
 4738SOL    HW125673   0.023   4.438  17.046 -0.3556  0.5651  0.5503
 4738SOL    HW225674   0.054   4.495  16.911 -0.0173  0.5975 -0.4605
 4739SOL     OW25675   2.956   3.823   2.603 -0.4441  0.5217  0.3655
 4739SOL    HW125676   2.886   3.872   2.561 -1.4814 -1.9976 -0.8113
 4739SOL    HW225677   2.928   3.827   2.695 -0.5021  3.2010  0.2371
 4740SOL     OW25678   4.518   1.432   1.138 -0.0599 -0.2840 -0.2771
 4740SOL    HW125679   4.598   1.477   1.111 -0.3753 -0.9687 -2.3929
 4740SOL    HW225680   4.549   1.348   1.172 -1.8156 -0.3001  1.2713
 4741SOL     OW25681   3.058   0.702  11.041 -0.0014  0.0423 -0.1083
 4741SOL    HW125682   3.117   0.750  11.099 -1.1735 -0.2117  1.2932
 4741SOL    HW225683   3.131   0.659  10.996 -1.4804 -0.2578 -2.2724
 4742SOL     OW25684   4.518   4.469   5.625  0.2815  0.2687 -0.7951
 4742SOL    HW125685   4.570   4.514   5.558  0.5374 -0.6298 -1.1947
 4742SOL    HW225686   4.437   4.441   5.584 -0.9341 -0.4468  2.1126
 4743SOL     OW25687   3.040   3.085   7.801 -0.0790  0.4551 -0.1342
 4743SOL    HW125688   3.110   3.064   7.739  0.8902  0.7214  0.8683
 4743SOL    HW225689   3.074   3.170   7.828  3.9425 -0.6819 -1.5894
 4744SOL     OW25690   0.724   3.921  12.345 -0.4227 -0.3218 -0.0357
 4744SOL    HW125691   0.771   3.994  12.303 -0.8151 -0.8608 -1.4115
 4744SOL    HW225692   0.794   3.896  12.405  0.7314 -1.5723 -1.9273
 4745SOL     OW25693   4.124   0.303   6.623  0.1326  0.1618  0.2355
 4745SOL    HW125694   4.080   0.371   6.573  0.3571  0.2729  0.1866
 4745SOL    HW225695   4.213   0.338   6.613 -1.3075  3.3275 -1.7100
 4746SOL     OW25696   4.445   0.933   2.369  0.4456  0.5408 -0.1132
 4746SOL    HW125697   4.376   0.873   2.342 -0.0030  0.1167  1.9669
 4746SOL    HW225698   4.513   0.874   2.400  0.0210  0.5605  0.8701
 4747SOL     OW25699   0.894   2.376   5.519 -0.8839 -0.4791  0.0972
 4747SOL    HW125700   0.901   2.360   5.425 -2.4473 -0.7447  0.0261
 4747SOL    HW225701   0.824   2.441   5.527  0.0811  0.7555 -1.6262
 4748SOL     OW25702   2.131   4.533   0.417  0.0518 -0.3171  0.3922
 4748SOL    HW125703   2.063   4.470   0.394  2.2806 -2.4868 -0.2231
 4748SOL    HW225704   2.108   4.612   0.368  2.2979 -0.0396 -0.2082
 4749SOL     OW25705   2.008   0.645   2.111 -0.0758 -0.7499  0.2178
 4749SOL    HW125706   1.995   0.561   2.156  1.9211 -0.8292  0.6335
 4749SOL    HW225707   2.047   0.690   2.185  0.0842  0.3491 -0.5477
 4750SOL     OW25708   4.271   2.171   7.795 -1.0461  0.5243 -0.5653
 4750SOL    HW125709   4.201   2.235   7.781  0.5065  2.1658 -0.8906
 4750SOL    HW225710   4.310   2.156   7.709 -0.5307 -0.1387 -0.2160
 4751SOL     OW25711   2.821   2.913   5.917  0.2700  0.7770 -0.0969
 4751SOL    HW125712   2.811   2.991   5.971  1.2638 -0.1322  1.3835
 4751SOL    HW225713   2.767   2.857   5.973  0.3055 -0.2852 -1.1224
 4752SOL     OW25714   4.700   2.668   0.501 -0.3030 -0.3270  0.8089
 4752SOL    HW125715   0.052   2.630   0.452 -0.5212  0.3535 -0.0319
 4752SOL    HW225716   0.018   2.691   0.586 -0.4873 -0.1994  0.8582
 4753SOL     OW25717   4.331   3.464   1.097  0.1021 -0.1006 -0.4201
 4753SOL    HW125718   4.379   3.395   1.143  0.2109 -0.5983 -1.2737
 4753SOL    HW225719   4.406   3.519   1.076 -0.9026  1.1954 -0.6318
 4754SOL     OW25720   3.383   2.462   1.643 -0.1218  0.0983  0.1219
 4754SOL    HW125721   3.405   2.412   1.722  2.6154 -2.1590 -2.0787
 4754SOL    HW225722   3.322   2.403   1.599  1.4403 -1.5734  0.2105
 4755SOL     OW25723   3.309   3.983   2.130 -0.1296 -0.3022  0.9170
 4755SOL    HW125724   3.235   3.946   2.178 -1.4776 -0.1706 -1.0457
 4755SOL    HW225725   3.371   3.997   2.202 -0.4865  1.1875  0.9461
 4756SOL     OW25726   0.557   4.424   8.391  0.9017 -0.0952 -0.1012
 4756SOL    HW125727   0.582   4.479   8.465  0.4222  2.1684 -1.6345
 4756SOL    HW225728   0.503   4.367   8.445  0.3766 -0.2735 -0.8138
 4757SOL     OW25729   4.464   0.084   8.765 -0.3574 -0.4102 -0.4673
 4757SOL    HW125730   4.479   0.170   8.804  3.7888 -1.3444  0.0400
 4757SOL    HW225731   4.440   0.029   8.840  0.4064  0.3040  0.3115
 4758SOL     OW25732   2.396   0.829   5.478  0.3147 -0.0020 -0.4539
 4758SOL    HW125733   2.410   0.854   5.569  2.0405  1.5675 -1.1561
 4758SOL    HW225734   2.348   0.749   5.501 -1.2466  1.0746 -0.0287
 4759SOL     OW25735   0.224   1.718   9.664  0.3210 -0.4430 -0.5586
 4759SOL    HW125736   0.274   1.653   9.713 -2.6203 -0.5668  2.3180
 4759SOL    HW225737   0.171   1.764   9.730 -0.0292 -0.3409 -0.9116
 4760SOL     OW25738   3.051   4.385   8.223 -0.2387  0.3819 -0.0383
 4760SOL    HW125739   2.991   4.320   8.185 -2.3997  0.4436  3.2050
 4760SOL    HW225740   3.036   4.376   8.317  0.6041  0.6593  0.1224
 4761SOL     OW25741   4.137   4.654   4.145 -0.1175 -0.6094  0.2248
 4761SOL    HW125742   4.110   0.021   4.115  1.4012  0.0962  0.8932
 4761SOL    HW225743   4.053   4.609   4.155 -0.8994  0.9530  0.7483
 4762SOL     OW25744   2.296   4.171   8.903 -0.6770 -0.3871 -0.5655
 4762SOL    HW125745   2.362   4.109   8.933 -1.1350 -1.5102 -1.8509
 4762SOL    HW225746   2.350   4.218   8.839  0.4767 -1.5699 -0.4585
 4763SOL     OW25747   0.826   1.136  17.238  0.5244 -0.3645 -0.0343
 4763SOL    HW125748   0.801   1.110  17.327  2.2305 -0.0021  0.5480
 4763SOL    HW225749   0.898   1.074  17.224  0.2707 -0.2035 -2.1258
 4764SOL     OW25750   3.736   3.690  17.629 -0.3398  0.5411 -0.8218
 4764SOL    HW125751   3.692   3.764  17.671 -0.4787 -0.1354  0.2375
 4764SOL    HW225752   3.796   3.669   0.016 -1.8132  1.5341  0.7091
 4765SOL     OW25753   2.374   1.773   0.423 -0.2475  0.6679  0.2470
 4765SOL    HW125754   2.344   1.789   0.513 -1.7979  0.5381 -0.2371
 4765SOL    HW225755   2.459   1.817   0.420  0.9241 -1.6161  0.5074
 4766SOL     OW25756   1.171   3.378   9.084  0.3527  0.3972  0.7562
 4766SOL    HW125757   1.226   3.433   9.140  1.3466 -0.7046  0.8474
 4766SOL    HW225758   1.120   3.447   9.042 -2.0797 -1.8065  0.0488
 4767SOL     OW25759   2.958   4.561   3.746 -0.2054  0.0638 -0.3119
 4767SOL    HW125760   2.922   4.649   3.733  0.0895  0.3588  0.9308
 4767SOL    HW225761   3.051   4.576   3.760 -0.5805  0.9636  1.1836
 4768SOL     OW25762   2.442   1.302  16.287 -0.1756  0.1668  0.1294
 4768SOL    HW125763   2.382   1.305  16.213  1.3710  2.2826 -1.0614
 4768SOL    HW225764   2.386   1.324  16.361 -0.1585  0.1916  0.1351
 4769SOL     OW25765   0.030   2.086  12.433 -0.2572  0.0950 -0.4746
 4769SOL    HW125766   0.078   2.166  12.452  0.8364 -1.1411  1.8865
 4769SOL    HW225767   4.670   2.097  12.484  0.4867  2.5708  0.1456
 4770SOL     OW25768   4.448   4.099  14.230 -0.0847  0.7830  0.3295
 4770SOL    HW125769   4.518   4.161  14.250  1.3751 -1.3335  1.9168
 4770SOL    HW225770   4.488   4.022  14.272  2.0304  0.7648 -1.6908
 4771SOL     OW25771   2.527   0.205  10.443 -0.1185  0.0168 -0.1404
 4771SOL    HW125772   2.601   0.219  10.501  0.5618  1.6956 -1.4273
 4771SOL    HW225773   2.559   0.248  10.364 -0.4513 -1.6085 -1.1558
 4772SOL     OW25774   2.325   1.416   3.971 -0.1659  0.0661 -0.0200
 4772SOL    HW125775   2.230   1.407   3.970 -0.1692  0.1376 -0.2837
 4772SOL    HW225776   2.337   1.400   3.878  0.5127  1.6273 -0.1918
 4773SOL     OW25777   0.723   1.680  13.883 -0.7366 -0.0357 -0.2334
 4773SOL    HW125778   0.690   1.728  13.808 -1.2204  2.2977  1.4535
 4773SOL    HW225779   0.757   1.751  13.938 -0.4988 -0.3687  0.0485
 4774SOL     OW25780   4.648   1.438   2.992  0.2263 -0.5392  0.3737
 4774SOL    HW125781   4.651   1.523   2.949  0.8748 -0.8068 -0.1105
 4774SOL    HW225782   0.019   1.418   3.013  0.1142  0.7056  2.0419
 4775SOL     OW25783   3.238   2.369  17.585 -0.3039  0.7325  0.0406
 4775SOL    HW125784   3.325   2.337  17.560 -1.2719  0.5600 -3.0585
 4775SOL    HW225785   3.194   2.286  17.605  2.4955 -0.8440 -0.2963
 4776SOL     OW25786   2.077   0.189   7.775 -0.1211  0.2328 -0.3410
 4776SOL    HW125787   2.074   0.257   7.843  1.5168 -0.1050  0.0613
 4776SOL    HW225788   2.159   0.142   7.789 -0.7064 -0.7559 -0.1978
 4777SOL     OW25789   1.494   0.796   2.610 -0.3686  0.2116  0.6158
 4777SOL    HW125790   1.471   0.882   2.647  0.1931  0.2112  0.9783
 4777SOL    HW225791   1.479   0.814   2.517  3.2638 -1.0155 -0.1917
 4778SOL     OW25792   4.472   0.239  10.367 -0.4814  0.2620  0.3023
 4778SOL    HW125793   4.417   0.179  10.418  0.7164 -0.1848  1.0626
 4778SOL    HW225794   4.555   0.192  10.356  0.0321  1.7653 -2.3111
 4779SOL     OW25795   1.234   3.030   3.093 -0.5161  0.0773  0.6318
 4779SOL    HW125796   1.197   2.947   3.123 -0.1321 -0.1145  0.5673
 4779SOL    HW225797   1.311   3.043   3.148 -2.4515  2.3425  2.7796
 4780SOL     OW25798   1.153   2.170   1.498 -0.0640 -0.0023 -0.1768
 4780SOL    HW125799   1.220   2.163   1.566 -0.4592  2.0118  0.4126
 4780SOL    HW225800   1.165   2.095   1.440 -0.9871 -0.5549  0.3576
 4781SOL     OW25801   3.238   1.727   6.017 -0.4141 -0.7520 -0.2764
 4781SOL    HW125802   3.257   1.753   5.927 -2.8764  0.8227 -0.3437
 4781SOL    HW225803   3.148   1.695   6.008 -2.0023  2.9752  2.2156
 4782SOL     OW25804   2.721   0.468   9.767  0.7316  0.6340  0.5470
 4782SOL    HW125805   2.766   0.394   9.727 -2.8365 -2.3740  2.1096
 4782SOL    HW225806   2.779   0.536   9.734  1.3597  0.1544  0.6553
 4783SOL     OW25807   4.690   0.222   8.375 -0.4912  0.2848 -0.9675
 4783SOL    HW125808   0.015   0.288   8.324  1.0901 -0.4802 -0.5706
 4783SOL    HW225809   0.019   0.246   8.454 -0.4506  2.0376 -1.5381
 4784SOL     OW25810   2.052   2.786   4.162 -0.1146 -0.7352  0.2891
 4784SOL    HW125811   2.065   2.694   4.185 -2.4580 -0.6722  1.8441
 4784SOL    HW225812   2.044   2.794   4.067  2.0917  1.5297  0.3014
 4785SOL     OW25813   0.800   3.587   2.084  0.5498  0.0814 -0.0268
 4785SOL    HW125814   0.826   3.495   2.093 -1.5653 -0.5587 -0.4635
 4785SOL    HW225815   0.836   3.606   1.997  0.5510 -2.2724 -0.5541
 4786SOL     OW25816   2.022   1.449  13.825  0.3092  0.1151  0.1303
 4786SOL    HW125817   2.054   1.398  13.751 -0.4453  0.7792 -0.6545
 4786SOL    HW225818   2.099   1.454  13.881  0.6570  0.4105 -0.3728
 4787SOL     OW25819   0.915   0.089   5.686 -0.3521 -0.0369 -0.1865
 4787SOL    HW125820   0.908   0.002   5.725 -0.3648 -1.0809 -2.4898
 4787SOL    HW225821   0.926   0.143   5.764  4.0076  0.5524 -1.1833
 4788SOL     OW25822   4.597   4.446   0.238  0.2546  0.4384  0.1166
 4788SOL    HW125823   4.574   4.361   0.199  0.1844  2.4535 -4.2891
 4788SOL    HW225824   4.516   4.496   0.230  0.4107  0.2915 -2.4735
 4789SOL     OW25825   2.885   1.961   6.316  0.1969 -0.0996 -0.2208
 4789SOL    HW125826   2.803   1.913   6.307  0.8776 -1.0773 -1.2552
 4789SOL    HW225827   2.901   1.943   6.408 -2.2448 -0.4872  0.1245
 4790SOL     OW25828   2.669   1.362   3.234  0.1929  0.2471  0.2396
 4790SOL    HW125829   2.579   1.328   3.237  0.3720 -0.2823 -0.3600
 4790SOL    HW225830   2.708   1.327   3.154  0.2089 -1.5532  1.0364
 4791SOL     OW25831   1.265   2.975   7.780 -0.0913 -0.5321  0.1476
 4791SOL    HW125832   1.182   3.008   7.746 -0.2866 -0.9223  0.2500
 4791SOL    HW225833   1.329   3.000   7.713 -0.7927  0.2089 -0.2449
 4792SOL     OW25834   0.631   4.449   3.575  0.3434 -0.1544  0.1960
 4792SOL    HW125835   0.544   4.414   3.594 -0.2480  1.9939  1.4179
 4792SOL    HW225836   0.618   4.472   3.483 -0.3815  0.6997  0.5151
 4793SOL     OW25837   4.659   4.692   0.900  0.3533  0.0851  0.2313
 4793SOL    HW125838   4.712   0.048   0.921 -0.5600  1.0164 -0.9106
 4793SOL    HW225839   4.569   4.714   0.924 -0.1912  0.7252 -2.3948
 4794SOL     OW25840   4.365   1.100   3.226  0.6096  0.2927 -0.3788
 4794SOL    HW125841   4.443   1.117   3.172  0.8086  0.8978  0.0972
 4794SOL    HW225842   4.343   1.184   3.266 -0.4712 -0.5664  0.8083
 4795SOL     OW25843   0.742   3.965   5.932  0.5045  0.0369  0.7740
 4795SOL    HW125844   0.817   3.909   5.912 -0.4432 -1.0129  0.1854
 4795SOL    HW225845   0.761   4.056   5.910  1.8916 -0.1756  1.0709
 4796SOL     OW25846   4.106   1.469   4.431 -0.1294 -0.7661 -0.2789
 4796SOL    HW125847   4.059   1.391   4.461 -0.3007  0.1329  1.8434
 4796SOL    HW225848   4.054   1.497   4.356 -1.3316 -1.6293  0.2300
 4797SOL     OW25849   0.636   0.924   9.755 -0.2402 -0.2175 -0.2529
 4797SOL    HW125850   0.565   0.989   9.751 -0.1764 -0.2844 -2.4357
 4797SOL    HW225851   0.587   0.855   9.711 -2.7044  1.8844 -0.8258
 4798SOL     OW25852   1.708   4.047   1.554 -0.3500  0.0766 -0.1918
 4798SOL    HW125853   1.742   3.961   1.576  0.2849  0.0664 -1.2365
 4798SOL    HW225854   1.667   4.072   1.637 -1.4887 -1.1878 -0.3730
 4799SOL     OW25855   0.056   3.375   2.087  0.3100  0.0129  0.0265
 4799SOL    HW125856   0.034   3.350   2.177  1.1616 -2.4419 -0.4245
 4799SOL    HW225857   4.690   3.393   2.049 -0.1290  1.2782  1.6314
 4800SOL     OW25858   2.193   3.853   1.514 -0.5759  0.4044 -0.3284
 4800SOL    HW125859   2.259   3.920   1.529 -0.2246  0.0382 -0.2446
 4800SOL    HW225860   2.172   3.825   1.603 -2.9021 -0.7637 -1.2315
 4801SOL     OW25861   4.127   0.371   2.131 -0.5866  0.5253 -0.8519
 4801SOL    HW125862   4.141   0.283   2.097  0.8186  0.5420 -0.3115
 4801SOL    HW225863   4.153   0.356   2.222  1.6213 -2.3520 -1.9728
 4802SOL     OW25864   3.536   2.182   4.292 -0.4263  0.2656 -0.0453
 4802SOL    HW125865   3.545   2.128   4.371  0.2739 -1.9499 -1.6630
 4802SOL    HW225866   3.629   2.194   4.273  0.3700 -1.5768  2.6518
 4803SOL     OW25867   4.100   0.530   4.711 -0.5684 -0.4684 -0.5930
 4803SOL    HW125868   4.065   0.615   4.683  0.6813  0.1194 -0.3725
 4803SOL    HW225869   4.074   0.475   4.638  0.3477 -1.1563 -0.4031
 4804SOL     OW25870   0.716   0.394  12.018  0.2804 -0.2340 -0.3269
 4804SOL    HW125871   0.716   0.312  12.067 -0.8651 -1.7309 -2.8409
 4804SOL    HW225872   0.726   0.374  11.925 -0.4523 -2.3693  0.0720
 4805SOL     OW25873   2.957   1.228   7.332 -0.1509 -0.6037  0.0214
 4805SOL    HW125874   2.994   1.172   7.264  1.9369  2.9450 -1.7690
 4805SOL    HW225875   2.928   1.299   7.275 -1.0956  0.6795  2.0791
 4806SOL     OW25876   2.762   1.949   0.702 -0.1351 -0.5328 -0.0083
 4806SOL    HW125877   2.807   2.028   0.731 -0.8154 -0.0815 -0.1819
 4806SOL    HW225878   2.786   1.893   0.775 -1.1784  2.6180  2.7374
 4807SOL     OW25879   2.324   0.581   2.579  0.8814 -0.4757 -0.2815
 4807SOL    HW125880   2.356   0.559   2.492 -2.3322  0.7656 -1.7686
 4807SOL    HW225881   2.232   0.561   2.566  1.1086 -1.5897 -0.1853
 4808SOL     OW25882   3.889   3.639   7.147 -0.5343 -0.8737  0.6068
 4808SOL    HW125883   3.806   3.607   7.111  0.7840 -1.6669 -1.7300
 4808SOL    HW225884   3.916   3.707   7.085 -0.4562  0.1674  1.7747
 4809SOL     OW25885   2.394   1.640   1.487 -0.3600  0.4469  0.7742
 4809SOL    HW125886   2.341   1.570   1.448 -0.4590  2.2645 -2.2926
 4809SOL    HW225887   2.377   1.714   1.429  0.9703  0.8535  0.8950
 4810SOL     OW25888   0.249   0.420   4.053 -0.3496 -0.4132  0.1299
 4810SOL    HW125889   0.281   0.330   4.057  0.3822 -0.2146 -1.4706
 4810SOL    HW225890   0.281   0.461   4.134 -0.8063  1.7300 -0.7755
 4811SOL     OW25891   1.662   1.368   4.860  0.2220  0.4732  0.0745
 4811SOL    HW125892   1.586   1.413   4.824  0.2458 -0.9856 -1.7904
 4811SOL    HW225893   1.617   1.322   4.930 -1.2880  0.6880 -0.7702
 4812SOL     OW25894   4.697   1.311   7.036  0.6284  0.0851  0.0934
 4812SOL    HW125895   4.669   1.279   7.122  1.7191  0.5610  0.6242
 4812SOL    HW225896   0.000   1.234   6.984  3.6856  0.4417  0.9574
 4813SOL     OW25897   2.900   4.378   5.092  0.2418 -0.2409 -0.0791
 4813SOL    HW125898   2.846   4.438   5.142 -0.7344 -1.2435  0.0646
 4813SOL    HW225899   2.874   4.397   5.002  0.3252  0.6801  0.0924
 4814SOL     OW25900   4.690   2.542   7.039  0.2552  0.1644 -1.1032
 4814SOL    HW125901   4.689   2.638   7.035 -1.5050  0.1240 -1.7879
 4814SOL    HW225902   4.602   2.519   7.067  0.6617 -1.3835 -1.1294
 4815SOL     OW25903   0.237   2.812  13.510 -0.1648 -0.0161  0.1093
 4815SOL    HW125904   0.281   2.818  13.594 -2.7441 -1.5197  1.5651
 4815SOL    HW225905   0.206   2.901  13.496 -0.8197 -0.1544  0.7192
 4816SOL     OW25906   1.465   3.233   4.761 -0.3532 -0.2542  0.5481
 4816SOL    HW125907   1.544   3.285   4.773  0.2497 -1.0995  0.2603
 4816SOL    HW225908   1.449   3.210   4.852 -0.8102 -0.7278  0.3491
 4817SOL     OW25909   3.230   4.490   8.892  0.5278 -0.0164  0.3612
 4817SOL    HW125910   3.177   4.536   8.827  1.4408 -0.8891 -1.0017
 4817SOL    HW225911   3.312   4.539   8.893  1.5277 -1.6784 -0.6814
 4818SOL     OW25912   4.340   1.353   8.371  0.8411 -0.4680  0.2645
 4818SOL    HW125913   4.254   1.354   8.329  0.8043 -0.5690  0.3394
 4818SOL    HW225914   4.384   1.432   8.340 -0.3738  0.7915  1.7366
 4819SOL     OW25915   2.894   4.483   2.948  0.0187 -0.0672  0.1874
 4819SOL    HW125916   2.971   4.498   3.004  0.5011 -1.5806 -0.0516
 4819SOL    HW225917   2.918   4.532   2.870  1.2398  0.1099  0.6723
 4820SOL     OW25918   2.831   3.962   9.722 -0.1771 -0.4166  0.0947
 4820SOL    HW125919   2.747   3.975   9.678  1.5560  2.0291 -2.5389
 4820SOL    HW225920   2.868   4.050   9.717  2.0150 -1.2626  1.3756
 4821SOL     OW25921   1.386   4.498   1.640  0.2702 -0.7493 -0.2996
 4821SOL    HW125922   1.300   4.527   1.609 -0.2543 -0.9309  0.9740
 4821SOL    HW225923   1.390   4.409   1.604 -0.4439 -1.2268  0.7883
 4822SOL     OW25924   2.258   1.204   8.899 -0.2661  0.3392 -0.3384
 4822SOL    HW125925   2.256   1.274   8.964 -0.5685  0.8670 -0.9177
 4822SOL    HW225926   2.351   1.199   8.875 -0.4419 -1.3278 -0.6953
 4823SOL     OW25927   4.708   1.584   3.323 -1.0426 -0.2092 -0.2615
 4823SOL    HW125928   4.713   1.642   3.398 -0.1471 -0.8816  0.1986
 4823SOL    HW225929   0.034   1.638   3.259  0.5216 -1.4614 -0.1673
 4824SOL     OW25930   3.598   4.000   5.075 -0.2977  0.3147 -0.0294
 4824SOL    HW125931   3.575   4.090   5.098  0.5797  0.7490 -0.8827
 4824SOL    HW225932   3.514   3.954   5.078 -1.0829  1.8770  1.9243
 4825SOL     OW25933   4.681   2.793  11.873  0.0023 -0.1812 -0.7536
 4825SOL    HW125934   0.010   2.872  11.855 -0.7528  0.4145 -0.2137
 4825SOL    HW225935   0.029   2.731  11.898  1.8551  2.3553  0.3553
 4826SOL     OW25936   1.279   4.137   1.798 -0.0088 -0.0886  0.1307
 4826SOL    HW125937   1.311   4.198   1.864  2.1131 -0.2804 -0.7408
 4826SOL    HW225938   1.199   4.095   1.831 -0.8418  0.9569 -0.5713
 4827SOL     OW25939   2.621   2.158  10.171 -0.0322  0.6697  0.6628
 4827SOL    HW125940   2.703   2.190  10.209  0.1163 -0.9292  1.6562
 4827SOL    HW225941   2.611   2.234  10.113 -2.6180  1.1152  1.6784
 4828SOL     OW25942   0.227   0.697  12.019 -0.2562 -0.6826  0.6459
 4828SOL    HW125943   0.318   0.723  12.032 -0.6092  0.4333  0.9024
 4828SOL    HW225944   0.194   0.783  11.992  0.7834 -0.2615  0.7324
 4829SOL     OW25945   4.124   2.523   5.865  0.2859 -0.4127  1.1969
 4829SOL    HW125946   4.093   2.598   5.916 -1.2644 -0.4092  0.2471
 4829SOL    HW225947   4.061   2.514   5.794 -1.4606 -2.4681  2.9969
 4830SOL     OW25948   1.298   2.168   5.683 -0.3976 -0.1923 -0.2743
 4830SOL    HW125949   1.383   2.137   5.652  0.5080 -0.5110  2.5542
 4830SOL    HW225950   1.319   2.250   5.730 -1.7577  0.0919 -0.1531
 4831SOL     OW25951   0.113   4.147  12.720  0.2187  0.2614 -0.5395
 4831SOL    HW125952   0.150   4.169  12.635  1.9141 -1.2617 -0.1813
 4831SOL    HW225953   0.019   4.157  12.703  0.3452  0.7174 -0.9673
 4832SOL     OW25954   2.110   4.335  14.051  0.2079  0.2444 -0.3277
 4832SOL    HW125955   2.144   4.268  14.109 -3.3962 -0.3848  1.0858
 4832SOL    HW225956   2.183   4.341  13.990  0.2745  3.2335  0.0045
 4833SOL     OW25957   0.571   0.960  10.628 -0.4258 -0.2120 -0.2766
 4833SOL    HW125958   0.482   0.953  10.594 -1.0842  0.7738  1.2705
 4833SOL    HW225959   0.610   0.916  10.552 -0.3770 -1.5392  0.5122
 4834SOL     OW25960   3.607   4.467   1.330  0.0292  0.6708 -0.1981
 4834SOL    HW125961   3.600   4.487   1.423  0.3275  2.0424 -0.4767
 4834SOL    HW225962   3.691   4.508   1.310 -0.0028  1.5967  1.6390
 4835SOL     OW25963   2.051   0.532   2.532  0.6326  0.0843 -0.3007
 4835SOL    HW125964   2.027   0.624   2.521 -0.7662 -0.1316  0.9849
 4835SOL    HW225965   1.965   0.496   2.552 -0.6013  3.5520  0.6540
 4836SOL     OW25966   0.103   0.520   9.285 -0.1659  0.4536 -0.0399
 4836SOL    HW125967   0.084   0.430   9.259  2.9670 -0.3550  0.4347
 4836SOL    HW225968   0.176   0.539   9.226 -0.3398  0.7555 -0.1548
 4837SOL     OW25969   3.068   2.345   2.094 -0.4017  0.8453 -0.2479
 4837SOL    HW125970   3.090   2.272   2.152  0.5570 -1.5383 -3.5432
 4837SOL    HW225971   3.111   2.415   2.142 -0.1266  0.3471  0.2249
 4838SOL     OW25972   2.162   4.172   1.404  0.0869  0.2255  0.0235
 4838SOL    HW125973   2.235   4.128   1.447 -0.0145  1.0114  0.9889
 4838SOL    HW225974   2.088   4.166   1.465  0.0569 -1.6329 -0.2173
 4839SOL     OW25975   2.712   3.218  17.491 -0.0199 -0.2218 -0.1433
 4839SOL    HW125976   2.682   3.308  17.502 -2.0961 -0.9297  0.0393
 4839SOL    HW225977   2.731   3.230  17.398  2.7263  0.1484  0.4674
 4840SOL     OW25978   3.829   2.591   0.236 -0.1909  0.5081  0.5701
 4840SOL    HW125979   3.858   2.644   0.162 -0.3230  1.0640  0.9144
 4840SOL    HW225980   3.904   2.541   0.268 -0.9053  0.6059  2.3991
 4841SOL     OW25981   1.287   1.266   8.390  0.3596 -0.6958 -0.5790
 4841SOL    HW125982   1.207   1.237   8.435  1.6076 -1.2277  1.3106
 4841SOL    HW225983   1.353   1.206   8.424 -0.9800 -0.5040  2.3543
 4842SOL     OW25984   4.240   1.113   2.437 -0.1498  0.1588  0.2280
 4842SOL    HW125985   4.298   1.063   2.380 -0.2838  2.4493 -1.9209
 4842SOL    HW225986   4.277   1.086   2.521 -0.6439  0.7121  0.6254
 4843SOL     OW25987   3.856   3.537  16.163  0.2615  0.6885  0.2619
 4843SOL    HW125988   3.945   3.574  16.163  0.7076 -0.3408 -3.4730
 4843SOL    HW225989   3.848   3.552  16.069 -0.2546 -3.4026 -0.3483
 4844SOL     OW25990   3.490   4.686  14.633 -0.4387 -0.3167  0.3106
 4844SOL    HW125991   3.496   4.593  14.655  2.2591  0.1797  1.7173
 4844SOL    HW225992   3.538   0.000  14.708  0.0988 -0.6155  0.1048
 4845SOL     OW25993   1.615   1.562   5.367 -0.1837  0.1647  0.4941
 4845SOL    HW125994   1.682   1.629   5.376 -0.3953  0.4692 -0.1383
 4845SOL    HW225995   1.668   1.487   5.339 -0.5760  0.4920 -1.1590
 4846SOL     OW25996   0.476   1.390   8.235  0.6080  0.4130 -0.2206
 4846SOL    HW125997   0.453   1.461   8.296  3.2499  1.7962 -0.8292
 4846SOL    HW225998   0.562   1.420   8.206  1.3510 -1.1663  0.3281
 4847SOL     OW25999   4.600   4.171   6.010 -0.0402 -0.1884 -0.0770
 4847SOL    HW126000   4.674   4.205   5.960 -1.1273 -0.3037 -1.7449
 4847SOL    HW226001   4.526   4.216   5.969 -0.1231 -0.4580 -0.2210
 4848SOL     OW26002   1.882   2.062   7.351  0.2876 -0.1458  0.1339
 4848SOL    HW126003   1.893   2.153   7.379  1.0389  0.1114 -0.9947
 4848SOL    HW226004   1.938   2.053   7.274 -0.3127  1.1330 -0.4450
 4849SOL     OW26005   3.061   3.559  10.903 -0.2162 -0.2491 -0.2201
 4849SOL    HW126006   3.100   3.520  10.826  0.6475  0.4762 -0.1572
 4849SOL    HW226007   3.143   3.585  10.945 -1.4867  0.6592  1.7756
 4850SOL     OW26008   1.385   3.717   5.805  0.2861 -0.2171  0.4780
 4850SOL    HW126009   1.330   3.691   5.879  0.8265 -0.0226  0.9486
 4850SOL    HW226010   1.345   3.698   5.720 -2.9036 -0.2789  2.0025
 4851SOL     OW26011   0.377   1.264  15.756  0.0971 -1.0350 -0.3536
 4851SOL    HW126012   0.431   1.343  15.760  0.3357 -1.1677 -0.9489
 4851SOL    HW226013   0.430   1.205  15.703  1.1873 -1.6081  1.3787
 4852SOL     OW26014   2.646   4.685   7.339 -0.2991 -0.4572  0.2778
 4852SOL    HW126015   2.681   4.639   7.415  2.5397 -1.0561 -1.3584
 4852SOL    HW226016   2.554   4.668   7.354 -0.3298 -1.0795 -0.5630
 4853SOL     OW26017   4.484   3.963  10.741 -0.1692  0.0458 -0.0188
 4853SOL    HW126018   4.538   3.920  10.675 -1.8326 -0.4228 -1.0824
 4853SOL    HW226019   4.489   3.900  10.813  1.1328 -1.6841 -1.6326
 4854SOL     OW26020   4.603   2.783  13.520 -0.2469 -0.0682 -0.4807
 4854SOL    HW126021   4.567   2.714  13.576 -1.1288 -1.3085 -2.5747
 4854SOL    HW226022   4.692   2.753  13.505 -0.7659 -1.9899  0.3450
 4855SOL     OW26023   3.879   2.971   2.931 -0.1046 -0.1394 -0.0980
 4855SOL    HW126024   3.928   2.912   2.990  1.4353  2.5636  1.3133
 4855SOL    HW226025   3.869   2.923   2.849 -0.0404  2.6874 -1.7522
 4856SOL     OW26026   2.763   0.897   9.693 -0.4181  0.0924  0.0922
 4856SOL    HW126027   2.719   0.865   9.771  0.4338 -2.8867 -0.6440
 4856SOL    HW226028   2.703   0.855   9.631  1.0692  1.2841 -2.1478
 4857SOL     OW26029   0.720   3.574   8.067 -0.5604  0.6313 -0.5026
 4857SOL    HW126030   0.762   3.546   7.986  0.8227 -0.9303  0.7596
 4857SOL    HW226031   0.628   3.582   8.042 -0.9088 -2.0348 -0.0670
 4858SOL     OW26032   2.534   0.822   3.826  0.2580  0.0647  0.2396
 4858SOL    HW126033   2.539   0.803   3.732 -1.7514 -0.2425  0.1804
 4858SOL    HW226034   2.474   0.760   3.869 -0.3413  0.3697 -0.1459
 4859SOL     OW26035   4.714   4.712   2.047  0.2007  0.5909  0.1721
 4859SOL    HW126036   0.036   0.027   2.125 -0.1989 -1.5764  1.3696
 4859SOL    HW226037   4.626   0.028   2.059 -0.6374 -1.1008 -0.8137
 4860SOL     OW26038   3.305   1.285  13.242  0.3913  0.3227  0.7313
 4860SOL    HW126039   3.277   1.350  13.178 -0.6764 -1.8106 -0.9491
 4860SOL    HW226040   3.383   1.249  13.201 -0.4113 -0.7586  0.1400
 4861SOL     OW26041   2.621   2.858  15.046 -0.5586  0.0137  0.1338
 4861SOL    HW126042   2.636   2.870  15.140 -3.7194  0.8100  0.5281
 4861SOL    HW226043   2.710   2.828  15.026 -0.7382 -0.8426  0.5898
 4862SOL     OW26044   1.166   3.567   2.068  0.3836 -0.6105  0.2818
 4862SOL    HW126045   1.124   3.504   2.009 -1.9424  2.4607 -1.3487
 4862SOL    HW226046   1.250   3.578   2.024  0.0454 -0.5417 -0.3387
 4863SOL     OW26047   2.469   3.636  17.460 -0.1812  0.3338  0.5324
 4863SOL    HW126048   2.390   3.631  17.514 -0.2960 -0.0270  0.3281
 4863SOL    HW226049   2.451   3.559  17.406  1.2198  0.3338  0.0730
 4864SOL     OW26050   0.073   4.714   9.030 -0.5614  0.1628  0.5907
 4864SOL    HW126051   4.698   4.712   9.029 -0.5640  0.0038  1.8312
 4864SOL    HW226052   0.091   0.018   8.939 -2.6098  2.9805  0.9501
 4865SOL     OW26053   2.855   2.240   5.490 -0.2288  0.0424 -0.5829
 4865SOL    HW126054   2.927   2.287   5.449 -0.3813 -0.7668 -1.7859
 4865SOL    HW226055   2.794   2.311   5.511  0.5399  1.0194 -1.6930
 4866SOL     OW26056   3.715   0.918   5.010 -0.2274 -0.1267  0.1080
 4866SOL    HW126057   3.708   0.903   4.915 -1.8641 -1.1791  0.3889
 4866SOL    HW226058   3.624   0.899   5.034  0.0879 -0.8393  0.7313
 4867SOL     OW26059   3.809   2.425   6.905 -0.1401  0.0120 -0.2666
 4867SOL    HW126060   3.721   2.385   6.910 -0.5951  1.0126 -0.3138
 4867SOL    HW226061   3.824   2.446   6.997 -0.7493  2.3211 -0.6986
 4868SOL     OW26062   3.584   1.860  16.326 -0.4564 -0.5964 -0.3666
 4868SOL    HW126063   3.604   1.921  16.398  1.7477  0.7477 -2.1183
 4868SOL    HW226064   3.573   1.913  16.247 -1.1131  2.7765  1.9846
 4869SOL     OW26065   1.641   0.237   9.799  0.2763 -0.1126  0.4494
 4869SOL    HW126066   1.628   0.228   9.704 -2.5995  1.0395  0.7434
 4869SOL    HW226067   1.734   0.211   9.801  0.3203  0.0047 -0.0431
 4870SOL     OW26068   4.173   4.294   4.096 -0.1252 -0.2208 -0.3107
 4870SOL    HW126069   4.252   4.345   4.076 -0.9452  1.2952  0.3468
 4870SOL    HW226070   4.121   4.319   4.019 -1.4722 -1.9464  0.0282
 4871SOL     OW26071   0.395   2.079   8.962 -0.2474  0.0249 -0.5266
 4871SOL    HW126072   0.380   2.146   9.029  0.0535  1.5878 -2.0403
 4871SOL    HW226073   0.322   2.018   8.973  0.3155 -0.5306  0.1260
 4872SOL     OW26074   4.090   0.437   5.395  0.1928  0.0352 -0.8162
 4872SOL    HW126075   3.996   0.430   5.377  0.6717 -1.8105 -2.5297
 4872SOL    HW226076   4.103   0.532   5.407 -0.4207 -0.2800  2.3231
 4873SOL     OW26077   3.917   1.792   4.673  0.5004  0.1044 -0.0560
 4873SOL    HW126078   3.990   1.733   4.652  1.0406  2.2252 -4.1207
 4873SOL    HW226079   3.856   1.735   4.721 -1.0650  1.8134 -0.0264
 4874SOL     OW26080   0.596   2.229   4.406  0.3409  0.0424  0.7301
 4874SOL    HW126081   0.621   2.258   4.318  0.4736  1.9674  1.3947
 4874SOL    HW226082   0.675   2.233   4.461 -0.5904 -0.4984  2.1197
 4875SOL     OW26083   0.532   0.238   1.863  0.1791  0.2918 -0.6494
 4875SOL    HW126084   0.598   0.190   1.812  0.4917 -3.2642  3.0912
 4875SOL    HW226085   0.586   0.312   1.889  1.1553 -0.0638 -1.6562
 4876SOL     OW26086   2.552   1.093   1.671 -0.0110  0.1472 -0.6869
 4876SOL    HW126087   2.568   1.130   1.758  0.3770 -1.3836 -0.1136
 4876SOL    HW226088   2.603   1.151   1.614 -0.0570 -0.1222 -1.0000
 4877SOL     OW26089   3.736   1.004  14.210  0.2190  0.0127  0.7784
 4877SOL    HW126090   3.730   1.021  14.304  3.1161 -2.7995  1.4998
 4877SOL    HW226091   3.657   0.954  14.190 -0.2370  1.1658 -0.2809
 4878SOL     OW26092   4.406   3.540  13.086 -0.7464  0.3641  0.1137
 4878SOL    HW126093   4.444   3.514  13.002 -0.6462  1.4695 -0.1743
 4878SOL    HW226094   4.442   3.482  13.153  0.1155 -0.9584 -1.4952
 4879SOL     OW26095   1.708   4.326  16.082  0.1869  0.1956 -0.1964
 4879SOL    HW126096   1.749   4.265  16.144 -1.0551 -1.2565 -0.7876
 4879SOL    HW226097   1.672   4.258  16.025  2.4196 -0.8211 -0.4060
 4880SOL     OW26098   0.287   2.125   1.872 -0.6659  0.2202  0.2026
 4880SOL    HW126099   0.374   2.164   1.867 -1.3764  1.9192  1.1347
 4880SOL    HW226100   0.309   2.032   1.874 -1.0791  0.0724 -2.0806
 4881SOL     OW26101   3.300   2.070   4.249  0.2151  0.6362 -1.0387
 4881SOL    HW126102   3.264   2.097   4.333  0.8580  1.0876 -0.9032
 4881SOL    HW226103   3.394   2.087   4.255  0.4959 -1.2763  0.1539
 4882SOL     OW26104   1.678   1.827   5.650  0.2439  0.2799  0.5195
 4882SOL    HW126105   1.740   1.813   5.721  1.1296 -0.8493 -0.4791
 4882SOL    HW226106   1.729   1.808   5.572 -0.0071 -0.3800  0.5134
 4883SOL     OW26107   2.571   1.966   4.661  1.0115  0.5809  0.1163
 4883SOL    HW126108   2.627   1.949   4.737  2.5849  0.5735 -1.0439
 4883SOL    HW226109   2.592   2.058   4.648 -0.5677  0.4497 -3.2773
 4884SOL     OW26110   4.355   0.145  12.978  0.3886 -0.4619 -0.0884
 4884SOL    HW126111   4.444   0.111  12.978  0.9443  0.9666  0.3671
 4884SOL    HW226112   4.376   0.235  13.004  0.4293 -0.9920  1.6810
 4885SOL     OW26113   2.360   3.595  15.247 -0.3455 -0.2850  0.0069
 4885SOL    HW126114   2.341   3.604  15.153  1.1300  0.5650 -0.2062
 4885SOL    HW226115   2.322   3.671  15.291 -0.8033 -0.1289 -0.6430
 4886SOL     OW26116   1.784   3.631   1.165 -0.1660 -0.1892  0.0344
 4886SOL    HW126117   1.879   3.639   1.168 -0.2206  0.4507 -0.0296
 4886SOL    HW226118   1.760   3.722   1.147 -1.3631 -0.0614  2.2022
 4887SOL     OW26119   0.197   3.913  12.043 -0.0521 -0.1220 -0.3440
 4887SOL    HW126120   0.177   3.922  12.136 -0.5636  1.4585 -0.6067
 4887SOL    HW226121   0.128   3.961  11.997  0.9218  0.7155 -0.9293
 4888SOL     OW26122   2.176   1.599   3.300 -0.2324  0.4293 -0.1656
 4888SOL    HW126123   2.234   1.613   3.225 -0.6284  1.1586 -0.3391
 4888SOL    HW226124   2.206   1.516   3.336  1.0617 -1.0152 -4.6727
 4889SOL     OW26125   4.647   0.803   3.635  0.8888  0.4319 -0.2026
 4889SOL    HW126126   4.695   0.721   3.648 -0.9283 -0.5160  0.4782
 4889SOL    HW226127   4.705   0.847   3.573  0.2840  0.8267 -0.4927
 4890SOL     OW26128   1.515   1.495  15.242 -0.0711 -0.1538 -0.2174
 4890SOL    HW126129   1.529   1.479  15.335 -2.0051 -2.2654 -0.2892
 4890SOL    HW226130   1.421   1.476  15.232 -0.2840  0.0611  1.3160
 4891SOL     OW26131   4.325   0.180  10.961 -0.0335 -0.1973  0.9177
 4891SOL    HW126132   4.354   0.162  10.872 -0.0818  0.2640  0.8108
 4891SOL    HW226133   4.393   0.130  11.006  0.2283 -1.9658 -1.4520
 4892SOL     OW26134   0.556   3.887   4.935  0.4327 -0.5559 -0.3937
 4892SOL    HW126135   0.643   3.859   4.906  0.0249 -3.4366  1.1921
 4892SOL    HW226136   0.497   3.858   4.866 -1.4712 -0.1121  1.0366
 4893SOL     OW26137   0.141   2.374   4.886 -0.0244  0.1431 -0.2212
 4893SOL    HW126138   0.091   2.294   4.899  1.4292 -1.2274 -2.9577
 4893SOL    HW226139   0.087   2.413   4.817  0.6869  0.5719 -0.5332
 4894SOL     OW26140   3.807   3.939   0.797 -0.4936 -0.3174 -0.4265
 4894SOL    HW126141   3.821   3.870   0.862  2.9273 -0.4784 -1.3387
 4894SOL    HW226142   3.725   3.906   0.760 -2.0182  1.9745  0.9152
 4895SOL     OW26143   1.516   4.516  12.249 -0.8108  0.3301  0.3727
 4895SOL    HW126144   1.426   4.533  12.221 -0.2418  1.4671 -0.7545
 4895SOL    HW226145   1.566   4.565  12.183 -1.3374  1.3102  0.7006
 4896SOL     OW26146   0.698   0.799  14.081  0.3678 -0.6263  0.3836
 4896SOL    HW126147   0.786   0.806  14.042  0.5208  0.3048  0.9040
 4896SOL    HW226148   0.642   0.801  14.003  1.2182 -2.3966 -0.2963
 4897SOL     OW26149   1.383   1.009   3.817 -0.6225  0.1085  0.4708
 4897SOL    HW126150   1.326   1.002   3.741 -2.5831  1.2591  1.8428
 4897SOL    HW226151   1.332   1.060   3.880  1.0494  1.8789  0.3874
 4898SOL     OW26152   0.137   1.493   7.238  0.3971 -0.0473 -0.5346
 4898SOL    HW126153   0.068   1.558   7.251 -1.5183 -2.7669  2.8203
 4898SOL    HW226154   0.206   1.518   7.299 -0.0804  0.5586 -0.2517
 4899SOL     OW26155   3.680   2.744   3.031  0.6056 -0.1665 -0.1835
 4899SOL    HW126156   3.765   2.725   3.071  0.1381  0.4478  1.0880
 4899SOL    HW226157   3.700   2.822   2.978 -0.3273  0.8498  0.9747
 4900SOL     OW26158   3.540   3.733   8.133  0.0921 -0.1547  0.0360
 4900SOL    HW126159   3.586   3.816   8.146 -0.6290  0.1135  0.8796
 4900SOL    HW226160   3.562   3.698   8.219 -0.6821 -0.0571  0.2790
 4901SOL     OW26161   2.225   3.516  10.118 -0.0123  0.5498  0.0893
 4901SOL    HW126162   2.148   3.495  10.173  1.3863 -0.5549  1.6505
 4901SOL    HW226163   2.176   3.541  10.040  0.6666 -1.6426 -1.0254
 4902SOL     OW26164   2.345   0.585   3.854  0.7115  0.2635  0.0326
 4902SOL    HW126165   2.382   0.501   3.827  2.3710  0.1317  2.7320
 4902SOL    HW226166   2.293   0.553   3.928  0.3852 -0.8162 -0.6575
 4903SOL     OW26167   2.659   1.114  15.251 -0.2785 -0.7107 -0.0220
 4903SOL    HW126168   2.637   1.200  15.216 -0.4140 -1.1743 -1.0623
 4903SOL    HW226169   2.631   1.059  15.178  0.4026 -0.7479 -0.2632
 4904SOL     OW26170   0.112   3.368   4.664  0.0933 -0.4240  0.3895
 4904SOL    HW126171   0.024   3.399   4.683 -0.2773 -2.7744  2.4780
 4904SOL    HW226172   0.097   3.339   4.573  0.6323 -0.1166  0.2034
 4905SOL     OW26173   3.618   3.723   7.823  0.1607  0.2254 -0.1817
 4905SOL    HW126174   3.620   3.819   7.820  2.0013  0.2838  3.4320
 4905SOL    HW226175   3.551   3.708   7.889  1.1372  0.1197  0.7775
 4906SOL     OW26176   4.711   2.339   8.320  0.0150 -0.3723 -0.1116
 4906SOL    HW126177   4.674   2.421   8.354 -1.6020 -2.0277  2.1046
 4906SOL    HW226178   4.643   2.276   8.341 -0.2137 -0.0248  0.1909
 4907SOL     OW26179   2.492   4.577   1.939 -0.7391 -0.2763 -0.9312
 4907SOL    HW126180   2.542   4.552   1.861 -1.1583  1.2734 -1.7123
 4907SOL    HW226181   2.405   4.547   1.913 -0.7515 -0.8371 -0.2474
 4908SOL     OW26182   0.603   0.211   5.890  0.6016 -0.0155 -0.4177
 4908SOL    HW126183   0.583   0.304   5.886  2.3449  0.3723 -0.0294
 4908SOL    HW226184   0.698   0.202   5.895  0.4658 -0.5662  0.9939
 4909SOL     OW26185   1.090   0.897   9.942 -0.0841  0.6219 -0.0934
 4909SOL    HW126186   1.009   0.947   9.931 -0.3933  0.1923  0.2556
 4909SOL    HW226187   1.113   0.947  10.021  0.4702  0.0185  0.1225
 4910SOL     OW26188   3.276   4.107   4.644  0.5248 -0.1664  0.3022
 4910SOL    HW126189   3.236   4.101   4.558 -0.8008  1.5852  0.7911
 4910SOL    HW226190   3.192   4.121   4.688  0.9726  0.8088  0.8481
 4911SOL     OW26191   4.477   1.389  13.315 -0.5835  0.0184 -0.1723
 4911SOL    HW126192   4.531   1.460  13.279 -1.4359  0.5367 -0.4201
 4911SOL    HW226193   4.542   1.340  13.366  0.4134  2.1454  0.6047
 4912SOL     OW26194   2.905   2.498   6.021 -0.0588 -0.0634 -0.1237
 4912SOL    HW126195   2.995   2.465   6.021  0.2120  0.6620  0.9918
 4912SOL    HW226196   2.913   2.578   5.969  0.3303 -0.2350 -0.3261
 4913SOL     OW26197   2.849   3.704   5.018  0.0302  0.2767 -0.2495
 4913SOL    HW126198   2.757   3.702   4.991 -0.2208 -2.3650  0.8784
 4913SOL    HW226199   2.842   3.669   5.107 -0.1087 -0.4901 -0.5688
 4914SOL     OW26200   2.809   3.807   5.488 -0.1356 -0.2293 -0.1853
 4914SOL    HW126201   2.858   3.868   5.543 -0.3838  1.1262 -1.4664
 4914SOL    HW226202   2.726   3.814   5.536 -0.1320 -2.1583  0.1014
 4915SOL     OW26203   4.046   2.330   7.850 -0.1698  0.7310 -0.3256
 4915SOL    HW126204   4.005   2.318   7.935  0.3921  0.4037 -0.1013
 4915SOL    HW226205   3.967   2.323   7.795  0.5238  0.3962 -1.2813
 4916SOL     OW26206   0.610   3.942  17.092  0.3744  0.1490  0.0398
 4916SOL    HW126207   0.670   3.989  17.150  1.4520  0.4292 -1.3182
 4916SOL    HW226208   0.642   3.964  17.005  3.5721  1.9857  1.6654
 4917SOL     OW26209   0.534   1.607   9.484  0.2445 -0.9059  0.4060
 4917SOL    HW126210   0.609   1.583   9.430 -1.7730 -0.3870 -2.5810
 4917SOL    HW226211   0.467   1.587   9.419 -0.4023 -0.8763  1.0574
 4918SOL     OW26212   0.665   1.981   6.886 -0.0813 -0.0944 -0.2145
 4918SOL    HW126213   0.758   2.002   6.899 -0.3081  2.0687 -1.9557
 4918SOL    HW226214   0.662   1.893   6.922 -0.5996 -0.5309 -1.3263
 4919SOL     OW26215   1.038   2.109  11.316  0.5479  0.0512 -0.3709
 4919SOL    HW126216   1.071   2.106  11.226 -0.6644  0.3162 -0.8241
 4919SOL    HW226217   1.048   2.017  11.342 -0.8133  0.2757  0.9492
 4920SOL     OW26218   4.236   3.916   0.494  0.2290 -0.3942 -0.5739
 4920SOL    HW126219   4.158   3.891   0.445 -0.5600  1.3063 -0.2125
 4920SOL    HW226220   4.196   3.983   0.550 -1.1846 -3.3707  1.9411
 4921SOL     OW26221   1.069   2.330   3.324 -0.2730 -0.1244 -0.3335
 4921SOL    HW126222   1.113   2.415   3.323 -1.6692  0.6147  0.5082
 4921SOL    HW226223   1.080   2.307   3.232 -1.8028  1.6907 -0.9690
 4922SOL     OW26224   2.200   1.228   9.711  0.0309 -0.2530  0.5229
 4922SOL    HW126225   2.273   1.278   9.675 -0.0440 -1.3416 -1.1165
 4922SOL    HW226226   2.165   1.289   9.776  0.3620  1.9234 -1.3427
 4923SOL     OW26227   3.045   0.824   0.549  0.1465  0.1271  0.5285
 4923SOL    HW126228   3.026   0.910   0.511 -1.6718 -1.2462 -1.6728
 4923SOL    HW226229   3.093   0.844   0.629 -0.8109 -0.4786  1.2458
 4924SOL     OW26230   2.641   3.122   1.335  0.6310 -0.0416 -0.0179
 4924SOL    HW126231   2.599   3.205   1.356  0.3347 -0.3462  0.5911
 4924SOL    HW226232   2.684   3.099   1.417 -0.2481  2.1465  1.0482
 4925SOL     OW26233   1.629   2.496   4.563 -0.3606 -0.2059 -0.1333
 4925SOL    HW126234   1.686   2.512   4.488  0.1315 -1.3894 -0.0107
 4925SOL    HW226235   1.571   2.431   4.523 -2.1860  1.3253 -0.0104
 4926SOL     OW26236   2.082   4.464   5.015 -0.3679  0.1711 -0.5949
 4926SOL    HW126237   2.020   4.483   4.945 -1.0168 -1.5768 -0.5068
 4926SOL    HW226238   2.075   4.542   5.069  1.0381  0.3540 -0.6859
 4927SOL     OW26239   0.917   0.839  13.932  0.3007  0.6456 -0.1663
 4927SOL    HW126240   0.878   0.926  13.938  0.1236  0.6612 -1.4610
 4927SOL    HW226241   0.910   0.823  13.838 -1.3339 -0.0678  0.0785
 4928SOL     OW26242   3.870   1.833  10.402 -0.3482 -0.1042  0.2309
 4928SOL    HW126243   3.957   1.813  10.367 -0.4750  0.3492 -0.3431
 4928SOL    HW226244   3.874   1.921  10.440 -0.0384 -0.0761  0.1383
 4929SOL     OW26245   0.574   2.490   8.610  0.3920 -0.1779  0.0044
 4929SOL    HW126246   0.655   2.537   8.631 -0.3753  0.1077  2.3683
 4929SOL    HW226247   0.546   2.455   8.695  0.1461  0.6318  0.2661
 4930SOL     OW26248   0.057   1.472   5.010  0.2040  0.4226 -0.0636
 4930SOL    HW126249   0.010   1.420   5.075 -0.2214  0.1204 -0.6106
 4930SOL    HW226250   0.116   1.409   4.968 -0.1514  0.4704 -0.6348
 4931SOL     OW26251   4.244   0.543  16.354  0.2674  0.2524 -0.1392
 4931SOL    HW126252   4.253   0.466  16.409 -0.9330  0.6866  0.6705
 4931SOL    HW226253   4.313   0.525  16.291 -0.2379 -2.6900  0.1807
 4932SOL     OW26254   3.090   0.037   6.118  0.9883 -0.4689 -0.0709
 4932SOL    HW126255   3.108   0.028   6.025  0.9237 -0.1194 -0.1166
 4932SOL    HW226256   3.168   0.073   6.162  0.3565 -1.7000  2.0569
 4933SOL     OW26257   3.325   4.259   7.648  0.1246  0.2962 -0.1268
 4933SOL    HW126258   3.289   4.229   7.731  0.4203  0.1898 -0.0388
 4933SOL    HW226259   3.298   4.351   7.648  0.4873  0.4034  1.4126
 4934SOL     OW26260   2.573   1.009   3.320  0.1991  0.1837  0.0483
 4934SOL    HW126261   2.657   0.970   3.342 -0.3782 -1.2026 -0.1467
 4934SOL    HW226262   2.561   1.062   3.399  0.0879 -0.8231  0.7060
 4935SOL     OW26263   1.575   4.175   8.810  0.0472 -0.0766  0.5616
 4935SOL    HW126264   1.667   4.186   8.833 -0.2537  2.4699  0.5183
 4935SOL    HW226265   1.572   4.082   8.832  1.3006 -0.5958 -1.4109
 4936SOL     OW26266   0.122   1.794   2.471  0.1361  0.2769  0.2641
 4936SOL    HW126267   0.112   1.868   2.531  0.4050  0.1284  0.4908
 4936SOL    HW226268   0.047   1.741   2.498  1.0358 -0.1068  1.9844
 4937SOL     OW26269   0.549   3.100   5.527 -0.7921  0.5933  0.2975
 4937SOL    HW126270   0.513   3.148   5.453  1.2991 -1.2618 -1.9092
 4937SOL    HW226271   0.499   3.019   5.532  0.2785 -0.0845 -0.1615
 4938SOL     OW26272   1.397   4.559   9.800 -0.0621 -0.3197  0.1017
 4938SOL    HW126273   1.401   4.625   9.732  2.0949  0.9537  1.4609
 4938SOL    HW226274   1.411   4.477   9.754  1.7684 -0.4188  0.8347
 4939SOL     OW26275   1.035   1.123   4.609 -0.2836  0.5716  0.9048
 4939SOL    HW126276   1.091   1.047   4.593 -1.2062  0.3554 -1.1739
 4939SOL    HW226277   0.953   1.097   4.567  0.8288 -2.6708  0.7393
 4940SOL     OW26278   0.091   1.437   2.714  0.5784 -0.6761 -0.1916
 4940SOL    HW126279   0.030   1.510   2.700 -0.2328 -1.3191 -0.0075
 4940SOL    HW226280   0.071   1.370   2.649  0.5060  1.7877 -2.7253
 4941SOL     OW26281   4.018   3.359   0.883 -0.3679  0.0057  0.5451
 4941SOL    HW126282   3.964   3.370   0.961  0.2279  0.6238  0.8642
 4941SOL    HW226283   3.956   3.363   0.810 -0.9186 -1.0510  0.9437
 4942SOL     OW26284   1.892   3.056   8.279 -0.4330  0.4968  0.0843
 4942SOL    HW126285   1.877   2.989   8.346  2.6933 -1.8237 -1.5711
 4942SOL    HW226286   1.874   3.011   8.197 -0.6702  2.9132 -1.1909
 4943SOL     OW26287   1.954   0.872   1.963 -0.1324  0.5194 -0.0584
 4943SOL    HW126288   2.034   0.921   1.980 -1.5493  2.1978  1.6928
 4943SOL    HW226289   1.953   0.807   2.033 -1.1302  0.9086  0.2970
 4944SOL     OW26290   1.118   0.089   5.960  0.3135  0.0779 -0.0179
 4944SOL    HW126291   1.155   0.023   6.018 -0.8311 -0.8912 -0.3874
 4944SOL    HW226292   1.151   0.058   5.875  0.8326 -0.6278  0.4413
 4945SOL     OW26293   1.398   3.245   6.260 -0.6513  0.3204  0.3151
 4945SOL    HW126294   1.420   3.157   6.291 -1.8785  0.2463  0.9710
 4945SOL    HW226295   1.478   3.288   6.290 -0.1593  0.7208 -1.5639
 4946SOL     OW26296   3.567   2.903   3.651 -0.1907  0.2159  0.2602
 4946SOL    HW126297   3.628   2.914   3.724  2.0028  1.3908 -1.7274
 4946SOL    HW226298   3.600   2.817   3.624 -1.7015 -0.0628 -0.6924
 4947SOL     OW26299   1.167   1.869  16.077  0.4613 -0.0004 -0.2003
 4947SOL    HW126300   1.177   1.914  16.161  0.6476  1.0698 -0.7925
 4947SOL    HW226301   1.228   1.924  16.028 -3.7091  1.5560 -3.6542
 4948SOL     OW26302   3.576   3.237   8.457  0.0891 -0.0966  0.2598
 4948SOL    HW126303   3.492   3.255   8.415  0.3506 -2.0810 -1.0652
 4948SOL    HW226304   3.562   3.143   8.467 -0.5903  0.0574  0.8237
 4949SOL     OW26305   3.277   0.154   4.455 -0.3537  0.0656 -0.3819
 4949SOL    HW126306   3.204   0.163   4.394 -0.1107  0.2195 -0.6544
 4949SOL    HW226307   3.238   0.178   4.539 -0.9631 -1.5505 -0.2060
 4950SOL     OW26308   2.506   3.840  15.584 -0.0136  0.2294  0.5359
 4950SOL    HW126309   2.597   3.851  15.609  0.3281 -0.1193 -0.5999
 4950SOL    HW226310   2.470   3.793  15.659  2.3526 -0.1339  1.4181
 4951SOL     OW26311   4.323   1.826  14.933  0.4682  0.0451 -0.7571
 4951SOL    HW126312   4.308   1.732  14.921 -0.5967  0.1183  0.0494
 4951SOL    HW226313   4.243   1.846  14.980  0.0781  1.1077 -1.8508
 4952SOL     OW26314   1.761   0.452   7.613  0.3125  0.8243  0.0567
 4952SOL    HW126315   1.666   0.443   7.603  0.2389 -1.5915  3.0658
 4952SOL    HW226316   1.774   0.379   7.673  0.7634  0.1248 -0.8977
 4953SOL     OW26317   0.973   0.523  17.618  0.9567 -0.0307 -0.0513
 4953SOL    HW126318   1.030   0.599  17.618 -0.1384  0.7822  1.1590
 4953SOL    HW226319   1.025   0.451  17.653  1.3709  0.3775  0.1638
 4954SOL     OW26320   4.504   3.533   3.227  0.3021 -0.0433 -0.1268
 4954SOL    HW126321   4.443   3.490   3.167  0.1443 -0.6004  0.4458
 4954SOL    HW226322   4.449   3.605   3.259 -0.4257 -0.6401 -0.0321
 4955SOL     OW26323   1.238   1.149   5.727  0.0488  0.1320  0.2548
 4955SOL    HW126324   1.280   1.235   5.730  0.4024 -0.0052 -1.0623
 4955SOL    HW226325   1.160   1.174   5.777  0.2497  0.6190  0.3259
 4956SOL     OW26326   3.439   3.434  14.456 -0.0738 -0.5116 -0.4681
 4956SOL    HW126327   3.442   3.529  14.447 -0.7773 -0.5036 -0.6181
 4956SOL    HW226328   3.348   3.427  14.484 -0.0034 -0.4245 -0.2176
 4957SOL     OW26329   4.468   4.307   2.030  0.1285  0.4971  0.5146
 4957SOL    HW126330   4.448   4.371   1.962  1.8701 -1.8948 -2.2300
 4957SOL    HW226331   4.381   4.316   2.071 -0.5330  1.1801 -1.0363
 4958SOL     OW26332   3.622   4.355  17.148 -0.1755  0.4212 -0.1940
 4958SOL    HW126333   3.583   4.442  17.144  2.4716  1.6601  1.5237
 4958SOL    HW226334   3.604   4.335  17.056  0.5162 -1.9615  0.1898
 4959SOL     OW26335   1.260   1.318   7.219  0.2509  0.1355  0.0064
 4959SOL    HW126336   1.211   1.357   7.292  2.1182  0.0304  1.3110
 4959SOL    HW226337   1.345   1.326   7.262 -0.2948  1.8001  0.8177
 4960SOL     OW26338   1.371   2.494   5.423 -0.6767  0.0815  0.6973
 4960SOL    HW126339   1.393   2.491   5.330  2.0534 -1.4550  1.3954
 4960SOL    HW226340   1.436   2.432   5.456 -1.5301 -0.5823  1.1631
 4961SOL     OW26341   4.614   3.175   6.859 -0.0014  0.5008  0.2377
 4961SOL    HW126342   4.622   3.215   6.946  0.1464  1.1648 -0.0858
 4961SOL    HW226343   4.519   3.163   6.861  0.4573 -3.2501 -0.5360
 4962SOL     OW26344   3.404   0.988   7.975 -0.0314  0.1293 -0.1762
 4962SOL    HW126345   3.404   1.076   7.939 -0.0936  0.1811 -0.0493
 4962SOL    HW226346   3.498   0.971   7.980  0.3748  3.3034  3.1881
 4963SOL     OW26347   2.035   3.918   3.551 -0.3903 -0.1531  0.5032
 4963SOL    HW126348   2.110   3.966   3.516 -0.7756 -0.0256 -0.1373
 4963SOL    HW226349   2.016   3.953   3.639 -0.8336  0.6880  0.0709
 4964SOL     OW26350   1.151   1.752   4.466 -0.0726  0.0395  0.5375
 4964SOL    HW126351   1.220   1.740   4.401 -0.1287 -1.2925  0.7136
 4964SOL    HW226352   1.149   1.662   4.500  1.5484 -0.4005 -0.5103
 4965SOL     OW26353   0.453   4.258   7.502  0.1241  0.2780  0.4419
 4965SOL    HW126354   0.513   4.246   7.428 -2.6579  1.1935 -1.9779
 4965SOL    HW226355   0.496   4.215   7.576 -1.5508 -1.4536  0.3859
 4966SOL     OW26356   1.596   3.496  11.460 -0.3758 -0.1789 -0.0312
 4966SOL    HW126357   1.602   3.575  11.513 -0.7986 -0.2263  0.0856
 4966SOL    HW226358   1.631   3.522  11.375  1.0178 -1.8334  0.0299
 4967SOL     OW26359   1.203   0.139   2.834  0.1720  0.2515  0.2452
 4967SOL    HW126360   1.237   0.094   2.911 -0.1454 -0.3317  0.0449
 4967SOL    HW226361   1.206   0.232   2.860 -1.5468  0.7595 -1.4083
 4968SOL     OW26362   4.692   2.115  16.971 -0.0029  0.1045  0.1220
 4968SOL    HW126363   4.599   2.123  16.948  0.4679  1.2683 -1.3574
 4968SOL    HW226364   4.684   2.121  17.066  0.0646 -1.3417  0.2283
 4969SOL     OW26365   4.534   3.406   8.161 -0.4217 -0.6488  0.4936
 4969SOL    HW126366   4.567   3.401   8.071  0.8189 -2.7445  1.0468
 4969SOL    HW226367   4.613   3.375   8.206 -1.8203 -2.3309  1.7796
 4970SOL     OW26368   4.650   2.879  10.397 -0.1556 -0.0878  0.1175
 4970SOL    HW126369   4.622   2.839  10.315 -2.8455  0.3262  0.8603
 4970SOL    HW226370   4.622   2.817  10.464 -0.6350  0.8570  0.7897
 4971SOL     OW26371   4.120   3.049   1.876 -0.3623 -0.3445  0.5976
 4971SOL    HW126372   4.174   3.001   1.813 -0.0995  0.7376 -0.0104
 4971SOL    HW226373   4.180   3.121   1.898  0.5182  0.3931 -4.0923
 4972SOL     OW26374   1.966   0.434   2.258  0.2727 -0.3153  0.1400
 4972SOL    HW126375   1.934   0.428   2.348 -0.5541  0.8843 -0.0791
 4972SOL    HW226376   1.936   0.351   2.222  2.3471 -1.1720  0.4208
 4973SOL     OW26377   2.754   0.795  11.596  0.1207 -0.0403 -0.3263
 4973SOL    HW126378   2.738   0.711  11.552  1.5301 -1.5140  2.0059
 4973SOL    HW226379   2.822   0.765  11.656 -0.7063 -0.4209  0.4195
 4974SOL     OW26380   2.565   1.252   1.935  0.2709  0.4544  0.4141
 4974SOL    HW126381   2.648   1.276   1.976  0.2087  0.7751  0.3523
 4974SOL    HW226382   2.514   1.332   1.922  0.6214  0.5768 -0.2475
 4975SOL     OW26383   4.000   2.185  11.543  0.1544  0.6223  0.2509
 4975SOL    HW126384   4.052   2.243  11.598 -0.7124  0.2655  1.4432
 4975SOL    HW226385   4.005   2.102  11.591 -2.1455  1.0629  1.2779
 4976SOL     OW26386   1.946   3.413   7.278  0.1616 -0.1403 -0.2604
 4976SOL    HW126387   2.016   3.349   7.267  1.0100  1.1915 -2.6468
 4976SOL    HW226388   1.965   3.469   7.353  0.4210  0.0642 -0.4764
 4977SOL     OW26389   4.578   1.618   3.642 -0.1852 -0.0440  0.3449
 4977SOL    HW126390   4.489   1.598   3.613  0.3285  1.3754 -2.1766
 4977SOL    HW226391   4.590   1.538   3.694 -0.6995 -0.7017 -0.5330
 4978SOL     OW26392   1.079   3.968  14.207  0.2817 -0.2346  0.0072
 4978SOL    HW126393   0.985   3.978  14.193  0.2473 -2.6058 -1.5455
 4978SOL    HW226394   1.092   3.900  14.273  1.6885  0.9808  0.9647
 4979SOL     OW26395   0.362   0.059   1.592  0.4512 -0.1327  0.0442
 4979SOL    HW126396   0.296   0.030   1.654 -0.0186  1.4456  0.2865
 4979SOL    HW226397   0.391   0.143   1.628 -0.8891  0.4158 -0.1782
 4980SOL     OW26398   0.270   3.956  16.442  0.1972  0.0647  0.2259
 4980SOL    HW126399   0.227   3.963  16.527 -1.7430 -0.4090 -0.7175
 4980SOL    HW226400   0.240   4.036  16.398 -3.0160 -2.2726 -1.8857
 4981SOL     OW26401   3.793   0.535  15.476  0.1027  0.3046  0.1082
 4981SOL    HW126402   3.791   0.522  15.381  1.7402 -0.0749  0.1187
 4981SOL    HW226403   3.723   0.473  15.496 -1.7279  2.1620 -0.5298
 4982SOL     OW26404   0.201   2.347   2.716  0.5192 -0.4772 -0.1900
 4982SOL    HW126405   0.234   2.354   2.806 -1.3296  0.9109  0.3720
 4982SOL    HW226406   0.127   2.407   2.724  0.6926 -0.1066 -1.3869
 4983SOL     OW26407   1.210   4.291  17.247 -0.5288  0.8610 -0.1614
 4983SOL    HW126408   1.263   4.254  17.316  0.0851 -0.5693 -1.4076
 4983SOL    HW226409   1.268   4.313  17.173  0.3603  1.1628  0.6281
 4984SOL     OW26410   2.608   0.400   1.202  0.0082  0.1089 -0.4262
 4984SOL    HW126411   2.637   0.483   1.241 -0.4809  0.5362 -0.9718
 4984SOL    HW226412   2.664   0.333   1.240 -0.2349  2.1105  3.4318
 4985SOL     OW26413   3.510   2.581   3.829  0.8166  0.1223 -0.3305
 4985SOL    HW126414   3.558   2.575   3.911  1.9173 -2.8100 -1.1685
 4985SOL    HW226415   3.419   2.571   3.856  0.3431  1.0465 -1.5947
 4986SOL     OW26416   4.053   0.484   2.710 -0.3472 -0.3456 -0.2060
 4986SOL    HW126417   3.959   0.467   2.714 -0.3619 -0.2854 -0.3102
 4986SOL    HW226418   4.055   0.565   2.761  1.0121 -2.0598  2.4932
 4987SOL     OW26419   4.116   3.497   7.221  0.0683 -0.9086 -0.1568
 4987SOL    HW126420   4.145   3.477   7.132 -0.8902 -0.6379 -0.5320
 4987SOL    HW226421   4.038   3.551   7.206 -0.0607 -1.0715 -0.0811
 4988SOL     OW26422   2.939   1.915  14.434 -0.4105  0.6893  0.3076
 4988SOL    HW126423   2.909   1.965  14.358  0.3707 -0.5720 -0.8323
 4988SOL    HW226424   2.862   1.863  14.457  0.1744 -1.1247 -1.8478
 4989SOL     OW26425   2.947   1.734   7.290 -0.1370  0.3867 -0.6357
 4989SOL    HW126426   2.895   1.810   7.316 -0.8988 -0.2241 -0.3804
 4989SOL    HW226427   3.035   1.773   7.285  0.1362 -0.1958 -0.4498
 4990SOL     OW26428   1.104   2.447   1.705  0.5232  0.5020  0.5103
 4990SOL    HW126429   1.112   2.490   1.790  1.4397  3.8310 -1.2554
 4990SOL    HW226430   1.197   2.435   1.688 -0.7338 -2.1923 -4.6725
 4991SOL     OW26431   0.564   4.247   1.483 -0.1050  0.2571 -0.3189
 4991SOL    HW126432   0.649   4.280   1.451  1.2336 -0.3420  2.6701
 4991SOL    HW226433   0.568   4.157   1.452  0.7859 -0.1213  0.9246
 4992SOL     OW26434   1.782   0.724   2.735 -0.4931  0.3704 -0.2318
 4992SOL    HW126435   1.822   0.641   2.762 -2.7433 -0.0782  1.7319
 4992SOL    HW226436   1.691   0.699   2.720 -1.2800  1.8998  2.1401
 4993SOL     OW26437   1.809   2.326  10.231 -0.1677  0.1160 -0.3394
 4993SOL    HW126438   1.783   2.374  10.151  2.0873  1.7266 -0.1053
 4993SOL    HW226439   1.860   2.258  10.187 -0.1868 -0.5017  0.6035
 4994SOL     OW26440   0.508   0.078   1.089  0.2872 -0.7335  0.3208
 4994SOL    HW126441   0.489   0.035   1.172 -1.2209  1.4555  1.1325
 4994SOL    HW226442   0.600   0.054   1.085  0.5755  0.7874 -2.3621
 4995SOL     OW26443   2.904   4.381  10.933  0.6315  0.1434  0.1965
 4995SOL    HW126444   2.981   4.403  10.879  0.5045 -0.9023 -0.4101
 4995SOL    HW226445   2.867   4.465  10.961  2.7950  0.8309  0.9864
 4996SOL     OW26446   2.934   0.881   4.396  0.4296 -0.1454  0.0532
 4996SOL    HW126447   2.991   0.957   4.394 -1.5159  1.3036 -0.3866
 4996SOL    HW226448   2.983   0.822   4.339  1.2056  1.2952 -0.7828
 4997SOL     OW26449   4.540   3.741  15.362  0.0618  0.2742 -0.3683
 4997SOL    HW126450   4.557   3.681  15.436  0.0940  0.5438 -0.1573
 4997SOL    HW226451   4.619   3.724  15.311  1.0333 -0.2975  1.3123
 4998SOL     OW26452   1.086   3.882   8.858  0.2707  0.1437  0.3899
 4998SOL    HW126453   1.042   3.810   8.903 -0.6161  0.0010 -0.7040
 4998SOL    HW226454   1.134   3.842   8.785 -0.4322  0.9186 -0.5000
 4999SOL     OW26455   3.999   0.867   7.015  0.2803  0.2214 -0.0414
 4999SOL    HW126456   3.956   0.948   7.039  0.6928  0.3690  0.1908
 4999SOL    HW226457   3.963   0.814   7.087  0.2565 -0.2771 -0.4163
 5000SOL     OW26458   1.698   1.732  15.191 -0.2150  0.0724 -0.1508
 5000SOL    HW126459   1.627   1.669  15.186  1.9942 -2.4756  0.1890
 5000SOL    HW226460   1.772   1.685  15.150  1.0497  1.6452  0.3268
 5001SOL     OW26461   4.341   2.353   4.751 -0.6720 -0.2435 -0.1756
 5001SOL    HW126462   4.337   2.283   4.686  0.2029 -0.7983  0.3768
 5001SOL    HW226463   4.415   2.326   4.805 -0.6918 -0.4244 -0.2410
 5002SOL     OW26464   4.280   2.860  10.522 -0.1695  0.4012 -0.0991
 5002SOL    HW126465   4.368   2.898  10.530 -0.3000  0.7741 -0.3960
 5002SOL    HW226466   4.264   2.823  10.608 -2.0623  0.1910 -0.5369
 5003SOL     OW26467   0.694   3.763  12.727 -0.2603  0.1196 -0.2474
 5003SOL    HW126468   0.671   3.700  12.796 -1.7830  2.4405  1.3798
 5003SOL    HW226469   0.783   3.788  12.751 -0.3629  0.1613  0.1017
 5004SOL     OW26470   2.135   1.367  11.782 -0.8100 -0.3319 -0.0283
 5004SOL    HW126471   2.203   1.424  11.816 -2.4461  1.2925  0.5367
 5004SOL    HW226472   2.185   1.301  11.734 -0.4599  1.8980 -2.7533
 5005SOL     OW26473   3.182   2.022   7.564 -0.4504 -0.0253 -0.3460
 5005SOL    HW126474   3.193   2.091   7.631  0.7762 -1.4017  0.8780
 5005SOL    HW226475   3.130   1.956   7.610 -0.5184 -0.8771 -1.6782
 5006SOL     OW26476   3.851   4.059   2.549 -0.2765 -0.5743 -0.0364
 5006SOL    HW126477   3.828   3.997   2.479  3.6401 -0.8025 -1.1239
 5006SOL    HW226478   3.802   4.013   2.616  1.0892  0.6437  1.7794
 5007SOL     OW26479   3.233   0.431  10.561 -0.1547  0.2867 -0.1450
 5007SOL    HW126480   3.249   0.337  10.556 -0.1501  0.0519  4.3864
 5007SOL    HW226481   3.145   0.437  10.525 -1.2702  2.3924  2.9388
 5008SOL     OW26482   0.141   1.504  14.662 -1.0504 -0.1674  0.1638
 5008SOL    HW126483   0.084   1.429  14.675 -1.2698  0.1403  0.9482
 5008SOL    HW226484   0.213   1.462  14.615  0.1980  2.3841 -0.1910
 5009SOL     OW26485   2.792   4.570   3.198 -0.3137 -0.1917 -0.3058
 5009SOL    HW126486   2.809   4.588   3.106  1.7837  1.5379  0.4164
 5009SOL    HW226487   2.713   4.517   3.205  0.4996 -1.4333 -0.4977
 5010SOL     OW26488   0.173   0.792   1.921 -0.2505  0.6404 -0.1999
 5010SOL    HW126489   0.124   0.770   1.999  0.6882 -0.2190  0.1578
 5010SOL    HW226490   0.236   0.720   1.927 -2.4959 -1.3796 -0.8485
 5011SOL     OW26491   2.974   2.261  14.204 -1.0054  0.3141  0.2108
 5011SOL    HW126492   2.990   2.285  14.296 -0.5425 -1.3255  0.5543
 5011SOL    HW226493   3.005   2.339  14.157  0.0053  0.1277  0.5601
 5012SOL     OW26494   0.957   3.552   6.256 -0.0929  0.2772 -0.3983
 5012SOL    HW126495   1.028   3.533   6.317 -1.1737 -1.2414  0.4035
 5012SOL    HW226496   0.953   3.468   6.210  2.5114  0.0562 -0.1939
 5013SOL     OW26497   3.832   4.461  11.415  0.1162 -0.2375 -0.0738
 5013SOL    HW126498   3.841   4.431  11.505  1.8937  0.2656 -0.0840
 5013SOL    HW226499   3.896   4.401  11.379  2.2336  1.5356  0.7373
 5014SOL     OW26500   0.042   2.982   8.844 -0.2473 -0.1658 -0.2095
 5014SOL    HW126501   4.683   2.963   8.794 -2.8226  1.1716  3.3603
 5014SOL    HW226502   0.027   2.935   8.926 -0.9148  0.6388  0.1283
 5015SOL     OW26503   1.021   2.309   7.392  0.2004 -0.3503 -0.4375
 5015SOL    HW126504   0.987   2.231   7.348 -1.3174 -2.1707  3.9248
 5015SOL    HW226505   1.084   2.330   7.323  2.7285 -0.3395  1.8629
 5016SOL     OW26506   0.393   0.324   9.068  0.2415 -0.9421  0.3493
 5016SOL    HW126507   0.480   0.298   9.039  0.2408 -0.5957  0.0412
 5016SOL    HW226508   0.367   0.234   9.085 -1.5183 -0.3649  0.8004
 5017SOL     OW26509   2.996   2.354  13.811 -0.3408  0.1148 -0.0618
 5017SOL    HW126510   2.964   2.430  13.859 -0.1508 -2.1094  3.5732
 5017SOL    HW226511   2.998   2.391  13.722  1.3657  0.8063  0.2669
 5018SOL     OW26512   1.241   3.527   4.244  0.6346  0.3411 -0.1023
 5018SOL    HW126513   1.308   3.556   4.182  2.0726  0.3423  1.4665
 5018SOL    HW226514   1.184   3.478   4.184  1.3788  1.0666 -1.4038
 5019SOL     OW26515   0.266   1.114  15.965 -0.1061 -0.4128  0.1025
 5019SOL    HW126516   0.313   1.142  16.043  1.9871 -0.4811 -1.1460
 5019SOL    HW226517   0.297   1.172  15.896 -0.7824 -2.1886 -1.7321
 5020SOL     OW26518   2.123   0.654   5.537 -0.2172 -0.3316  0.0037
 5020SOL    HW126519   2.030   0.676   5.544  0.2212  1.2839  0.6677
 5020SOL    HW226520   2.149   0.635   5.628  0.5501  2.4913  0.3571
 5021SOL     OW26521   1.605   0.897   6.683 -0.1622  0.3023 -0.4169
 5021SOL    HW126522   1.542   0.880   6.613 -0.5557  0.8255 -0.1857
 5021SOL    HW226523   1.618   0.991   6.689 -0.3205  0.4165 -2.0341
 5022SOL     OW26524   4.106   0.891  15.567  0.3368  0.4030  0.4668
 5022SOL    HW126525   4.099   0.858  15.656 -0.2972 -0.2699  0.1687
 5022SOL    HW226526   4.178   0.953  15.581  0.2754  1.0921 -2.1957
 5023SOL     OW26527   0.684   3.652   9.180  0.6023  0.5660  0.6367
 5023SOL    HW126528   0.734   3.721   9.137 -0.3800  2.0050  1.8245
 5023SOL    HW226529   0.747   3.600   9.230  1.6787  1.9418  0.7156
 5024SOL     OW26530   1.757   3.795   5.974  0.2634 -0.0415  0.2128
 5024SOL    HW126531   1.690   3.846   5.927  0.0360 -0.5897 -0.0618
 5024SOL    HW226532   1.809   3.871   5.999  0.4891 -0.5973  1.4199
 5025SOL     OW26533   0.635   2.299  12.680 -0.1512  0.0424  0.0327
 5025SOL    HW126534   0.656   2.287  12.772 -1.1437 -0.6643  0.1627
 5025SOL    HW226535   0.684   2.233  12.632 -1.1303  0.1649 -1.1419
 5026SOL     OW26536   1.916   2.235   7.677  0.1145 -0.0344 -0.1072
 5026SOL    HW126537   1.890   2.250   7.586  0.5241  1.5868  0.0440
 5026SOL    HW226538   1.936   2.326   7.698  0.3456  0.0822 -0.8290
 5027SOL     OW26539   1.114   2.106   3.606  0.2162 -0.2338  0.4367
 5027SOL    HW126540   1.062   2.157   3.667  0.2036 -0.1575  0.3630
 5027SOL    HW226541   1.184   2.172   3.596 -1.0720  1.4869  2.7725
 5028SOL     OW26542   4.484   0.648  17.521 -0.1771 -0.4064  0.3292
 5028SOL    HW126543   4.520   0.727  17.480  0.6297 -1.0154 -0.1441
 5028SOL    HW226544   4.487   0.671  17.614  0.5949  2.3437 -0.3513
 5029SOL     OW26545   3.018   0.018   1.299  0.1735  0.1857  0.5702
 5029SOL    HW126546   3.042   0.028   1.207  1.1839 -3.0537  0.5094
 5029SOL    HW226547   2.984   4.650   1.291 -0.0274  0.5212 -2.1714
 5030SOL     OW26548   2.137   2.765   2.949  0.2330 -0.0385 -0.3975
 5030SOL    HW126549   2.197   2.808   3.010  0.2035 -1.0702  0.3828
 5030SOL    HW226550   2.105   2.836   2.894  1.4396 -1.5985 -3.1101
 5031SOL     OW26551   3.607   3.246  14.916 -0.0674 -0.3681 -0.2012
 5031SOL    HW126552   3.515   3.223  14.930 -0.5779  1.9943  0.1714
 5031SOL    HW226553   3.596   3.333  14.880 -1.0394  0.5254  2.2357
 5032SOL     OW26554   3.051   1.086   5.589  0.4215  0.3948  0.5048
 5032SOL    HW126555   3.039   1.029   5.665  0.9257 -1.2924 -0.6916
 5032SOL    HW226556   3.110   1.031   5.538 -1.0896 -1.6309  0.9366
 5033SOL     OW26557   0.387   0.952   8.309 -0.3375  0.9089 -0.2300
 5033SOL    HW126558   0.351   0.872   8.345  0.7994  1.4717  2.1787
 5033SOL    HW226559   0.397   1.014   8.382  0.8767  1.1320 -0.5890
 5034SOL     OW26560   3.583   1.554  16.167  0.5451 -0.7170 -0.8306
 5034SOL    HW126561   3.631   1.592  16.241  1.3187 -1.7684 -0.7879
 5034SOL    HW226562   3.501   1.533  16.212 -0.2219 -0.4916 -2.1354
 5035SOL     OW26563   1.926   3.105   2.394 -0.2485  0.1298  0.2832
 5035SOL    HW126564   1.987   3.061   2.335  0.8498  1.1743  0.6454
 5035SOL    HW226565   1.867   3.144   2.330  1.7653  4.0564  0.8078
 5036SOL     OW26566   3.398   4.569   2.987 -0.8566 -0.5304  0.0971
 5036SOL    HW126567   3.395   4.622   2.907 -1.0455  0.9375  1.0623
 5036SOL    HW226568   3.475   4.517   2.964 -1.3271 -0.6242 -1.2664
 5037SOL     OW26569   3.382   3.907   5.450 -0.6329  0.2524 -0.0753
 5037SOL    HW126570   3.474   3.935   5.443 -0.1797 -1.6618 -1.7064
 5037SOL    HW226571   3.371   3.916   5.545  0.0026  0.9644 -0.0649
 5038SOL     OW26572   1.610   0.069   7.652 -0.5050 -0.2748  0.0041
 5038SOL    HW126573   1.594   0.127   7.727  3.2942 -0.1683  0.7338
 5038SOL    HW226574   1.699   0.099   7.634 -1.4803  0.9282 -2.7742
 5039SOL     OW26575   2.389   2.730  15.757 -0.1453  0.4105 -0.0503
 5039SOL    HW126576   2.450   2.802  15.739  1.1689 -0.4846  0.7733
 5039SOL    HW226577   2.449   2.657  15.769  1.3426  1.1735 -2.9897
 5040SOL     OW26578   3.335   3.101   6.762  0.0020  0.4889 -0.2165
 5040SOL    HW126579   3.406   3.056   6.808 -0.7143  1.2131  1.5761
 5040SOL    HW226580   3.266   3.102   6.828  0.0618 -0.6432 -0.1296
 5041SOL     OW26581   2.902   3.332   8.320 -0.2322  0.3004 -0.0654
 5041SOL    HW126582   2.924   3.394   8.390  0.4404  0.1956 -0.1840
 5041SOL    HW226583   2.831   3.374   8.272  0.6337  1.2258 -0.5520
 5042SOL     OW26584   2.330   3.418  12.767 -0.3806  0.7806 -0.8763
 5042SOL    HW126585   2.426   3.420  12.774 -0.5449 -1.3685  2.1189
 5042SOL    HW226586   2.303   3.465  12.846  1.4200  1.6315 -0.7488
 5043SOL     OW26587   4.023   1.085   7.772  0.1105  0.4346 -0.4059
 5043SOL    HW126588   3.971   1.143   7.828  0.8764 -0.5798  1.3590
 5043SOL    HW226589   4.045   1.150   7.705  1.8490 -0.9189 -1.1518
 5044SOL     OW26590   3.566   2.950   6.844  0.4888  0.3576  0.8753
 5044SOL    HW126591   3.620   2.970   6.768  2.6043 -1.3208  1.9580
 5044SOL    HW226592   3.569   2.855   6.848 -2.3842  0.2585  0.7731
 5045SOL     OW26593   2.007   3.806   9.785 -0.7002 -0.6226 -0.7631
 5045SOL    HW126594   2.010   3.728   9.839 -1.3348 -0.1595 -0.0555
 5045SOL    HW226595   1.973   3.868   9.850  2.8986  0.2224  0.3362
 5046SOL     OW26596   0.834   2.943  16.526 -0.1953  0.3959  0.2260
 5046SOL    HW126597   0.918   2.898  16.519 -0.8840 -0.5755 -1.8319
 5046SOL    HW226598   0.782   2.862  16.531  0.6097 -0.3201 -2.6341
 5047SOL     OW26599   1.681   3.774  15.712 -0.4309 -0.5552 -0.3326
 5047SOL    HW126600   1.586   3.775  15.698 -0.4102 -0.4369 -0.4604
 5047SOL    HW226601   1.683   3.733  15.799  0.1070  0.1649  0.0018
 5048SOL     OW26602   1.793   4.559  17.598  0.0647 -0.1964 -0.4013
 5048SOL    HW126603   1.800   4.472  17.559  0.0098  0.1272 -1.1252
 5048SOL    HW226604   1.769   4.611  17.521  1.1048 -0.0289 -0.6094
 5049SOL     OW26605   3.860   4.020  15.070  0.3176  0.6789 -0.4788
 5049SOL    HW126606   3.854   4.033  15.165 -0.5058  1.3094 -0.6283
 5049SOL    HW226607   3.942   4.067  15.053  1.4170 -1.3017 -0.7759
 5050SOL     OW26608   2.254   3.757   9.042  0.0769 -0.2366 -1.0558
 5050SOL    HW126609   2.210   3.797   8.967  0.5735  1.0797 -0.6392
 5050SOL    HW226610   2.334   3.720   9.007 -0.0140 -0.4524 -1.0352
 5051SOL     OW26611   2.706   0.670  15.430  0.4669  0.8908  0.2461
 5051SOL    HW126612   2.631   0.707  15.383  0.0140  0.4318  0.6104
 5051SOL    HW226613   2.659   0.673  15.513 -1.2837 -2.5931 -0.6195
 5052SOL     OW26614   0.909   1.073  12.793  0.2829  0.0917  0.3904
 5052SOL    HW126615   0.844   1.003  12.788  1.5091 -0.9023 -1.7447
 5052SOL    HW226616   0.868   1.124  12.723  0.3214 -1.3898 -0.7173
 5053SOL     OW26617   2.575   0.239   9.746 -1.1417 -0.0558 -0.2415
 5053SOL    HW126618   2.655   0.238   9.693  0.1298 -0.4337  1.6330
 5053SOL    HW226619   2.594   0.327   9.781 -0.0307 -0.2548 -0.3392
 5054SOL     OW26620   3.716   4.710  13.035  0.1396 -0.2571 -0.1540
 5054SOL    HW126621   3.757   0.045  12.969 -1.4126  0.0513 -0.8504
 5054SOL    HW226622   3.796   4.677  13.077  0.1823  1.1100  0.8279
 5055SOL     OW26623   2.753   3.207   7.152  0.2418 -0.1510  0.0205
 5055SOL    HW126624   2.666   3.179   7.121  0.5990 -1.2742  0.0287
 5055SOL    HW226625   2.762   3.154   7.231 -2.7053  3.9604  3.0618
 5056SOL     OW26626   4.565   1.772   2.338  0.3205 -0.6678  0.3808
 5056SOL    HW126627   4.627   1.827   2.288  0.0242 -2.3924 -1.8778
 5056SOL    HW226628   4.531   1.839   2.397  3.1765  0.8789  0.2808
 5057SOL     OW26629   2.062   3.871  15.228  0.5703  0.1060  0.0543
 5057SOL    HW126630   2.155   3.849  15.234  1.0564  1.9739 -0.7755
 5057SOL    HW226631   2.017   3.786  15.234 -0.4023  0.5217 -1.6027
 5058SOL     OW26632   0.899   3.911   7.884 -0.3587  0.0198 -0.0742
 5058SOL    HW126633   0.843   3.865   7.822 -2.0004 -1.1493  2.2979
 5058SOL    HW226634   0.884   4.000   7.852 -0.9413 -0.2542 -0.5389
 5059SOL     OW26635   2.911   1.568   4.109  0.0250  0.3348  0.1571
 5059SOL    HW126636   2.916   1.584   4.015  0.3874  1.8089  0.4254
 5059SOL    HW226637   2.987   1.614   4.142  0.9780 -1.2139  0.1124
 5060SOL     OW26638   4.427   4.383   6.192  0.2877 -0.1259 -0.6253
 5060SOL    HW126639   4.363   4.405   6.124  1.2029 -0.9251 -1.7532
 5060SOL    HW226640   4.401   4.445   6.259  1.4387 -1.8289  1.4141
 5061SOL     OW26641   4.626   3.156   0.958 -0.0321  0.1427  0.4868
 5061SOL    HW126642   4.717   3.129   0.951 -0.1690 -0.4888  1.1001
 5061SOL    HW226643   4.592   3.123   1.042 -0.8510 -1.7099 -0.5814
 5062SOL     OW26644   4.662   3.387  14.723  0.4965 -0.1532 -0.2861
 5062SOL    HW126645   4.590   3.445  14.748 -0.4463 -0.6020 -2.0116
 5062SOL    HW226646   0.019   3.431  14.759  0.8874  0.1596 -1.5172
 5063SOL     OW26647   0.044   3.320   6.699  0.1066  0.0564 -0.4476
 5063SOL    HW126648   4.720   3.268   6.767  1.6625  0.0926  0.5986
 5063SOL    HW226649   0.067   3.249   6.639  2.3599 -1.5603  2.2717
 5064SOL     OW26650   1.297   3.357   5.704 -0.4511  0.1592 -0.5932
 5064SOL    HW126651   1.361   3.351   5.634  0.2939  1.5821 -0.0313
 5064SOL    HW226652   1.272   3.265   5.716 -1.0244  0.2001 -1.4936
 5065SOL     OW26653   4.193   0.135   4.561 -0.0938 -0.1989  0.0308
 5065SOL    HW126654   4.248   0.107   4.635 -0.4506 -1.6201 -0.2553
 5065SOL    HW226655   4.254   0.203   4.531  0.1436 -0.3042  0.2762
 5066SOL     OW26656   0.276   4.636   4.909 -0.1707 -0.4950 -0.1896
 5066SOL    HW126657   0.340   4.581   4.865 -0.5526 -0.0550 -1.2957
 5066SOL    HW226658   0.335   4.696   4.955  0.4136 -2.6194  1.8102
 5067SOL     OW26659   3.086   3.830   3.747  0.0382 -0.0971  0.0897
 5067SOL    HW126660   3.110   3.799   3.834  1.2491 -2.8865 -1.2629
 5067SOL    HW226661   3.034   3.903   3.781  1.0013  0.8783 -0.5430
 5068SOL     OW26662   3.913   1.439   1.960 -0.8102  0.0855 -0.2626
 5068SOL    HW126663   3.955   1.451   2.045 -2.5271  2.1192  0.3084
 5068SOL    HW226664   3.837   1.382   1.975  0.5956 -2.5336 -3.1187
 5069SOL     OW26665   1.412   2.782   5.367  0.1069  0.0067 -0.4240
 5069SOL    HW126666   1.325   2.822   5.369 -0.6695 -1.6978  0.1043
 5069SOL    HW226667   1.381   2.691   5.363  1.7541 -0.5880  0.1163
 5070SOL     OW26668   4.466   1.326  14.085  1.0777 -0.0845  0.1041
 5070SOL    HW126669   4.394   1.316  14.148 -0.3149  0.4115 -1.4179
 5070SOL    HW226670   4.485   1.419  14.094  0.3385  0.0120  0.7279
 5071SOL     OW26671   3.976   3.854   7.005 -0.0625  0.0209 -0.3902
 5071SOL    HW126672   3.924   3.933   7.021 -0.7717 -0.2396 -1.4591
 5071SOL    HW226673   4.051   3.895   6.963 -0.2239  0.1465 -0.5556
 5072SOL     OW26674   4.694   0.089   5.527 -0.0212  0.2741 -0.0883
 5072SOL    HW126675   0.048   0.137   5.492  0.4239  0.5391  1.1942
 5072SOL    HW226676   4.692   0.010   5.474  2.5212  0.1252  0.0245
 5073SOL     OW26677   1.518   0.642   7.970 -0.3865  0.1683 -0.4107
 5073SOL    HW126678   1.596   0.603   8.008 -1.7305 -2.4021 -0.2546
 5073SOL    HW226679   1.531   0.735   7.988  0.7550 -0.0023 -0.3529
 5074SOL     OW26680   3.963   0.969   8.754 -0.1789 -0.0932  0.7192
 5074SOL    HW126681   4.048   0.944   8.788 -0.7111  0.5087  2.4832
 5074SOL    HW226682   3.977   1.063   8.757 -2.3007  0.1859  1.9218
 5075SOL     OW26683   3.075   1.311   1.028  0.0278  0.2373  0.1377
 5075SOL    HW126684   3.125   1.291   1.107  2.3376  1.4554 -1.0423
 5075SOL    HW226685   2.989   1.326   1.067  0.8200 -0.1497  2.0413
 5076SOL     OW26686   4.427   1.056  14.006  0.1106  0.0360  0.2385
 5076SOL    HW126687   4.451   1.141  14.042  1.0259  0.0114 -0.3037
 5076SOL    HW226688   4.335   1.042  14.028 -0.0408 -1.2572 -1.2654
 5077SOL     OW26689   4.449   3.762  13.905 -0.4071 -0.0266  0.1479
 5077SOL    HW126690   4.414   3.713  13.980 -1.2155  0.9733  0.4241
 5077SOL    HW226691   4.392   3.838  13.912 -2.2002 -1.3530 -0.1046
 5078SOL     OW26692   4.098   0.463   7.336 -0.2336  0.2905 -0.4718
 5078SOL    HW126693   4.082   0.499   7.248  0.2297  2.9813  0.5435
 5078SOL    HW226694   4.155   0.533   7.370  1.0303 -1.6949  1.4376
 5079SOL     OW26695   0.301   2.346  17.184  0.4279 -0.0427 -0.4992
 5079SOL    HW126696   0.302   2.264  17.233 -1.7629  0.4884  0.4476
 5079SOL    HW226697   0.256   2.401  17.248  0.1755  1.4285 -1.9484
 5080SOL     OW26698   2.352   2.811  14.987  0.2579 -0.6249  0.3492
 5080SOL    HW126699   2.444   2.803  15.010  0.2726  0.0753  0.5075
 5080SOL    HW226700   2.325   2.720  15.000  1.0791 -0.7071  1.5132
 5081SOL     OW26701   1.658   0.288   7.212 -0.2658  0.2795 -0.0383
 5081SOL    HW126702   1.649   0.211   7.268  1.3447 -0.4316 -0.7675
 5081SOL    HW226703   1.729   0.337   7.255  0.1003  1.2564 -1.7537
 5082SOL     OW26704   4.444   4.289  11.800  0.2913 -0.3601  0.1796
 5082SOL    HW126705   4.349   4.299  11.793  0.0459 -2.3937  0.6426
 5082SOL    HW226706   4.453   4.272  11.894 -1.0571  0.0256  0.3790
 5083SOL     OW26707   0.870   3.333   6.105 -0.3510 -0.1502  0.5385
 5083SOL    HW126708   0.813   3.263   6.074 -1.3971  0.2089  1.6442
 5083SOL    HW226709   0.953   3.309   6.063 -0.0729  3.1643 -0.7705
 5084SOL     OW26710   3.585   4.279   8.905  0.2691 -0.3672  0.1861
 5084SOL    HW126711   3.620   4.254   8.991  0.9466  3.0024  0.8886
 5084SOL    HW226712   3.664   4.298   8.855 -0.3460  2.1540  0.1645
 5085SOL     OW26713   4.315   0.802  10.308 -0.0726  0.2698 -0.2917
 5085SOL    HW126714   4.340   0.894  10.303  3.4843 -0.7572 -1.7474
 5085SOL    HW226715   4.230   0.817  10.349  1.5025  0.1096  3.0927
 5086SOL     OW26716   1.553   4.556   9.126  0.7290  0.4991  0.2093
 5086SOL    HW126717   1.593   4.579   9.042  0.8472 -2.1574 -0.4905
 5086SOL    HW226718   1.610   4.480   9.142 -1.7167 -1.0903  1.2995
 5087SOL     OW26719   0.242   0.470   3.709  0.0439  0.3762  0.5104
 5087SOL    HW126720   0.330   0.457   3.674 -1.1239  0.4199 -2.4939
 5087SOL    HW226721   0.244   0.431   3.796 -1.4918 -1.0847 -0.1140
 5088SOL     OW26722   0.241   0.789  16.950  0.0081 -0.0237  0.2916
 5088SOL    HW126723   0.242   0.871  16.999  0.8773 -0.5124  1.0802
 5088SOL    HW226724   0.310   0.741  16.996 -1.2869 -1.3130  0.8940
 5089SOL     OW26725   2.674   1.024   8.209  0.1610  0.0910 -0.0934
 5089SOL    HW126726   2.719   1.106   8.190 -0.2028 -0.5692 -3.8147
 5089SOL    HW226727   2.748   0.965   8.225  1.9123  1.5508 -2.8511
 5090SOL     OW26728   1.457   0.640  12.710 -0.2116  0.2359  0.6449
 5090SOL    HW126729   1.468   0.680  12.796  0.7938  1.3860 -0.0117
 5090SOL    HW226730   1.412   0.561  12.738 -0.9043  0.0746 -0.9116
 5091SOL     OW26731   4.166   2.974   0.664  0.3949 -0.3542  0.1379
 5091SOL    HW126732   4.205   3.016   0.741 -0.5464 -2.4504  1.7558
 5091SOL    HW226733   4.143   2.893   0.709 -1.6392 -0.0084 -0.3077
 5092SOL     OW26734   2.635   4.190   2.710 -0.0672 -0.3102 -0.1708
 5092SOL    HW126735   2.726   4.200   2.739 -0.0708 -1.3966  0.2131
 5092SOL    HW226736   2.621   4.282   2.687  0.3075 -0.4236 -0.8614
 5093SOL     OW26737   3.124   2.794   8.753  0.3503  0.7183 -0.4432
 5093SOL    HW126738   3.080   2.754   8.828  0.0415  1.6992 -0.1136
 5093SOL    HW226739   3.212   2.818   8.784  0.5776 -1.2870  0.5167
 5094SOL     OW26740   3.804   2.228   4.337  0.0965 -0.2679  0.0046
 5094SOL    HW126741   3.860   2.164   4.293  0.3211  0.0193 -0.1316
 5094SOL    HW226742   3.804   2.299   4.272  0.0942  1.1424  1.5318
 5095SOL     OW26743   4.647   0.478   2.345 -0.1482 -0.3530  0.0931
 5095SOL    HW126744   4.611   0.437   2.267 -1.0795  1.7121 -0.5556
 5095SOL    HW226745   4.632   0.418   2.418 -0.7616  0.0611  0.3125
 5096SOL     OW26746   4.005   2.144   8.943 -0.1731  0.0922 -0.0495
 5096SOL    HW126747   3.993   2.065   8.891 -1.7889  0.7577 -0.6631
 5096SOL    HW226748   4.055   2.101   9.013 -0.7282 -3.1239 -1.6030
 5097SOL     OW26749   0.289   3.708   2.759 -0.2671  0.3789 -0.3140
 5097SOL    HW126750   0.315   3.785   2.810  2.7408  0.1183 -1.4590
 5097SOL    HW226751   0.213   3.678   2.809  0.0533  1.3789  0.7676
 5098SOL     OW26752   2.386   3.407  17.335 -0.1458 -0.3819 -0.1876
 5098SOL    HW126753   2.427   3.324  17.309 -2.1122 -1.6515  0.7384
 5098SOL    HW226754   2.293   3.389  17.322  0.2227 -0.7234 -2.4293
 5099SOL     OW26755   1.626   2.494   2.402  0.2600 -0.6381 -0.7010
 5099SOL    HW126756   1.609   2.530   2.489  0.0747  2.6550 -2.0999
 5099SOL    HW226757   1.665   2.408   2.418  1.9449  0.2515 -0.0307
 5100SOL     OW26758   0.548   4.271   5.620  0.5632  0.0431  0.0577
 5100SOL    HW126759   0.456   4.246   5.630  0.8174 -0.1174  2.0465
 5100SOL    HW226760   0.528   4.356   5.581  0.7101  0.4590  0.9085
 5101SOL     OW26761   3.513   1.063  13.326  0.3244 -0.9140 -0.4385
 5101SOL    HW126762   3.516   1.116  13.246 -0.6146 -1.3029 -0.7388
 5101SOL    HW226763   3.588   1.007  13.307  0.8454 -0.1544 -0.6268
 5102SOL     OW26764   1.075   1.648   6.921  0.0586 -0.1143  0.3204
 5102SOL    HW126765   1.157   1.634   6.873  0.1267  1.7791 -0.1288
 5102SOL    HW226766   1.027   1.567   6.904  2.9701 -1.4602 -1.5016
 5103SOL     OW26767   4.360   1.417  11.015 -0.5008 -0.0425 -0.1111
 5103SOL    HW126768   4.334   1.476  10.945 -0.9167 -1.4405 -1.1162
 5103SOL    HW226769   4.391   1.347  10.959  2.1417  1.4031 -0.4529
 5104SOL     OW26770   4.337   2.930   5.723 -0.5123  0.3468 -0.7231
 5104SOL    HW126771   4.331   2.853   5.780 -0.6320  2.6351  2.3127
 5104SOL    HW226772   4.416   2.904   5.676  0.4553  2.3145 -0.1318
 5105SOL     OW26773   4.708   0.138  13.838  0.2997 -0.2087 -0.7976
 5105SOL    HW126774   0.082   0.148  13.853 -0.0205 -1.4158  2.1827
 5105SOL    HW226775   4.682   0.110  13.926 -0.8329  2.0095 -0.4359
 5106SOL     OW26776   0.885   3.232   9.231  0.3689 -0.4029  0.8653
 5106SOL    HW126777   0.863   3.262   9.143 -0.7469  0.4831  1.4503
 5106SOL    HW226778   0.801   3.245   9.274  1.0556 -0.1470  2.1454
 5107SOL     OW26779   0.514   0.472   3.630 -0.2632 -0.7230 -0.1015
 5107SOL    HW126780   0.565   0.542   3.671 -1.6148 -0.7235  1.5954
 5107SOL    HW226781   0.587   0.413   3.616  0.0190 -0.2881 -0.4521
 5108SOL     OW26782   2.328   1.410   3.411  0.1477  0.2979  0.6644
 5108SOL    HW126783   2.314   1.327   3.365 -2.5660  1.0941  0.0653
 5108SOL    HW226784   2.321   1.386   3.504 -1.7910  0.2677  0.5268
 5109SOL     OW26785   1.036   0.731   8.887 -0.0079  0.1112  0.1431
 5109SOL    HW126786   1.084   0.687   8.817  0.5469 -1.4396  1.4900
 5109SOL    HW226787   1.083   0.814   8.891 -0.8089  0.5711  0.0815
 5110SOL     OW26788   2.280   4.491   0.777 -0.2134  0.1464 -0.1609
 5110SOL    HW126789   2.280   4.494   0.682  0.9404 -0.1124 -0.1738
 5110SOL    HW226790   2.331   4.570   0.795 -0.5406 -0.0002  1.4345
 5111SOL     OW26791   1.836   0.168   5.029 -0.1327  0.6741 -0.0957
 5111SOL    HW126792   1.747   0.197   5.013 -0.5917  0.6515  2.4108
 5111SOL    HW226793   1.860   0.231   5.097 -0.1679 -1.5047  1.9536
 5112SOL     OW26794   2.576   2.201   2.259  0.2356 -0.0913  0.3095
 5112SOL    HW126795   2.568   2.131   2.324 -1.9905  0.1799  0.3220
 5112SOL    HW226796   2.483   2.224   2.257  0.1126 -0.3027  2.9268
 5113SOL     OW26797   4.411   0.204   9.398  0.0328  0.2756 -0.0488
 5113SOL    HW126798   4.329   0.160   9.420  0.2401 -0.4369 -0.7147
 5113SOL    HW226799   4.475   0.134   9.387 -0.6748 -0.5426  1.0030
 5114SOL     OW26800   3.707   4.034   1.238 -0.4202 -0.4697 -0.1935
 5114SOL    HW126801   3.794   4.050   1.275 -1.1331  1.9372  0.4893
 5114SOL    HW226802   3.726   3.946   1.209 -0.8745 -1.4221  2.3667
 5115SOL     OW26803   1.929   0.877   6.610 -0.2461 -0.5555 -0.1085
 5115SOL    HW126804   1.952   0.889   6.518  1.0938 -1.7096  0.0699
 5115SOL    HW226805   1.893   0.960   6.641 -0.2246 -0.0085 -1.5649
 5116SOL     OW26806   1.055   4.685   7.904  0.3078  0.1658  0.4587
 5116SOL    HW126807   1.105   4.663   7.982 -0.6556  0.9463  1.2950
 5116SOL    HW226808   0.964   4.694   7.931  0.1288 -0.5466  0.1074
 5117SOL     OW26809   2.237   2.027   3.037  0.3280  0.4871 -0.2601
 5117SOL    HW126810   2.318   1.975   3.039 -0.5161 -0.7638  1.2459
 5117SOL    HW226811   2.215   2.023   2.944  0.5010  0.4834 -0.3022
 5118SOL     OW26812   3.976   3.522  15.097  0.1471  0.0047 -0.0153
 5118SOL    HW126813   3.997   3.472  15.176 -1.2523  0.0861  0.3977
 5118SOL    HW226814   3.989   3.456  15.028 -2.5493 -0.8825  0.3489
 5119SOL     OW26815   3.550   1.508   3.931  0.6448 -0.1374 -0.1593
 5119SOL    HW126816   3.496   1.543   4.002  0.2869 -0.4310 -0.2870
 5119SOL    HW226817   3.512   1.421   3.916  0.0160  0.3914 -1.6754
 5120SOL     OW26818   2.245   4.251   4.182  0.0792 -0.2130  0.3748
 5120SOL    HW126819   2.157   4.287   4.175  0.3476  0.1481 -1.0183
 5120SOL    HW226820   2.234   4.182   4.248  2.1588  0.5650  1.5412
 5121SOL     OW26821   0.855   0.220   8.253 -0.3173 -0.1518  0.5675
 5121SOL    HW126822   0.788   0.275   8.294  1.1477  1.7121  0.4894
 5121SOL    HW226823   0.797   0.188   8.183 -0.3273  1.8127 -0.3326
 5122SOL     OW26824   4.099   0.107   5.522 -0.0980 -0.0957 -0.4254
 5122SOL    HW126825   4.034   0.057   5.472 -0.8635 -0.2659  0.7335
 5122SOL    HW226826   4.181   0.065   5.495  0.5683 -0.7578  2.5476
 5123SOL     OW26827   2.819   2.695  12.906  0.2866 -0.4126  0.1020
 5123SOL    HW126828   2.728   2.718  12.888  0.7679 -0.1213 -1.8703
 5123SOL    HW226829   2.807   2.600  12.903 -0.6725 -0.2650 -0.7912
 5124SOL     OW26830   3.462   4.571  17.004  0.3831  0.0159 -0.0916
 5124SOL    HW126831   3.502   4.578  16.918 -0.8740  0.8747 -0.6136
 5124SOL    HW226832   3.374   4.550  16.972  1.1888 -0.9176 -1.6711
 5125SOL     OW26833   0.257   4.143   3.595  0.3246 -0.3796 -0.4890
 5125SOL    HW126834   0.188   4.091   3.635 -0.2789 -0.2116 -1.3316
 5125SOL    HW226835   0.321   4.081   3.562  0.1359 -0.4996 -0.6239
 5126SOL     OW26836   0.249   1.662   2.808  0.0619 -0.4188 -0.4746
 5126SOL    HW126837   0.179   1.704   2.757  0.3352 -1.4672 -1.6958
 5126SOL    HW226838   0.224   1.574   2.781  0.1923 -0.7598  0.5412
 5127SOL     OW26839   0.879   2.998  13.712 -0.1284 -0.9438  0.8115
 5127SOL    HW126840   0.834   2.936  13.770 -0.4231 -0.4130  1.1476
 5127SOL    HW226841   0.816   2.987  13.640 -0.9368  1.4431  1.1639
 5128SOL     OW26842   0.872   0.190   8.929  0.2337  0.5073 -0.2530
 5128SOL    HW126843   0.875   0.094   8.935 -0.3405  0.3299 -2.6119
 5128SOL    HW226844   0.957   0.204   8.888  1.6719  0.1965  2.6560
 5129SOL     OW26845   2.152   2.802   9.259  0.4483 -0.4309  0.1437
 5129SOL    HW126846   2.244   2.829   9.260 -0.3693  2.4103 -0.0811
 5129SOL    HW226847   2.121   2.862   9.191 -0.4918 -0.0519  0.9021
 5130SOL     OW26848   4.415   0.377   0.530  0.2674  0.4550 -0.0109
 5130SOL    HW126849   4.374   0.463   0.536  0.5606  0.7127 -1.6686
 5130SOL    HW226850   4.502   0.404   0.501  1.5076 -1.1186  2.2293
 5131SOL     OW26851   2.783   0.688   9.089 -0.4399 -0.3121 -0.0756
 5131SOL    HW126852   2.765   0.600   9.123 -1.8724 -0.0516 -0.1682
 5131SOL    HW226853   2.872   0.704   9.119 -0.8730 -0.4515  1.2536
 5132SOL     OW26854   3.062   1.922   6.968 -0.0775 -0.0097  0.3183
 5132SOL    HW126855   2.970   1.899   6.979 -0.5308  2.5026  1.9927
 5132SOL    HW226856   3.064   1.951   6.877  1.3659  1.2769  0.7427
 5133SOL     OW26857   3.460   1.343   6.604  0.3473  0.3448  0.1893
 5133SOL    HW126858   3.470   1.249   6.588  0.0296  0.1089  1.4073
 5133SOL    HW226859   3.520   1.344   6.678  2.4655 -1.4297 -1.5015
 5134SOL     OW26860   0.641   2.955  14.193  0.5778 -0.0908  0.3195
 5134SOL    HW126861   0.601   3.041  14.183  2.0689  0.7399  1.4132
 5134SOL    HW226862   0.595   2.929  14.273  0.7710 -0.8756  0.1811
 5135SOL     OW26863   1.031   0.170   1.166 -0.5787 -0.3194  0.1629
 5135SOL    HW126864   1.008   0.144   1.255  0.1155  0.0391  0.4418
 5135SOL    HW226865   1.123   0.191   1.180 -0.0828 -2.1439 -0.3551
 5136SOL     OW26866   0.267   4.259   3.047  0.2600 -0.0020 -0.0182
 5136SOL    HW126867   0.362   4.264   3.043  0.4025 -3.4618 -0.4969
 5136SOL    HW226868   0.239   4.291   2.961 -0.4233  0.4892  0.3878
 5137SOL     OW26869   4.319   0.284   7.653 -0.2200  0.0746  0.0103
 5137SOL    HW126870   4.282   0.294   7.566  0.0360 -1.6419 -0.3034
 5137SOL    HW226871   4.414   0.279   7.642  0.1283  1.5362  2.3557
 5138SOL     OW26872   4.416   4.469   2.773 -0.4020 -0.0689 -0.0614
 5138SOL    HW126873   4.433   4.416   2.851 -0.3675 -0.1459 -0.1208
 5138SOL    HW226874   4.457   4.550   2.803 -0.2358  0.0486 -0.6030
 5139SOL     OW26875   0.956   2.894   6.008  0.0871  0.1751 -0.5101
 5139SOL    HW126876   0.953   2.831   5.936 -0.9911  0.5594 -0.8118
 5139SOL    HW226877   0.982   2.843   6.084 -0.1924 -1.6982 -1.6754
 5140SOL     OW26878   4.186   3.548  11.040  0.1321 -0.2640 -0.3616
 5140SOL    HW126879   4.108   3.601  11.057  1.8963  1.6549  1.7396
 5140SOL    HW226880   4.248   3.617  11.019 -0.6122  0.6557  0.4390
 5141SOL     OW26881   1.544   0.281   8.811 -0.7608 -0.5034  0.2611
 5141SOL    HW126882   1.637   0.267   8.794 -0.9104  0.1578 -1.1079
 5141SOL    HW226883   1.516   0.316   8.727  0.3950  0.6897  0.3764
 5142SOL     OW26884   1.290   4.109  15.911  0.2251  0.2526  0.0618
 5142SOL    HW126885   1.241   4.171  15.964  0.0856  0.6900 -0.5722
 5142SOL    HW226886   1.292   4.149  15.824  1.9417  1.3463  0.6070
 5143SOL     OW26887   1.124   1.263   6.053 -0.6463  1.1772 -0.8399
 5143SOL    HW126888   1.042   1.311   6.068 -0.7825  1.1936 -1.6663
 5143SOL    HW226889   1.116   1.188   6.112  1.1745  0.8899 -0.9635
 5144SOL     OW26890   1.817   3.851   6.772  0.0182  0.2347  0.5378
 5144SOL    HW126891   1.822   3.909   6.696 -2.5607  0.0517  0.2263
 5144SOL    HW226892   1.734   3.805   6.760  0.1581  0.1952 -0.2718
 5145SOL     OW26893   0.933   4.047   4.877  0.1546 -0.5427  0.0921
 5145SOL    HW126894   0.949   3.980   4.811 -0.0337 -3.2012  2.7078
 5145SOL    HW226895   0.972   4.124   4.836  1.0216 -0.7673  0.4977
 5146SOL     OW26896   0.948   3.194   1.826  0.7410 -0.9231 -0.0586
 5146SOL    HW126897   0.895   3.154   1.895  0.5373 -0.7163 -0.0971
 5146SOL    HW226898   0.925   3.137   1.753  1.3966  0.1035 -1.0576
 5147SOL     OW26899   2.323   4.474   3.054  0.4275  0.2746 -0.6641
 5147SOL    HW126900   2.354   4.466   2.964  1.2736 -2.9327 -0.1007
 5147SOL    HW226901   2.233   4.442   3.056  1.4711 -2.7724 -1.6436
 5148SOL     OW26902   2.630   4.331   2.397  0.1132 -0.0010  0.3554
 5148SOL    HW126903   2.647   4.382   2.476 -3.2017 -1.1129  1.8091
 5148SOL    HW226904   2.536   4.320   2.412  0.0544  1.4322  1.0807
 5149SOL     OW26905   2.162   0.776   7.802 -0.1712  0.2338  0.0706
 5149SOL    HW126906   2.172   0.700   7.744  1.8180  3.1092 -3.3941
 5149SOL    HW226907   2.068   0.792   7.804 -0.4696 -1.5060  0.1513
 5150SOL     OW26908   2.440   3.389  10.754 -0.6639  0.2132  0.0378
 5150SOL    HW126909   2.451   3.440  10.673 -0.2747 -0.9198 -0.6283
 5150SOL    HW226910   2.474   3.446  10.822  0.2338  0.4795 -0.6386
 5151SOL     OW26911   1.256   2.617  17.073 -0.1728  0.4676  0.8687
 5151SOL    HW126912   1.188   2.640  17.009  0.2205 -0.3364  0.1625
 5151SOL    HW226913   1.207   2.597  17.152 -0.3469  0.3589  0.7350
 5152SOL     OW26914   1.042   1.700   8.159 -0.8915  0.2142 -0.3969
 5152SOL    HW126915   1.065   1.746   8.240 -0.3699  1.0856 -1.0393
 5152SOL    HW226916   1.116   1.641   8.163 -1.8984 -1.1077 -1.3137
 5153SOL     OW26917   3.684   1.592   9.600  0.8418  0.3922 -0.2356
 5153SOL    HW126918   3.663   1.515   9.651  2.3057  0.2675  0.1831
 5153SOL    HW226919   3.655   1.560   9.515 -2.0037 -2.4588  1.8445
 5154SOL     OW26920   3.623   1.112   7.402 -0.5765 -0.0037 -0.2304
 5154SOL    HW126921   3.594   1.061   7.478  2.9180 -0.8565  0.5108
 5154SOL    HW226922   3.540   1.143   7.367 -1.3128 -2.0224 -0.2414
 5155SOL     OW26923   2.508   1.597   4.863  0.0287 -0.5647  0.0644
 5155SOL    HW126924   2.471   1.657   4.926  0.7144 -0.6434  0.5435
 5155SOL    HW226925   2.528   1.519   4.915  0.3143  2.2163  4.0792
 5156SOL     OW26926   4.678   4.146   9.484  0.4661 -0.7126  0.4162
 5156SOL    HW126927   0.045   4.119   9.512  1.0959  1.8030  0.8946
 5156SOL    HW226928   4.638   4.173   9.567 -0.2121 -0.1846 -0.0835
 5157SOL     OW26929   1.125   3.342   3.684 -0.6700  0.3397 -0.2493
 5157SOL    HW126930   1.036   3.313   3.662 -0.5440  0.4047 -0.8347
 5157SOL    HW226931   1.141   3.398   3.609 -1.5588  0.6684 -0.1991
 5158SOL     OW26932   0.928   3.725   3.879  0.0487  0.1403 -1.2194
 5158SOL    HW126933   0.953   3.817   3.864  0.5290  0.5448  2.0542
 5158SOL    HW226934   0.833   3.729   3.886  0.2329  0.5825  1.0398
 5159SOL     OW26935   0.049   1.247   5.386  0.3058 -0.1476 -0.4395
 5159SOL    HW126936   0.012   1.176   5.440 -1.8640  0.8556 -0.6179
 5159SOL    HW226937   0.143   1.227   5.389  0.0528 -1.8867 -3.3252
 5160SOL     OW26938   3.282   4.591   6.782 -0.1510  0.2868 -0.2500
 5160SOL    HW126939   3.353   4.654   6.775 -0.8706  0.9331 -1.6874
 5160SOL    HW226940   3.205   4.641   6.808 -0.3998 -0.0251 -0.3822
 5161SOL     OW26941   1.155   0.398   3.721  0.5057  0.3027  0.4816
 5161SOL    HW126942   1.180   0.490   3.730 -1.2839  0.7875  0.4654
 5161SOL    HW226943   1.214   0.372   3.651  0.6002  0.3067  0.5596
 5162SOL     OW26944   4.298   0.839   5.171 -0.2989  0.0820  0.1966
 5162SOL    HW126945   4.259   0.925   5.157 -2.1408 -1.1208 -2.1004
 5162SOL    HW226946   4.378   0.874   5.211 -0.9383  0.6783  0.9377
 5163SOL     OW26947   1.703   3.774   3.690  0.0890 -0.1319  0.5018
 5163SOL    HW126948   1.781   3.723   3.713 -0.0324 -1.4432 -2.0047
 5163SOL    HW226949   1.653   3.791   3.770  1.5080 -1.0547  1.5903
 5164SOL     OW26950   1.295   1.418   6.215 -0.2575 -0.1469 -0.6298
 5164SOL    HW126951   1.216   1.406   6.163  0.8692  2.5259 -2.9273
 5164SOL    HW226952   1.279   1.495   6.271  1.8030 -1.0685  1.2353
 5165SOL     OW26953   1.849   3.429   9.249 -0.7140 -0.4263  0.1118
 5165SOL    HW126954   1.920   3.445   9.186  0.3419 -4.7681  0.1898
 5165SOL    HW226955   1.822   3.341   9.222  1.0189 -0.0380 -2.8544
 5166SOL     OW26956   2.233   0.496   4.382  0.0890 -0.0415  0.5766
 5166SOL    HW126957   2.250   0.530   4.470 -1.1176  0.9571  0.4166
 5166SOL    HW226958   2.148   0.538   4.371  0.6992  0.8962 -0.5833
 5167SOL     OW26959   2.847   0.183   3.155  0.3431  0.0289  0.0519
 5167SOL    HW126960   2.922   0.239   3.172 -0.8178  0.8681  2.3719
 5167SOL    HW226961   2.781   0.241   3.116 -1.0625 -1.1054  0.7662
 5168SOL     OW26962   1.032   4.159   9.404  0.4552 -0.6130 -0.0623
 5168SOL    HW126963   1.118   4.149   9.363 -1.2402  1.2719 -4.0366
 5168SOL    HW226964   1.017   4.252   9.417  0.6241 -0.9363  2.5620
 5169SOL     OW26965   0.198   0.729   3.768 -0.1012 -0.1189  0.6708
 5169SOL    HW126966   0.210   0.639   3.738 -0.6123  0.3674 -1.0083
 5169SOL    HW226967   0.279   0.730   3.820 -0.2525  0.0737  0.8978
 5170SOL     OW26968   2.801   0.325   7.056  0.6280 -0.3230  0.6413
 5170SOL    HW126969   2.821   0.236   7.084  2.2837 -0.2679 -0.3646
 5170SOL    HW226970   2.736   0.342   7.125 -0.0909  0.2893 -0.1804
 5171SOL     OW26971   0.580   1.037   6.959  0.5783 -0.3916 -0.4538
 5171SOL    HW126972   0.656   1.081   6.922  1.5895 -1.2369  0.6234
 5171SOL    HW226973   0.586   1.073   7.047 -2.8117 -0.9280 -0.0163
 5172SOL     OW26974   4.098   3.750  17.253 -0.2547 -0.1002  0.0294
 5172SOL    HW126975   4.041   3.676  17.234  0.1694  0.6906 -4.2797
 5172SOL    HW226976   4.052   3.822  17.210  0.2725  1.1269  1.4853
 5173SOL     OW26977   1.334   4.456   7.648  0.3645 -0.0007  0.1457
 5173SOL    HW126978   1.400   4.388   7.658 -1.0093 -1.6395 -2.1055
 5173SOL    HW226979   1.283   4.432   7.725 -1.2190  1.0181 -0.5637
 5174SOL     OW26980   0.599   4.454   0.993  0.1800  0.2494  0.3409
 5174SOL    HW126981   0.602   4.401   0.914 -0.1003  0.1963  0.3659
 5174SOL    HW226982   0.504   4.452   1.005  0.0284  1.7823 -0.5781
 5175SOL     OW26983   1.979   1.896   5.224  0.3891 -0.0215 -0.1025
 5175SOL    HW126984   2.070   1.924   5.228 -0.8088  4.2464 -1.9763
 5175SOL    HW226985   1.991   1.805   5.197  0.6043  0.2772 -1.0279
 5176SOL     OW26986   4.596   1.255   7.779  0.0906  0.1048  0.1860
 5176SOL    HW126987   4.678   1.303   7.774  0.6645 -0.7627  1.3302
 5176SOL    HW226988   4.619   1.193   7.848 -1.3015 -2.6153 -1.7753
 5177SOL     OW26989   1.206   2.769   2.145 -0.0318  0.6202 -0.4827
 5177SOL    HW126990   1.261   2.786   2.069 -0.3969 -0.6172 -1.0284
 5177SOL    HW226991   1.269   2.719   2.197 -0.5259  1.1691  0.6307
 5178SOL     OW26992   2.636   1.614   6.926 -0.4492 -0.3023  0.4203
 5178SOL    HW126993   2.610   1.679   6.991  2.4104  0.4094  0.8248
 5178SOL    HW226994   2.645   1.545   6.992 -0.0040 -2.1101 -1.5224
 5179SOL     OW26995   1.338   2.769  16.179  0.1629 -0.3650 -0.1267
 5179SOL    HW126996   1.253   2.812  16.191  0.1180  0.2603 -2.7322
 5179SOL    HW226997   1.316   2.699  16.118  1.1360 -1.5386  0.8717
 5180SOL     OW26998   0.775   2.205  15.185 -0.2982 -0.5402  0.0947
 5180SOL    HW126999   0.733   2.289  15.204 -1.0511 -0.6031 -1.2363
 5180SOL    HW227000   0.722   2.180  15.109 -0.2304  0.7429 -0.3765
 5181SOL     OW27001   3.570   1.864   6.681  0.4194 -0.4712  0.3629
 5181SOL    HW127002   3.604   1.923   6.615 -1.4430 -0.1861 -0.3410
 5181SOL    HW227003   3.529   1.923   6.745  1.5971  1.1480 -0.3992
 5182SOL     OW27004   0.925   3.083   5.197  0.0877  0.3342  0.9797
 5182SOL    HW127005   0.993   3.044   5.141 -1.9599  1.0152 -1.9854
 5182SOL    HW227006   0.979   3.149   5.240  2.0576 -0.7042  0.1229
 5183SOL     OW27007   3.940   3.063   0.843  0.5262  0.1817  0.3425
 5183SOL    HW127008   3.875   3.134   0.846 -1.4587 -1.7684  3.3210
 5183SOL    HW227009   4.013   3.124   0.852 -0.1653  1.1649 -0.5750
 5184SOL     OW27010   1.544   0.566   2.714  0.2095 -0.2034 -0.4564
 5184SOL    HW127011   1.537   0.633   2.647  1.1292  2.3920  2.0087
 5184SOL    HW227012   1.546   0.485   2.663  1.0210 -0.1475 -0.5211
 5185SOL     OW27013   2.246   0.078   6.726  0.3162 -0.4773 -0.1194
 5185SOL    HW127014   2.176   0.052   6.786  1.7133 -0.2886  1.5952
 5185SOL    HW227015   2.197   0.085   6.644 -0.4074  3.1243  0.5879
 5186SOL     OW27016   0.731   3.041   7.609  0.0990  0.2285 -0.4109
 5186SOL    HW127017   0.707   2.968   7.552 -1.0737 -1.1119  1.8027
 5186SOL    HW227018   0.662   3.046   7.674  0.2126 -0.4955 -0.2314
 5187SOL     OW27019   1.178   0.707  10.253 -0.3623  0.7939 -0.0381
 5187SOL    HW127020   1.215   0.680  10.169 -1.2159  2.3539 -0.9194
 5187SOL    HW227021   1.174   0.621  10.294 -4.2641  0.2211 -1.6326
 5188SOL     OW27022   2.176   2.430   6.731  0.1789 -0.0690  0.5173
 5188SOL    HW127023   2.252   2.484   6.752 -0.3509  1.5548 -1.7597
 5188SOL    HW227024   2.147   2.475   6.651  2.0586 -0.3217 -0.2982
 5189SOL     OW27025   4.388   4.026   8.222  0.0454 -0.2179 -0.1635
 5189SOL    HW127026   4.402   4.082   8.298 -0.7571  0.8710 -0.8239
 5189SOL    HW227027   4.375   3.941   8.264 -1.9417 -1.0842 -2.5252
 5190SOL     OW27028   0.929   1.752  16.109  0.0565  0.2956 -0.0075
 5190SOL    HW127029   0.942   1.677  16.052 -0.9695 -0.1823  0.3897
 5190SOL    HW227030   1.013   1.796  16.093 -0.8255  1.5412 -1.1364
 5191SOL     OW27031   0.895   0.018   2.813  0.3687  0.5069  0.3208
 5191SOL    HW127032   0.847   4.656   2.811 -0.6742  1.1256  0.0272
 5191SOL    HW227033   0.856   0.063   2.739  2.2774  2.6704  0.6048
 5192SOL     OW27034   3.956   0.993   2.108 -0.0141  0.3252  0.5974
 5192SOL    HW127035   3.874   0.950   2.134  0.1408  0.8614  1.9509
 5192SOL    HW227036   3.973   1.052   2.182  1.2390  1.0903 -0.3066
 5193SOL     OW27037   3.466   3.800   4.170 -0.4651  0.5420  0.1588
 5193SOL    HW127038   3.416   3.742   4.113 -2.9422  2.6673  0.1644
 5193SOL    HW227039   3.407   3.798   4.246  0.0207  2.6147  0.5928
 5194SOL     OW27040   3.216   1.434  13.046  0.1029  0.3016  0.1026
 5194SOL    HW127041   3.201   1.509  12.989  0.5031  1.1333  1.0874
 5194SOL    HW227042   3.124   1.409  13.053  0.0612  0.0183 -1.5477
 5195SOL     OW27043   3.216   1.237   3.077 -0.2941 -0.3704 -0.0015
 5195SOL    HW127044   3.153   1.233   3.006  1.0252 -1.8942 -1.0789
 5195SOL    HW227045   3.302   1.257   3.039 -0.9300  0.0109 -1.2147
 5196SOL     OW27046   1.460   2.579   1.957  0.2902  0.3522  0.4227
 5196SOL    HW127047   1.375   2.534   1.959  0.7626 -0.5160  1.1962
 5196SOL    HW227048   1.497   2.575   1.869  0.0671  2.2491  0.2334
 5197SOL     OW27049   4.600   1.386   3.787 -0.1590 -0.2900 -0.0188
 5197SOL    HW127050   4.523   1.395   3.843  0.2915 -0.6087  0.6569
 5197SOL    HW227051   4.673   1.343   3.832 -1.0192 -0.4251  1.2573
 5198SOL     OW27052   1.096   0.451   5.611  0.5523 -0.3681 -0.7411
 5198SOL    HW127053   1.087   0.495   5.695  1.8215 -2.1523  0.3496
 5198SOL    HW227054   1.004   0.439   5.590  0.1286  0.3607  0.7260
 5199SOL     OW27055   2.965   2.689   8.962  0.7765  0.1948  0.5997
 5199SOL    HW127056   2.920   2.759   9.008  1.4311  0.7634  0.3679
 5199SOL    HW227057   2.887   2.643   8.932  0.0319  0.0064  2.8351
 5200SOL     OW27058   0.363   4.570  15.566  0.2152  0.4050 -0.2294
 5200SOL    HW127059   0.427   4.502  15.590  0.1560  0.2903 -0.4003
 5200SOL    HW227060   0.303   4.568  15.641 -1.7570 -1.4893 -1.8549
 5201SOL     OW27061   3.120   4.442   1.259  0.1675 -0.1509  0.1761
 5201SOL    HW127062   3.123   4.347   1.260 -1.6321 -0.2026  0.8130
 5201SOL    HW227063   3.104   4.461   1.351  1.9807 -1.1816  0.7027
 5202SOL     OW27064   3.157   3.311   5.425  0.0420  0.0016 -0.8596
 5202SOL    HW127065   3.080   3.352   5.465 -0.8018  0.4462 -2.9066
 5202SOL    HW227066   3.154   3.230   5.475 -0.0039 -0.4011 -1.5072
 5203SOL     OW27067   3.805   1.062   3.604 -0.3984 -0.1288  0.1054
 5203SOL    HW127068   3.796   1.020   3.519 -3.9183 -0.9669  0.8815
 5203SOL    HW227069   3.739   1.129   3.589  0.7608  0.7295 -1.1022
 5204SOL     OW27070   2.498   1.314  13.075 -0.1344  0.3865 -0.1871
 5204SOL    HW127071   2.416   1.267  13.060  0.2257 -0.8563  1.7702
 5204SOL    HW227072   2.517   1.334  12.983  0.0329  1.2090  0.0232
 5205SOL     OW27073   2.485   0.803   8.741  0.8432  0.4749  0.3680
 5205SOL    HW127074   2.390   0.805   8.753  0.9215 -0.8194  1.2295
 5205SOL    HW227075   2.493   0.708   8.751  4.0840  0.7455  0.2071
 5206SOL     OW27076   2.773   3.161   6.344  0.2528 -0.3053 -0.1142
 5206SOL    HW127077   2.721   3.195   6.271 -0.2859  1.7769  1.2448
 5206SOL    HW227078   2.738   3.074   6.364  0.4457 -0.5695 -0.9251
 5207SOL     OW27079   2.074   1.169  15.567 -0.1158 -0.4096  0.0270
 5207SOL    HW127080   2.046   1.164  15.476 -0.1392 -0.4463  0.0360
 5207SOL    HW227081   2.034   1.251  15.595  1.2199  0.5165 -0.7493
 5208SOL     OW27082   1.004   2.032   4.745 -0.2292  0.5457 -0.3723
 5208SOL    HW127083   1.005   2.126   4.765 -0.1255 -0.1462  2.7574
 5208SOL    HW227084   0.934   2.022   4.680  0.0787  0.2467 -0.6582
 5209SOL     OW27085   1.330   0.016  10.919 -0.1510 -0.2956  0.1196
 5209SOL    HW127086   1.285   0.009  10.834  0.5077 -0.7743 -0.1885
 5209SOL    HW227087   1.372   0.101  10.905 -2.2586  0.3867 -2.1287
 5210SOL     OW27088   4.490   1.457  13.632 -0.0669 -0.5433  0.2684
 5210SOL    HW127089   4.461   1.513  13.705 -1.3269  0.3858 -0.9424
 5210SOL    HW227090   4.494   1.375  13.682 -0.9566  0.3600  1.8485
 5211SOL     OW27091   0.286   2.760   9.550 -0.2645  0.2752  0.0278
 5211SOL    HW127092   0.362   2.737   9.497 -1.5581 -0.6358 -1.4169
 5211SOL    HW227093   0.320   2.843   9.586  0.8796 -0.9618  1.8352
 5212SOL     OW27094   0.172   3.684   4.766 -0.1547  0.0605  0.3501
 5212SOL    HW127095   0.172   3.761   4.823 -2.2536  0.4126 -0.1200
 5212SOL    HW227096   0.078   3.671   4.751  0.0187  1.3571 -1.8799
 5213SOL     OW27097   2.547   2.086   6.089 -0.1434 -0.3488  0.2206
 5213SOL    HW127098   2.466   2.107   6.137  0.7640  0.0098  1.6204
 5213SOL    HW227099   2.574   2.012   6.144  0.3113  0.8712  1.6563
 5214SOL     OW27100   3.107   0.819   6.317  0.1306  0.0650 -0.2181
 5214SOL    HW127101   3.177   0.832   6.254 -0.7856 -0.6151 -1.3715
 5214SOL    HW227102   3.116   0.725   6.330 -1.5546 -0.4994 -3.2325
 5215SOL     OW27103   0.687   4.490   9.006 -0.1133  0.1744 -0.0246
 5215SOL    HW127104   0.662   4.482   9.098 -0.8210 -1.1163 -0.3389
 5215SOL    HW227105   0.683   4.400   8.974 -0.9327 -0.0650  0.7418
 5216SOL     OW27106   1.651   0.723   3.015 -0.0327  0.2966 -0.1876
 5216SOL    HW127107   1.698   0.807   3.012  0.9228 -0.2279  0.3531
 5216SOL    HW227108   1.651   0.692   2.925  0.3159 -2.5457  0.8088
 5217SOL     OW27109   0.274   2.470   6.135 -0.4815  0.5199 -0.9175
 5217SOL    HW127110   0.264   2.451   6.042  4.5886 -0.9661 -1.1832
 5217SOL    HW227111   0.213   2.544   6.138 -0.3972  0.4855  1.6247
 5218SOL     OW27112   2.922   0.202   7.876 -0.3724 -0.4859  0.4186
 5218SOL    HW127113   2.937   0.210   7.782  0.2598  1.8719  0.7192
 5218SOL    HW227114   2.834   0.167   7.890 -1.2474  0.5582 -2.4950
 5219SOL     OW27115   3.142   1.159   9.863  0.5639  0.2461  0.0857
 5219SOL    HW127116   3.084   1.136   9.790  1.2797 -1.9483  0.2087
 5219SOL    HW227117   3.076   1.170   9.931 -0.3371 -0.3018 -0.7028
 5220SOL     OW27118   1.227   0.106   4.338  0.0556  0.0083 -0.2443
 5220SOL    HW127119   1.167   0.090   4.265  0.6020  0.2520 -0.7488
 5220SOL    HW227120   1.279   0.175   4.296  1.4894  0.2826  1.9747
 5221SOL     OW27121   2.547   0.426   6.869 -0.1302 -0.2348  0.0726
 5221SOL    HW127122   2.504   0.341   6.864 -0.5003 -0.0136 -0.4437
 5221SOL    HW227123   2.634   0.409   6.833 -0.3512 -0.7685 -0.2086
 5222SOL     OW27124   4.491   1.087   1.144  0.3771  0.6200  0.3085
 5222SOL    HW127125   4.460   1.142   1.216 -2.1251  0.6246 -0.7719
 5222SOL    HW227126   4.570   1.048   1.180  0.8194 -0.2537 -1.6324
 5223SOL     OW27127   2.485   2.002   6.900  0.3289 -0.4619  0.0239
 5223SOL    HW127128   2.488   2.091   6.934  0.7051 -0.3583 -0.2854
 5223SOL    HW227129   2.535   2.017   6.820 -4.1857  1.9321 -2.4181
 5224SOL     OW27130   3.609   3.351   1.949 -0.3247 -0.2413 -0.2775
 5224SOL    HW127131   3.537   3.369   2.009  0.2870  0.2104  0.3368
 5224SOL    HW227132   3.565   3.278   1.907  1.9090 -1.8235  0.1280
 5225SOL     OW27133   1.709   3.749  10.781  0.6074 -0.5084 -0.0161
 5225SOL    HW127134   1.652   3.744  10.704 -0.2856  1.8573  0.4841
 5225SOL    HW227135   1.648   3.791  10.842 -0.8506 -2.1454 -0.3069
 5226SOL     OW27136   1.193   2.456   8.500 -0.2088  0.3965  0.6149
 5226SOL    HW127137   1.237   2.541   8.511 -0.1332 -0.0077  3.5971
 5226SOL    HW227138   1.243   2.422   8.574 -0.9288 -1.2162  0.3566
 5227SOL     OW27139   2.272   2.109   5.172 -0.1823  0.7181 -0.4949
 5227SOL    HW127140   2.331   2.047   5.129 -0.6396  0.5498 -0.8803
 5227SOL    HW227141   2.237   2.052   5.240  1.6043 -0.1910 -0.3251
 5228SOL     OW27142   0.435   2.207  16.929  0.3943 -0.0340 -0.6127
 5228SOL    HW127143   0.522   2.167  16.928 -0.4088 -1.7932  0.4606
 5228SOL    HW227144   0.381   2.130  16.948  2.3577 -1.0341  0.9383
 5229SOL     OW27145   3.594   4.469   4.126  0.0852 -0.3020  0.1345
 5229SOL    HW127146   3.577   4.463   4.032  0.6757 -3.6398  0.2434
 5229SOL    HW227147   3.684   4.501   4.132 -0.4319  0.5456  3.2913
 5230SOL     OW27148   0.225   3.340  15.024  0.1230  0.3379 -0.8458
 5230SOL    HW127149   0.255   3.253  14.997 -0.0524  0.2769 -0.8478
 5230SOL    HW227150   0.155   3.315  15.084 -0.7650  0.6179 -1.7493
 5231SOL     OW27151   4.423   0.822  14.849  0.4791  0.2370  0.2201
 5231SOL    HW127152   4.439   0.840  14.757  0.0818 -1.4711 -0.1679
 5231SOL    HW227153   4.458   0.734  14.859  0.7393  0.2370 -0.7178
 5232SOL     OW27154   4.507   0.826   7.484 -0.2608 -0.6089 -0.0400
 5232SOL    HW127155   4.584   0.799   7.534 -0.9639 -1.3875  0.6191
 5232SOL    HW227156   4.494   0.913   7.522 -0.2773 -1.0266  0.9177
 5233SOL     OW27157   1.895   3.758   8.483 -0.3130  0.2433 -0.4917
 5233SOL    HW127158   1.836   3.737   8.410  1.0129  0.4895 -1.6260
 5233SOL    HW227159   1.873   3.700   8.556 -1.6981  1.5481  0.1431
 5234SOL     OW27160   1.956   1.741   6.590 -0.7321  0.0315 -0.0419
 5234SOL    HW127161   1.970   1.831   6.561 -1.2725  0.0568 -0.2140
 5234SOL    HW227162   2.035   1.707   6.549 -1.0967 -2.2605  1.1198
 5235SOL     OW27163   2.238   3.056  15.735  0.6151 -0.5396  0.0606
 5235SOL    HW127164   2.280   3.140  15.717 -0.2285 -0.6190 -2.3342
 5235SOL    HW227165   2.207   3.085  15.821 -3.3408 -0.9289 -1.2055
 5236SOL     OW27166   4.139   0.226  13.171  0.0940  0.8725 -0.2777
 5236SOL    HW127167   4.160   0.193  13.083 -0.9500 -0.1143 -0.1603
 5236SOL    HW227168   4.143   0.149  13.228 -0.1825  2.8982  2.4770
 5237SOL     OW27169   1.014   2.693   4.343  0.3164  0.1363  0.1271
 5237SOL    HW127170   0.941   2.676   4.402 -1.0117 -0.1091 -1.5665
 5237SOL    HW227171   0.969   2.696   4.258 -0.1606 -0.8719  0.3415
 5238SOL     OW27172   2.818   2.631   9.906 -0.2854  0.2153 -0.2997
 5238SOL    HW127173   2.755   2.693   9.943 -0.9627 -0.1446 -0.8580
 5238SOL    HW227174   2.891   2.648   9.966  0.5124 -1.5572 -0.7600
 5239SOL     OW27175   0.873   0.689   5.653 -0.2694 -0.8526 -0.3758
 5239SOL    HW127176   0.819   0.615   5.628 -1.3911 -0.1984  0.0908
 5239SOL    HW227177   0.910   0.650   5.733 -0.1700 -3.4037 -1.6807
 5240SOL     OW27178   1.000   1.872   6.441 -0.4192 -0.3071 -0.2714
 5240SOL    HW127179   0.967   1.915   6.520  1.9632  0.2401  0.4326
 5240SOL    HW227180   0.961   1.923   6.370 -1.1639 -0.8591 -0.2644
 5241SOL     OW27181   3.120   4.368   5.853  0.0955 -0.0207 -0.1627
 5241SOL    HW127182   3.173   4.310   5.798  0.4120 -0.1312  0.2587
 5241SOL    HW227183   3.092   4.305   5.919  2.1370 -0.2169  0.5414
 5242SOL     OW27184   2.477   0.062  10.694  0.4948 -0.3666 -0.1092
 5242SOL    HW127185   2.442   0.098  10.775  0.6370 -0.0928 -0.1695
 5242SOL    HW227186   2.496   0.139  10.641 -0.0464 -0.7156 -0.8073
 5243SOL     OW27187   3.573   1.898   1.260  0.4482 -0.3709  0.2241
 5243SOL    HW127188   3.531   1.850   1.332  1.3475 -1.6952 -0.1228
 5243SOL    HW227189   3.665   1.875   1.272  0.3464 -1.1475 -0.4819
 5244SOL     OW27190   4.428   2.054  12.253  0.2235  0.6725  0.1374
 5244SOL    HW127191   4.379   2.136  12.254  0.8032  0.9804  2.8996
 5244SOL    HW227192   4.353   1.998  12.237  0.9696  0.5061 -2.7669
 5245SOL     OW27193   0.155   3.605  15.541  0.5488 -0.1028 -0.1330
 5245SOL    HW127194   0.197   3.668  15.599  2.3200 -0.2996 -1.2074
 5245SOL    HW227195   0.206   3.531  15.573  1.7633  0.6476 -0.3347
 5246SOL     OW27196   0.614   0.175   2.996  0.4680 -0.3850  0.5849
 5246SOL    HW127197   0.541   0.190   2.935  0.3312 -1.2603  0.5363
 5246SOL    HW227198   0.589   0.090   3.032 -0.1018 -0.4048  0.1464
 5247SOL     OW27199   2.694   0.244   3.868 -0.3882  0.3332 -0.1108
 5247SOL    HW127200   2.627   0.289   3.816 -0.9261  0.7315  0.9315
 5247SOL    HW227201   2.641   0.186   3.923 -2.0514  0.3904 -1.6577
 5248SOL     OW27202   1.316   1.314   6.696 -0.2205  0.3014  0.2397
 5248SOL    HW127203   1.311   1.334   6.789 -0.0097 -1.0705  0.5409
 5248SOL    HW227204   1.274   1.397   6.672 -0.1688  1.0361  2.7028
 5249SOL     OW27205   0.189   3.535   3.876  0.2611  0.6861  0.2387
 5249SOL    HW127206   0.284   3.550   3.872  0.5135 -0.2145  2.6939
 5249SOL    HW227207   0.183   3.517   3.970  1.7858 -0.1945  0.1699
 5250SOL     OW27208   3.769   2.843  12.406 -0.2577 -0.0574 -0.2651
 5250SOL    HW127209   3.777   2.798  12.490  0.2733  0.7960  0.1354
 5250SOL    HW227210   3.807   2.779  12.346 -0.6184  1.8515 -2.5242
 5251SOL     OW27211   1.740   0.410   4.625  0.2434  0.2079 -0.1149
 5251SOL    HW127212   1.743   0.347   4.553 -0.0055 -0.9621  0.9029
 5251SOL    HW227213   1.828   0.449   4.626 -0.1894  1.1980 -0.2725
 5252SOL     OW27214   2.972   3.478   8.761  0.6720  0.3745  0.7274
 5252SOL    HW127215   2.992   3.402   8.815  0.4715  0.0931  0.4071
 5252SOL    HW227216   2.987   3.540   8.833  0.4325 -1.2880  2.1999
 5253SOL     OW27217   3.412   2.230   3.730  0.6259  0.1605  0.1537
 5253SOL    HW127218   3.448   2.255   3.816 -0.6735  0.6122  0.5579
 5253SOL    HW227219   3.480   2.279   3.684  0.1083 -0.1112 -0.8958
 5254SOL     OW27220   0.093   4.044   6.729 -0.6175 -0.2730 -0.4569
 5254SOL    HW127221   0.061   4.133   6.746 -1.6290 -0.8824  0.8494
 5254SOL    HW227222   0.031   4.005   6.667 -2.8794  1.1949  0.8521
 5255SOL     OW27223   3.030   2.342   3.039 -0.7823  0.7439 -0.4881
 5255SOL    HW127224   3.031   2.349   2.943  0.3132 -1.1436 -0.6044
 5255SOL    HW227225   2.994   2.427   3.064 -0.9354  0.6409 -0.3630
 5256SOL     OW27226   1.973   3.107  15.537  0.1512  0.3929 -0.0162
 5256SOL    HW127227   1.930   3.023  15.523  1.0248 -0.2272  0.9889
 5256SOL    HW227228   2.013   3.095  15.623 -0.0827 -0.3896 -0.0235
 5257SOL     OW27229   0.860   3.296   3.544 -0.0547 -0.5990  0.4551
 5257SOL    HW127230   0.818   3.361   3.600  1.3305 -0.0493  0.8620
 5257SOL    HW227231   0.859   3.217   3.598 -1.3368 -1.1957 -0.4271
 5258SOL     OW27232   1.256   1.641   1.172  0.3147 -0.0106 -0.2890
 5258SOL    HW127233   1.274   1.674   1.260  0.2505  0.1119 -0.3211
 5258SOL    HW227234   1.165   1.667   1.156  0.8279  1.1778 -1.2589
 5259SOL     OW27235   3.969   3.733  14.165 -0.0207  0.3725 -0.4398
 5259SOL    HW127236   4.003   3.653  14.207 -1.7881 -0.2420 -0.2068
 5259SOL    HW227237   4.040   3.797  14.154  0.4001  0.2949  1.7972
 5260SOL     OW27238   1.235   2.662   6.988 -0.4583  0.1714  0.0537
 5260SOL    HW127239   1.246   2.751   6.954  1.3561  0.2575  0.8580
 5260SOL    HW227240   1.242   2.687   7.081 -0.0207 -0.6383  0.2352
 5261SOL     OW27241   2.218   1.102  12.031 -0.0040 -0.1670  0.3554
 5261SOL    HW127242   2.147   1.111  11.968 -2.1167 -0.2193  2.7324
 5261SOL    HW227243   2.298   1.128  11.985 -0.3324  2.3503  1.2233
 5262SOL     OW27244   1.892   1.191  15.351  0.4400  0.2229 -0.0288
 5262SOL    HW127245   1.863   1.265  15.298  0.2410  1.1051  1.3110
 5262SOL    HW227246   1.823   1.181  15.416 -1.1487  0.0221 -1.7631
 5263SOL     OW27247   0.278   3.914   6.505  0.2637 -0.0907 -0.3872
 5263SOL    HW127248   0.260   3.972   6.579 -0.0987 -0.6384 -0.0469
 5263SOL    HW227249   0.371   3.932   6.493  0.4854 -0.5763  0.6463
 5264SOL     OW27250   3.740   3.237   5.909  0.8808  0.2409  0.4217
 5264SOL    HW127251   3.777   3.154   5.940 -1.8534 -0.0640  2.8710
 5264SOL    HW227252   3.790   3.251   5.829 -0.7894  3.1846 -0.1134
 5265SOL     OW27253   0.127   0.148   3.172  1.1716 -0.5012 -0.0255
 5265SOL    HW127254   0.078   0.081   3.218 -0.7143  0.8908  0.0062
 5265SOL    HW227255   0.103   0.228   3.218  0.6288 -0.4315 -0.4288
 5266SOL     OW27256   0.296   1.507   5.531  0.1265  0.1257  0.3610
 5266SOL    HW127257   0.272   1.496   5.439 -0.6112  2.5449  0.2470
 5266SOL    HW227258   0.390   1.524   5.539  0.0526  0.2026  1.0669
 5267SOL     OW27259   0.876   0.578   7.416  0.1797 -0.1468  0.4289
 5267SOL    HW127260   0.900   0.651   7.359  0.8031 -0.2374  0.5796
 5267SOL    HW227261   0.803   0.545   7.363  0.6798  0.4883 -0.6673
 5268SOL     OW27262   3.823   4.601   7.096 -0.3618  0.1334  0.4158
 5268SOL    HW127263   3.781   4.517   7.085 -0.7903  0.4732 -0.5112
 5268SOL    HW227264   3.769   4.635   7.167  1.9047  0.0918  2.1875
 5269SOL     OW27265   1.895   2.770   4.388 -0.3749 -0.5685  0.2091
 5269SOL    HW127266   1.851   2.841   4.435  1.9506  0.4490  0.8374
 5269SOL    HW227267   1.942   2.815   4.318 -1.6470 -1.3874 -1.1764
 5270SOL     OW27268   1.815   0.912  17.040  0.7639 -0.6522 -0.0270
 5270SOL    HW127269   1.796   0.944  17.129  3.1765  1.4812 -0.2687
 5270SOL    HW227270   1.907   0.884  17.045  1.5022  1.3652 -2.3266
 5271SOL     OW27271   0.994   3.898   1.740  0.0361  0.0391 -0.2780
 5271SOL    HW127272   1.037   3.834   1.796  0.6658  0.7140  0.0119
 5271SOL    HW227273   1.048   3.896   1.661 -1.7249 -1.3403 -1.4620
 5272SOL     OW27274   3.776   1.792   0.330  0.4385  0.2472  0.1488
 5272SOL    HW127275   3.818   1.808   0.245 -1.5237 -0.7250 -1.0302
 5272SOL    HW227276   3.738   1.706   0.312  1.6577 -0.8977  3.0528
 5273SOL     OW27277   3.603   2.475   7.983 -0.4158 -0.1879  0.1350
 5273SOL    HW127278   3.523   2.506   7.941  1.4309  3.9794 -0.3023
 5273SOL    HW227279   3.667   2.524   7.932 -0.7840 -0.3371 -0.4674
 5274SOL     OW27280   4.263   3.131   3.733  0.4703  0.1304 -0.2080
 5274SOL    HW127281   4.223   3.044   3.727 -1.1666  0.7022  2.4149
 5274SOL    HW227282   4.349   3.101   3.761 -0.2209 -2.0921 -0.4952
 5275SOL     OW27283   3.551   3.554   7.631 -1.0735  0.0130  0.1357
 5275SOL    HW127284   3.614   3.491   7.666  1.1160  2.3764  0.3494
 5275SOL    HW227285   3.578   3.621   7.693  1.6770 -0.2790 -0.7625
 5276SOL     OW27286   4.499   0.683   1.085 -0.2032 -0.1126 -0.5503
 5276SOL    HW127287   4.462   0.595   1.081  0.3610 -0.5038  2.7570
 5276SOL    HW227288   4.552   0.700   1.007  1.9687 -0.0953  0.9191
 5277SOL     OW27289   3.733   0.935   6.515 -0.0059  0.1694 -0.5168
 5277SOL    HW127290   3.679   1.007   6.545  0.0806 -0.1383  0.3885
 5277SOL    HW227291   3.752   0.899   6.602 -1.5054  1.1844  0.2327
 5278SOL     OW27292   2.864   0.253   5.826 -0.4612  0.1129 -0.4074
 5278SOL    HW127293   2.821   0.257   5.741  1.3115 -2.1776 -1.4079
 5278SOL    HW227294   2.806   0.188   5.865 -1.2615 -0.1459 -2.0647
 5279SOL     OW27295   4.555   3.252   4.296 -0.2067 -0.2712 -0.4889
 5279SOL    HW127296   4.525   3.323   4.352 -0.4727 -0.9913  0.2762
 5279SOL    HW227297   4.492   3.184   4.319 -0.3718 -0.3147 -1.0637
 5280SOL     OW27298   0.598   4.632   4.363  0.3827 -0.2733 -0.0873
 5280SOL    HW127299   0.595   4.552   4.311  1.6860 -2.0923  2.6572
 5280SOL    HW227300   0.636   4.600   4.445 -0.4801 -1.5007 -0.1640
 5281SOL     OW27301   2.213   4.696   4.539 -0.4977 -0.0234  0.6454
 5281SOL    HW127302   2.289   4.643   4.514 -1.6092 -1.9953  1.4577
 5281SOL    HW227303   2.221   4.696   4.635 -0.1016  2.5735  0.6030
 5282SOL     OW27304   1.974   3.899  10.849 -0.0067 -0.5727  0.3569
 5282SOL    HW127305   2.024   3.952  10.911  0.5026 -0.5736 -0.0549
 5282SOL    HW227306   1.915   3.965  10.813 -0.7135 -1.2915  0.1986
 5283SOL     OW27307   4.652   3.328   5.752  0.1286  0.5916  0.1648
 5283SOL    HW127308   4.720   3.260   5.758  0.9497  1.4637  0.7816
 5283SOL    HW227309   4.596   3.296   5.822 -0.5878  0.7451 -0.3429
 5284SOL     OW27310   4.263   0.927  17.476 -0.4213 -0.0407 -0.0013
 5284SOL    HW127311   4.170   0.910  17.487 -0.5741  0.2786 -0.7796
 5284SOL    HW227312   4.276   0.878  17.394  1.2116  1.9109 -0.9120
 5285SOL     OW27313   1.890   2.286   4.709  0.5745 -0.0437 -0.0238
 5285SOL    HW127314   1.853   2.372   4.691  0.8221 -0.7845 -4.0465
 5285SOL    HW227315   1.977   2.299   4.670 -0.2167  3.2736 -0.6611
 5286SOL     OW27316   4.041   3.778   6.186  0.2085  1.0045  0.2149
 5286SOL    HW127317   4.119   3.804   6.137  1.0308  0.9906  1.5299
 5286SOL    HW227318   3.990   3.747   6.110  0.6609  0.2618  0.2144
 5287SOL     OW27319   2.067   2.778  15.741  0.2817 -0.2282  0.3985
 5287SOL    HW127320   2.082   2.726  15.661 -2.1922  1.6298 -1.2672
 5287SOL    HW227321   2.152   2.821  15.748 -0.2740  0.7841  0.7885
 5288SOL     OW27322   4.499   3.545   4.354 -0.4025 -0.2740  0.1974
 5288SOL    HW127323   4.519   3.614   4.418  2.3662  1.5888 -2.6787
 5288SOL    HW227324   4.590   3.528   4.329 -0.0076 -1.1014  2.1460
 5289SOL     OW27325   0.137   1.745   2.035 -0.0604 -0.1978 -0.0625
 5289SOL    HW127326   0.144   1.762   1.941  0.4597  1.0293  0.1986
 5289SOL    HW227327   0.144   1.649   2.030 -0.9116 -0.1304 -2.6935
 5290SOL     OW27328   4.235   3.882   6.054 -0.7291  0.0940 -0.5210
 5290SOL    HW127329   4.238   3.963   6.104 -1.5248  0.2172 -0.6707
 5290SOL    HW227330   4.222   3.908   5.963  2.5389  1.5705 -0.5494
 5291SOL     OW27331   2.553   3.273   2.837  0.2978  0.6933 -0.4033
 5291SOL    HW127332   2.642   3.253   2.808 -0.6633 -0.6155 -2.4059
 5291SOL    HW227333   2.527   3.336   2.770  1.8158  1.4676 -0.2865
 5292SOL     OW27334   4.140   0.583   2.460  0.0516  0.3989 -0.1502
 5292SOL    HW127335   4.047   0.578   2.438 -0.2417 -0.0291  1.1984
 5292SOL    HW227336   4.159   0.490   2.449 -0.0488  0.5615 -1.7315
 5293SOL     OW27337   4.603   4.509   7.453  0.0886  1.1294 -0.1846
 5293SOL    HW127338   4.648   4.433   7.488 -1.3000 -0.5137 -1.9368
 5293SOL    HW227339   4.522   4.478   7.411 -1.2539  4.0791  0.2181
 5294SOL     OW27340   2.250   3.319  14.362  0.0852 -0.1787 -0.0283
 5294SOL    HW127341   2.219   3.264  14.290  2.1617  0.2231 -1.2252
 5294SOL    HW227342   2.345   3.313  14.363  0.0893 -0.2892 -1.9673
 5295SOL     OW27343   0.415   1.309   9.193  0.6795 -0.3402 -0.1863
 5295SOL    HW127344   0.399   1.394   9.153  0.2557 -1.2559 -1.9647
 5295SOL    HW227345   0.507   1.322   9.216  0.2127  0.8634  1.0084
 5296SOL     OW27346   3.260   0.474  10.955  0.2850 -0.1610 -0.0142
 5296SOL    HW127347   3.333   0.516  11.000  0.7329  0.2947 -1.1568
 5296SOL    HW227348   3.217   0.425  11.026 -0.3016 -0.5477 -0.6382
 5297SOL     OW27349   0.984   0.296   6.969 -0.1054 -0.8993 -0.3689
 5297SOL    HW127350   1.010   0.271   7.057 -0.2974 -3.6075 -1.0545
 5297SOL    HW227351   0.902   0.245   6.965 -1.5587  1.5556 -1.9970
 5298SOL     OW27352   3.734   2.512   5.911 -0.4503 -0.3731 -0.0321
 5298SOL    HW127353   3.735   2.417   5.927 -0.2858 -0.6834 -1.9240
 5298SOL    HW227354   3.658   2.520   5.854 -0.0313 -0.1856 -0.5589
 5299SOL     OW27355   1.844   1.650  17.618 -0.5695 -0.1575  0.5358
 5299SOL    HW127356   1.808   1.721  17.564 -2.1440 -0.3544  1.3011
 5299SOL    HW227357   1.936   1.669  17.605 -0.2591 -1.4656  0.8382
 5300SOL     OW27358   1.424   0.656  17.124 -0.5989  1.1151  0.4072
 5300SOL    HW127359   1.483   0.680  17.053  0.7415  0.0599  1.1460
 5300SOL    HW227360   1.490   0.611  17.177 -0.6107  2.1131  1.2740
 5301SOL     OW27361   3.224   4.314   4.167 -0.2622 -0.0062 -0.7635
 5301SOL    HW127362   3.194   4.258   4.096  1.3103  0.3328 -1.7006
 5301SOL    HW227363   3.233   4.398   4.121 -2.6091 -0.0613 -1.3108
 5302SOL     OW27364   2.914   2.399   8.621 -0.2867  0.0861  0.3955
 5302SOL    HW127365   2.902   2.447   8.539  0.3330 -0.4916 -0.0354
 5302SOL    HW227366   2.877   2.456   8.688 -0.5631 -0.3158  0.5868
 5303SOL     OW27367   2.534   3.049   7.120  0.2382 -0.0567 -0.4926
 5303SOL    HW127368   2.541   2.989   7.046 -2.5314 -0.0066 -0.8062
 5303SOL    HW227369   2.458   3.017   7.169  1.0908  0.4467  1.1485
 5304SOL     OW27370   2.034   0.234   8.323 -0.5006  0.4080 -0.0486
 5304SOL    HW127371   2.024   0.168   8.254  1.2071 -0.3078  0.3984
 5304SOL    HW227372   2.028   0.316   8.273  1.2075 -0.3292 -1.4630
 5305SOL     OW27373   0.107   4.483  12.291  0.1605 -0.7656  0.6006
 5305SOL    HW127374   0.148   4.432  12.221 -0.5623  2.9700 -2.5890
 5305SOL    HW227375   0.016   4.494  12.263  0.8254 -0.8734 -1.5962
 5306SOL     OW27376   1.736   2.756  10.393  0.2079  0.2406  0.7960
 5306SOL    HW127377   1.772   2.820  10.455  2.2104 -1.3352  1.2616
 5306SOL    HW227378   1.707   2.813  10.322 -3.0223 -1.9379  0.3808
 5307SOL     OW27379   0.608   3.588   5.059  0.2190 -0.0461 -0.4524
 5307SOL    HW127380   0.620   3.551   4.971  0.1278  1.2600 -1.0204
 5307SOL    HW227381   0.552   3.662   5.034 -0.2876 -0.5853 -0.9351
 5308SOL     OW27382   1.440   2.468   9.277  0.0177  0.0230  0.2602
 5308SOL    HW127383   1.499   2.393   9.286  1.7315  1.0009 -2.8548
 5308SOL    HW227384   1.465   2.513   9.358 -0.3648  0.4432  0.1461
 5309SOL     OW27385   2.107   3.632   5.637 -0.2620  0.0960  0.3242
 5309SOL    HW127386   2.067   3.711   5.603  0.3912 -0.8654 -2.6463
 5309SOL    HW227387   2.028   3.581   5.658 -1.5393  1.5208 -1.1093
 5310SOL     OW27388   4.653   0.825   5.039 -0.4763  0.1479 -0.0195
 5310SOL    HW127389   4.650   0.790   4.949  0.0298 -0.7148  0.3009
 5310SOL    HW227390   4.571   0.875   5.044  0.2748  1.6114 -2.2131
 5311SOL     OW27391   0.114   0.032  16.082  0.0049 -0.0179  0.7202
 5311SOL    HW127392   0.018   0.039  16.081  0.1064  1.0805 -0.5323
 5311SOL    HW227393   0.116   4.701  16.001 -0.7372  2.0905 -0.6332
 5312SOL     OW27394   0.414   1.919   8.056 -0.1100 -0.2085  0.3067
 5312SOL    HW127395   0.429   1.975   7.980  1.4214  0.1718  0.8809
 5312SOL    HW227396   0.476   1.952   8.121 -1.5668  2.1967  0.4571
 5313SOL     OW27397   0.268   1.564   2.516  0.3861  0.2918 -0.2666
 5313SOL    HW127398   0.211   1.634   2.483  1.3931  0.7893 -0.9405
 5313SOL    HW227399   0.199   1.506   2.549  1.0364  0.2087  0.9647
 5314SOL     OW27400   0.129   1.517   4.253  0.4529  0.2574  0.0885
 5314SOL    HW127401   0.199   1.547   4.196 -0.9719  1.4844 -1.0248
 5314SOL    HW227402   0.125   1.427   4.221 -0.1445 -0.1615  1.3327
 5315SOL     OW27403   3.971   1.558   5.699  0.9240 -0.1533  0.2061
 5315SOL    HW127404   3.893   1.571   5.754  1.1691 -0.0741  0.5382
 5315SOL    HW227405   3.947   1.610   5.622 -0.7022  1.1160  1.5466
 5316SOL     OW27406   0.039   3.016   5.782  0.1974  0.7558  0.1092
 5316SOL    HW127407   0.096   2.991   5.855 -0.5762 -1.1314  0.0493
 5316SOL    HW227408   4.678   2.969   5.800  1.1115 -0.9471 -0.2624
 5317SOL     OW27409   2.856   0.400  11.757 -0.1192 -0.4342  0.0457
 5317SOL    HW127410   2.838   0.314  11.795  1.1205 -0.7551 -0.0950
 5317SOL    HW227411   2.851   0.447  11.841  2.2133  1.6700 -1.0066
 5318SOL     OW27412   3.609   3.996   7.809 -0.2993 -0.0524  0.1269
 5318SOL    HW127413   3.636   4.040   7.889  1.5701  0.5264 -0.8248
 5318SOL    HW227414   3.655   4.048   7.744 -1.3710 -1.7186 -2.0092
 5319SOL     OW27415   3.985   4.440  14.366 -0.5123  0.1428 -0.0731
 5319SOL    HW127416   3.931   4.361  14.358 -0.0559 -0.2209  0.4334
 5319SOL    HW227417   4.007   4.446  14.273 -0.5725 -0.4711 -0.1267
 5320SOL     OW27418   0.848   1.703   6.002  0.1350 -0.7541  0.0551
 5320SOL    HW127419   0.864   1.791   5.967  0.6631 -0.7666  0.2665
 5320SOL    HW227420   0.932   1.696   6.048  0.3477  1.4118  0.0248
 5321SOL     OW27421   0.672   3.603   6.190 -0.1902 -0.4239  0.0519
 5321SOL    HW127422   0.767   3.601   6.184 -0.0788  1.9447  1.0539
 5321SOL    HW227423   0.639   3.567   6.108  0.6323 -0.1705 -0.3858
 5322SOL     OW27424   3.901   2.190   2.607 -0.1619  0.3164  0.3458
 5322SOL    HW127425   3.879   2.283   2.605 -2.8119 -0.3350 -0.3547
 5322SOL    HW227426   3.990   2.196   2.574 -0.8883  4.3832 -0.9312
 5323SOL     OW27427   2.908   1.162   4.772  0.8310  0.2638  0.8123
 5323SOL    HW127428   2.997   1.141   4.745 -1.1166 -2.4274 -3.6288
 5323SOL    HW227429   2.884   1.093   4.833  1.0151 -0.4173  0.1061
 5324SOL     OW27430   0.841   0.888   7.942 -0.0334  0.1918  0.4018
 5324SOL    HW127431   0.857   0.943   8.019  1.5518  0.7063 -0.3050
 5324SOL    HW227432   0.748   0.863   7.939 -0.0936  0.4768 -0.1365
 5325SOL     OW27433   1.582   0.455   9.056 -0.5673 -0.0102 -0.3128
 5325SOL    HW127434   1.570   0.389   8.987 -0.1600 -1.0106  0.5858
 5325SOL    HW227435   1.551   0.406   9.132 -0.3715  0.9715  0.3903
 5326SOL     OW27436   2.032   0.114   9.553  0.1054  0.1516  0.1480
 5326SOL    HW127437   2.019   0.112   9.648 -0.0898  2.0092  0.1605
 5326SOL    HW227438   2.126   0.132   9.547  0.0922  0.5805  1.1243
 5327SOL     OW27439   2.906   1.721   0.496  0.0779 -0.3978 -0.3783
 5327SOL    HW127440   2.997   1.692   0.490 -0.8210 -3.8662  2.7709
 5327SOL    HW227441   2.897   1.814   0.519  0.4658 -0.1955 -1.0433
 5328SOL     OW27442   2.492   0.595   2.841 -0.1777  0.6884 -0.5850
 5328SOL    HW127443   2.577   0.558   2.815 -0.6232 -0.1143 -0.8863
 5328SOL    HW227444   2.447   0.588   2.757 -1.1390 -0.2210  0.0112
 5329SOL     OW27445   1.207   0.954  15.744 -0.1732 -0.1083 -0.0215
 5329SOL    HW127446   1.284   0.976  15.692 -1.3182  1.0703 -1.2458
 5329SOL    HW227447   1.261   0.926  15.817  1.2056 -2.5743 -1.9693
 5330SOL     OW27448   0.028   2.107   1.781  0.0495  0.7807  0.7865
 5330SOL    HW127449   4.695   2.158   1.842  0.4657 -1.2283  2.8224
 5330SOL    HW227450   0.103   2.085   1.837  0.9939  0.4875 -0.6030
 5331SOL     OW27451   2.077   3.692   8.226 -0.4158  0.0862 -0.2422
 5331SOL    HW127452   2.001   3.697   8.168 -1.0295 -0.1395  0.5361
 5331SOL    HW227453   2.035   3.666   8.309  1.1260  0.2271  0.5890
 5332SOL     OW27454   4.711   4.193  16.013 -0.5169 -0.0490 -0.3952
 5332SOL    HW127455   4.672   4.258  15.955 -1.4424 -0.3755 -0.1505
 5332SOL    HW227456   0.083   4.217  16.011 -0.9811  1.8322  0.6398
 5333SOL     OW27457   2.320   0.836   7.379  0.2664  0.0741  0.3809
 5333SOL    HW127458   2.269   0.888   7.441  2.6705  2.5088  0.3193
 5333SOL    HW227459   2.407   0.872   7.396  1.4960 -1.5622 -2.4299
 5334SOL     OW27460   1.967   3.602  11.038 -0.1272  0.2825 -0.1301
 5334SOL    HW127461   1.919   3.527  11.002 -2.4337  1.3928  0.6476
 5334SOL    HW227462   2.053   3.584  11.000  0.3812 -0.6960  1.4763
 5335SOL     OW27463   3.991   3.469   1.763 -0.1647  0.0699  0.0918
 5335SOL    HW127464   3.918   3.407   1.763 -0.2696  0.1901  0.5817
 5335SOL    HW227465   4.017   3.481   1.672  0.6874 -1.7765  0.0863
 5336SOL     OW27466   1.946   3.946   6.984 -0.2249 -0.0326  0.2111
 5336SOL    HW127467   1.885   3.922   6.915  2.7832  0.1457 -2.5089
 5336SOL    HW227468   1.897   3.926   7.064  0.7936 -1.4796  0.4801
 5337SOL     OW27469   2.561   4.145   6.276  0.5549 -0.3252 -0.5636
 5337SOL    HW127470   2.560   4.049   6.269  0.2402 -0.2294 -1.6936
 5337SOL    HW227471   2.589   4.162   6.186  0.1461 -2.3536 -1.0899
 5338SOL     OW27472   2.148   3.962   0.636 -0.1462  0.0800 -0.3491
 5338SOL    HW127473   2.232   4.005   0.649  0.1868 -0.9358  0.7449
 5338SOL    HW227474   2.103   4.033   0.589 -0.3634 -0.4002 -0.8629
 5339SOL     OW27475   3.306   1.589  15.856  0.6114  0.4661  0.2661
 5339SOL    HW127476   3.387   1.631  15.828  0.7407 -0.9932 -1.4754
 5339SOL    HW227477   3.241   1.638  15.805  1.7408  2.5425  0.8018
 5340SOL     OW27478   1.080   4.277  12.540  0.3690 -0.0904 -0.3880
 5340SOL    HW127479   1.114   4.200  12.587  3.3553  0.8339 -1.0676
 5340SOL    HW227480   1.030   4.324  12.606  1.3287 -0.5872  0.6994
 5341SOL     OW27481   0.748   1.446   8.209 -0.1765  0.3237 -0.1774
 5341SOL    HW127482   0.780   1.402   8.288 -2.3309  1.9250  1.5816
 5341SOL    HW227483   0.782   1.533   8.229  0.5819  0.2003 -0.9294
 5342SOL     OW27484   4.500   2.508   6.418 -0.0948  1.0906  0.0335
 5342SOL    HW127485   4.441   2.572   6.378 -3.2099 -2.6596 -1.4007
 5342SOL    HW227486   4.511   2.453   6.341  1.5376 -0.0473  1.0917
 5343SOL     OW27487   2.672   0.001   6.192  0.6605  0.5535 -0.1844
 5343SOL    HW127488   2.730   4.717   6.267 -2.0765  4.0029  2.1797
 5343SOL    HW227489   2.586   0.016   6.232  0.0831  1.9592 -1.9542
 5344SOL     OW27490   2.295   4.125   9.689 -0.1311 -0.3913 -0.4782
 5344SOL    HW127491   2.296   4.192   9.621 -2.1056 -0.1593 -0.2923
 5344SOL    HW227492   2.236   4.061   9.649 -1.1208 -0.1428  0.5763
 5345SOL     OW27493   0.263   3.555   2.092 -0.9631  0.5765 -0.2583
 5345SOL    HW127494   0.279   3.551   2.186 -0.4895 -0.5025 -0.3836
 5345SOL    HW227495   0.198   3.486   2.079  2.5944 -2.9154  0.6477
 5346SOL     OW27496   2.229   4.096   2.931  0.0545  0.2825 -0.3076
 5346SOL    HW127497   2.188   4.089   2.845 -0.5898 -1.1993  0.1070
 5346SOL    HW227498   2.165   4.146   2.982 -1.2551  1.4478 -3.1200
 5347SOL     OW27499   0.826   0.323   9.683 -0.3142  0.9491 -0.2612
 5347SOL    HW127500   0.839   0.260   9.611 -0.8265  1.1128 -0.4995
 5347SOL    HW227501   0.916   0.334   9.713  0.0553 -2.5447 -0.0769
 5348SOL     OW27502   0.145   2.287  11.614 -0.1663  0.3347  0.2327
 5348SOL    HW127503   0.101   2.295  11.529  0.9873  0.2456 -0.3701
 5348SOL    HW227504   0.183   2.375  11.619  1.0095 -0.1826  0.4207
 5349SOL     OW27505   4.063   2.788   7.140  0.0843 -0.1061  0.3200
 5349SOL    HW127506   4.086   2.762   7.230  0.1730  0.4802  0.4689
 5349SOL    HW227507   4.018   2.868   7.168  2.2917  2.1431 -2.6666
 5350SOL     OW27508   3.393   2.746  11.539 -0.0829  0.0684  0.3580
 5350SOL    HW127509   3.387   2.808  11.611  1.3181  0.4988  0.0965
 5350SOL    HW227510   3.472   2.701  11.569 -0.5187  1.0896  3.0511
 5351SOL     OW27511   3.521   0.929   7.606  0.3641 -0.2446 -0.2851
 5351SOL    HW127512   3.434   0.907   7.572  0.5518 -0.6039 -0.5208
 5351SOL    HW227513   3.557   0.848   7.641  0.6372 -0.1599 -0.3688
 5352SOL     OW27514   1.751   0.925   5.264 -0.2819 -0.0979 -0.5173
 5352SOL    HW127515   1.688   0.853   5.253 -1.0147  0.4864 -0.1108
 5352SOL    HW227516   1.800   0.898   5.341  0.1869 -0.3105 -0.8900
 5353SOL     OW27517   1.815   2.958   2.580 -0.5164 -0.1015  0.2775
 5353SOL    HW127518   1.875   2.999   2.518  1.6814 -2.6230  0.7134
 5353SOL    HW227519   1.736   2.963   2.526  1.2591  0.4440 -2.2414
 5354SOL     OW27520   1.773   0.467   8.038 -0.2165 -0.0496 -0.1290
 5354SOL    HW127521   1.739   0.387   7.996  2.7994 -1.0813 -0.5684
 5354SOL    HW227522   1.723   0.467   8.120 -0.3816 -0.0159 -0.2304
 5355SOL     OW27523   0.115   1.259   8.283  0.2123 -0.0260  0.4176
 5355SOL    HW127524   0.109   1.234   8.191 -0.7918 -2.5739  1.1889
 5355SOL    HW227525   0.025   1.261   8.313  0.9851 -0.5863  2.7950
 5356SOL     OW27526   3.534   0.824   4.297 -0.0522  0.3932 -0.1156
 5356SOL    HW127527   3.503   0.741   4.263 -0.9279 -0.6248  3.1308
 5356SOL    HW227528   3.616   0.843   4.253  0.6177  0.5009  1.1595
 5357SOL     OW27529   0.503   0.457   5.874  0.3346  0.3239  0.1120
 5357SOL    HW127530   0.418   0.420   5.854  1.2498 -1.9931  0.5758
 5357SOL    HW227531   0.488   0.534   5.929 -0.5076  0.8795 -0.8917
 5358SOL     OW27532   1.735   1.871  13.281 -0.1034 -0.1674 -0.2377
 5358SOL    HW127533   1.698   1.806  13.341  0.6358 -0.1267  0.2546
 5358SOL    HW227534   1.728   1.948  13.337  0.7861  0.0429 -0.4202
 5359SOL     OW27535   2.199   4.243  15.723 -0.0111  0.8982 -0.0706
 5359SOL    HW127536   2.182   4.171  15.661  2.0331 -0.3068  0.7779
 5359SOL    HW227537   2.293   4.260  15.709  0.3219  0.1989  1.3376
 5360SOL     OW27538   3.864   1.983   1.076 -0.2472 -0.1435  0.3798
 5360SOL    HW127539   3.818   2.066   1.087  0.6202  0.3310  0.4648
 5360SOL    HW227540   3.865   1.941   1.163 -3.4632  1.8475  1.3805
 5361SOL     OW27541   4.718   3.196  10.025 -0.2773 -0.1815  0.3876
 5361SOL    HW127542   4.683   3.120   9.978 -0.1638  0.3011 -0.4725
 5361SOL    HW227543   4.685   3.175  10.112 -0.9480  0.9548  0.4008
 5362SOL     OW27544   3.288   2.846   1.117 -0.0982 -0.0475 -0.1332
 5362SOL    HW127545   3.212   2.892   1.153  0.0399 -0.4708  0.7091
 5362SOL    HW227546   3.258   2.755   1.119  0.8806 -0.4000 -1.5954
 5363SOL     OW27547   0.574   4.290   0.285 -0.4266  0.7908 -0.1476
 5363SOL    HW127548   0.667   4.304   0.304 -0.4452  0.5863  0.0967
 5363SOL    HW227549   0.540   4.378   0.300 -1.1728  0.3061  1.0049
 5364SOL     OW27550   0.462   0.360  12.146  0.0009  0.0257 -0.1641
 5364SOL    HW127551   0.500   0.436  12.101  0.2740  0.2368  0.4194
 5364SOL    HW227552   0.525   0.288  12.140 -0.6595 -0.5626  0.0013
 5365SOL     OW27553   1.592   2.381   7.016 -0.0746  0.2526  0.2551
 5365SOL    HW127554   1.645   2.436   6.959  0.3960  1.5797  1.9814
 5365SOL    HW227555   1.586   2.422   7.102 -0.7927  2.0051 -0.6248
 5366SOL     OW27556   1.975   2.037  16.531 -0.2283 -0.0322 -0.3631
 5366SOL    HW127557   2.051   2.080  16.569  0.7576 -2.0624 -0.0293
 5366SOL    HW227558   1.899   2.095  16.546  1.6059  2.1967  0.3035
 5367SOL     OW27559   2.595   2.848   7.843  0.0210  0.7605  0.4116
 5367SOL    HW127560   2.526   2.863   7.908  0.2935  2.3712  0.3452
 5367SOL    HW227561   2.652   2.798   7.901 -2.0979 -0.9097  1.0374
 5368SOL     OW27562   1.695   3.573  11.180 -0.3355  0.1546 -0.1374
 5368SOL    HW127563   1.677   3.664  11.202 -0.6726  0.1268 -0.2988
 5368SOL    HW227564   1.765   3.587  11.116 -0.2526  0.2462 -0.0265
 5369SOL     OW27565   4.418   1.162   5.655  0.8010 -0.7151 -0.3658
 5369SOL    HW127566   4.388   1.102   5.586  0.6960 -0.9756 -0.0934
 5369SOL    HW227567   4.481   1.107   5.702 -0.5363 -2.8995 -1.1163
 5370SOL     OW27568   0.165   0.162   6.539  0.2633  0.0038 -0.6002
 5370SOL    HW127569   0.091   0.210   6.502 -0.0083 -0.8927 -1.2288
 5370SOL    HW227570   0.154   0.080   6.490  0.5878 -1.6653  2.0868
 5371SOL     OW27571   2.757   0.154  11.118  0.0236 -0.1651  0.1596
 5371SOL    HW127572   2.670   0.154  11.078  0.6218 -0.8606 -1.1209
 5371SOL    HW227573   2.736   0.211  11.192 -0.5300 -2.7470  2.0146
 5372SOL     OW27574   2.680   0.599   4.855  0.5207  0.0395  0.7942
 5372SOL    HW127575   2.664   0.506   4.872 -2.2783  0.2291 -0.7007
 5372SOL    HW227576   2.697   0.608   4.762 -0.6241  1.7703  0.7581
 5373SOL     OW27577   4.396   2.164   0.915 -0.1664  0.3828  0.2181
 5373SOL    HW127578   4.342   2.132   0.842  1.3359  0.5902 -0.9780
 5373SOL    HW227579   4.349   2.242   0.944 -2.5850 -0.3957 -1.5585
 5374SOL     OW27580   4.453   2.445   9.285 -0.8115  1.2993  0.2998
 5374SOL    HW127581   4.414   2.467   9.370  1.0472 -1.0665  1.7603
 5374SOL    HW227582   4.471   2.353   9.302  3.2217  2.2295  1.0905
 5375SOL     OW27583   2.331   1.311   5.564 -0.0116 -0.0742 -0.0871
 5375SOL    HW127584   2.369   1.273   5.643  0.4222  1.9299  0.6729
 5375SOL    HW227585   2.248   1.264   5.561 -0.3065  0.4132  0.5255
 5376SOL     OW27586   0.484   0.467   9.417  0.5384  0.2349 -0.2763
 5376SOL    HW127587   0.556   0.520   9.452 -2.3309  3.2458  1.0655
 5376SOL    HW227588   0.537   0.394   9.384  2.2853  1.4993 -0.2975
 5377SOL     OW27589   2.376   0.968   5.050 -0.0169  0.1824 -0.3909
 5377SOL    HW127590   2.430   0.960   4.971  0.2998 -1.1023 -0.0405
 5377SOL    HW227591   2.287   0.991   5.021  0.7916  1.3317 -1.9695
 5378SOL     OW27592   4.618   4.127   1.929 -0.0825 -0.1200 -0.4494
 5378SOL    HW127593   4.567   4.201   1.963  0.6165  0.2149 -0.1238
 5378SOL    HW227594   4.705   4.151   1.959 -0.6226  0.4385  0.6771
 5379SOL     OW27595   4.085   3.977   8.433  0.3973  0.1433  0.2771
 5379SOL    HW127596   4.050   3.999   8.347  1.7599  0.9927 -0.0498
 5379SOL    HW227597   4.178   3.957   8.426 -0.2643 -2.2443 -1.4284
 5380SOL     OW27598   3.921   2.153  12.996  0.2389 -0.0652 -0.4149
 5380SOL    HW127599   3.907   2.218  13.065  2.3228  0.8443 -0.8519
 5380SOL    HW227600   4.016   2.161  12.990  0.0860  0.6961 -1.7765
 5381SOL     OW27601   0.756   0.461  12.515 -0.0577 -0.4350  0.0210
 5381SOL    HW127602   0.798   0.376  12.508  1.4244  0.1189  2.2222
 5381SOL    HW227603   0.733   0.482  12.424 -3.2166 -0.8678  0.7144
 5382SOL     OW27604   2.995   2.490   1.151  0.0758 -0.8068 -0.2514
 5382SOL    HW127605   2.906   2.493   1.116 -0.6673 -2.6835  1.4918
 5382SOL    HW227606   3.044   2.566   1.120  0.2099 -2.1075 -3.2506
 5383SOL     OW27607   0.484   1.457   2.626 -0.1039  0.5067 -0.0900
 5383SOL    HW127608   0.543   1.533   2.623 -1.2093  1.2954 -1.4497
 5383SOL    HW227609   0.410   1.502   2.586 -0.8627 -2.1972 -1.7030
 5384SOL     OW27610   4.432   3.169   2.748 -0.1173 -0.1953 -0.3968
 5384SOL    HW127611   4.490   3.242   2.771 -2.3795  1.3812  0.3586
 5384SOL    HW227612   4.346   3.206   2.770  0.1748  1.7552 -2.5428
 5385SOL     OW27613   2.700   1.191   9.059 -0.1684 -0.3404  0.3074
 5385SOL    HW127614   2.652   1.145   8.989  0.1070 -2.3318  1.4324
 5385SOL    HW227615   2.626   1.230   9.105  1.5464  3.0504  0.1620
 5386SOL     OW27616   3.067   0.313   6.751  0.2937  0.5268 -0.1026
 5386SOL    HW127617   3.103   0.302   6.839  0.0417  0.3433 -0.0229
 5386SOL    HW227618   3.129   0.260   6.700 -0.2466 -1.1603  0.9863
 5387SOL     OW27619   1.847   0.492   2.840  0.9510  0.0688 -0.0101
 5387SOL    HW127620   1.864   0.402   2.811 -1.2485 -0.1273 -0.7057
 5387SOL    HW227621   1.752   0.492   2.834  1.0071  0.7432 -0.7136
 5388SOL     OW27622   3.520   2.262   3.992  0.5887 -0.4602  0.3020
 5388SOL    HW127623   3.557   2.347   4.015 -0.8884  0.1421  0.4181
 5388SOL    HW227624   3.499   2.229   4.079 -0.3551  1.6622  0.8850
 5389SOL     OW27625   1.911   4.073  10.355  0.1147 -0.0400 -0.0163
 5389SOL    HW127626   1.952   4.125  10.424  0.6949 -1.3336  0.6082
 5389SOL    HW227627   1.835   4.044  10.404 -0.8972  1.7518 -0.5410
 5390SOL     OW27628   4.132   0.645  14.731  0.0654 -0.3218 -0.6081
 5390SOL    HW127629   4.103   0.735  14.715  1.1514 -0.1068 -1.3918
 5390SOL    HW227630   4.222   0.653  14.763  1.1170 -0.2213 -3.5962
 5391SOL     OW27631   2.889   0.767   5.577 -0.6441  0.1484 -0.3839
 5391SOL    HW127632   2.941   0.733   5.504  0.9860 -1.6223  1.5960
 5391SOL    HW227633   2.947   0.735   5.647 -0.1400  2.0778  0.0657
 5392SOL     OW27634   1.125   4.644   6.339  0.3461  0.3434 -0.3136
 5392SOL    HW127635   1.218   4.632   6.357 -0.2052 -2.6603  0.4831
 5392SOL    HW227636   1.090   4.598   6.415 -0.5692 -1.4608 -1.8264
 5393SOL     OW27637   2.564   3.693   3.901 -0.1670  0.4029 -0.1743
 5393SOL    HW127638   2.546   3.698   3.995 -1.7769 -1.1150 -0.3882
 5393SOL    HW227639   2.502   3.754   3.862  0.8213  0.6023 -1.4304
 5394SOL     OW27640   4.347   0.033  16.238  0.2157  0.1701  0.1257
 5394SOL    HW127641   4.306   4.682  16.189 -0.2850  0.1454  0.5802
 5394SOL    HW227642   4.404   0.071  16.172 -0.6709 -1.5772 -1.6352
 5395SOL     OW27643   2.888   1.220   8.312 -0.4798  0.2185 -0.5470
 5395SOL    HW127644   2.980   1.197   8.299 -0.1063  2.2441 -1.4404
 5395SOL    HW227645   2.858   1.246   8.225 -0.4174 -0.1293 -0.6706
 5396SOL     OW27646   2.904   2.661  14.173  0.2588  0.2042  0.1172
 5396SOL    HW127647   2.912   2.753  14.149 -1.3659  0.1358 -0.6752
 5396SOL    HW227648   2.820   2.669  14.218  0.5490 -4.0622  1.4420
 5397SOL     OW27649   0.679   2.236  12.938  0.7180 -0.6606 -0.1919
 5397SOL    HW127650   0.672   2.330  12.955 -2.4355 -1.1791  1.2082
 5397SOL    HW227651   0.630   2.201  13.012  0.2342  0.2791 -0.0743
 5398SOL     OW27652   2.573   2.926   9.734  0.1098 -0.4561 -0.6028
 5398SOL    HW127653   2.667   2.941   9.723 -0.3456  0.9280 -2.5140
 5398SOL    HW227654   2.572   2.881   9.818 -0.3745 -0.5427 -0.6562
 5399SOL     OW27655   4.384   2.123   4.187 -0.4564  0.1571  0.2005
 5399SOL    HW127656   4.315   2.155   4.129  0.7042 -3.3630 -3.1826
 5399SOL    HW227657   4.457   2.123   4.125 -0.3509  2.1865  0.3526
 5400SOL     OW27658   2.585   4.467   2.775  0.7456 -0.1137 -0.0655
 5400SOL    HW127659   2.591   4.551   2.821  1.6115  0.1762 -0.6996
 5400SOL    HW227660   2.490   4.463   2.770  0.6143  3.7865 -0.8697
 5401SOL     OW27661   2.696   3.511   6.118 -0.3110 -0.8247  0.1034
 5401SOL    HW127662   2.651   3.429   6.138  0.0237 -1.0006  0.1238
 5401SOL    HW227663   2.629   3.574   6.090  0.5882  1.0575  2.1788
 5402SOL     OW27664   0.791   0.669   2.659 -0.1612 -0.3550 -0.0665
 5402SOL    HW127665   0.831   0.705   2.738 -1.2844 -0.2471  0.4612
 5402SOL    HW227666   0.837   0.720   2.591  0.0869 -1.6635 -0.8718
 5403SOL     OW27667   2.411   3.526   7.861  0.0693 -0.2602 -0.0340
 5403SOL    HW127668   2.389   3.578   7.938  1.3534  1.6654 -0.9667
 5403SOL    HW227669   2.463   3.589   7.811 -0.0908  0.4747  0.7228
 5404SOL     OW27670   0.421   3.390   6.283 -0.0127 -0.5974  0.0791
 5404SOL    HW127671   0.437   3.461   6.220 -1.5612 -0.3209 -0.0004
 5404SOL    HW227672   0.343   3.423   6.326 -0.2667 -0.9254 -0.1286
 5405SOL     OW27673   3.573   3.085   3.027 -0.2862 -0.3265 -0.6262
 5405SOL    HW127674   3.544   3.044   2.946  2.7628 -3.5547 -0.0740
 5405SOL    HW227675   3.577   3.014   3.091 -2.7191 -1.4661 -1.7607
 5406SOL     OW27676   2.116   4.310   8.429  0.1546  0.5075 -0.0655
 5406SOL    HW127677   2.197   4.362   8.433  1.3265 -1.3134 -0.0303
 5406SOL    HW227678   2.092   4.296   8.337 -1.0998 -2.0812  0.6661
 5407SOL     OW27679   2.557   3.783   5.225 -0.3168  0.5793  0.0634
 5407SOL    HW127680   2.544   3.775   5.320  0.0853  0.7513  0.1320
 5407SOL    HW227681   2.561   3.879   5.224 -2.3403  0.6806  1.1778
 5408SOL     OW27682   1.784   1.022   4.032  0.0684  0.0901  0.3472
 5408SOL    HW127683   1.873   1.048   4.055  0.4059 -0.3186 -0.4708
 5408SOL    HW227684   1.744   1.091   4.084 -0.2756 -0.3513  0.6738
 5409SOL     OW27685   0.251   0.186  13.948  0.5633 -0.6980 -0.0332
 5409SOL    HW127686   0.295   0.191  14.033 -2.6586  1.5419  1.5104
 5409SOL    HW227687   0.329   0.169  13.896  0.2400 -1.5538 -0.2309
 5410SOL     OW27688   1.575   2.255   5.058 -0.5183  0.5048 -0.6202
 5410SOL    HW127689   1.629   2.177   5.070 -2.4880 -0.9870 -1.5731
 5410SOL    HW227690   1.492   2.210   5.046 -0.5109  0.2893  0.1659
 5411SOL     OW27691   2.628   2.672   5.175 -0.1704  0.2363  0.5747
 5411SOL    HW127692   2.683   2.678   5.253  0.4165 -2.8007  0.3978
 5411SOL    HW227693   2.541   2.647   5.206 -0.2131 -1.7659 -1.1377
 5412SOL     OW27694   3.292   3.665   5.347 -0.6553  0.7112  0.9467
 5412SOL    HW127695   3.208   3.647   5.390 -1.4776  0.4514 -0.7534
 5412SOL    HW227696   3.321   3.734   5.406 -0.8283 -1.0873  3.1352
 5413SOL     OW27697   4.073   2.997   1.103  0.0351  0.0763 -0.4536
 5413SOL    HW127698   4.151   3.052   1.090 -0.8687  1.7879  1.3581
 5413SOL    HW227699   4.012   3.038   1.042  0.0839  1.4359  0.3882
 5414SOL     OW27700   2.412   0.826   5.754 -0.1717 -0.1645 -0.1092
 5414SOL    HW127701   2.459   0.746   5.780 -0.7014 -0.2709  0.5370
 5414SOL    HW227702   2.408   0.870   5.839 -0.4337  0.6541 -0.5500
 5415SOL     OW27703   0.466   0.809   3.603  0.2387  0.1410  0.2651
 5415SOL    HW127704   0.375   0.793   3.578 -0.7273  3.2013  1.8641
 5415SOL    HW227705   0.467   0.800   3.699  0.5900 -0.4576  0.2098
 5416SOL     OW27706   3.422   1.257   7.868  0.2006 -0.2733  0.0442
 5416SOL    HW127707   3.414   1.310   7.947  0.8635  0.2270 -0.2236
 5416SOL    HW227708   3.373   1.301   7.799 -2.5435 -0.9755  1.5292
 5417SOL     OW27709   0.913   3.173  16.636 -0.1555 -0.1843 -0.0019
 5417SOL    HW127710   0.886   3.086  16.607 -1.0032 -1.3707  4.3142
 5417SOL    HW227711   0.830   3.213  16.662  0.2768  0.0698  0.9851
 5418SOL     OW27712   1.923   2.636   9.659  0.1489 -0.0972  0.0282
 5418SOL    HW127713   1.907   2.625   9.753 -0.0788  2.0814  0.2492
 5418SOL    HW227714   1.911   2.731   9.662 -1.8862 -0.3770  0.1757
 5419SOL     OW27715   3.476   2.952   6.413 -0.2140  0.0621  0.0401
 5419SOL    HW127716   3.449   2.860   6.408  2.8003 -0.8396  0.0644
 5419SOL    HW227717   3.539   2.952   6.485 -0.2768  0.8561  0.0871
 5420SOL     OW27718   0.999   3.356   4.504 -0.1508 -0.6907  0.0862
 5420SOL    HW127719   1.050   3.436   4.493  0.1443 -0.6923  1.4467
 5420SOL    HW227720   0.912   3.394   4.520 -0.3517 -0.7560 -0.8404
 5421SOL     OW27721   3.012   3.163   0.882  0.3395 -0.2730  0.1590
 5421SOL    HW127722   3.008   3.090   0.821 -0.5406 -0.6926  0.7184
 5421SOL    HW227723   2.928   3.164   0.927  0.0424 -0.7623 -0.3918
 5422SOL     OW27724   1.182   1.304   9.081  0.3154 -0.1210  0.2070
 5422SOL    HW127725   1.182   1.362   9.157 -0.8548 -0.1999  0.2614
 5422SOL    HW227726   1.092   1.303   9.050  0.5150  0.7048 -0.4181
 5423SOL     OW27727   3.514   1.957   2.060  0.4385 -0.0184  0.1491
 5423SOL    HW127728   3.562   1.927   2.138 -0.4806  2.3835  1.6628
 5423SOL    HW227729   3.581   2.015   2.023  1.8832  0.3280  3.2987
 5424SOL     OW27730   1.275   0.536  10.046 -0.8629 -0.2975 -0.3747
 5424SOL    HW127731   1.274   0.440  10.049 -0.9325 -0.2468  1.0985
 5424SOL    HW227732   1.193   0.557  10.002 -0.0259 -0.8189 -2.1693
 5425SOL     OW27733   3.010   1.896   3.224 -0.5575 -0.6513 -0.3878
 5425SOL    HW127734   3.001   1.843   3.145 -1.3623  1.1854 -1.5236
 5425SOL    HW227735   3.059   1.832   3.276 -0.6070  1.4274  2.2267
 5426SOL     OW27736   4.549   3.726   9.295 -0.5794  0.0394 -0.0276
 5426SOL    HW127737   4.636   3.691   9.317 -1.3479 -0.7948  1.6299
 5426SOL    HW227738   4.501   3.651   9.261  2.4371 -2.8664  2.0722
 5427SOL     OW27739   4.130   1.621   7.348 -0.3398  0.2331 -0.1470
 5427SOL    HW127740   4.130   1.593   7.439  0.5309  2.0915  0.4235
 5427SOL    HW227741   4.145   1.533   7.313  0.0508  0.2872 -0.1119
 5428SOL     OW27742   0.367   2.165  13.394  0.3545 -0.0301  0.0453
 5428SOL    HW127743   0.452   2.171  13.350  1.1971  2.1070  1.9354
 5428SOL    HW227744   0.343   2.258  13.397 -0.9398 -0.3879  0.7112
 5429SOL     OW27745   2.159   2.666   5.058  0.0479  0.3525 -0.1643
 5429SOL    HW127746   2.086   2.684   5.118 -1.8975  0.4730 -2.5485
 5429SOL    HW227747   2.144   2.734   4.992  1.6207 -0.6597 -1.5424
 5430SOL     OW27748   2.210   3.464   4.890 -0.2725  0.4588  0.0038
 5430SOL    HW127749   2.169   3.457   4.976 -1.2796  0.3929 -0.4783
 5430SOL    HW227750   2.303   3.458   4.908 -0.4580 -3.5746 -0.3231
 5431SOL     OW27751   3.870   0.605  14.971 -0.0874 -0.4458  0.1594
 5431SOL    HW127752   3.919   0.675  15.013  1.2935 -0.4742 -1.3881
 5431SOL    HW227753   3.823   0.666  14.915  0.9546  0.7073  0.5451
 5432SOL     OW27754   0.272   4.208  16.117 -0.5366 -0.2205 -0.2440
 5432SOL    HW127755   0.250   4.295  16.151  1.5173  0.5065 -0.7770
 5432SOL    HW227756   0.359   4.226  16.082  0.0901  3.2298  3.1368
 5433SOL     OW27757   4.200   4.086   1.695 -0.4166 -0.3137 -0.0139
 5433SOL    HW127758   4.261   4.080   1.622 -2.8719 -0.7780 -2.0204
 5433SOL    HW227759   4.128   4.143   1.667 -0.2920  0.0018  0.2973
 5434SOL     OW27760   3.516   1.801  13.401  1.1671 -0.0733 -0.6112
 5434SOL    HW127761   3.547   1.777  13.488 -0.9083 -0.0094  0.1582
 5434SOL    HW227762   3.485   1.716  13.372 -0.9967 -0.2262  2.1206
 5435SOL     OW27763   2.409   2.510   9.455  0.5869  0.2267 -0.0443
 5435SOL    HW127764   2.429   2.435   9.511  0.4897  0.9359  0.9464
 5435SOL    HW227765   2.320   2.539   9.476  0.1870 -0.4283 -0.8024
 5436SOL     OW27766   2.719   2.656  16.640  0.1685  0.1653  0.0927
 5436SOL    HW127767   2.632   2.657  16.680  0.0120 -2.1203 -0.1680
 5436SOL    HW227768   2.735   2.563  16.658 -1.0421  0.1141  0.9301
 5437SOL     OW27769   3.966   1.205   4.288 -0.4022 -0.5628  0.0546
 5437SOL    HW127770   3.985   1.215   4.381 -0.7090 -0.3281  0.0916
 5437SOL    HW227771   3.887   1.152   4.297  0.0024 -1.4899 -1.8021
 5438SOL     OW27772   2.362   2.347   3.805  0.2748 -0.3613 -0.4198
 5438SOL    HW127773   2.446   2.377   3.841  0.3142  0.6754 -1.3751
 5438SOL    HW227774   2.388   2.340   3.713  1.5221 -0.0815 -0.0838
 5439SOL     OW27775   1.789   2.131   5.617 -0.0391 -0.1506 -0.1899
 5439SOL    HW127776   1.882   2.119   5.633 -0.0789 -2.0474 -1.2823
 5439SOL    HW227777   1.790   2.126   5.521  0.6488 -1.3928 -0.1227
 5440SOL     OW27778   1.167   1.599   5.644 -0.1789  0.0352 -0.2012
 5440SOL    HW127779   1.244   1.575   5.592  0.8257 -1.1817  1.8293
 5440SOL    HW227780   1.166   1.694   5.641 -1.3251  0.0726  1.3795
 5441SOL     OW27781   3.938   2.904   2.608 -0.2749 -0.3450  0.4447
 5441SOL    HW127782   4.021   2.869   2.574  0.2889 -0.0115  1.4890
 5441SOL    HW227783   3.873   2.887   2.540  1.3400 -0.1049 -1.1692
 5442SOL     OW27784   3.599   2.420  10.885 -0.1025  0.1151  0.1520
 5442SOL    HW127785   3.596   2.481  10.812  1.9970 -0.4920 -0.4397
 5442SOL    HW227786   3.692   2.407  10.902 -0.0225 -0.1544 -0.5075
 5443SOL     OW27787   4.618   4.229   4.137 -0.3514 -0.3165  0.1337
 5443SOL    HW127788   4.538   4.230   4.084  0.9361 -0.3828 -1.8303
 5443SOL    HW227789   4.584   4.254   4.223 -1.7876  2.6567 -1.3043
 5444SOL     OW27790   0.372   1.009   2.155 -0.2015 -0.2970  0.2810
 5444SOL    HW127791   0.440   0.955   2.115  1.0830  0.3090  1.6169
 5444SOL    HW227792   0.424   1.079   2.196  1.0311 -0.6178 -0.7251
 5445SOL     OW27793   3.791   2.619   6.186  0.2864 -0.4909 -0.0623
 5445SOL    HW127794   3.832   2.573   6.113  0.3061  0.0481 -0.3975
 5445SOL    HW227795   3.701   2.623   6.155  0.6372  0.1720 -1.0004
 5446SOL     OW27796   2.607   4.040   7.961 -0.0252 -0.0094 -0.2491
 5446SOL    HW127797   2.685   4.001   8.000  0.3754  1.3289  0.2819
 5446SOL    HW227798   2.567   4.064   8.044 -1.5088 -2.3492 -0.2797
 5447SOL     OW27799   4.642   0.449  16.850  0.1445 -0.6323 -0.7960
 5447SOL    HW127800   4.646   0.515  16.781 -1.7409 -0.5198 -0.7884
 5447SOL    HW227801   4.556   0.414  16.828  0.0505 -0.9201  0.0295
 5448SOL     OW27802   4.162   3.988   1.197 -0.7170  0.0923 -0.3825
 5448SOL    HW127803   4.169   3.915   1.258 -1.4781 -0.2183 -0.6744
 5448SOL    HW227804   4.088   4.036   1.234 -0.2235 -0.7544  1.7305
 5449SOL     OW27805   4.369   3.211   3.096 -0.3676 -0.1829 -0.3305
 5449SOL    HW127806   4.315   3.271   3.044 -1.1367 -1.8326 -1.4425
 5449SOL    HW227807   4.329   3.125   3.086  0.8420 -1.2020  3.8020
 5450SOL     OW27808   1.977   2.804   7.240 -0.1529  0.9566 -0.0563
 5450SOL    HW127809   1.889   2.772   7.259  0.6210 -2.0218 -1.4796
 5450SOL    HW227810   1.957   2.891   7.206 -3.5506  0.3326  0.3821
 5451SOL     OW27811   0.844   2.806   9.112 -0.3305 -0.0848 -0.2157
 5451SOL    HW127812   0.840   2.829   9.019 -0.4140  1.0087  0.0562
 5451SOL    HW227813   0.915   2.865   9.138 -0.3381 -0.1794  0.0136
 5452SOL     OW27814   4.115   0.253   5.985 -0.0407 -0.0889  0.1417
 5452SOL    HW127815   4.033   0.298   5.963 -0.6159 -0.8581  0.7026
 5452SOL    HW227816   4.132   0.204   5.905 -0.0480  1.3332 -0.7502
 5453SOL     OW27817   0.048   4.568   5.407 -0.2109  0.3635 -0.1872
 5453SOL    HW127818   0.106   4.507   5.453 -0.9569 -1.0348 -1.1117
 5453SOL    HW227819   0.112   4.602   5.344 -2.0303  1.5360 -1.3939
 5454SOL     OW27820   2.090   4.092   7.363 -0.2563 -0.9674  0.1553
 5454SOL    HW127821   2.105   4.055   7.276 -1.0063 -0.2515 -0.2851
 5454SOL    HW227822   2.007   4.140   7.360 -0.2700 -1.0877 -1.5938
 5455SOL     OW27823   1.530   4.117   6.718  0.1305  0.9331 -0.0654
 5455SOL    HW127824   1.499   4.120   6.627 -0.2382  0.9063  0.0599
 5455SOL    HW227825   1.512   4.029   6.750  1.4124  1.0573  1.0204
 5456SOL     OW27826   1.506   1.176   8.193  0.2571  0.1238  0.6667
 5456SOL    HW127827   1.539   1.194   8.105  0.6490 -2.9880  0.1898
 5456SOL    HW227828   1.560   1.233   8.248  0.9411  0.5072 -0.4087
 5457SOL     OW27829   2.658   0.080   5.919  0.1318 -0.5324 -0.3224
 5457SOL    HW127830   2.570   0.048   5.903 -0.9203  2.2494 -0.1171
 5457SOL    HW227831   2.697   0.002   5.958  2.3363  0.0287 -1.3886
 5458SOL     OW27832   3.806   0.484   4.994  0.1013 -0.4565 -0.1772
 5458SOL    HW127833   3.857   0.438   5.061  0.1446  0.2692  0.2936
 5458SOL    HW227834   3.845   0.571   5.000  0.4449 -0.6160 -0.0421
 5459SOL     OW27835   3.866   2.919   1.663  0.1655  0.3430 -0.1796
 5459SOL    HW127836   3.873   2.838   1.714 -1.3021 -0.5576 -1.3810
 5459SOL    HW227837   3.774   2.908   1.638 -0.4050  0.3731  1.8355
 5460SOL     OW27838   2.509   0.884   4.103 -0.4941 -0.1313  0.9000
 5460SOL    HW127839   2.490   0.978   4.102  1.5684  0.2720 -0.2259
 5460SOL    HW227840   2.415   0.864   4.105 -0.2930 -1.3121 -2.7831
 5461SOL     OW27841   3.005   0.290  12.076  0.5686  0.0294 -0.3484
 5461SOL    HW127842   2.984   0.200  12.053  0.7310 -0.2282  0.5059
 5461SOL    HW227843   2.977   0.288  12.168  0.1713  1.3257 -0.4395
 5462SOL     OW27844   1.577   0.017  12.613  0.1692  0.1638  0.3332
 5462SOL    HW127845   1.636   0.037  12.686 -1.6700  2.9858  1.0613
 5462SOL    HW227846   1.617   4.658  12.578 -0.9634 -0.6627  0.9388
 5463SOL     OW27847   2.619   2.148   5.174  0.1298 -0.2277  0.5433
 5463SOL    HW127848   2.707   2.175   5.201  0.3885  1.9328 -2.5197
 5463SOL    HW227849   2.622   2.052   5.173 -0.3619 -0.2711  3.5488
 5464SOL     OW27850   4.017   4.605   8.180  0.3752  0.7678  0.1294
 5464SOL    HW127851   3.943   4.636   8.231 -1.5560 -2.2936 -0.8130
 5464SOL    HW227852   4.080   4.573   8.244  1.2778 -1.4878 -1.8639
 5465SOL     OW27853   0.221   3.905   1.957 -0.2685 -0.5626  0.1147
 5465SOL    HW127854   0.210   3.818   1.919  1.0182  0.2326 -2.1059
 5465SOL    HW227855   0.200   3.957   1.879  0.3993 -1.1981 -0.4953
 5466SOL     OW27856   0.346   2.513   8.184 -0.0095 -0.2677  0.7167
 5466SOL    HW127857   0.433   2.548   8.205 -0.4502  0.5961  1.0965
 5466SOL    HW227858   0.313   2.485   8.270  0.1498 -2.4818  0.0652
 5467SOL     OW27859   4.618   0.842  17.365  0.1451  0.4672  0.9811
 5467SOL    HW127860   4.690   0.780  17.354  1.0405  1.3588  1.7975
 5467SOL    HW227861   4.641   0.916  17.308  0.6268 -0.0619  0.4888
 5468SOL     OW27862   3.978   3.731   5.216  0.0182  0.2243  0.1367
 5468SOL    HW127863   3.920   3.655   5.215 -0.8426  0.8794  0.1901
 5468SOL    HW227864   3.927   3.791   5.162  0.9609  0.8276 -0.0821
 5469SOL     OW27865   0.239   3.180   7.880 -0.2705 -0.6651 -0.4929
 5469SOL    HW127866   0.223   3.273   7.897 -0.4195 -1.0473  1.5011
 5469SOL    HW227867   0.222   3.133   7.962  1.5743 -0.5057 -0.0326
 5470SOL     OW27868   0.098   0.988   5.218  0.7354 -0.0970 -0.1030
 5470SOL    HW127869   0.080   0.931   5.143 -0.6346  0.3524 -0.0988
 5470SOL    HW227870   0.120   0.923   5.286 -0.0593 -2.4270 -2.0811
 5471SOL     OW27871   2.479   1.217   7.121  0.5099 -0.3432  0.2845
 5471SOL    HW127872   2.497   1.151   7.054 -0.3218 -2.9416  2.6643
 5471SOL    HW227873   2.386   1.226   7.100  0.6329  3.7887  1.4774
 5472SOL     OW27874   1.786   4.323   3.701 -0.7688 -0.1988  0.0230
 5472SOL    HW127875   1.718   4.326   3.768 -1.1423  1.6516 -0.4255
 5472SOL    HW227876   1.742   4.318   3.617  1.8191  1.9026 -1.4366
 5473SOL     OW27877   1.621   4.100  15.988 -0.1304 -0.3594  0.0478
 5473SOL    HW127878   1.673   4.024  16.014  1.0958 -0.6474 -3.2420
 5473SOL    HW227879   1.533   4.066  15.970 -0.2856 -1.1068  2.1817
 5474SOL     OW27880   2.223   4.393   7.724 -0.1019 -0.1031  0.1839
 5474SOL    HW127881   2.237   4.454   7.797  2.5188  1.0198 -1.2597
 5474SOL    HW227882   2.151   4.440   7.681 -0.0870 -2.2287 -2.1644
 5475SOL     OW27883   3.312   2.795   9.336 -0.9630  0.1615  0.0533
 5475SOL    HW127884   3.293   2.770   9.427 -1.2263 -1.1924 -0.3644
 5475SOL    HW227885   3.312   2.710   9.291  1.6622  2.3330 -4.0113
 5476SOL     OW27886   2.556   1.025   8.924 -0.1137  0.6398  0.1203
 5476SOL    HW127887   2.531   0.968   8.852  0.0689 -0.1626  0.6925
 5476SOL    HW227888   2.544   0.963   8.996  0.6318  0.0708 -0.2515
 5477SOL     OW27889   4.161   3.728  10.783  0.5934 -0.3224  0.0344
 5477SOL    HW127890   4.235   3.730  10.843  1.0786 -0.8880 -0.5467
 5477SOL    HW227891   4.142   3.821  10.773 -1.1466 -0.7203 -0.4904
 5478SOL     OW27892   3.707   1.022   9.095 -0.4616  0.1988  0.6124
 5478SOL    HW127893   3.779   1.037   9.156 -0.7805  3.4487  0.1938
 5478SOL    HW227894   3.651   1.097   9.117  1.0397  1.3965  0.3576
 5479SOL     OW27895   1.753   3.202   2.177 -0.2279  0.0687  0.3568
 5479SOL    HW127896   1.790   3.280   2.136  0.7907 -1.2665 -1.2465
 5479SOL    HW227897   1.664   3.233   2.191 -0.0720  1.4071 -1.6138
 5480SOL     OW27898   2.090   1.590   4.268 -0.4364  0.3272 -0.1254
 5480SOL    HW127899   2.125   1.657   4.210 -0.9095 -0.2261 -1.0564
 5480SOL    HW227900   2.104   1.511   4.215  0.1517  1.0674 -1.0685
 5481SOL     OW27901   4.502   2.848   7.241  0.0110 -0.3252  0.4612
 5481SOL    HW127902   4.531   2.770   7.194 -0.1958 -0.2645  0.2288
 5481SOL    HW227903   4.483   2.902   7.164  0.2987 -1.0810 -0.1444
 5482SOL     OW27904   1.812   0.171   2.128  0.3889 -0.2551  0.1024
 5482SOL    HW127905   1.848   0.093   2.169 -3.0764 -1.5143  0.7499
 5482SOL    HW227906   1.768   0.207   2.205 -0.2350  0.2028 -0.4619
 5483SOL     OW27907   2.675   4.385  10.761  0.3455  0.2953 -0.7850
 5483SOL    HW127908   2.661   4.293  10.741  0.5577  0.0030  0.4122
 5483SOL    HW227909   2.758   4.392  10.807  1.5288 -0.8883 -2.7303
 5484SOL     OW27910   0.334   2.441   6.816  0.0577  0.7614  0.2581
 5484SOL    HW127911   0.409   2.391   6.850  0.4715  0.5532 -0.9817
 5484SOL    HW227912   0.260   2.395   6.856  0.1679  1.0601  0.8056
 5485SOL     OW27913   3.207   3.792  10.552 -0.2299  0.6786  0.0457
 5485SOL    HW127914   3.217   3.806  10.458  0.3696  2.2997  0.3528
 5485SOL    HW227915   3.122   3.748  10.556 -0.2674  0.8366  1.0430
 5486SOL     OW27916   4.100   1.016  13.339 -0.3516  0.0991  0.4113
 5486SOL    HW127917   4.099   1.090  13.279  1.2703  1.0041  1.5038
 5486SOL    HW227918   4.185   0.983  13.309 -1.0783 -0.0960 -1.4264
 5487SOL     OW27919   2.464   0.761  11.588 -0.0030  0.0755  0.1065
 5487SOL    HW127920   2.442   0.687  11.643  3.1518  0.6604  2.1389
 5487SOL    HW227921   2.514   0.810  11.653 -0.6812 -0.3741  0.9548
 5488SOL     OW27922   0.480   2.141   7.186  0.0787  0.6038  0.5218
 5488SOL    HW127923   0.450   2.056   7.153  2.1416  0.8351 -1.9377
 5488SOL    HW227924   0.395   2.174   7.215 -0.4249  0.2391 -0.5229
 5489SOL     OW27925   3.948   3.069  10.767  0.1053  0.7062  0.2947
 5489SOL    HW127926   3.869   3.115  10.741  1.5465  2.8575 -0.2716
 5489SOL    HW227927   3.911   2.983  10.789  0.2973  0.4946 -0.2093
 5490SOL     OW27928   1.916   0.990  10.710 -0.6445  0.2867 -0.3401
 5490SOL    HW127929   1.990   0.978  10.650 -1.1916  0.2200 -1.0070
 5490SOL    HW227930   1.953   1.056  10.768  1.5360 -0.6238 -0.6921
 5491SOL     OW27931   2.940   2.105  14.639 -0.3175 -0.3671 -0.2609
 5491SOL    HW127932   2.858   2.142  14.606  0.2837 -0.1893 -1.5691
 5491SOL    HW227933   2.967   2.039  14.576  1.7671  2.9999 -2.9305
 5492SOL     OW27934   4.214   1.927   4.685  0.6050 -0.2832 -0.2165
 5492SOL    HW127935   4.204   1.839   4.648  0.0310 -0.6226  0.7524
 5492SOL    HW227936   4.299   1.929   4.729  0.9875  1.5018 -1.0250
 5493SOL     OW27937   1.422   4.552   9.360 -0.6091 -0.8149  0.1966
 5493SOL    HW127938   1.473   4.589   9.288 -1.6959 -1.0690 -0.7077
 5493SOL    HW227939   1.407   4.464   9.325 -2.0206 -0.5414  0.1157
 5494SOL     OW27940   1.944   4.116   3.792  0.4049 -0.2553 -0.3732
 5494SOL    HW127941   2.012   4.172   3.829 -1.4329  1.3434  0.5588
 5494SOL    HW227942   1.882   4.179   3.755 -0.4253 -1.5784 -1.2549
 5495SOL     OW27943   3.965   3.122   6.243 -0.0075  0.7283 -0.3976
 5495SOL    HW127944   3.944   3.171   6.322 -0.2935 -1.2844  0.7631
 5495SOL    HW227945   4.035   3.178   6.209 -0.3850  0.4888 -1.5945
 5496SOL     OW27946   1.072   2.295   5.286  0.2949 -0.6499  0.4040
 5496SOL    HW127947   1.077   2.389   5.303 -1.4137 -0.5012  0.1566
 5496SOL    HW227948   1.146   2.252   5.328  0.7921  0.6444  0.8640
 5497SOL     OW27949   1.654   0.611   7.039 -0.1921  0.5268  0.2645
 5497SOL    HW127950   1.627   0.634   7.128  2.0218 -0.2398  1.1263
 5497SOL    HW227951   1.707   0.685   7.007  2.3094 -0.8849  1.1085
 5498SOL     OW27952   3.172   1.500   8.619 -0.2140 -0.0846 -0.1425
 5498SOL    HW127953   3.199   1.430   8.559 -0.1052  0.1797 -0.4031
 5498SOL    HW227954   3.107   1.544   8.564 -0.5391 -0.7348 -0.2837
 5499SOL     OW27955   2.598   1.501   2.966 -0.4620  0.1324 -0.5564
 5499SOL    HW127956   2.524   1.547   2.926 -1.1338  1.5672  2.3014
 5499SOL    HW227957   2.558   1.413   2.968  1.7371 -0.8594 -0.4557
 5500SOL     OW27958   0.939   1.577   9.556 -0.1577  0.1812  0.0546
 5500SOL    HW127959   0.874   1.509   9.573  0.4819 -0.2280  0.8353
 5500SOL    HW227960   0.886   1.649   9.521  1.6033  1.3336 -0.2353
 5501SOL     OW27961   0.318   3.139   6.356 -0.0680 -0.5220 -0.1729
 5501SOL    HW127962   0.355   3.227   6.360 -0.0789 -0.5422  0.3408
 5501SOL    HW227963   0.294   3.132   6.264 -1.9458 -1.0037  0.3415
 5502SOL     OW27964   0.139   0.373   2.892  0.4996 -0.1195 -0.0065
 5502SOL    HW127965   0.152   0.458   2.934 -1.4538  0.6189 -0.9405
 5502SOL    HW227966   0.113   0.382   2.801  0.0027 -1.2040  0.0269
 5503SOL     OW27967   1.384   1.576   3.361  0.3356 -0.5903  0.1210
 5503SOL    HW127968   1.311   1.537   3.313  0.3639 -3.0158  2.0843
 5503SOL    HW227969   1.338   1.630   3.426  0.4167 -1.4226  0.8620
 5504SOL     OW27970   2.412   0.370  12.376 -0.1826 -0.5978  0.4197
 5504SOL    HW127971   2.500   0.374  12.415 -0.7996 -0.4323  1.7774
 5504SOL    HW227972   2.416   0.419  12.294  1.6573 -0.3308  0.6657
 5505SOL     OW27973   3.271   2.796   1.561  0.4590 -0.3777 -0.9817
 5505SOL    HW127974   3.355   2.754   1.545  0.8473 -0.5063  1.3516
 5505SOL    HW227975   3.268   2.776   1.655 -0.2212  0.5115 -0.8070
 5506SOL     OW27976   2.302   4.411  14.421  0.3495 -0.2409 -0.4747
 5506SOL    HW127977   2.279   4.401  14.514  2.1849 -5.8379 -0.6255
 5506SOL    HW227978   2.374   4.473  14.426 -2.0063  2.5784 -1.7861
 5507SOL     OW27979   3.179   2.247  10.555 -0.6105 -0.4460 -0.6065
 5507SOL    HW127980   3.194   2.161  10.595  2.2174  0.2043 -0.2070
 5507SOL    HW227981   3.173   2.217  10.465  0.5591  0.2211 -0.9173
 5508SOL     OW27982   4.218   2.211  16.025 -0.4841  0.2304  0.1470
 5508SOL    HW127983   4.217   2.127  16.072 -1.9215 -0.3848 -0.9978
 5508SOL    HW227984   4.302   2.213  15.979 -1.6122 -0.7269 -1.9425
 5509SOL     OW27985   1.653   1.787   7.228  0.1159 -0.7626 -0.5363
 5509SOL    HW127986   1.699   1.750   7.303  1.0528  3.4576  0.9443
 5509SOL    HW227987   1.614   1.861   7.274  0.6951 -0.7923 -0.0021
 5510SOL     OW27988   4.547   0.441  15.822  0.0155  1.1750 -0.4027
 5510SOL    HW127989   4.499   0.509  15.870  1.1103  0.2487  2.0211
 5510SOL    HW227990   4.539   0.368  15.883 -3.6594  0.4620 -1.7832
 5511SOL     OW27991   0.874   2.160  13.124  0.7462 -0.4653  0.2168
 5511SOL    HW127992   0.931   2.142  13.199  1.7778  2.0778  0.0576
 5511SOL    HW227993   0.840   2.249  13.138  0.0704 -0.8799  1.2286
 5512SOL     OW27994   1.889   0.675   7.713  0.2173 -0.0838  0.1912
 5512SOL    HW127995   1.850   0.588   7.700 -0.2061  0.4415 -1.9861
 5512SOL    HW227996   1.878   0.701   7.622  2.5401 -1.6603 -0.5552
 5513SOL     OW27997   3.718   3.282   4.015 -0.3283 -0.5490  0.0576
 5513SOL    HW127998   3.677   3.248   4.094 -1.0794  0.4865  0.1196
 5513SOL    HW227999   3.785   3.214   4.003 -0.8587 -1.3198  1.5401
 5514SOL     OW28000   1.017   0.367   5.245  0.3900  0.0705 -0.2228
 5514SOL    HW128001   1.056   0.329   5.166 -0.0537 -1.7950  0.4728
 5514SOL    HW228002   0.993   0.295   5.303  2.9995 -1.8650 -1.5321
 5515SOL     OW28003   3.667   1.335   4.865 -0.2736  0.2243 -0.5738
 5515SOL    HW128004   3.736   1.269   4.870 -0.6692 -0.1237  0.3866
 5515SOL    HW228005   3.590   1.278   4.862 -1.1870  1.4720 -0.8158
 5516SOL     OW28006   4.153   3.723   2.703  0.0218  0.6702 -0.6141
 5516SOL    HW128007   4.225   3.757   2.756 -0.7940  1.0553  0.2647
 5516SOL    HW228008   4.083   3.734   2.768 -1.1549 -0.1267 -1.7477
 5517SOL     OW28009   3.559   2.689   6.872 -0.2990  0.3575 -0.3832
 5517SOL    HW128010   3.469   2.665   6.848 -0.5081 -1.2681  2.0607
 5517SOL    HW228011   3.571   2.648   6.958  1.5167 -2.6462 -2.0772
 5518SOL     OW28012   0.687   4.014   5.534  0.2216 -0.5900 -0.1062
 5518SOL    HW128013   0.606   4.047   5.572  1.4314  2.1118  0.0850
 5518SOL    HW228014   0.720   4.095   5.496 -1.0405  0.5674  1.2804
 5519SOL     OW28015   1.233   3.513  13.343  0.2444 -0.3690 -0.3276
 5519SOL    HW128016   1.226   3.418  13.357  1.2423 -0.7247 -2.1961
 5519SOL    HW228017   1.318   3.511  13.298  1.5596  1.2369  2.1260
 5520SOL     OW28018   1.682   2.036  13.886  0.3339 -0.2719 -0.1259
 5520SOL    HW128019   1.718   2.088  13.958  1.6590  0.1904 -1.1199
 5520SOL    HW228020   1.661   2.102  13.820  2.4096  2.0980  1.5592
 5521SOL     OW28021   3.902   2.591   2.278  0.7001  0.8375 -0.0559
 5521SOL    HW128022   3.939   2.679   2.283  1.7151  0.3319  1.4045
 5521SOL    HW228023   3.960   2.544   2.337 -0.9645 -2.3168 -0.9595
 5522SOL     OW28024   0.505   0.303   4.953  0.0991  0.0459  0.2315
 5522SOL    HW128025   0.490   0.384   4.904 -0.5364  0.1310  0.5693
 5522SOL    HW228026   0.599   0.311   4.968  0.4323 -0.8348 -1.5248
 5523SOL     OW28027   0.540   2.807   8.490  0.1754 -0.8876 -0.1279
 5523SOL    HW128028   0.535   2.755   8.571 -1.1029  0.1698  0.4664
 5523SOL    HW228029   0.635   2.810   8.479  0.2594 -1.0014  0.5223
 5524SOL     OW28030   3.638   3.806   0.612 -0.0719 -0.8508 -0.4384
 5524SOL    HW128031   3.612   3.857   0.535 -0.3918 -0.4234 -0.0466
 5524SOL    HW228032   3.677   3.726   0.576  0.0569 -0.7401 -0.5444
 5525SOL     OW28033   0.816   1.429   4.053  0.0817  0.1726  0.3944
 5525SOL    HW128034   0.882   1.363   4.034  1.6348  1.3454  1.7369
 5525SOL    HW228035   0.844   1.447   4.143 -1.7641  1.1853  0.7718
 5526SOL     OW28036   4.015   4.247  17.466  0.5940 -0.2562  0.2561
 5526SOL    HW128037   4.079   4.311  17.496  1.6210 -1.4051  0.5458
 5526SOL    HW228038   3.952   4.299  17.416 -0.5638 -0.9172  1.0441
 5527SOL     OW28039   0.094   2.734   0.749 -0.3169 -0.0488 -0.0979
 5527SOL    HW128040   0.091   2.749   0.844  0.4176 -4.5046  0.6418
 5527SOL    HW228041   0.094   2.826   0.726  1.6256 -0.1994 -0.7012
 5528SOL     OW28042   0.460   0.045   9.747  0.0418  0.3115 -1.3914
 5528SOL    HW128043   0.366   0.052   9.766 -0.0051 -0.0922 -1.4654
 5528SOL    HW228044   0.469   4.675   9.718  0.0172 -0.3020  0.5574
 5529SOL     OW28045   3.723   2.798  10.728  0.2591  0.2719 -0.2742
 5529SOL    HW128046   3.659   2.736  10.692 -0.0218 -0.3607  1.3476
 5529SOL    HW228047   3.670   2.878  10.736  0.3303  0.4127 -1.1917
 5530SOL     OW28048   3.017   1.886  10.894  0.7668 -0.5614 -0.2404
 5530SOL    HW128049   3.009   1.927  10.980  0.5237 -2.6568  0.7447
 5530SOL    HW228050   3.057   1.961  10.849  0.7541  0.0439  0.7489
 5531SOL     OW28051   3.154   3.869   7.864  0.4403  0.2957  0.0462
 5531SOL    HW128052   3.202   3.886   7.945 -0.8075  0.5773  0.7306
 5531SOL    HW228053   3.217   3.913   7.807 -0.7129  3.5996  1.3189
 5532SOL     OW28054   2.961   0.965   0.946 -0.4585  0.5123  0.1530
 5532SOL    HW128055   2.945   0.878   0.983  1.9164  0.4429  0.9907
 5532SOL    HW228056   3.056   0.967   0.956 -0.3568  3.9549 -1.3119
 5533SOL     OW28057   2.675   0.333   2.347  0.4605  0.1843 -0.5690
 5533SOL    HW128058   2.600   0.380   2.382 -0.8138 -0.8364 -1.9165
 5533SOL    HW228059   2.748   0.358   2.404 -1.1769 -0.2414  1.7238
 5534SOL     OW28060   2.363   2.990   2.609 -0.2671  0.0868 -0.0140
 5534SOL    HW128061   2.416   2.917   2.640 -1.1477 -0.4500  0.2324
 5534SOL    HW228062   2.307   2.937   2.553 -0.0801  2.4613 -2.4438
 5535SOL     OW28063   0.097   1.768   8.543 -0.1009 -0.3647  0.1283
 5535SOL    HW128064   0.106   1.854   8.583  0.2078 -0.1989 -0.2983
 5535SOL    HW228065   0.112   1.795   8.453  2.4332  1.9617  1.2331
 5536SOL     OW28066   2.260   1.648   0.099  0.1695 -1.3379  0.1487
 5536SOL    HW128067   2.255   1.677   0.190  0.3860 -0.8518  0.0067
 5536SOL    HW228068   2.345   1.686   0.078 -0.0903 -0.1504  1.2440
 5537SOL     OW28069   4.574   1.299  13.837 -0.3778  0.2815 -0.0983
 5537SOL    HW128070   4.659   1.326  13.874 -0.1161  0.4469 -0.8200
 5537SOL    HW228071   4.519   1.302  13.915 -1.2667  2.4178 -0.8024
 5538SOL     OW28072   0.659   2.586   8.046  0.4141  0.2153  0.4722
 5538SOL    HW128073   0.593   2.642   8.007  0.5886  1.3055  1.7554
 5538SOL    HW228074   0.628   2.572   8.135  0.3981 -1.2016  0.2491
 5539SOL     OW28075   2.577   2.934   3.736  0.0693  0.3019 -0.1391
 5539SOL    HW128076   2.488   2.905   3.752 -0.6151  0.8642 -2.9036
 5539SOL    HW228077   2.630   2.872   3.787 -0.1398 -0.0559 -0.3635
 5540SOL     OW28078   1.382   2.956  17.265  0.0554 -0.0828  0.3388
 5540SOL    HW128079   1.293   2.967  17.300  0.0609  0.6520  0.1241
 5540SOL    HW228080   1.428   3.038  17.283 -0.7714 -0.0244  2.2219
 5541SOL     OW28081   2.555   4.025   7.014 -0.1255  0.1249 -1.1302
 5541SOL    HW128082   2.494   3.983   7.075 -3.5748  3.4293 -2.3153
 5541SOL    HW228083   2.618   3.957   6.990 -1.8896 -1.5359 -1.0798
 5542SOL     OW28084   1.812   2.334   7.424  0.1182  0.4944  0.4639
 5542SOL    HW128085   1.725   2.373   7.420 -0.1418 -0.1960 -0.6991
 5542SOL    HW228086   1.865   2.408   7.394 -0.4947  0.6467 -0.2234
 5543SOL     OW28087   1.357   0.512   8.915 -0.1630 -0.5197  0.3271
 5543SOL    HW128088   1.352   0.592   8.967  0.0164 -0.9230  0.9656
 5543SOL    HW228089   1.449   0.493   8.931 -0.2659 -0.8585  0.5247
 5544SOL     OW28090   4.075   4.397   0.763 -0.6950  0.7481 -0.3977
 5544SOL    HW128091   4.035   4.438   0.840 -2.5745 -1.9711  0.0561
 5544SOL    HW228092   3.999   4.407   0.706 -1.3247 -0.3618  0.2550
 5545SOL     OW28093   3.257   0.344  15.154 -0.3230  0.0277  0.5772
 5545SOL    HW128094   3.233   0.269  15.099  2.4063 -0.0059 -0.5816
 5545SOL    HW228095   3.325   0.379  15.097 -1.1427 -2.5898 -1.9902
 5546SOL     OW28096   0.198   2.207   6.550 -0.6243  0.1403  0.6971
 5546SOL    HW128097   0.290   2.192   6.572 -0.0866  1.9804 -0.3152
 5546SOL    HW228098   0.187   2.293   6.591  1.7760  1.3024 -1.1475
 5547SOL     OW28099   0.080   3.075   7.142  0.4718 -0.4675  0.4348
 5547SOL    HW128100   0.093   3.155   7.091 -0.0871 -0.9937 -0.5413
 5547SOL    HW228101   0.165   3.069   7.185  1.6935 -0.6798 -1.9883
 5548SOL     OW28102   3.478   1.060  11.270 -0.0599  0.1246 -0.1411
 5548SOL    HW128103   3.544   1.044  11.338 -1.3547  1.4943  1.4298
 5548SOL    HW228104   3.445   1.144  11.302  2.1601  1.1476 -0.5146
 5549SOL     OW28105   2.379   1.427   7.693 -0.2116  0.0440 -0.5876
 5549SOL    HW128106   2.463   1.411   7.649 -0.9509 -0.1897 -1.9280
 5549SOL    HW228107   2.334   1.475   7.623 -2.1496 -2.6363 -1.1828
 5550SOL     OW28108   1.002   3.961   2.636  0.1790  0.6186 -0.2927
 5550SOL    HW128109   1.026   3.876   2.673 -0.2843  1.0904  1.0863
 5550SOL    HW228110   0.907   3.958   2.622  0.1804 -2.3794  0.2265
 5551SOL     OW28111   1.781   2.366   9.198 -0.3650  0.1264  0.2082
 5551SOL    HW128112   1.821   2.390   9.282 -0.1761  0.2116  0.0938
 5551SOL    HW228113   1.700   2.322   9.226  0.3264 -0.6656  0.9598
 5552SOL     OW28114   1.360   0.686   4.439 -0.4794  0.3261  0.8038
 5552SOL    HW128115   1.348   0.652   4.527 -0.4896 -0.1235  0.6299
 5552SOL    HW228116   1.445   0.650   4.414 -0.4403  1.7260 -1.1506
 5553SOL     OW28117   0.489   1.927   5.552  0.4196  0.3212  0.7965
 5553SOL    HW128118   0.428   1.929   5.626  1.1284 -0.8726  1.3925
 5553SOL    HW228119   0.569   1.911   5.601  0.7911  0.2052  0.1579
 5554SOL     OW28120   4.020   4.097   8.655 -0.2498 -0.3732  0.2759
 5554SOL    HW128121   4.040   4.066   8.567  2.7469  0.5499  0.6413
 5554SOL    HW228122   3.931   4.062   8.662  0.3554 -1.9344  0.1089
 5555SOL     OW28123   3.273   4.203  12.206 -0.4509 -0.4995  0.2570
 5555SOL    HW128124   3.224   4.179  12.127 -0.6474  1.1909 -0.1376
 5555SOL    HW228125   3.337   4.132  12.204  0.5704  0.4041  0.7500
 5556SOL     OW28126   4.312   3.111   1.387  0.2496  0.3740  0.2693
 5556SOL    HW128127   4.345   3.025   1.360 -1.8580  0.1024 -1.4508
 5556SOL    HW228128   4.250   3.091   1.457  0.7047 -1.5467  0.1373
 5557SOL     OW28129   4.676   0.181  17.415  0.8177  0.1119 -0.0316
 5557SOL    HW128130   4.622   0.260  17.416 -0.6577 -0.9023  0.0333
 5557SOL    HW228131   0.036   0.213  17.374 -0.1539 -0.7154 -2.5271
 5558SOL     OW28132   1.190   4.366  13.740 -0.0831 -0.3441  0.2508
 5558SOL    HW128133   1.136   4.435  13.701  2.8685  1.9723  0.2970
 5558SOL    HW228134   1.238   4.330  13.666 -1.8291  1.4828 -1.7718
 5559SOL     OW28135   3.383   3.122   2.398  0.0635  0.1868 -0.0296
 5559SOL    HW128136   3.310   3.168   2.439  0.9437 -1.6775  3.5805
 5559SOL    HW228137   3.351   3.078   2.319 -2.6674 -0.4191  1.3897
 5560SOL     OW28138   1.102   2.533  12.060  0.9334  0.1847 -0.3067
 5560SOL    HW128139   1.017   2.552  12.020  0.4707 -0.1303  0.5397
 5560SOL    HW228140   1.111   2.597  12.130  1.6949  0.7308 -0.8884
 5561SOL     OW28141   1.216   3.362   0.534 -0.0059  1.1927  0.5193
 5561SOL    HW128142   1.293   3.309   0.514 -0.6031  1.1881 -1.7685
 5561SOL    HW228143   1.176   3.316   0.608 -1.4704 -0.4011 -1.2606
 5562SOL     OW28144   0.650   1.914   6.287 -0.4299 -0.0439  0.0099
 5562SOL    HW128145   0.699   1.995   6.303 -1.6242  0.8264 -0.7860
 5562SOL    HW228146   0.572   1.939   6.237 -0.5278 -0.7642 -0.1887
 5563SOL     OW28147   4.603   0.802   7.861  0.0761  0.4238 -0.0615
 5563SOL    HW128148   4.604   0.898   7.867 -1.9828  0.4806 -0.5085
 5563SOL    HW228149   4.646   0.784   7.778  1.0899 -0.4402  0.6487
 5564SOL     OW28150   0.352   1.088   7.468  0.2331  0.1411 -0.3423
 5564SOL    HW128151   0.425   1.044   7.512 -0.0184 -0.4412 -0.4983
 5564SOL    HW228152   0.293   1.116   7.537  0.2660  0.8810 -0.6184
 5565SOL     OW28153   4.537   3.221   1.584 -0.0839  0.1375  0.1366
 5565SOL    HW128154   4.458   3.222   1.530 -1.0294  1.3681  1.5191
 5565SOL    HW228155   4.512   3.197   1.673 -1.3235 -0.7247 -0.4444
 5566SOL     OW28156   2.377   2.534   3.153 -0.0489 -0.0703  0.1388
 5566SOL    HW128157   2.436   2.553   3.080  1.0866 -1.3003  0.7296
 5566SOL    HW228158   2.408   2.584   3.229 -0.7214  0.3970  0.0974
 5567SOL     OW28159   0.007   2.456   4.644 -0.5582  0.3664  0.0435
 5567SOL    HW128160   4.674   2.378   4.631 -0.8169  0.8610 -1.9154
 5567SOL    HW228161   0.082   2.426   4.592  0.2185  0.2130  1.2341
 5568SOL     OW28162   1.456   0.683   6.795  0.1937 -0.5080  1.0328
 5568SOL    HW128163   1.538   0.635   6.804  0.3202 -0.3817  0.5295
 5568SOL    HW228164   1.480   0.775   6.781 -1.9339  0.1144  1.4286
 5569SOL     OW28165   0.951   0.876   3.824 -0.2458 -0.3608 -0.1890
 5569SOL    HW128166   0.913   0.944   3.768  1.0491  0.6807  0.2066
 5569SOL    HW228167   1.012   0.925   3.878 -1.1501  1.0498 -0.4451
 5570SOL     OW28168   1.794   4.048   6.501 -0.6335  0.4946 -0.1529
 5570SOL    HW128169   1.869   4.082   6.451  1.6124 -2.2275  1.3587
 5570SOL    HW228170   1.712   4.062   6.453 -0.6965  0.0970 -0.1614
 5571SOL     OW28171   2.972   3.584  14.318 -0.2443 -0.1840 -0.3679
 5571SOL    HW128172   3.021   3.666  14.321 -0.7100  0.0360  1.1954
 5571SOL    HW228173   3.028   3.530  14.262  0.7212 -0.1682  0.5567
 5572SOL     OW28174   4.353   4.396  12.141 -0.2525  0.0296 -0.5211
 5572SOL    HW128175   4.307   4.383  12.224 -1.1808 -1.9458 -1.3371
 5572SOL    HW228176   4.284   4.391  12.075 -2.0707 -0.2711  1.4084
 5573SOL     OW28177   0.988   0.431   1.780 -0.2440 -1.0779  0.2026
 5573SOL    HW128178   0.965   0.464   1.867  2.2509 -1.1065  0.8558
 5573SOL    HW228179   1.064   0.378   1.801  0.2759  0.3658  1.9575
 5574SOL     OW28180   1.341   0.456   6.303 -0.3704 -0.2749 -0.0119
 5574SOL    HW128181   1.274   0.503   6.351 -0.4253  2.3969 -2.7123
 5574SOL    HW228182   1.420   0.499   6.335 -0.8126 -0.3766  1.2226
 5575SOL     OW28183   0.302   1.302   7.924  0.2321  0.1832 -0.0519
 5575SOL    HW128184   0.385   1.312   7.877  0.0865  0.6651 -0.2024
 5575SOL    HW228185   0.326   1.245   7.997 -0.3109  0.5104  0.3704
 5576SOL     OW28186   0.087   4.477   1.523  0.1351  0.1142  0.0050
 5576SOL    HW128187   0.062   4.486   1.615 -1.3468 -4.1085 -0.0084
 5576SOL    HW228188   0.007   4.432   1.498  0.1724  0.4190 -0.6651
 5577SOL     OW28189   2.161   0.335   8.819  0.3570  0.1282 -0.0281
 5577SOL    HW128190   2.085   0.280   8.838 -0.5737  1.4955  0.2443
 5577SOL    HW228191   2.210   0.327   8.900  0.6010  1.0257 -0.0879
 5578SOL     OW28192   3.285   0.408   7.891  1.0639 -0.2088  0.1917
 5578SOL    HW128193   3.266   0.492   7.850 -0.5750  0.0056  1.3717
 5578SOL    HW228194   3.378   0.397   7.873  0.7207 -0.6176 -1.2928
 5579SOL     OW28195   0.215   1.867   7.550 -0.7651  0.0147  0.0473
 5579SOL    HW128196   0.231   1.909   7.634  0.7168 -0.2091 -0.1229
 5579SOL    HW228197   0.185   1.936   7.492 -0.3103  1.0766  1.0689
 5580SOL     OW28198   4.703   2.463   2.018 -0.0019 -0.4760  0.3840
 5580SOL    HW128199   4.678   2.456   1.926  0.5439  1.4034  0.1024
 5580SOL    HW228200   4.676   2.380   2.058 -2.6871  0.4572  0.4737
 5581SOL     OW28201   3.006   1.876   2.602  0.2860 -0.0429  0.0788
 5581SOL    HW128202   2.986   1.962   2.565  1.2314 -0.2955 -1.0189
 5581SOL    HW228203   2.994   1.903   2.693  3.7774 -1.4507  0.9287
 5582SOL     OW28204   2.412   3.188   6.339  0.0943  0.2021 -0.2583
 5582SOL    HW128205   2.363   3.226   6.412 -0.0947  1.6066 -1.1024
 5582SOL    HW228206   2.430   3.101   6.375  0.9093  0.7824  0.7550
 5583SOL     OW28207   4.653   0.741   5.583  0.8423  0.1232 -0.3948
 5583SOL    HW128208   4.706   0.730   5.663  2.1609  1.3020 -1.1050
 5583SOL    HW228209   4.653   0.650   5.555 -3.0783 -0.6359  2.0336
 5584SOL     OW28210   3.847   2.465   1.799 -0.0577  0.3960  0.6724
 5584SOL    HW128211   3.829   2.486   1.708 -0.1981  0.3770  0.6948
 5584SOL    HW228212   3.778   2.401   1.816  0.1437  0.4146  1.5587
 5585SOL     OW28213   4.012   3.551   1.234  0.6298  0.0269 -0.0564
 5585SOL    HW128214   3.956   3.482   1.198 -2.2631  0.5336  3.4701
 5585SOL    HW228215   4.067   3.574   1.159  1.2029  0.5482  0.5241
 5586SOL     OW28216   1.626   1.846   6.228  0.6409  0.6604 -0.3620
 5586SOL    HW128217   1.570   1.779   6.268  0.6156  1.0707  0.2884
 5586SOL    HW228218   1.570   1.868   6.153  1.2704  0.0089 -1.0218
 5587SOL     OW28219   4.114   2.794  15.834 -0.7150  0.8264 -0.1831
 5587SOL    HW128220   4.098   2.880  15.795 -2.2922 -0.1082 -1.6111
 5587SOL    HW228221   4.066   2.796  15.916 -0.1837  1.1352  0.1211
 5588SOL     OW28222   0.713   0.039   1.458 -0.0701 -0.2708  0.0239
 5588SOL    HW128223   0.630   0.008   1.422 -0.1799  0.7331 -0.5779
 5588SOL    HW228224   0.675   0.119   1.493  0.5660 -0.6869  1.6672
 5589SOL     OW28225   2.856   4.272   7.623 -0.5844 -0.1477 -0.0603
 5589SOL    HW128226   2.801   4.201   7.591  1.1127 -1.4712 -0.0037
 5589SOL    HW228227   2.881   4.243   7.711  2.9597  0.4098 -0.9021
 5590SOL     OW28228   2.655   1.411  16.020 -0.6795 -0.4169 -0.4669
 5590SOL    HW128229   2.657   1.466  15.942  0.7302 -1.9555 -1.5116
 5590SOL    HW228230   2.581   1.448  16.069  0.2696  0.7426  0.0963
 5591SOL     OW28231   2.340   3.746  12.737 -0.0750  0.1596 -0.4417
 5591SOL    HW128232   2.309   3.676  12.793 -1.3959 -0.7043 -2.2690
 5591SOL    HW228233   2.256   3.793  12.735 -0.3446 -0.3580 -1.0817
 5592SOL     OW28234   2.997   0.102  15.172 -0.4385  0.6262 -0.5744
 5592SOL    HW128235   2.941   0.036  15.133 -1.1592  1.1939 -0.5139
 5592SOL    HW228236   3.077   0.107  15.120 -1.1499 -1.4483 -1.8537
 5593SOL     OW28237   0.024   4.120   0.017  0.4871  0.4117  0.3946
 5593SOL    HW128238   0.086   4.178   0.060  0.6873 -0.7512  1.6697
 5593SOL    HW228239   4.658   4.155   0.035 -0.2877 -0.9912 -0.5749
 5594SOL     OW28240   2.738   3.125   5.684  0.0307 -0.0199  0.0410
 5594SOL    HW128241   2.797   3.072   5.738 -1.1293 -0.5810  0.7418
 5594SOL    HW228242   2.797   3.137   5.610  0.5709 -0.6761  0.3670
 5595SOL     OW28243   2.684   1.625   4.655 -0.5372 -0.2449  0.1944
 5595SOL    HW128244   2.625   1.635   4.729  1.4647  2.2878  1.4890
 5595SOL    HW228245   2.749   1.570   4.698 -0.6007  0.1490  0.7910
 5596SOL     OW28246   3.294   1.242  14.065 -0.1667 -0.4576  0.1280
 5596SOL    HW128247   3.291   1.274  13.975 -0.8656  0.9396  0.6524
 5596SOL    HW228248   3.387   1.223  14.080  0.4789  2.1551 -0.6263
 5597SOL     OW28249   2.867   0.464  17.221 -0.2014  0.0318  0.4643
 5597SOL    HW128250   2.901   0.517  17.294 -0.7991 -0.9718  1.4717
 5597SOL    HW228251   2.824   0.398  17.275  0.1475 -0.9982 -0.5285
 5598SOL     OW28252   2.557   1.922   8.988  0.0305 -0.7052 -0.0989
 5598SOL    HW128253   2.636   1.938   8.935  0.0075  0.6103  0.2742
 5598SOL    HW228254   2.485   1.928   8.926  1.6437 -0.6587 -1.9835
 5599SOL     OW28255   3.598   3.579   3.046 -0.0126 -0.5468  0.0953
 5599SOL    HW128256   3.549   3.658   3.021  0.1405 -0.0465  1.3866
 5599SOL    HW228257   3.535   3.533   3.102 -0.4659  0.1811  0.1894
 5600SOL     OW28258   1.784   2.446   5.124 -0.0795 -0.6326 -0.0228
 5600SOL    HW128259   1.726   2.387   5.077 -0.5543  1.2655 -1.8485
 5600SOL    HW228260   1.867   2.412   5.092 -0.5021 -0.3210 -1.4220
 5601SOL     OW28261   2.047   2.788   3.888 -0.6880 -0.1580  0.4257
 5601SOL    HW128262   2.088   2.712   3.846 -1.3778 -0.8464  1.0073
 5601SOL    HW228263   1.970   2.797   3.833 -0.0984  0.3807 -0.3281
 5602SOL     OW28264   1.699   4.016  10.534 -0.2885 -0.2564 -0.1930
 5602SOL    HW128265   1.641   3.940  10.533  0.2472 -0.6309 -2.8650
 5602SOL    HW228266   1.723   4.022  10.627  1.8406  2.2707 -0.9090
 5603SOL     OW28267   4.028   2.318   3.841  0.1412 -0.7260 -0.2223
 5603SOL    HW128268   4.092   2.364   3.787  0.7608  0.0785  1.2115
 5603SOL    HW228269   4.007   2.237   3.794  2.0475 -1.2943 -0.1006
 5604SOL     OW28270   1.056   0.683   5.253  0.0364 -0.1429  0.8920
 5604SOL    HW128271   1.127   0.746   5.260 -0.5256  0.5434  0.4080
 5604SOL    HW228272   1.094   0.598   5.274  0.2934 -0.3263 -0.2807
 5605SOL     OW28273   3.080   0.736   3.316  0.1686 -0.3481  0.0039
 5605SOL    HW128274   3.176   0.740   3.308  0.2627 -0.1662  1.1821
 5605SOL    HW228275   3.068   0.830   3.324 -0.7766 -0.3154 -1.6767
 5606SOL     OW28276   3.156   2.291   4.556  0.3090  0.0965  0.4373
 5606SOL    HW128277   3.090   2.278   4.625  0.1342  0.1007  0.2705
 5606SOL    HW228278   3.177   2.200   4.536  0.0630 -0.2449  1.7115
 5607SOL     OW28279   3.295   0.700   5.730 -0.5279 -0.4730 -0.4984
 5607SOL    HW128280   3.312   0.708   5.636  0.4619 -0.8140 -0.3489
 5607SOL    HW228281   3.268   0.609   5.743  0.9914 -0.7044  1.0478
 5608SOL     OW28282   2.267   1.244   6.205  0.3885  0.4100  0.5014
 5608SOL    HW128283   2.247   1.199   6.287 -1.7138 -1.7932 -1.2309
 5608SOL    HW228284   2.203   1.191   6.159  1.7050 -0.9087  0.1831
 5609SOL     OW28285   3.470   1.225   5.844  0.2801 -0.4433 -0.2720
 5609SOL    HW128286   3.451   1.145   5.795 -0.6281 -1.0549  1.0990
 5609SOL    HW228287   3.492   1.281   5.769  1.9855  1.3730  1.5802
 5610SOL     OW28288   0.953   0.151   1.492 -0.1537  0.0977  0.3778
 5610SOL    HW128289   0.869   0.104   1.495 -0.7817  1.1387 -1.1034
 5610SOL    HW228290   1.019   0.084   1.510  3.0593  2.8767 -1.1597
 5611SOL     OW28291   2.940   3.422   5.553  0.6926 -0.5353  0.4764
 5611SOL    HW128292   2.913   3.409   5.645  2.1794 -2.1407  0.6908
 5611SOL    HW228293   2.854   3.448   5.519 -0.0440 -2.6950  0.6146
 5612SOL     OW28294   0.316   3.736   1.162 -0.0279  0.1171  0.2398
 5612SOL    HW128295   0.277   3.709   1.245 -2.0188  1.9527 -0.0890
 5612SOL    HW228296   0.362   3.815   1.188 -1.1706  0.7557  0.3426
 5613SOL     OW28297   1.585   2.082   1.977  0.1069 -0.0929  0.9561
 5613SOL    HW128298   1.572   2.103   2.069  0.3966 -2.0884  1.4561
 5613SOL    HW228299   1.495   2.052   1.964 -0.0579 -0.6134  3.3791
 5614SOL     OW28300   3.792   2.414   9.212 -0.2715 -0.2137 -0.4004
 5614SOL    HW128301   3.727   2.468   9.166  0.2691  0.3040 -0.5414
 5614SOL    HW228302   3.803   2.349   9.142 -0.9600 -0.7325 -0.0321
 5615SOL     OW28303   2.840   1.620   2.806 -0.5079 -0.2312  0.1558
 5615SOL    HW128304   2.768   1.602   2.866 -1.4857 -0.4163 -1.0635
 5615SOL    HW228305   2.793   1.684   2.752  0.0297 -0.3338 -0.4355
 5616SOL     OW28306   0.540   3.809   0.641  0.4749 -0.8718  0.0606
 5616SOL    HW128307   0.475   3.870   0.676  0.6697 -0.5775 -0.0952
 5616SOL    HW228308   0.509   3.724   0.672 -1.8695 -0.4852 -1.2498
 5617SOL     OW28309   0.906   3.405   4.999 -0.2954 -0.0937  0.0116
 5617SOL    HW128310   0.975   3.343   5.022 -0.1732 -0.1747 -0.5537
 5617SOL    HW228311   0.818   3.371   5.014 -1.0124  1.1685 -1.2434
 5618SOL     OW28312   0.295   0.158   8.234  0.3836 -0.1716 -0.2404
 5618SOL    HW128313   0.355   0.159   8.308 -0.1394 -0.3520  0.1809
 5618SOL    HW228314   0.335   0.232   8.188  2.4775 -1.4530 -0.4326
 5619SOL     OW28315   1.655   0.075   9.316  0.5639 -0.6303 -0.0891
 5619SOL    HW128316   1.730   0.122   9.280  0.6808 -0.2119  0.7048
 5619SOL    HW228317   1.603   0.072   9.236  2.0633  1.6898 -1.1477
 5620SOL     OW28318   0.627   3.788   5.387  0.2198  0.0272  0.0109
 5620SOL    HW128319   0.720   3.767   5.390  0.0518 -0.6994  0.0586
 5620SOL    HW228320   0.641   3.875   5.426 -0.1361 -0.5062  1.3152
 5621SOL     OW28321   3.629   2.455   4.922  0.3849 -0.6508  0.0647
 5621SOL    HW128322   3.680   2.533   4.900  2.6223 -1.1927  3.2108
 5621SOL    HW228323   3.645   2.455   5.017  2.4001 -1.0257 -0.2775
 5622SOL     OW28324   3.830   4.075   5.778  0.4372 -0.0293  0.3241
 5622SOL    HW128325   3.774   4.009   5.820  1.5402 -0.5931  0.9105
 5622SOL    HW228326   3.871   4.013   5.717 -2.5651  0.8890 -2.6313
 5623SOL     OW28327   2.834   3.413   5.796 -0.1037 -0.9701 -0.0862
 5623SOL    HW128328   2.836   3.494   5.848  1.9754 -0.6330 -0.6977
 5623SOL    HW228329   2.754   3.376   5.833 -0.4360  0.1758  0.3667
 5624SOL     OW28330   2.535   3.430   9.020  0.2154  0.0028 -0.1889
 5624SOL    HW128331   2.471   3.408   9.088 -1.1873 -0.8852 -1.7837
 5624SOL    HW228332   2.499   3.513   8.988  1.5516  1.0157  0.9379
 5625SOL     OW28333   3.234   3.409  14.225  0.4360  0.4312 -0.2846
 5625SOL    HW128334   3.171   3.346  14.259  0.5371  0.8562  0.6737
 5625SOL    HW228335   3.304   3.389  14.287 -0.4358  0.2534  0.6232
 5626SOL     OW28336   1.850   1.525  11.372  0.2013  0.7798 -0.1842
 5626SOL    HW128337   1.813   1.613  11.384 -2.4086 -0.2794 -0.4268
 5626SOL    HW228338   1.855   1.490  11.461 -4.2921 -2.0467 -1.0396
 5627SOL     OW28339   0.574   0.309   6.594  0.2635 -0.5242  0.3676
 5627SOL    HW128340   0.563   0.267   6.509 -0.8597  1.7824 -0.6066
 5627SOL    HW228341   0.503   0.267   6.645  1.1122 -2.1709  0.2042
 5628SOL     OW28342   2.317   4.250  17.415 -0.3521  0.5662 -0.4433
 5628SOL    HW128343   2.350   4.336  17.442 -4.6527  1.5421  1.6690
 5628SOL    HW228344   2.366   4.198  17.478  0.1580 -1.0642 -2.2107
 5629SOL     OW28345   0.334   3.678   6.217  0.4545  0.1667 -0.3616
 5629SOL    HW128346   0.291   3.600   6.181  1.9277 -0.8044 -0.0033
 5629SOL    HW228347   0.264   3.742   6.207 -0.9589 -1.2536  0.3538
 5630SOL     OW28348   3.656   1.272   3.550  0.3282 -0.3614 -0.0089
 5630SOL    HW128349   3.659   1.251   3.456  0.2297  0.5005 -0.2018
 5630SOL    HW228350   3.614   1.358   3.543 -0.2229 -0.6537 -0.3132
 5631SOL     OW28351   4.548   4.668  13.737  0.2108  0.6834  0.5262
 5631SOL    HW128352   4.607   4.601  13.771  0.0328  0.4350  0.3377
 5631SOL    HW228353   4.585   0.031  13.769 -0.5138  0.2907  2.4022
 5632SOL     OW28354   1.212   0.924   8.806 -0.5602 -0.0394 -0.2609
 5632SOL    HW128355   1.243   1.012   8.827 -1.7951 -0.1666  2.0697
 5632SOL    HW228356   1.252   0.924   8.719  0.1192 -0.7988  0.0467
 5633SOL     OW28357   2.789   0.899   4.890  0.7169 -0.3139 -0.0203
 5633SOL    HW128358   2.811   0.835   4.823 -1.8938 -0.9211 -0.3066
 5633SOL    HW228359   2.833   0.861   4.966  0.7758 -0.4354 -0.1159
 5634SOL     OW28360   3.636   4.210   2.205 -0.1001 -0.1498 -0.3330
 5634SOL    HW128361   3.577   4.232   2.277  0.1762 -0.6270  0.0450
 5634SOL    HW228362   3.721   4.222   2.247 -0.4927 -0.2932  0.5036
 5635SOL     OW28363   3.717   3.176   4.867 -0.5325  0.0291 -0.1354
 5635SOL    HW128364   3.754   3.117   4.933 -0.6502 -1.6470 -1.5661
 5635SOL    HW228365   3.701   3.250   4.926 -0.7398  0.5525 -0.8539
 5636SOL     OW28366   2.424   2.354   4.788 -0.1432  0.0879 -0.3437
 5636SOL    HW128367   2.496   2.295   4.763  0.6344  1.6787 -1.8602
 5636SOL    HW228368   2.469   2.420   4.841  0.0772  1.0140 -1.6788
 5637SOL     OW28369   0.427   0.933   5.337 -0.3291 -0.7896 -0.9784
 5637SOL    HW128370   0.462   0.933   5.248  1.7968  1.0040 -0.1374
 5637SOL    HW228371   0.358   0.868   5.346  0.0459 -0.9990  0.3446
 5638SOL     OW28372   3.356   4.398   6.551 -0.1618  0.3268  0.4379
 5638SOL    HW128373   3.388   4.474   6.599  2.2282  1.3488 -2.7200
 5638SOL    HW228374   3.298   4.352   6.611  0.3554  0.3353  0.9436
 5639SOL     OW28375   0.530   2.753   2.469  0.1573 -0.3381  0.3640
 5639SOL    HW128376   0.493   2.819   2.411 -1.5310 -1.4758  0.1468
 5639SOL    HW228377   0.450   2.705   2.493  0.3454 -0.2705  1.1250
 5640SOL     OW28378   1.149   3.026  13.316 -0.4425 -0.2392  0.4299
 5640SOL    HW128379   1.158   2.984  13.231 -1.6971  0.7583 -0.1996
 5640SOL    HW228380   1.061   3.062  13.305 -0.5365 -0.8859 -0.8654
 5641SOL     OW28381   0.711   3.082   6.930  0.1065 -0.4373  0.5461
 5641SOL    HW128382   0.694   3.148   6.863  0.5468 -2.9800 -2.0570
 5641SOL    HW228383   0.742   3.140   7.000  1.9422  1.3558 -1.7790
 5642SOL     OW28384   1.765   3.164   9.206  0.2271  0.8370 -0.4501
 5642SOL    HW128385   1.693   3.173   9.269  0.3528  2.7857 -0.5902
 5642SOL    HW228386   1.749   3.071   9.187  0.1923  0.5534  0.9826
 5643SOL     OW28387   3.980   1.666   6.381 -0.5889  0.7040  0.2821
 5643SOL    HW128388   3.912   1.732   6.396  0.8621  2.1859  0.2516
 5643SOL    HW228389   4.049   1.691   6.442 -2.1722 -0.0512  2.3676
 5644SOL     OW28390   1.172   3.295   4.992  0.5035 -0.4031 -0.6250
 5644SOL    HW128391   1.186   3.306   4.898  1.2422  0.6440 -0.3846
 5644SOL    HW228392   1.248   3.337   5.031  0.6332 -1.8924  0.7470
 5645SOL     OW28393   0.037   3.873   3.954  0.6715  0.0180 -0.0671
 5645SOL    HW128394   0.006   3.795   3.908 -1.9263  0.5908  0.7244
 5645SOL    HW228395   0.091   3.834   4.022 -0.7053 -0.9496  0.4690
 5646SOL     OW28396   2.545   4.075   9.756  0.0530 -0.4191  0.4225
 5646SOL    HW128397   2.450   4.075   9.742  0.0688 -1.7516  0.3577
 5646SOL    HW228398   2.567   3.990   9.794 -1.1754 -1.2395 -0.7045
 5647SOL     OW28399   4.498   0.666  10.849  0.0784 -0.5611  1.0961
 5647SOL    HW128400   4.517   0.573  10.851  0.9335 -0.4128 -0.1165
 5647SOL    HW228401   4.481   0.670  10.755 -1.3102 -0.4620  1.3505
 5648SOL     OW28402   3.942   4.547  14.943 -0.0888  0.0148  0.0435
 5648SOL    HW128403   4.002   4.486  14.901 -0.9990 -2.6979  2.6764
 5648SOL    HW228404   3.941   4.516  15.034 -0.8719 -0.4955 -0.1445
 5649SOL     OW28405   3.385   2.379   8.929  0.4109  0.0121 -0.5943
 5649SOL    HW128406   3.303   2.429   8.924  0.0914 -0.3888  0.7358
 5649SOL    HW228407   3.355   2.288   8.933 -0.8609  0.4884  0.9456
 5650SOL     OW28408   3.157   0.302   2.536  0.0465 -0.1982 -0.1139
 5650SOL    HW128409   3.173   0.240   2.607 -0.5619 -2.7908 -2.2558
 5650SOL    HW228410   3.210   0.274   2.461  1.6503  0.7844  0.6389
 5651SOL     OW28411   0.415   1.041   9.674 -0.6530 -1.3508  0.7180
 5651SOL    HW128412   0.357   0.969   9.697 -0.6930 -1.3903  0.4850
 5651SOL    HW228413   0.346   1.106   9.666 -0.0272 -1.0102 -1.6892
 5652SOL     OW28414   1.372   3.147   7.960 -0.1313 -0.4246 -0.2628
 5652SOL    HW128415   1.340   3.070   7.913  1.9112 -0.4309 -1.6763
 5652SOL    HW228416   1.313   3.216   7.931 -0.3598 -0.0230  1.1693
 5653SOL     OW28417   0.438   1.741  11.814  0.5743 -0.5004 -0.0348
 5653SOL    HW128418   0.360   1.792  11.791  0.5751 -0.8379 -0.7596
 5653SOL    HW228419   0.410   1.722  11.904 -1.1382 -1.4204 -0.7523
 5654SOL     OW28420   0.942   4.342   5.616  0.2378  0.1740  0.1851
 5654SOL    HW128421   0.993   4.339   5.535 -2.1491  0.1112 -1.3275
 5654SOL    HW228422   0.995   4.402   5.667  0.8475  0.2322 -0.5203
 5655SOL     OW28423   1.472   1.795   6.992 -0.0080 -0.2238  0.0473
 5655SOL    HW128424   1.516   1.766   7.072 -0.5552  1.9410  1.1549
 5655SOL    HW228425   1.442   1.712   6.955 -3.2991  0.7543  0.5229
 5656SOL     OW28426   2.149   0.334   4.801  0.2489  0.2079 -0.1323
 5656SOL    HW128427   2.155   0.281   4.881 -2.6754  0.6169  0.3821
 5656SOL    HW228428   2.119   0.270   4.736  3.2603  1.7896 -3.0177
 5657SOL     OW28429   3.797   0.099  14.580  0.3203 -0.0968  0.1597
 5657SOL    HW128430   3.759   0.033  14.637 -0.5551  2.3893  2.4797
 5657SOL    HW228431   3.739   0.090  14.505 -0.8750 -0.6575  1.1627
 5658SOL     OW28432   3.427   3.121   3.805 -0.2627 -0.3646 -0.8186
 5658SOL    HW128433   3.373   3.053   3.847 -0.7510  1.2068  1.0834
 5658SOL    HW228434   3.454   3.077   3.724 -1.6552 -1.7049 -0.5534
 5659SOL     OW28435   2.476   3.750   8.451  0.3381  0.3528 -0.1303
 5659SOL    HW128436   2.526   3.669   8.441 -2.3124 -1.6273  2.2394
 5659SOL    HW228437   2.503   3.788   8.368  0.6173 -0.8790 -0.6025
 5660SOL     OW28438   2.600   3.186   1.879  0.1309 -0.7035  0.2630
 5660SOL    HW128439   2.527   3.190   1.941 -1.9142 -1.7677 -2.0681
 5660SOL    HW228440   2.678   3.170   1.933  0.0339 -2.0015  0.0200
 5661SOL     OW28441   4.696   3.868   5.657 -0.0477  0.2957 -0.2741
 5661SOL    HW128442   0.040   3.934   5.681  0.8048 -0.5866 -0.0938
 5661SOL    HW228443   0.002   3.850   5.567 -1.6537 -2.0945 -0.2862
 5662SOL     OW28444   2.891   2.838   0.428 -0.2440  0.0691 -0.2517
 5662SOL    HW128445   2.962   2.867   0.485  0.5712  1.3527 -1.9007
 5662SOL    HW228446   2.910   2.746   0.412 -0.7145 -0.3780  1.7962
 5663SOL     OW28447   4.109   0.424   1.564 -0.2630 -0.0338  0.0085
 5663SOL    HW128448   4.125   0.471   1.482  1.7346  1.4175  1.2339
 5663SOL    HW228449   4.145   0.486   1.627 -0.9638  0.4233 -0.0390
 5664SOL     OW28450   0.395   2.093  11.154 -0.2290  0.0823 -0.9332
 5664SOL    HW128451   0.469   2.033  11.160 -1.4801 -1.3060  0.6952
 5664SOL    HW228452   0.385   2.098  11.059 -2.3118  0.6853 -0.6840
 5665SOL     OW28453   4.538   2.842  13.268 -0.8290  0.6317 -0.1782
 5665SOL    HW128454   4.540   2.821  13.361 -0.7384 -0.9608 -0.5414
 5665SOL    HW228455   4.456   2.806  13.235  0.5954 -2.3638 -0.4776
 5666SOL     OW28456   0.949   2.416   1.403 -0.3130  0.1157  0.2257
 5666SOL    HW128457   0.950   2.508   1.431 -1.2501 -0.3295  1.7105
 5666SOL    HW228458   0.898   2.428   1.323  0.6836 -3.4692 -0.9158
 5667SOL     OW28459   1.553   4.396   5.187 -0.0799  0.4856 -0.3407
 5667SOL    HW128460   1.556   4.487   5.213 -2.6006  0.2120  0.8918
 5667SOL    HW228461   1.607   4.391   5.108  0.0155  2.5930 -0.3904
 5668SOL     OW28462   3.668   4.197   6.643  0.3842  0.0319 -0.1539
 5668SOL    HW128463   3.686   4.107   6.669 -1.8173 -0.8222 -1.5541
 5668SOL    HW228464   3.722   4.202   6.564 -0.1629 -4.2496 -0.7754
 5669SOL     OW28465   0.697   1.773   8.862  0.5140  0.1868 -0.0871
 5669SOL    HW128466   0.693   1.703   8.797 -0.0090  0.2810 -0.1495
 5669SOL    HW228467   0.756   1.837   8.820 -0.9919  1.5583 -0.0867
 5670SOL     OW28468   1.755   1.213  11.512  0.3458  0.1410  0.1704
 5670SOL    HW128469   1.714   1.263  11.441  1.5756  1.8802  0.6778
 5670SOL    HW228470   1.791   1.286  11.563  2.9164  1.0372 -2.9065
 5671SOL     OW28471   2.226   2.450   8.219  0.6321  0.4754  0.0826
 5671SOL    HW128472   2.216   2.493   8.304 -0.9684 -2.9197  1.5794
 5671SOL    HW228473   2.289   2.515   8.187 -0.9446  2.8176  1.6993
 5672SOL     OW28474   4.474   2.680   5.416  0.3064  0.4422 -0.0832
 5672SOL    HW128475   4.508   2.753   5.468  0.1902  0.1269  0.4281
 5672SOL    HW228476   4.482   2.717   5.328  1.0004 -0.1950 -0.2881
 5673SOL     OW28477   4.499   4.186  13.903 -0.0315  0.1910 -0.0274
 5673SOL    HW128478   4.543   4.264  13.868  0.5661 -0.9071 -1.6693
 5673SOL    HW228479   4.518   4.187  13.997 -0.1314  1.8857 -0.0222
 5674SOL     OW28480   1.284   1.166   8.831  0.2809 -0.4072  0.2541
 5674SOL    HW128481   1.371   1.204   8.826  0.8479 -1.5047  1.8588
 5674SOL    HW228482   1.255   1.203   8.914  0.6849 -1.9286  1.0789
 5675SOL     OW28483   3.208   0.654   4.438 -0.6121 -0.3627 -0.6139
 5675SOL    HW128484   3.221   0.559   4.443  3.0962  0.2576  1.1824
 5675SOL    HW228485   3.293   0.685   4.469 -1.5613  2.7737 -1.1256
 5676SOL     OW28486   2.089   2.575   3.177 -0.3857  0.1963 -0.2470
 5676SOL    HW128487   2.176   2.556   3.140 -0.4353 -0.8892  0.2014
 5676SOL    HW228488   2.075   2.669   3.164 -3.2204 -0.3337 -0.9557
 5677SOL     OW28489   3.057   3.036   0.613  0.2179 -0.5842  0.0505
 5677SOL    HW128490   3.023   3.122   0.591 -2.5483 -1.6897  0.0454
 5677SOL    HW228491   3.150   3.059   0.605 -0.4863  1.9155 -0.7751
 5678SOL     OW28492   3.781   1.478   6.507 -0.2136  0.0658  0.1698
 5678SOL    HW128493   3.860   1.522   6.476 -0.2157 -1.0924 -1.5242
 5678SOL    HW228494   3.727   1.497   6.431 -0.7453  0.3434  0.6142
 5679SOL     OW28495   3.192   1.340  11.675  0.0128 -0.5134 -0.1380
 5679SOL    HW128496   3.258   1.370  11.613 -0.3882 -1.4380 -1.0366
 5679SOL    HW228497   3.128   1.299  11.616  1.6336 -0.4873 -1.9350
 5680SOL     OW28498   1.441   3.207  13.190  0.0876  0.3101 -0.1208
 5680SOL    HW128499   1.381   3.157  13.246  0.3255  0.0418 -0.1000
 5680SOL    HW228500   1.411   3.187  13.101  0.5522 -0.4097 -0.1228
 5681SOL     OW28501   4.254   0.514   3.924 -0.3517  0.4243  0.2949
 5681SOL    HW128502   4.230   0.434   3.878 -1.4464  1.1323 -0.3544
 5681SOL    HW228503   4.169   0.559   3.927 -1.1144 -0.8768 -1.8065
 5682SOL     OW28504   1.676   3.030   4.045 -0.2440 -0.7434 -0.5918
 5682SOL    HW128505   1.585   3.057   4.044  0.3872  1.3430 -2.4228
 5682SOL    HW228506   1.670   2.950   4.097  3.5458 -1.8841 -1.8761
 5683SOL     OW28507   3.626   3.064   7.079  0.1729 -0.1243  0.1744
 5683SOL    HW128508   3.591   3.013   7.006  1.5420  0.3773 -0.8140
 5683SOL    HW228509   3.617   3.010   7.158 -0.3947 -0.3492 -0.0384
 5684SOL     OW28510   0.374   2.342   7.987 -0.1976 -0.6891 -0.1184
 5684SOL    HW128511   0.379   2.394   8.067 -0.8972 -1.5809  0.5086
 5684SOL    HW228512   0.284   2.312   8.001 -0.6076  1.1159  1.1753
 5685SOL     OW28513   2.246   4.458   5.986 -0.1855 -0.1774  0.1653
 5685SOL    HW128514   2.271   4.472   6.077  1.9938 -0.3722 -0.4164
 5685SOL    HW228515   2.322   4.414   5.948 -1.4489 -0.3863 -2.1019
 5686SOL     OW28516   0.958   3.806   6.699 -0.0170 -0.4657 -0.1359
 5686SOL    HW128517   0.865   3.802   6.721  0.2188 -1.0889  0.7518
 5686SOL    HW228518   0.962   3.866   6.624 -2.1480 -1.7737 -1.2762
 5687SOL     OW28519   2.842   1.576  14.953  0.1745 -0.3242 -0.2760
 5687SOL    HW128520   2.853   1.495  14.904  1.5942 -0.8840  0.9705
 5687SOL    HW228521   2.903   1.634  14.907  0.4844 -0.5933 -0.2081
 5688SOL     OW28522   3.774   0.002   6.214  0.5434 -0.1685  0.3279
 5688SOL    HW128523   3.785   0.003   6.119 -0.8210  1.1171  0.1927
 5688SOL    HW228524   3.770   0.097   6.217  0.5921 -0.1913  1.1436
 5689SOL     OW28525   2.166   3.565   6.704  0.2006 -0.6242 -0.2567
 5689SOL    HW128526   2.210   3.483   6.682  2.3111  1.0991 -2.5137
 5689SOL    HW228527   2.190   3.612   6.624  1.2963 -2.2281 -0.8770
 5690SOL     OW28528   1.362   4.058  12.425  0.5574  0.0354  0.3413
 5690SOL    HW128529   1.292   4.046  12.361  1.0779  3.6128 -0.8741
 5690SOL    HW228530   1.318   4.016  12.499  0.2534  2.0595  1.3032
 5691SOL     OW28531   3.851   3.364   7.980  0.1803  0.0074 -1.0961
 5691SOL    HW128532   3.863   3.459   7.980 -0.3631  0.0756 -0.1595
 5691SOL    HW228533   3.943   3.338   7.990  0.1299  0.6813  1.1772
 5692SOL     OW28534   0.037   3.478  13.036 -0.6104  0.3591  0.1326
 5692SOL    HW128535   0.003   3.552  12.985 -1.1134  0.1757  0.1987
 5692SOL    HW228536   0.007   3.515  13.119  0.8684  1.4336  0.1757
 5693SOL     OW28537   1.480   2.258   4.206  0.0693  0.0844  0.4268
 5693SOL    HW128538   1.494   2.343   4.249  0.1119  0.7098 -0.8215
 5693SOL    HW228539   1.566   2.218   4.211 -1.3602 -3.0164 -0.3646
 5694SOL     OW28540   1.878   1.629   3.280  0.1283 -0.0324 -0.5336
 5694SOL    HW128541   1.817   1.558   3.302  1.2649 -0.3377  1.6421
 5694SOL    HW228542   1.962   1.600   3.315 -1.2539  1.1602  3.7620
 5695SOL     OW28543   2.085   2.315   5.254 -0.5086 -0.2962  0.4705
 5695SOL    HW128544   2.074   2.324   5.160 -0.9141  0.9720  0.6347
 5695SOL    HW228545   2.176   2.286   5.264 -0.6147 -0.5528  0.7118
 5696SOL     OW28546   0.250   3.323   5.593  0.4335 -0.5978 -0.2841
 5696SOL    HW128547   0.320   3.370   5.548  1.0550 -0.8824  0.3879
 5696SOL    HW228548   0.173   3.348   5.542 -0.8234 -0.8460  1.4661
 5697SOL     OW28549   2.583   0.439   1.876  0.3370 -0.5779  0.0306
 5697SOL    HW128550   2.635   0.420   1.798  0.3616  1.2154 -0.3989
 5697SOL    HW228551   2.516   0.372   1.870 -0.1118 -0.2142  0.9208
 5698SOL     OW28552   0.001   3.441  16.519  0.1063  0.3852 -0.3179
 5698SOL    HW128553   4.646   3.485  16.558  0.4753 -0.1581  0.9996
 5698SOL    HW228554   4.679   3.383  16.456  1.9011 -1.8782  0.5526
 5699SOL     OW28555   1.767   0.995  15.204  0.1548  0.2983 -0.3711
 5699SOL    HW128556   1.826   1.041  15.263  2.6453 -0.3307 -2.3419
 5699SOL    HW228557   1.692   1.048  15.179 -0.4687 -0.6104 -0.4514
 5700SOL     OW28558   3.224   1.456   6.698  0.1745 -1.0733 -0.0130
 5700SOL    HW128559   3.231   1.551   6.694 -0.6286 -0.9596  1.4739
 5700SOL    HW228560   3.311   1.425   6.672  0.5432 -0.8700  0.9815
 5701SOL     OW28561   1.445   1.798   9.597  0.0776  0.6248 -0.2632
 5701SOL    HW128562   1.406   1.843   9.522 -0.9031 -0.5458 -0.4621
 5701SOL    HW228563   1.450   1.863   9.666  3.6671  1.1542 -1.0394
 5702SOL     OW28564   1.769   1.228   5.563 -0.0480 -0.4607  0.2419
 5702SOL    HW128565   1.767   1.263   5.653 -2.3385 -0.1083  0.0722
 5702SOL    HW228566   1.745   1.136   5.573 -1.6263 -0.0221  0.5499
 5703SOL     OW28567   1.020   2.184   2.939  0.1476 -0.0223  0.4170
 5703SOL    HW128568   0.957   2.255   2.948 -2.1127 -1.9048 -0.4387
 5703SOL    HW228569   1.089   2.226   2.990  0.2451 -0.1913  0.4250
 5704SOL     OW28570   3.877   0.498   2.361 -0.1031 -0.0022  0.3389
 5704SOL    HW128571   3.797   0.541   2.391 -0.2950 -0.7635  0.9038
 5704SOL    HW228572   3.861   0.491   2.267 -0.5520 -0.4920  0.4571
 5705SOL     OW28573   1.160   3.024  17.019  0.1442 -0.0572 -0.0407
 5705SOL    HW128574   1.250   3.011  16.991  0.0737  0.6215 -0.5817
 5705SOL    HW228575   1.163   2.973  17.100  0.1529  0.9028  0.5703
 5706SOL     OW28576   1.590   0.670  12.382 -0.1732 -0.3887 -0.1229
 5706SOL    HW128577   1.575   0.591  12.434 -1.8579 -0.6814 -1.0235
 5706SOL    HW228578   1.572   0.741  12.444  0.6314  0.7063 -1.1424
 5707SOL     OW28579   1.502   1.825   4.659  0.1177 -0.2755  0.7658
 5707SOL    HW128580   1.539   1.864   4.738 -0.9761 -1.5605  1.8873
 5707SOL    HW228581   1.445   1.895   4.627  0.1805 -0.1077  1.0217
 5708SOL     OW28582   1.062   1.610  16.320 -0.2638  1.3320  0.6309
 5708SOL    HW128583   1.030   1.669  16.253 -0.2811  1.0209  0.3678
 5708SOL    HW228584   1.104   1.674  16.378 -0.5514  1.5295  0.6225
 5709SOL     OW28585   2.787   2.173   9.839 -0.1585  0.0539  0.1737
 5709SOL    HW128586   2.864   2.196   9.787  0.9079 -1.6395  1.0119
 5709SOL    HW228587   2.774   2.087   9.800  0.4737 -0.1824  0.4768
 5710SOL     OW28588   0.021   2.059  12.908  0.2234  0.1530  0.4452
 5710SOL    HW128589   0.055   2.084  12.994  0.3709 -1.0769  0.7429
 5710SOL    HW228590   0.019   2.145  12.866 -2.2416 -0.1966 -0.1458
 5711SOL     OW28591   3.507   0.448  12.008 -0.5574 -0.0417  0.2161
 5711SOL    HW128592   3.581   0.491  11.964  0.1344 -0.7297  0.7113
 5711SOL    HW228593   3.529   0.355  12.012  2.5119  0.7166  1.4834
 5712SOL     OW28594   3.455   3.284   0.939 -0.2869 -0.1864 -0.3484
 5712SOL    HW128595   3.377   3.306   0.989 -0.8469 -2.4097 -0.2642
 5712SOL    HW228596   3.429   3.327   0.857 -0.0234  0.1583 -0.2508
 5713SOL     OW28597   0.734   4.003  16.835  0.3243 -0.8609 -0.6817
 5713SOL    HW128598   0.829   3.999  16.850 -0.0001  0.8422  1.8514
 5713SOL    HW228599   0.724   4.078  16.777 -2.9681  2.2569  3.8533
 5714SOL     OW28600   3.379   4.299  16.795  0.0671  0.8078  0.8351
 5714SOL    HW128601   3.455   4.282  16.851 -0.2340  0.3652  1.1147
 5714SOL    HW228602   3.325   4.230  16.834  0.1608  0.4381  0.3235
 5715SOL     OW28603   0.554   1.908   9.443  0.2231 -0.3493  0.3422
 5715SOL    HW128604   0.593   1.822   9.459 -1.5257 -1.3808 -0.9274
 5715SOL    HW228605   0.461   1.889   9.453  0.1395 -0.6224 -0.9382
 5716SOL     OW28606   1.063   4.470  11.844  0.6363  0.0130 -0.5361
 5716SOL    HW128607   1.007   4.451  11.768  0.5925 -1.6607 -0.0759
 5716SOL    HW228608   1.101   4.383  11.851  1.1477  0.2491 -0.3048
 5717SOL     OW28609   2.171   3.484   3.425  0.3180 -0.1164 -0.6303
 5717SOL    HW128610   2.252   3.534   3.410 -0.4773  2.2923  3.0081
 5717SOL    HW228611   2.154   3.440   3.342 -0.6951 -0.3248 -0.3067
 5718SOL     OW28612   1.667   0.546   5.783 -0.0411  0.0364 -0.0571
 5718SOL    HW128613   1.603   0.494   5.831  0.5334 -1.9399 -1.4364
 5718SOL    HW228614   1.620   0.627   5.803 -1.1241 -0.4006 -0.8423
 5719SOL     OW28615   2.714   1.771  14.427 -0.1852  0.5005  0.4762
 5719SOL    HW128616   2.684   1.800  14.341  0.6323  1.5887  0.5533
 5719SOL    HW228617   2.639   1.759  14.486 -0.3833  0.1900  0.1571
 5720SOL     OW28618   1.860   2.472   3.081  0.0008  0.1591 -0.8715
 5720SOL    HW128619   1.834   2.379   3.079  3.4148 -0.8144 -0.1856
 5720SOL    HW228620   1.949   2.479   3.115 -0.1114 -1.6939 -0.1578
 5721SOL     OW28621   3.452   1.065   3.236 -0.0071  0.4099 -0.1370
 5721SOL    HW128622   3.415   1.116   3.164 -1.0082  1.0198  0.8191
 5721SOL    HW228623   3.540   1.099   3.254 -0.2043  0.9479 -0.1646
 5722SOL     OW28624   0.013   4.177   1.493 -1.3774 -0.1790  0.6083
 5722SOL    HW128625   0.101   4.140   1.491 -0.9597  0.8885 -1.3136
 5722SOL    HW228626   4.683   4.107   1.534 -3.7884 -0.2933 -2.6095
 5723SOL     OW28627   3.289   0.334   4.749  0.7698 -0.4313 -0.5250
 5723SOL    HW128628   3.275   0.298   4.836  0.5554  1.8833  0.3787
 5723SOL    HW228629   3.383   0.316   4.743  0.8161 -0.4810  0.3938
 5724SOL     OW28630   3.252   1.400  16.028 -0.1880  0.0803  0.4859
 5724SOL    HW128631   3.273   1.476  15.973 -0.1844 -1.4622 -1.6335
 5724SOL    HW228632   3.339   1.359  16.031  0.4444  1.3821  0.3145
 5725SOL     OW28633   2.983   1.034   9.693  0.6171  0.4489  0.1908
 5725SOL    HW128634   2.916   0.966   9.682  3.4012 -2.3052  0.1046
 5725SOL    HW228635   3.043   1.014   9.621 -0.4610  0.9504 -0.8527
 5726SOL     OW28636   2.698   2.767   6.358  0.2735  0.1883 -0.6595
 5726SOL    HW128637   2.789   2.765   6.385 -0.3415  2.1804  1.5456
 5726SOL    HW228638   2.707   2.706   6.285  1.0678  1.0013 -1.2398
 5727SOL     OW28639   1.110   3.823   9.273  0.1227 -0.4243 -0.1156
 5727SOL    HW128640   1.157   3.746   9.241 -1.5487 -1.1276 -0.8828
 5727SOL    HW228641   1.018   3.803   9.291  0.0757  1.0437  1.3918
 5728SOL     OW28642   0.646   0.192   7.656 -0.4657  0.2084  0.1982
 5728SOL    HW128643   0.739   0.215   7.658 -1.0528  2.5635 -0.0475
 5728SOL    HW228644   0.607   0.279   7.650  1.1069  1.0813  2.7271
 5729SOL     OW28645   4.071   4.655   8.572  0.7797  0.4663  0.1347
 5729SOL    HW128646   4.037   4.584   8.627 -0.8058  0.6183 -0.6484
 5729SOL    HW228647   3.996   4.714   8.572  0.1957 -0.2962  2.7207
 5730SOL     OW28648   3.127   1.868   5.555 -0.5644  0.4298 -0.2110
 5730SOL    HW128649   3.057   1.885   5.619  0.4078 -0.1223  0.9973
 5730SOL    HW228650   3.084   1.820   5.484  2.4215  1.5670 -2.7217
 5731SOL     OW28651   2.019   1.118   4.131 -0.4754  0.2267  0.0495
 5731SOL    HW128652   2.106   1.143   4.098 -0.9669 -0.0242 -1.4345
 5731SOL    HW228653   2.031   1.133   4.224 -0.5037  0.6505 -0.0166
 5732SOL     OW28654   3.481   1.848  13.814 -0.2553 -0.2590 -0.5250
 5732SOL    HW128655   3.477   1.890  13.900  1.8422  1.8976 -1.4709
 5732SOL    HW228656   3.460   1.758  13.838 -2.4348  0.8486  1.7428
 5733SOL     OW28657   2.586   0.324   7.798 -0.1302 -0.6898 -0.2541
 5733SOL    HW128658   2.525   0.393   7.772  0.9164  0.8457  1.3961
 5733SOL    HW228659   2.675   0.360   7.795  0.2049 -1.5664 -0.8251
 5734SOL     OW28660   2.503   4.647  10.315 -0.7937  0.1115  0.0797
 5734SOL    HW128661   2.519   0.016  10.345 -0.6661  0.4559 -1.0311
 5734SOL    HW228662   2.455   4.612  10.390 -1.0683  1.5921  0.6039
 5735SOL     OW28663   0.245   2.003   4.772  0.1587  0.0466  0.5652
 5735SOL    HW128664   0.289   2.062   4.711  0.3044 -1.2700 -0.5847
 5735SOL    HW228665   0.224   2.060   4.846 -0.1575 -0.0414  0.5416
 5736SOL     OW28666   2.504   2.489  14.092 -0.2617 -0.3614  0.0399
 5736SOL    HW128667   2.452   2.569  14.099 -0.7829 -0.9684  3.0971
 5736SOL    HW228668   2.430   2.433  14.114  0.3193 -1.3751 -0.5936
 5737SOL     OW28669   0.765   4.157   4.425  0.1610 -0.0487  0.2975
 5737SOL    HW128670   0.711   4.140   4.502  1.9609 -3.2749  0.8550
 5737SOL    HW228671   0.738   4.075   4.383  2.1045 -0.0513 -0.9395
 5738SOL     OW28672   3.392   0.699   0.995  0.2619 -0.0971 -0.1663
 5738SOL    HW128673   3.469   0.746   1.028 -1.8877  2.6314  1.0354
 5738SOL    HW228674   3.428   0.620   0.955  0.3761 -0.6818  1.0820
 5739SOL     OW28675   2.498   4.582   4.515 -0.0201  0.0850 -0.1682
 5739SOL    HW128676   2.490   4.554   4.424  0.7584 -0.6374 -0.0160
 5739SOL    HW228677   2.561   4.525   4.559 -0.0801 -2.0806 -2.8353
 5740SOL     OW28678   1.490   1.568   4.746  0.0437  0.2267 -0.4712
 5740SOL    HW128679   1.493   1.662   4.728  3.1951  0.2056  0.0064
 5740SOL    HW228680   1.512   1.532   4.660  1.8518  3.9463 -1.5680
 5741SOL     OW28681   0.357   3.379   1.278 -0.4401  0.3132  0.9135
 5741SOL    HW128682   0.345   3.470   1.306 -2.8845  0.1548  0.3156
 5741SOL    HW228683   0.406   3.401   1.199 -1.3577  1.5415  0.6985
 5742SOL     OW28684   1.036   1.989  14.198  0.1731  0.0438  0.2042
 5742SOL    HW128685   1.024   2.033  14.114 -1.5842 -1.7099 -0.4613
 5742SOL    HW228686   1.058   2.062  14.256  1.5429  1.0798 -1.6363
 5743SOL     OW28687   1.521   4.145   1.397 -0.1218 -0.3448  0.5963
 5743SOL    HW128688   1.574   4.152   1.317  0.9568 -0.9601  1.2632
 5743SOL    HW228689   1.579   4.096   1.454 -0.7952 -0.7261  0.9574
 5744SOL     OW28690   4.222   0.780   2.661  0.1006 -0.0277 -0.1952
 5744SOL    HW128691   4.252   0.695   2.694  0.3880  0.2418  0.2524
 5744SOL    HW228692   4.183   0.750   2.579 -0.9211  1.8153 -0.3683
 5745SOL     OW28693   1.612   3.751   5.563 -0.3290 -0.2545 -0.3313
 5745SOL    HW128694   1.632   3.681   5.624 -0.0818  2.2887  2.5097
 5745SOL    HW228695   1.679   3.817   5.581  1.8693 -2.3378 -0.8405
 5746SOL     OW28696   0.540   1.604  15.026 -0.0320  0.2446 -0.7074
 5746SOL    HW128697   0.506   1.693  15.026  0.4208  0.4093 -1.7099
 5746SOL    HW228698   0.460   1.553  15.011  0.5304 -0.7435 -0.3289
 5747SOL     OW28699   2.509   3.009  15.920  0.1048  0.5410 -0.4279
 5747SOL    HW128700   2.513   2.968  15.834 -2.8041 -1.1668  0.2411
 5747SOL    HW228701   2.500   2.938  15.984  1.7623  1.5335  0.8962
 5748SOL     OW28702   3.821   1.732   7.083  0.0178  0.0702  0.2282
 5748SOL    HW128703   3.834   1.655   7.028 -3.3076 -0.0785 -0.3595
 5748SOL    HW228704   3.773   1.699   7.159  0.4733 -0.7530  0.1662
 5749SOL     OW28705   3.786   2.947   6.106 -0.3544 -0.2853  0.2724
 5749SOL    HW128706   3.865   2.994   6.133 -0.3374 -1.0088  1.4899
 5749SOL    HW228707   3.789   2.855   6.134  0.9318  0.4834  2.6601
 5750SOL     OW28708   0.730   3.097   6.056  0.7429  0.0961 -0.5810
 5750SOL    HW128709   0.737   3.106   5.961  0.0256 -1.8546 -0.8150
 5750SOL    HW228710   0.743   3.004   6.073 -1.0622 -0.0220  0.0886
 5751SOL     OW28711   2.746   3.366   9.182  0.3638  0.0537 -0.2750
 5751SOL    HW128712   2.667   3.390   9.133  0.9544  0.8669 -0.8155
 5751SOL    HW228713   2.779   3.455   9.194  1.1985 -0.1277 -1.1792
 5752SOL     OW28714   1.527   1.187   3.149  0.0504  0.3446  1.0048
 5752SOL    HW128715   1.552   1.101   3.114 -1.8041  0.2181 -0.0175
 5752SOL    HW228716   1.489   1.214   3.065 -0.2927  0.6279  1.2489
 5753SOL     OW28717   4.327   3.033   4.845  0.1050  0.2313  0.1047
 5753SOL    HW128718   4.233   3.016   4.837  0.4951 -0.9895 -1.9059
 5753SOL    HW228719   4.339   3.100   4.777  0.6499  1.0600  1.0161
 5754SOL     OW28720   3.927   3.037  11.357 -0.2472 -0.2891 -0.2748
 5754SOL    HW128721   3.976   3.090  11.294 -0.3121  0.2841  0.1501
 5754SOL    HW228722   3.885   2.981  11.292  1.0771 -3.2757  1.4320
 5755SOL     OW28723   4.077   1.837  12.422 -0.0323  0.6319  0.2640
 5755SOL    HW128724   4.104   1.913  12.475 -0.0846 -1.2502  2.9823
 5755SOL    HW228725   3.987   1.866  12.406 -0.2477 -0.6959 -0.9237
 5756SOL     OW28726   3.036   3.001   5.225  0.3317  0.4842  0.1277
 5756SOL    HW128727   2.983   2.945   5.169 -2.4132  3.0351  0.2351
 5756SOL    HW228728   3.124   2.999   5.187  0.8938 -0.1864  1.4701
 5757SOL     OW28729   3.143   3.589   0.868 -0.0567  0.6505 -0.2305
 5757SOL    HW128730   3.061   3.634   0.848 -0.0020  0.8363 -0.0395
 5757SOL    HW228731   3.127   3.541   0.949  0.4047 -1.6540 -1.5157
 5758SOL     OW28732   1.651   1.781   3.311 -0.1217  0.2002 -0.0211
 5758SOL    HW128733   1.618   1.770   3.401  1.3123  2.4885  0.7897
 5758SOL    HW228734   1.727   1.724   3.320  0.1458  0.2765 -1.8764
 5759SOL     OW28735   1.614   4.290   4.916  0.4965  0.0075  0.1269
 5759SOL    HW128736   1.594   4.197   4.908  0.4819  0.0437 -0.2388
 5759SOL    HW228737   1.673   4.291   4.841  1.8166  1.7207  1.1662
 5760SOL     OW28738   2.614   4.464   3.929  0.0857  0.6042 -0.0431
 5760SOL    HW128739   2.610   4.441   3.836  0.4564  0.3397  0.0046
 5760SOL    HW228740   2.691   4.412   3.954 -2.5514 -2.5324  1.4780
 5761SOL     OW28741   2.159   0.409   3.174  0.0834 -0.0149 -0.1900
 5761SOL    HW128742   2.218   0.456   3.116  0.8711 -0.0714  0.5637
 5761SOL    HW228743   2.099   0.483   3.187 -0.1186 -0.2730  0.3789
 5762SOL     OW28744   1.741   0.050   6.490 -0.1601 -0.1090  0.4887
 5762SOL    HW128745   1.748   0.013   6.402  0.1555  2.4128 -0.5731
 5762SOL    HW228746   1.735   0.145   6.474 -1.8921 -0.5406 -1.5091
 5763SOL     OW28747   3.523   1.060   7.005 -0.3624 -0.1812  0.2263
 5763SOL    HW128748   3.519   0.995   7.076  0.6368 -0.7070 -0.1893
 5763SOL    HW228749   3.431   1.069   6.981 -0.3870 -0.0429  0.3724
 5764SOL     OW28750   0.103   2.964   9.188 -0.2806  0.7742  0.0809
 5764SOL    HW128751   0.193   2.980   9.161 -0.0333  0.6925  0.8586
 5764SOL    HW228752   0.098   3.012   9.270 -1.5359  1.5691 -0.4721
 5765SOL     OW28753   1.361   2.392   1.641  0.5000  0.4921 -0.1805
 5765SOL    HW128754   1.408   2.459   1.590  0.0974 -0.3057 -1.6035
 5765SOL    HW228755   1.423   2.338   1.690 -1.0041 -0.7707  0.3329
 5766SOL     OW28756   0.751   1.690  13.388 -0.0095  0.2604 -0.2780
 5766SOL    HW128757   0.774   1.600  13.412 -0.5287 -0.1960 -1.5358
 5766SOL    HW228758   0.840   1.726  13.377  0.6128 -1.2640 -0.2156
 5767SOL     OW28759   0.711   4.391   7.320 -0.1804  0.2406  0.0363
 5767SOL    HW128760   0.746   4.431   7.400 -1.6923  2.4170 -0.3737
 5767SOL    HW228761   0.649   4.461   7.297 -0.4942 -0.3460 -0.8804
 5768SOL     OW28762   3.966   2.517   8.835  0.0344 -0.0201  0.1845
 5768SOL    HW128763   4.044   2.493   8.884 -0.4819  1.6922  1.8571
 5768SOL    HW228764   3.900   2.538   8.902  0.8569  0.4879  0.8445
 5769SOL     OW28765   2.402   0.904   1.460 -0.1162 -0.1015  0.0495
 5769SOL    HW128766   2.349   0.825   1.451 -0.5884  0.0780  1.3435
 5769SOL    HW228767   2.426   0.889   1.551 -1.2669  0.1164  0.3817
 5770SOL     OW28768   2.934   0.342   8.666 -0.2524  0.2491 -0.2444
 5770SOL    HW128769   2.909   0.424   8.708  1.3408  1.1795 -1.0896
 5770SOL    HW228770   2.916   0.276   8.733 -0.1176  0.8991  0.4380
 5771SOL     OW28771   1.189   1.472   9.283 -0.2485 -0.4890  0.2882
 5771SOL    HW128772   1.204   1.559   9.246  0.9629 -0.1597  1.5625
 5771SOL    HW228773   1.203   1.497   9.375  2.6403  2.4036 -0.9330
 5772SOL     OW28774   4.061   1.991  11.944  0.6188  0.5630  0.8123
 5772SOL    HW128775   4.122   1.943  11.999  1.6427  1.6775  0.6423
 5772SOL    HW228776   4.017   2.044  12.011 -0.2817 -1.1205  1.5485
 5773SOL     OW28777   1.325   0.581   7.041  0.2280  0.3627 -0.0835
 5773SOL    HW128778   1.306   0.673   7.063 -0.8757  0.6780 -2.3886
 5773SOL    HW228779   1.385   0.600   6.969  0.5409  0.1017  0.1062
 5774SOL     OW28780   2.420   0.792  14.988  0.4257 -0.3747  0.3718
 5774SOL    HW128781   2.358   0.844  15.039  0.9894  1.2961 -0.6230
 5774SOL    HW228782   2.504   0.831  15.011  0.9159 -0.3062 -1.4671
 5775SOL     OW28783   4.389   3.012  13.596 -0.2057  0.2384 -0.1898
 5775SOL    HW128784   4.361   3.081  13.655 -0.5132 -0.6308  0.6787
 5775SOL    HW228785   4.485   3.019  13.597 -0.2789  1.2998 -0.9709
 5776SOL     OW28786   4.282   1.222   2.938  0.3842  0.1754  0.0302
 5776SOL    HW128787   4.292   1.171   2.858 -2.6768  0.5758 -0.5839
 5776SOL    HW228788   4.371   1.255   2.956  0.5727 -0.9507  1.1487
 5777SOL     OW28789   1.843   1.365   3.352 -0.2315  0.3179  0.2044
 5777SOL    HW128790   1.772   1.371   3.289 -2.1678 -1.0206  2.2771
 5777SOL    HW228791   1.882   1.278   3.348  1.7689  1.3503 -2.6733
 5778SOL     OW28792   4.526   4.290   6.524 -0.1445 -0.0288 -0.8034
 5778SOL    HW128793   4.582   4.361   6.493 -2.6368  0.8272 -3.3751
 5778SOL    HW228794   4.541   4.219   6.462 -0.1762 -0.8249  0.0931
 5779SOL     OW28795   0.773   4.567   5.739 -0.7449  0.2225  0.6728
 5779SOL    HW128796   0.703   4.597   5.681 -1.0796  0.6236  1.2895
 5779SOL    HW228797   0.791   4.491   5.684 -1.6877 -0.3788  1.2147
 5780SOL     OW28798   3.438   0.540  15.003 -0.1066  0.3731 -0.0102
 5780SOL    HW128799   3.481   0.614  15.047  0.3559 -0.2685  0.6113
 5780SOL    HW228800   3.371   0.590  14.957  0.8211 -0.0609 -1.8562
 5781SOL     OW28801   3.639   1.000   1.339 -0.3840 -0.6308  0.3018
 5781SOL    HW128802   3.607   0.990   1.428  0.2958  3.7882  1.0176
 5781SOL    HW228803   3.652   1.095   1.343 -1.0858 -0.6214  2.1225
 5782SOL     OW28804   2.644   0.382  12.500 -0.2655  0.1273 -0.0515
 5782SOL    HW128805   2.615   0.471  12.479  2.2468  1.0001  0.1407
 5782SOL    HW228806   2.657   0.392  12.594  0.9792 -2.3318  0.0332
 5783SOL     OW28807   3.597   1.111   4.595 -0.1344  1.0264 -0.1094
 5783SOL    HW128808   3.525   1.075   4.544 -1.2140 -0.1742  2.2610
 5783SOL    HW228809   3.621   1.189   4.545  0.5231 -0.2138 -1.7255
 5784SOL     OW28810   0.977   1.333  16.111 -0.3363  0.2819 -0.5085
 5784SOL    HW128811   0.968   1.409  16.169 -1.1068 -0.4642  0.3705
 5784SOL    HW228812   1.019   1.275  16.175  0.7261  1.9219  0.2593
 5785SOL     OW28813   2.397   2.291   3.022 -0.4604 -0.1968  0.3841
 5785SOL    HW128814   2.319   2.236   3.032  1.0044 -2.1056  1.2444
 5785SOL    HW228815   2.384   2.369   3.077  0.3300 -0.6105  1.1558
 5786SOL     OW28816   2.390   3.586  14.594 -0.4047 -0.2673 -0.3295
 5786SOL    HW128817   2.409   3.574  14.687 -0.9538  0.2581 -0.1483
 5786SOL    HW228818   2.297   3.608  14.601 -0.1831  0.5881 -0.0975
 5787SOL     OW28819   1.538   1.165   4.663 -0.4944 -0.1911 -0.1847
 5787SOL    HW128820   1.560   1.082   4.622 -1.3395  0.1626 -1.3644
 5787SOL    HW228821   1.608   1.172   4.728  0.0019 -0.9114 -0.6545
 5788SOL     OW28822   4.478   0.910   8.505  0.0331 -0.1482 -0.1772
 5788SOL    HW128823   4.433   0.880   8.427 -0.7635 -0.6824  0.4913
 5788SOL    HW228824   4.419   0.882   8.575 -1.5554 -0.9752 -1.8773
 5789SOL     OW28825   3.392   0.381   3.421  0.3170  0.3121 -0.8359
 5789SOL    HW128826   3.431   0.344   3.500  1.6918  0.6216 -1.3745
 5789SOL    HW228827   3.340   0.304   3.400  1.2541 -1.5655  3.6247
 5790SOL     OW28828   0.122   3.345   9.557 -0.4137  0.4078  0.3203
 5790SOL    HW128829   0.036   3.353   9.517 -1.4323 -1.5141  2.1463
 5790SOL    HW228830   0.105   3.391   9.639 -0.4651  1.5879 -0.3382
 5791SOL     OW28831   2.787   1.422   1.732 -0.3357 -0.0440  0.3715
 5791SOL    HW128832   2.869   1.472   1.741 -1.6204  2.0853  0.3587
 5791SOL    HW228833   2.727   1.485   1.691  0.4371 -0.0815 -0.8112
 5792SOL     OW28834   1.717   2.448   4.070 -0.2080 -0.1148  0.1875
 5792SOL    HW128835   1.730   2.523   4.012 -0.8279  0.1543  0.3959
 5792SOL    HW228836   1.753   2.373   4.023  0.3853 -0.0001  0.4607
 5793SOL     OW28837   3.684   2.427   6.383  0.1137  0.0972 -0.4253
 5793SOL    HW128838   3.706   2.488   6.313  1.4589  1.0138  0.7804
 5793SOL    HW228839   3.772   2.422   6.421 -0.0006  0.6395 -0.0925
 5794SOL     OW28840   0.131   3.774  17.012  0.1362 -0.3073 -0.3364
 5794SOL    HW128841   0.224   3.752  17.013  0.2726  0.2700 -0.4340
 5794SOL    HW228842   0.105   3.698  17.063 -1.5655 -0.8532 -1.9720
 5795SOL     OW28843   4.596   2.113   9.146  0.7295 -0.1565 -1.2292
 5795SOL    HW128844   4.501   2.108   9.161  1.2394 -1.2694  1.7464
 5795SOL    HW228845   4.625   2.155   9.227  0.6349 -1.2003 -0.6527
 5796SOL     OW28846   0.043   0.642   0.956  0.2216 -0.0669  0.0268
 5796SOL    HW128847   4.700   0.623   0.887 -1.5616  1.4984  1.2443
 5796SOL    HW228848   0.035   0.562   1.008 -1.2337  0.1459  0.1213
 5797SOL     OW28849   1.443   0.753   3.595  0.1907  0.0555  0.7644
 5797SOL    HW128850   1.534   0.767   3.566  0.9165 -1.6084  2.2734
 5797SOL    HW228851   1.395   0.816   3.542 -0.0204 -1.3777 -0.7452
 5798SOL     OW28852   0.052   1.670   7.637  0.0588  0.4683 -0.0057
 5798SOL    HW128853   0.089   1.660   7.725 -1.0785 -1.8567  0.1984
 5798SOL    HW228854   0.122   1.722   7.597  1.7678 -0.5121  1.6947
 5799SOL     OW28855   3.217   1.769   7.702  1.0845 -0.1145  0.6881
 5799SOL    HW128856   3.292   1.797   7.650 -1.4768  2.6847 -1.5332
 5799SOL    HW228857   3.242   1.796   7.790 -0.4471  0.6414  0.8994
 5800SOL     OW28858   2.543   1.362  12.790  0.0152  0.0731  0.1456
 5800SOL    HW128859   2.490   1.441  12.800  0.2915  0.5521 -2.0491
 5800SOL    HW228860   2.586   1.387  12.708  1.8251  1.5191  1.5412
 5801SOL     OW28861   0.062   3.425   7.268  0.5709  0.2080 -0.1457
 5801SOL    HW128862   0.038   3.516   7.286 -1.4377 -0.4453  0.5138
 5801SOL    HW228863   0.138   3.411   7.325  1.2450  2.6444 -0.4342
 5802SOL     OW28864   2.434   1.952   5.838  0.0580  0.0699 -0.2344
 5802SOL    HW128865   2.433   1.862   5.869  1.7181  0.6231  1.4436
 5802SOL    HW228866   2.510   1.990   5.882 -0.7145 -0.0368  1.1702
 5803SOL     OW28867   2.015   2.147  14.486 -0.3382 -0.3203 -0.0441
 5803SOL    HW128868   2.075   2.074  14.500 -0.5128 -0.9057 -2.3724
 5803SOL    HW228869   2.052   2.202  14.418  0.0625 -0.1452  0.3137
 5804SOL     OW28870   1.283   4.191   1.056  0.2454 -0.1899  0.5058
 5804SOL    HW128871   1.348   4.259   1.041 -2.2077  1.8459 -0.8679
 5804SOL    HW228872   1.208   4.245   1.034 -0.2354 -0.6666  0.9680
 5805SOL     OW28873   1.009   3.931  12.491 -0.7435  0.3311  0.0457
 5805SOL    HW128874   1.048   3.983  12.421 -0.2596 -0.0268  0.0499
 5805SOL    HW228875   1.086   3.897  12.538  0.3687  0.8442 -1.3952
 5806SOL     OW28876   3.251   4.669   2.305  0.1036  0.1051 -0.0825
 5806SOL    HW128877   3.341   4.664   2.273  0.7691  1.8341  1.5070
 5806SOL    HW228878   3.260   4.612   2.381  1.5623 -0.9769 -1.0641
 5807SOL     OW28879   0.759   1.748   6.639 -0.3866 -0.0926 -0.2204
 5807SOL    HW128880   0.705   1.718   6.713 -1.6187  1.2413 -0.5920
 5807SOL    HW228881   0.805   1.829   6.663 -0.7522 -0.3139  1.2684
 5808SOL     OW28882   1.019   1.093  10.425  0.0820 -0.6225  0.3537
 5808SOL    HW128883   1.011   1.186  10.405  1.5943 -0.6898 -0.5231
 5808SOL    HW228884   0.981   1.083  10.512  1.3005  0.2110  0.9729
 5809SOL     OW28885   0.782   4.191   6.272  0.2170  0.2430 -0.2920
 5809SOL    HW128886   0.794   4.099   6.247  3.5419  0.7257 -0.5235
 5809SOL    HW228887   0.717   4.220   6.208  0.3117 -0.5879 -0.7616
 5810SOL     OW28888   0.054   4.278   6.895  0.0264 -0.2250 -0.1533
 5810SOL    HW128889   0.126   4.247   6.950  0.8583 -1.2283 -1.8038
 5810SOL    HW228890   0.089   4.365   6.875  0.0993 -0.8158 -2.5793
 5811SOL     OW28891   4.477   1.216   4.015  0.7575  0.2470  0.4127
 5811SOL    HW128892   4.527   1.161   3.954 -1.6784 -2.4738  0.9042
 5811SOL    HW228893   4.389   1.180   4.015  0.8363  0.0595  1.0656
 5812SOL     OW28894   1.210   3.422   0.191  0.3373 -0.0252  0.1893
 5812SOL    HW128895   1.208   3.391   0.281  0.1604 -0.2703  0.1035
 5812SOL    HW228896   1.203   3.337   0.147 -1.4473 -0.4194  1.2333
 5813SOL     OW28897   0.277   0.791   8.017  0.6106 -0.1604  0.3289
 5813SOL    HW128898   0.346   0.726   8.030  1.5190  0.3476 -1.9335
 5813SOL    HW228899   0.211   0.745   8.069  2.2112 -0.8969  1.6920
 5814SOL     OW28900   1.732   2.172   5.330 -0.6113  0.3210 -0.1494
 5814SOL    HW128901   1.769   2.198   5.246  1.5793 -0.2293  0.6486
 5814SOL    HW228902   1.644   2.149   5.299 -0.9609  0.8216  0.4620
 5815SOL     OW28903   0.842   4.465   1.173  0.0809 -0.2034 -0.4381
 5815SOL    HW128904   0.814   4.429   1.088 -0.2124 -0.4120 -0.2524
 5815SOL    HW228905   0.802   4.551   1.170 -1.0117 -0.7030 -0.3071
 5816SOL     OW28906   2.125   2.243   2.469 -0.3148  0.3552  0.1124
 5816SOL    HW128907   2.162   2.155   2.469  2.6252  1.5879  0.7283
 5816SOL    HW228908   2.130   2.260   2.563 -0.1814  2.9142 -0.3640
 5817SOL     OW28909   3.858   2.317  12.326  0.1019  0.6311  0.0685
 5817SOL    HW128910   3.931   2.364  12.367 -0.7677  1.6593  0.4357
 5817SOL    HW228911   3.785   2.364  12.367 -1.1636  0.0215 -1.4913
 5818SOL     OW28912   4.084   3.832   0.769  0.2380 -0.5688  0.1546
 5818SOL    HW128913   4.015   3.898   0.761 -0.0083 -0.7702  0.6594
 5818SOL    HW228914   4.151   3.870   0.826  0.1825  1.2182 -0.9632
 5819SOL     OW28915   1.858   0.081   3.773 -0.5882  0.3695  0.3520
 5819SOL    HW128916   1.815   0.088   3.859 -1.9145  0.2333 -0.3141
 5819SOL    HW228917   1.867   0.172   3.746 -2.0232  0.8886  1.6225
 5820SOL     OW28918   0.874   3.028   6.540  0.4590  0.1993 -0.2852
 5820SOL    HW128919   0.911   2.940   6.548 -0.7954 -0.2135  1.0564
 5820SOL    HW228920   0.936   3.066   6.479 -0.0523 -0.7640 -1.4140
 5821SOL     OW28921   3.339   2.897   8.918  0.3217  0.8875  0.6988
 5821SOL    HW128922   3.403   2.879   8.987 -1.6161  1.0373  2.5514
 5821SOL    HW228923   3.398   2.923   8.848 -2.5878  3.1737 -0.8748
 5822SOL     OW28924   0.769   4.678   8.053  0.5603 -0.8222 -0.0633
 5822SOL    HW128925   0.755   4.613   8.121 -3.4900  0.7518  0.6016
 5822SOL    HW228926   0.687   4.668   8.005  0.4358  0.4988 -0.1423
 5823SOL     OW28927   1.072   1.031   6.199 -0.2794 -0.1910  0.4169
 5823SOL    HW128928   1.106   0.957   6.149 -1.3225 -0.0209 -0.5187
 5823SOL    HW228929   0.985   1.000   6.224 -0.0150 -0.6915  0.7301
 5824SOL     OW28930   1.783   1.367   5.332  0.0908  0.1538  0.4332
 5824SOL    HW128931   1.767   1.325   5.416  0.6160 -1.3014 -0.1987
 5824SOL    HW228932   1.837   1.293   5.302  0.8031  0.5199  0.8135
 5825SOL     OW28933   3.616   3.878   3.630  0.1465 -0.1184 -0.2764
 5825SOL    HW128934   3.712   3.879   3.633  0.1155 -1.4980  1.4888
 5825SOL    HW228935   3.599   3.852   3.539 -2.2519 -1.0546  0.4446
 5826SOL     OW28936   0.215   2.934  10.917  0.0345 -0.3268 -0.2162
 5826SOL    HW128937   0.217   3.030  10.911  0.4121 -0.2925  0.4714
 5826SOL    HW228938   0.134   2.915  10.870  1.0218  1.5964 -2.7035
 5827SOL     OW28939   4.666   2.877   4.113 -0.1736 -0.0021  0.1725
 5827SOL    HW128940   4.579   2.864   4.073 -0.5044 -0.3750  1.0049
 5827SOL    HW228941   4.674   2.970   4.094 -1.5225 -0.0617 -0.6678
 5828SOL     OW28942   3.934   3.602  17.469  0.6018  0.3408 -0.1189
 5828SOL    HW128943   3.884   3.660  17.526  1.7694  0.2963  0.9823
 5828SOL    HW228944   3.873   3.613  17.397 -0.3170  1.3754  0.8079
 5829SOL     OW28945   1.686   0.483   6.746  0.1502 -0.8947 -0.4864
 5829SOL    HW128946   1.619   0.461   6.681 -0.1384 -3.5191  0.7122
 5829SOL    HW228947   1.697   0.400   6.791  2.6575 -1.0169 -1.3587
 5830SOL     OW28948   4.126   2.962   7.999 -0.0921 -0.6501  0.0061
 5830SOL    HW128949   4.034   2.953   7.974  0.1311 -0.3549 -0.9217
 5830SOL    HW228950   4.158   2.932   7.914 -0.7927  0.5389 -0.6865
 5831SOL     OW28951   4.362   2.550   9.521  0.3082 -0.1664 -0.3070
 5831SOL    HW128952   4.427   2.611   9.555  2.9313 -1.8038 -2.3271
 5831SOL    HW228953   4.290   2.574   9.579  0.7683 -0.4653  0.3836
 5832SOL     OW28954   1.213   4.554   6.599 -0.2799  0.1442 -0.3839
 5832SOL    HW128955   1.288   4.495   6.603 -0.5318 -0.0466  1.5889
 5832SOL    HW228956   1.237   4.624   6.659 -1.3328  0.7107 -0.6321
 5833SOL     OW28957   0.379   0.521  12.923  0.3512 -0.0255  0.1150
 5833SOL    HW128958   0.362   0.613  12.946 -0.4118  0.4216 -2.1353
 5833SOL    HW228959   0.462   0.499  12.964 -0.0274 -0.6091  0.5484
 5834SOL     OW28960   3.663   3.958   8.163 -0.5222 -0.4852  0.1500
 5834SOL    HW128961   3.695   4.040   8.124 -0.3376  0.6073  2.5599
 5834SOL    HW228962   3.719   3.955   8.241 -2.9768  0.2796  1.9370
 5835SOL     OW28963   4.469   2.979   3.814 -0.2811  1.1123 -0.2724
 5835SOL    HW128964   4.495   2.904   3.761  2.0943  0.9458  1.1466
 5835SOL    HW228965   4.527   2.992   3.889 -1.6305 -1.8604  1.2997
 5836SOL     OW28966   1.496   1.462   6.016  0.3760  0.0934 -0.0793
 5836SOL    HW128967   1.419   1.421   6.057 -0.6209  1.0309 -1.0143
 5836SOL    HW228968   1.463   1.538   5.968 -0.8792  1.4693  2.9389
 5837SOL     OW28969   0.024   0.510   1.681  0.2159  0.0018  0.3387
 5837SOL    HW128970   0.032   0.444   1.613 -0.5147  0.8566 -0.5807
 5837SOL    HW228971   0.118   0.525   1.690 -0.0295  0.9491  1.4468
 5838SOL     OW28972   0.768   0.082   1.787 -0.0505 -0.2201  0.0786
 5838SOL    HW128973   0.788   0.011   1.728 -0.0128  0.3866 -0.6378
 5838SOL    HW228974   0.845   0.086   1.844 -1.6296  2.1806  2.0603
 5839SOL     OW28975   2.566   4.412   8.136 -0.0923  0.1083 -0.4242
 5839SOL    HW128976   2.570   4.500   8.098 -0.0470  0.4306  0.3321
 5839SOL    HW228977   2.534   4.372   8.055  0.5016  1.5669 -1.3865
 5840SOL     OW28978   3.849   4.282  10.077 -0.6116 -0.0238  0.2990
 5840SOL    HW128979   3.843   4.372  10.109  1.2794  1.3100 -3.1002
 5840SOL    HW228980   3.944   4.282  10.072 -0.5645  2.2311  0.8198
 5841SOL     OW28981   2.896   2.806   3.255  0.0340  0.4656 -0.1389
 5841SOL    HW128982   2.892   2.900   3.239  2.5810  0.5761 -0.0970
 5841SOL    HW228983   2.967   2.811   3.319 -0.1422  3.6105 -0.1719
 5842SOL     OW28984   1.781   2.824  11.645  0.4828  0.4614 -0.3167
 5842SOL    HW128985   1.857   2.876  11.617  0.1980  0.9264 -0.2385
 5842SOL    HW228986   1.728   2.832  11.566  0.3858 -2.4010 -0.5240
 5843SOL     OW28987   2.450   1.674   3.182  0.1915 -0.4219 -0.1513
 5843SOL    HW128988   2.481   1.691   3.271 -1.9939  2.4780  0.0752
 5843SOL    HW228989   2.526   1.625   3.152  1.1103  0.8299  0.1573
 5844SOL     OW28990   0.570   2.167   9.461 -0.4900  0.1745  0.1007
 5844SOL    HW128991   0.479   2.192   9.446  0.4339  2.4263 -1.7954
 5844SOL    HW228992   0.567   2.071   9.455 -1.1679  0.2654 -1.0871
 5845SOL     OW28993   1.753   1.768  14.078 -0.5737 -0.4289 -0.1635
 5845SOL    HW128994   1.670   1.817  14.075  0.2715  0.8908 -1.9332
 5845SOL    HW228995   1.704   1.687  14.067 -3.4515  1.4102 -1.0656
 5846SOL     OW28996   1.493   0.923   7.285 -0.5808  0.0564 -0.4755
 5846SOL    HW128997   1.434   0.959   7.219 -0.2023 -0.6363 -1.1807
 5846SOL    HW228998   1.465   0.832   7.296 -1.9569  0.1390 -3.2559
 5847SOL     OW28999   3.055   1.547   1.745 -0.6986 -0.2238 -0.3428
 5847SOL    HW129000   3.133   1.597   1.721  0.5116 -2.2900 -0.7668
 5847SOL    HW229001   3.086   1.522   1.832  0.6598 -1.6319 -1.2142
 5848SOL     OW29002   3.444   0.195   5.693 -0.4801 -0.5104 -0.2106
 5848SOL    HW129003   3.474   0.262   5.755 -1.5105  0.7304 -1.0421
 5848SOL    HW229004   3.502   0.204   5.617  0.6044 -1.7950  0.4771
 5849SOL     OW29005   4.117   2.281  11.755 -0.1532 -0.1413 -0.0887
 5849SOL    HW129006   4.043   2.294  11.814  1.1277 -2.0630  1.9554
 5849SOL    HW229007   4.182   2.239  11.811 -0.0594  1.1011  0.7243
 5850SOL     OW29008   4.530   0.481  16.576  0.0029  0.3061  0.3216
 5850SOL    HW129009   4.537   0.575  16.594 -0.0208 -0.1006  2.3604
 5850SOL    HW229010   4.622   0.467  16.552 -0.5427 -0.4716 -1.3789
 5851SOL     OW29011   3.044   1.254  15.406  0.1457  0.4598 -0.5128
 5851SOL    HW129012   3.021   1.286  15.493  0.4506 -0.5606 -0.0560
 5851SOL    HW229013   3.136   1.230  15.420 -0.1236 -1.3992 -1.9528
 5852SOL     OW29014   2.272   2.383   4.081 -0.1703  0.3560 -0.2477
 5852SOL    HW129015   2.294   2.345   3.996  1.9971 -0.5964  0.7394
 5852SOL    HW229016   2.298   2.314   4.142 -0.0207  0.6240 -0.0111
 5853SOL     OW29017   3.169   0.301   5.356  0.2788 -0.4432 -0.2005
 5853SOL    HW129018   3.137   0.351   5.281 -1.7786 -2.3437 -0.5980
 5853SOL    HW229019   3.145   0.215   5.320  0.8128 -0.5942 -0.1918
 5854SOL     OW29020   0.112   0.467  17.077 -0.4429  0.0373  0.0033
 5854SOL    HW129021   0.056   0.477  17.001  1.0954 -1.0067 -1.2534
 5854SOL    HW229022   0.102   0.374  17.097  0.0346  0.2277  1.1864
 5855SOL     OW29023   4.530   3.186   5.962 -0.0625 -0.0176 -0.3426
 5855SOL    HW129024   4.445   3.224   5.984 -0.4097 -2.1372  1.9866
 5855SOL    HW229025   4.501   3.097   5.946 -0.5147 -0.1871  1.3447
 5856SOL     OW29026   4.436   0.944   4.362  0.0871 -0.5678 -0.4252
 5856SOL    HW129027   4.351   0.963   4.321  0.7265 -0.0675 -1.5355
 5856SOL    HW229028   4.489   0.924   4.285  0.9288 -2.0778  0.5496
 5857SOL     OW29029   2.633   1.791   1.274 -0.2256  0.5059  0.2235
 5857SOL    HW129030   2.577   1.855   1.229 -0.6209  1.2837  1.8142
 5857SOL    HW229031   2.580   1.712   1.272  1.9534 -0.8764 -2.0549
 5858SOL     OW29032   3.319   3.238   4.844 -0.2580  0.1630  0.1268
 5858SOL    HW129033   3.316   3.287   4.927 -0.2634 -1.4087  1.0673
 5858SOL    HW229034   3.398   3.266   4.799 -0.4000 -0.3672 -0.4433
 5859SOL     OW29035   4.270   2.139   8.059  0.0506 -0.1046 -0.1529
 5859SOL    HW129036   4.265   2.114   7.967 -0.5104 -3.4423  0.7628
 5859SOL    HW229037   4.307   2.227   8.057 -0.6200  0.1819 -0.1917
 5860SOL     OW29038   1.614   0.123   4.022 -0.3467  0.1639 -0.3005
 5860SOL    HW129039   1.616   0.214   3.993  1.7854  0.1072 -0.3572
 5860SOL    HW229040   1.520   0.104   4.017 -0.5782  1.1271  0.4481
 5861SOL     OW29041   3.519   2.693   6.440 -0.1294  0.3436 -0.3821
 5861SOL    HW129042   3.602   2.724   6.475 -1.3399  1.3203  1.6735
 5861SOL    HW229043   3.550   2.604   6.425  0.7100  0.7126 -0.7902
 5862SOL     OW29044   3.116   3.768   6.112  0.1309  0.0034 -0.2712
 5862SOL    HW129045   3.157   3.748   6.196 -1.1815 -0.2314  0.2986
 5862SOL    HW229046   3.036   3.799   6.153 -0.1953 -1.6946  0.3590
 5863SOL     OW29047   2.700   3.487  13.337 -0.0305  0.1066  0.1123
 5863SOL    HW129048   2.618   3.478  13.386  1.3711  0.0012  2.4299
 5863SOL    HW229049   2.706   3.394  13.315  1.5763 -0.1504  1.6122
 5864SOL     OW29050   2.683   3.564   4.773  0.3286  0.0462 -0.1402
 5864SOL    HW129051   2.635   3.630   4.825  0.0612  0.4017 -0.8374
 5864SOL    HW229052   2.660   3.484   4.820 -1.1737  0.8912  0.5965
 5865SOL     OW29053   0.230   0.770   4.146 -0.4341 -0.0898  0.3962
 5865SOL    HW129054   0.263   0.684   4.173 -0.5772 -0.4106 -0.4776
 5865SOL    HW229055   0.296   0.777   4.078  1.4837 -0.6874  2.1877
 5866SOL     OW29056   0.933   1.153  13.707  0.3879  0.3800 -0.0336
 5866SOL    HW129057   0.903   1.164  13.797 -1.6438 -1.2888 -0.4904
 5866SOL    HW229058   0.934   1.245  13.680  0.3686 -0.8685 -4.3388
 5867SOL     OW29059   4.612   4.063   3.797  0.2385 -0.4457 -0.3127
 5867SOL    HW129060   4.672   4.122   3.842 -2.1826  1.3653  0.5620
 5867SOL    HW229061   4.628   3.984   3.849 -1.2133 -0.6831 -0.2039
 5868SOL     OW29062   3.906   4.105   4.084 -0.1804 -0.3291 -0.0826
 5868SOL    HW129063   3.887   4.191   4.122  0.6875 -1.0441  1.9830
 5868SOL    HW229064   3.843   4.044   4.122  0.0309 -1.2435 -1.2000
 5869SOL     OW29065   3.832   3.562   4.385 -0.8933  0.8942 -0.1545
 5869SOL    HW129066   3.915   3.534   4.422 -0.8835  1.5276  0.2977
 5869SOL    HW229067   3.773   3.488   4.398 -0.3337  0.4838 -0.0059
 5870SOL     OW29068   2.304   0.220   0.678  0.4909  0.2351 -0.3791
 5870SOL    HW129069   2.286   0.128   0.697  3.0671 -0.0293  0.7670
 5870SOL    HW229070   2.243   0.265   0.736  0.2277 -0.0863 -0.4093
 5871SOL     OW29071   1.333   2.308  10.719 -0.0177  0.7651  1.1434
 5871SOL    HW129072   1.423   2.339  10.725  0.6332 -1.0752  0.9275
 5871SOL    HW229073   1.339   2.217  10.747  0.3282  0.9477  1.6616
 5872SOL     OW29074   0.146   4.057   1.762 -0.8170 -0.0582  0.1841
 5872SOL    HW129075   0.066   4.100   1.731  0.1878 -0.1286 -2.4894
 5872SOL    HW229076   0.206   4.094   1.698  0.3829 -0.0362  1.3051
 5873SOL     OW29077   4.291   2.759  11.839 -0.1317  0.1743 -0.2759
 5873SOL    HW129078   4.213   2.807  11.869 -0.5334 -0.6549  0.0216
 5873SOL    HW229079   4.342   2.789  11.914 -0.9928 -1.7353  1.1037
 5874SOL     OW29080   0.086   4.080   7.977  0.1087  0.1726  0.0590
 5874SOL    HW129081   0.101   4.040   7.891 -2.1173  0.1746 -0.3370
 5874SOL    HW229082   4.713   4.100   7.979 -0.0634 -0.5713 -0.7749
 5875SOL     OW29083   0.387   2.390   8.805 -0.1419  0.0785 -0.6197
 5875SOL    HW129084   0.397   2.449   8.880 -0.6873  0.2017 -0.6419
 5875SOL    HW229085   0.293   2.380   8.790 -0.2882  0.4732  0.0071
 5876SOL     OW29086   1.587   3.154  17.436 -0.6719  0.8405 -0.0669
 5876SOL    HW129087   1.601   3.102  17.357  2.3284  0.0934  0.9866
 5876SOL    HW229088   1.649   3.225  17.421 -1.1254  1.3744  0.5797
 5877SOL     OW29089   4.434   1.033  13.318  0.2030 -0.6573  0.3465
 5877SOL    HW129090   4.482   1.086  13.382 -0.9211  1.1619 -0.3193
 5877SOL    HW229091   4.414   0.961  13.379 -1.5418  0.2021  0.7787
 5878SOL     OW29092   3.626   1.045  16.541 -0.4875 -0.2083  0.1311
 5878SOL    HW129093   3.716   1.036  16.571 -0.4131  0.7740  0.2164
 5878SOL    HW229094   3.583   1.018  16.622 -0.7458  0.3783  0.1933
 5879SOL     OW29095   0.828   1.038   9.880 -0.6265  0.2871  0.2004
 5879SOL    HW129096   0.759   0.991   9.832  0.2612 -1.2350  0.4308
 5879SOL    HW229097   0.779   1.054   9.961  0.3021  0.0211  0.8118
 5880SOL     OW29098   0.724   0.020   8.701 -0.4907  0.3710 -0.3928
 5880SOL    HW129099   0.716   0.115   8.707 -0.4535  0.4423 -1.4014
 5880SOL    HW229100   0.788   0.004   8.770  0.4094  0.0057 -1.3173
 5881SOL     OW29101   0.977   1.640   8.971 -0.5092 -0.0388 -0.3621
 5881SOL    HW129102   0.889   1.614   8.997 -0.4115 -0.7132 -0.7037
 5881SOL    HW229103   0.964   1.640   8.876  0.6804 -0.1366 -0.5254
 5882SOL     OW29104   3.698   3.228  11.380  0.1165 -0.5245  0.4352
 5882SOL    HW129105   3.726   3.319  11.370 -0.4569 -0.4671 -0.6375
 5882SOL    HW229106   3.755   3.185  11.316  0.7267 -0.5907  1.0182
 5883SOL     OW29107   3.591   0.590   2.797  0.1390 -0.0182  0.3196
 5883SOL    HW129108   3.507   0.621   2.765 -0.5602  0.6193  2.8081
 5883SOL    HW229109   3.564   0.565   2.885 -1.0433  1.1435  0.2795
 5884SOL     OW29110   3.119   2.670  14.447 -0.0852  0.3327 -0.4235
 5884SOL    HW129111   3.134   2.639  14.536 -0.1488  1.1043 -0.1497
 5884SOL    HW229112   3.052   2.604  14.429  1.5413 -1.4705  0.1433
 5885SOL     OW29113   2.165   3.468  16.538 -0.0888 -0.6358 -0.0983
 5885SOL    HW129114   2.122   3.386  16.564 -0.8752  0.0623  0.8122
 5885SOL    HW229115   2.227   3.489  16.608 -0.7701  1.7053 -0.2167
 5886SOL     OW29116   2.767   0.389   6.367  0.5941 -0.0188 -0.1805
 5886SOL    HW129117   2.779   0.344   6.451  1.8655 -1.2028 -1.0030
 5886SOL    HW229118   2.749   0.315   6.309 -0.6382 -0.6566  1.0279
 5887SOL     OW29119   1.649   1.166   1.176  0.3262 -0.7629 -0.4886
 5887SOL    HW129120   1.727   1.208   1.212  0.1166 -1.9187  1.3193
 5887SOL    HW229121   1.635   1.218   1.097 -1.2501  0.6236  0.6960
 5888SOL     OW29122   0.360   4.649   3.713 -0.3432 -0.5279  0.1929
 5888SOL    HW129123   0.393   4.659   3.802 -0.2155 -0.8028  0.1753
 5888SOL    HW229124   0.363   4.554   3.702 -2.8375 -0.4544 -1.1788
 5889SOL     OW29125   3.201   3.002   1.392  0.3889 -0.3217 -0.2712
 5889SOL    HW129126   3.221   2.935   1.457  0.1660  1.6073  1.7849
 5889SOL    HW229127   3.179   3.078   1.446 -0.0113 -0.1020 -0.7426
 5890SOL     OW29128   0.348   4.076  10.961  0.3167  0.2676 -0.0888
 5890SOL    HW129129   0.371   3.989  10.992 -1.5902  0.6828  2.5341
 5890SOL    HW229130   0.345   4.052  10.869  2.5275  0.1012 -0.1281
 5891SOL     OW29131   0.299   3.767   4.453  0.1776  0.5391 -0.1111
 5891SOL    HW129132   0.385   3.808   4.446  0.6613 -0.4053  0.1423
 5891SOL    HW229133   0.245   3.841   4.480 -2.0802 -1.1213 -0.0436
 5892SOL     OW29134   1.873   2.891   8.073 -0.2787  0.1261 -0.5276
 5892SOL    HW129135   1.897   2.802   8.098  0.9338  0.7393  0.5555
 5892SOL    HW229136   1.784   2.865   8.051  1.1605 -1.9541 -3.8987
 5893SOL     OW29137   3.174   0.639   2.959  0.1250  0.0659  0.6121
 5893SOL    HW129138   3.162   0.588   2.878 -2.5174  0.5681  0.6876
 5893SOL    HW229139   3.246   0.598   3.007 -1.4008 -0.3059  2.5837
 5894SOL     OW29140   0.113   2.343   6.944  0.2486  0.4236  0.2613
 5894SOL    HW129141   0.098   2.418   7.002 -2.4701  1.1746 -1.4116
 5894SOL    HW229142   0.047   2.363   6.877 -0.2320 -0.1077  0.5669
 5895SOL     OW29143   1.731   3.493   6.747 -0.0814  0.2720  0.4476
 5895SOL    HW129144   1.786   3.495   6.669  0.8248 -0.9091  1.0552
 5895SOL    HW229145   1.686   3.577   6.741 -2.5416 -0.9965  1.0736
 5896SOL     OW29146   2.070   1.249   2.949  0.0458 -0.1650 -0.5666
 5896SOL    HW129147   1.975   1.259   2.957  0.0376  0.3183 -1.2195
 5896SOL    HW229148   2.079   1.162   2.988  1.6310 -1.5282 -4.0114
 5897SOL     OW29149   3.985   3.995   6.683  0.5083 -0.4539 -0.1178
 5897SOL    HW129150   4.055   4.001   6.748 -0.3953  2.1918  0.6067
 5897SOL    HW229151   3.913   4.037   6.730 -1.0254 -2.7283 -0.4302
 5898SOL     OW29152   3.810   3.381  15.868  0.0667 -0.3241 -0.0091
 5898SOL    HW129153   3.822   3.476  15.872 -1.1145 -0.0909 -1.8649
 5898SOL    HW229154   3.882   3.349  15.813  0.3686 -0.4272  0.4548
 5899SOL     OW29155   3.997   2.397   5.610  0.5061 -0.4640  0.1380
 5899SOL    HW129156   4.024   2.306   5.599 -0.6001 -0.5470 -1.9293
 5899SOL    HW229157   3.923   2.392   5.670 -1.2364 -0.3049 -1.9822
 5900SOL     OW29158   0.054   3.321   8.252 -0.2185  0.6566 -0.0240
 5900SOL    HW129159   0.121   3.389   8.252 -0.7174  1.1496  0.7897
 5900SOL    HW229160   0.096   3.241   8.280 -2.8991 -0.0663  1.9274
 5901SOL     OW29161   1.300   1.611  16.101  0.2118 -0.0074  0.9958
 5901SOL    HW129162   1.316   1.632  16.193  1.4557 -1.5320  1.1426
 5901SOL    HW229163   1.254   1.693  16.086  0.7398  0.0074 -0.5721
 5902SOL     OW29164   4.047   0.542   6.751 -0.2519 -0.8322 -0.7200
 5902SOL    HW129165   4.041   0.449   6.773 -1.8095  0.0514  2.5467
 5902SOL    HW229166   3.956   0.545   6.725  0.8746 -0.2791 -4.5177
 5903SOL     OW29167   3.178   1.815   6.248  0.1127 -0.2307  0.6197
 5903SOL    HW129168   3.087   1.800   6.223  0.4334 -1.6401  0.3012
 5903SOL    HW229169   3.223   1.801   6.164 -0.3785  0.6633  0.2037
 5904SOL     OW29170   0.431   1.897   6.133 -0.3890 -0.6115 -0.1098
 5904SOL    HW129171   0.348   1.865   6.168 -1.2033  1.7778  0.0977
 5904SOL    HW229172   0.400   1.985   6.114  0.7205 -0.2288 -0.1507
 5905SOL     OW29173   0.222   1.552  13.215  0.6084 -0.5647 -1.0272
 5905SOL    HW129174   0.265   1.517  13.292 -1.5513  0.2807  0.5635
 5905SOL    HW229175   0.130   1.528  13.226  0.8541 -1.3133 -0.6069
 5906SOL     OW29176   0.891   0.572  11.751 -0.2979 -0.1997 -0.1547
 5906SOL    HW129177   0.808   0.523  11.753 -1.2352  1.2729 -3.7604
 5906SOL    HW229178   0.955   0.507  11.780 -1.6216 -0.1534  2.9252
 5907SOL     OW29179   4.226   2.471   9.081 -0.7467 -0.1704  0.3768
 5907SOL    HW129180   4.244   2.562   9.103  0.8681 -1.0230  2.4982
 5907SOL    HW229181   4.290   2.428   9.137 -0.4138 -0.9625 -0.6182
 5908SOL     OW29182   4.475   2.065   7.646  0.2378  0.0781 -0.3886
 5908SOL    HW129183   4.546   2.020   7.693 -1.4406 -0.5076  1.5860
 5908SOL    HW229184   4.528   2.136   7.610 -0.8369  1.4532  0.7261
 5909SOL     OW29185   2.773   0.785   3.203 -0.2094 -0.0252  0.1493
 5909SOL    HW129186   2.817   0.824   3.278  1.1857 -1.3275  0.0037
 5909SOL    HW229187   2.838   0.716   3.189  0.2277  0.6466 -1.1979
 5910SOL     OW29188   1.224   3.825   2.879  0.1285  0.0864  0.1472
 5910SOL    HW129189   1.291   3.887   2.908 -0.9843  0.7659  1.2241
 5910SOL    HW229190   1.153   3.844   2.939 -1.3912 -0.5948 -1.4318
 5911SOL     OW29191   2.378   0.671   6.023  0.3062  0.1280 -0.8086
 5911SOL    HW129192   2.410   0.609   6.088 -0.4926  1.8811  1.2479
 5911SOL    HW229193   2.349   0.743   6.079 -1.2277 -0.7273 -0.5200
 5912SOL     OW29194   0.642   0.749   2.298 -0.4646 -0.1323  0.0691
 5912SOL    HW129195   0.721   0.723   2.345  1.3091  0.5340 -2.5486
 5912SOL    HW229196   0.675   0.824   2.249  2.3060 -1.0051  0.6044
 5913SOL     OW29197   4.271   2.087   3.753  0.1998 -0.0602  0.1629
 5913SOL    HW129198   4.259   2.061   3.844  3.0019  0.5651  0.6977
 5913SOL    HW229199   4.334   2.021   3.725  1.0143  1.0278 -0.6032
 5914SOL     OW29200   1.239   0.103   8.424  0.1670  0.5618 -0.1837
 5914SOL    HW129201   1.171   0.138   8.481  0.5568 -0.1854  0.7273
 5914SOL    HW229202   1.249   0.180   8.367 -1.0859 -0.8782 -2.3298
 5915SOL     OW29203   3.933   3.947   1.907 -0.3141 -0.8776 -0.0507
 5915SOL    HW129204   3.966   3.934   1.818  0.4785  2.2699 -0.2209
 5915SOL    HW229205   3.958   3.870   1.958 -1.3239 -1.2587 -0.1162
 5916SOL     OW29206   1.041   2.995   8.020 -0.2421  0.2755  0.1009
 5916SOL    HW129207   0.975   2.993   8.089 -0.4359 -2.2808 -0.1544
 5916SOL    HW229208   0.987   2.964   7.947 -0.0908  0.3994 -0.0639
 5917SOL     OW29209   3.823   0.577   4.169 -0.9839 -0.3028  0.3701
 5917SOL    HW129210   3.764   0.540   4.103 -0.9867 -0.8632  0.6894
 5917SOL    HW229211   3.826   0.507   4.235  0.9496 -0.9486 -0.3859
 5918SOL     OW29212   0.050   2.088   5.941 -0.4427 -0.7205  0.0247
 5918SOL    HW129213   0.013   2.099   5.853 -0.2083 -2.2014 -0.2592
 5918SOL    HW229214   4.692   2.044   5.973 -0.4600 -0.7007  0.0094
 5919SOL     OW29215   3.815   4.650   1.282 -1.0643  0.3418  0.1020
 5919SOL    HW129216   3.856   4.684   1.202 -0.3886 -1.0071 -0.1300
 5919SOL    HW229217   3.827   0.006   1.337  0.6836 -0.8396  1.3659
 5920SOL     OW29218   2.134   2.052   2.130 -0.1644 -0.0012 -0.2379
 5920SOL    HW129219   2.208   2.021   2.078  1.1196 -0.1889  1.6880
 5920SOL    HW229220   2.061   2.007   2.088  1.7298 -0.8434 -2.6498
 5921SOL     OW29221   0.813   4.024   9.470  0.0442  0.2801 -0.6019
 5921SOL    HW129222   0.784   4.115   9.474  1.9736  0.8282  0.4984
 5921SOL    HW229223   0.895   4.046   9.427 -0.1759  0.6325 -0.8473
 5922SOL     OW29224   0.341   0.060   9.117 -0.5318  0.2711 -0.9675
 5922SOL    HW129225   0.261   0.036   9.070 -1.2424  0.6601  0.0241
 5922SOL    HW229226   0.413   0.008   9.083 -1.1302  0.2861 -2.2627
 5923SOL     OW29227   0.554   0.219   7.964 -0.1845  0.3189  0.2663
 5923SOL    HW129228   0.488   0.173   7.911 -0.0064 -2.3215  2.3493
 5923SOL    HW229229   0.629   0.220   7.904 -1.8956  0.9287 -1.9006
 5924SOL     OW29230   2.104   0.617   3.406  0.2675 -0.6836  0.7015
 5924SOL    HW129231   2.088   0.564   3.484 -0.8556 -0.3558  0.6877
 5924SOL    HW229232   2.191   0.651   3.430 -0.0102 -0.4292  1.3499
 5925SOL     OW29233   2.956   0.133   7.341 -0.1418 -0.1776 -0.1162
 5925SOL    HW129234   2.983   0.043   7.360 -0.8840  0.0132  1.8447
 5925SOL    HW229235   2.894   0.117   7.270 -1.9741 -0.5577  1.5612
 5926SOL     OW29236   0.168   2.233   8.497 -0.3066  0.3556 -0.2451
 5926SOL    HW129237   0.100   2.261   8.436 -0.6637  0.0155 -0.0024
 5926SOL    HW229238   0.236   2.300   8.492 -0.3349  0.4160  0.1737
 5927SOL     OW29239   0.751   1.380   2.301  0.1673  0.1681 -0.1909
 5927SOL    HW129240   0.829   1.396   2.247  1.5456 -1.4566  1.2924
 5927SOL    HW229241   0.758   1.445   2.371  0.7563  1.8369 -1.7996
 5928SOL     OW29242   2.119   0.385   7.468 -0.7349  0.3333 -0.3867
 5928SOL    HW129243   2.119   0.359   7.560  0.7684  1.6942  0.0035
 5928SOL    HW229244   2.149   0.310   7.416 -1.3392 -0.0260 -0.2102
 5929SOL     OW29245   0.391   4.316   4.409 -0.8357  0.1396  0.4335
 5929SOL    HW129246   0.320   4.295   4.349 -0.1047 -0.4936 -0.2120
 5929SOL    HW229247   0.339   4.341   4.485 -1.6856  0.0331 -0.1196
 5930SOL     OW29248   3.252   2.578   5.922 -0.2299 -0.3386  0.2607
 5930SOL    HW129249   3.231   2.666   5.891 -1.7686  0.4273  3.4814
 5930SOL    HW229250   3.290   2.548   5.840  0.8062  1.5386  0.0485
 5931SOL     OW29251   2.358   3.582   4.608 -0.5766 -0.0198  0.1859
 5931SOL    HW129252   2.326   3.606   4.695 -0.9549  1.4832 -0.3760
 5931SOL    HW229253   2.388   3.493   4.628 -0.0785 -0.1110 -0.9597
 5932SOL     OW29254   3.946   4.447   0.479 -0.4968 -0.1693 -0.8752
 5932SOL    HW129255   3.853   4.463   0.463 -0.0398  4.4681  0.9888
 5932SOL    HW229256   3.979   4.519   0.532  0.1640 -1.5239  0.5491
 5933SOL     OW29257   3.282   3.018   0.877  0.8547 -0.5161  0.1349
 5933SOL    HW129258   3.288   2.937   0.927 -0.8998 -1.3490 -1.0450
 5933SOL    HW229259   3.323   3.073   0.944  0.9111  0.4718 -0.7045
 5934SOL     OW29260   3.490   0.731   0.105  0.7353  0.2113 -0.3238
 5934SOL    HW129261   3.524   0.708   0.019 -1.0992 -1.3787 -0.6281
 5934SOL    HW229262   3.566   0.745   0.161  0.0348  0.2890  0.6032
 5935SOL     OW29263   2.171   4.004  15.587 -0.3930  0.0664 -0.4739
 5935SOL    HW129264   2.188   3.932  15.527  1.8387 -0.4541  0.7653
 5935SOL    HW229265   2.077   4.013  15.605  0.2244  0.5727  2.5705
 5936SOL     OW29266   4.101   2.747   7.424 -0.3839  0.0957 -0.7222
 5936SOL    HW129267   4.032   2.714   7.482  0.1510 -1.1640 -0.7939
 5936SOL    HW229268   4.168   2.693   7.467  0.5172  0.0660 -2.1648
 5937SOL     OW29269   4.004   4.040   8.169 -0.1520 -0.8999 -0.3025
 5937SOL    HW129270   3.976   3.989   8.094 -3.7592  0.7946 -0.1344
 5937SOL    HW229271   4.060   4.102   8.122 -0.6654  1.6766  2.3963
 5938SOL     OW29272   1.354   0.546   4.689  0.1600 -0.0917  0.1964
 5938SOL    HW129273   1.332   0.459   4.656 -0.7572  0.5491 -0.8739
 5938SOL    HW229274   1.282   0.555   4.751 -0.5664 -1.3079 -0.4644
 5939SOL     OW29275   0.909   3.986  13.852  0.2437  0.2237  0.2310
 5939SOL    HW129276   0.859   4.001  13.933 -0.8850  1.5161 -0.7125
 5939SOL    HW229277   0.988   4.040  13.854  0.4302 -0.0910  1.5199
 5940SOL     OW29278   4.367   2.693   4.366  0.1087 -0.0599  1.2869
 5940SOL    HW129279   4.438   2.756   4.377 -0.1033  0.1955  1.2068
 5940SOL    HW229280   4.365   2.640   4.446  1.6878 -1.5588  0.3168
 5941SOL     OW29281   2.466   0.313   4.356  0.5488  0.1588  0.0134
 5941SOL    HW129282   2.399   0.260   4.312  1.5665 -0.7158 -0.4747
 5941SOL    HW229283   2.414   0.364   4.418  1.8461 -0.3174  1.4805
 5942SOL     OW29284   4.350   1.058   1.767 -0.1792  0.2398 -0.6611
 5942SOL    HW129285   4.257   1.045   1.782  0.0884  0.9670  1.6237
 5942SOL    HW229286   4.382   1.046   1.857  1.8756 -0.4484 -1.4748
 5943SOL     OW29287   2.007   0.605   3.029 -0.0036  0.3084  0.3604
 5943SOL    HW129288   1.940   0.555   2.982 -0.0632 -0.8974  1.7346
 5943SOL    HW229289   2.076   0.596   2.963 -1.2545 -2.4495 -0.5578
 5944SOL     OW29290   0.235   2.332   5.812  0.1188  0.1011  0.5053
 5944SOL    HW129291   0.232   2.401   5.746 -1.2091  1.7364  2.3224
 5944SOL    HW229292   0.330   2.315   5.807 -0.0059 -0.8282  1.1897
 5945SOL     OW29293   1.778   2.911   2.125 -0.1213  0.2468 -1.2582
 5945SOL    HW129294   1.697   2.897   2.076 -0.5000 -0.1356 -0.5089
 5945SOL    HW229295   1.783   3.005   2.143 -3.2598  0.4771 -1.6240
 5946SOL     OW29296   1.204   4.586   7.469 -0.2771  0.0440 -0.3639
 5946SOL    HW129297   1.255   4.542   7.537  0.5452  0.5325 -0.6726
 5946SOL    HW229298   1.113   4.559   7.483 -0.9574  2.7551  0.3270
 5947SOL     OW29299   2.935   1.940  10.078 -0.2479 -0.3864  0.2247
 5947SOL    HW129300   2.878   1.871  10.113 -0.7499 -0.5795 -0.9582
 5947SOL    HW229301   2.900   2.018  10.121  0.6818  1.4195 -2.3248
 5948SOL     OW29302   2.311   1.072  11.412  0.0189  0.1084 -0.4182
 5948SOL    HW129303   2.327   0.984  11.447 -0.6987 -0.5701 -1.7936
 5948SOL    HW229304   2.218   1.075  11.390  0.0051 -5.2251 -1.2394
 5949SOL     OW29305   0.856   3.525   3.705 -0.5993 -0.2953  0.1681
 5949SOL    HW129306   0.913   3.565   3.770 -2.3679  1.0387  0.9121
 5949SOL    HW229307   0.858   3.590   3.635 -1.5685 -1.7232 -1.1948
 5950SOL     OW29308   0.223   0.303  12.842  0.4580  0.7474 -0.2552
 5950SOL    HW129309   0.260   0.379  12.886  0.0992 -0.6796  2.5738
 5950SOL    HW229310   0.255   0.314  12.753  0.6607  0.0132 -0.2809
 5951SOL     OW29311   0.147   1.473   8.607 -0.0740 -0.3825 -0.2586
 5951SOL    HW129312   0.073   1.477   8.667  0.4230  0.1970  0.3090
 5951SOL    HW229313   0.113   1.521   8.531 -2.6168 -0.8285  0.6160
 5952SOL     OW29314   4.185   1.867   4.057 -0.1075 -0.4642 -0.3807
 5952SOL    HW129315   4.178   1.821   3.973 -1.1430 -0.0972 -0.4991
 5952SOL    HW229316   4.257   1.817   4.093 -0.1199 -1.0340 -1.1304
 5953SOL     OW29317   1.150   2.289   9.373  0.2894 -0.2362 -0.2704
 5953SOL    HW129318   1.237   2.272   9.409  1.5179  4.6047 -1.0445
 5953SOL    HW229319   1.115   2.200   9.376 -0.4739  0.0777  0.3213
 5954SOL     OW29320   2.317   4.221   5.833 -0.4478  0.4463  0.0557
 5954SOL    HW129321   2.225   4.194   5.840 -0.2624  0.1434  1.3147
 5954SOL    HW229322   2.362   4.194   5.753 -0.2885 -4.5734  1.8321
 5955SOL     OW29323   2.485   2.133   1.834 -0.1044 -0.1516  0.0527
 5955SOL    HW129324   2.459   2.212   1.881  0.6950 -0.7877  1.5882
 5955SOL    HW229325   2.457   2.148   1.744  0.4116 -0.4027 -0.1483
 5956SOL     OW29326   1.116   4.071  12.223  0.0364 -0.0040 -0.7164
 5956SOL    HW129327   1.118   4.064  12.127 -1.3644 -1.5782 -0.6165
 5956SOL    HW229328   1.023   4.060  12.242 -0.1228 -1.7148 -2.5070
 5957SOL     OW29329   1.216   3.775   3.825 -0.6225 -0.0347  0.4901
 5957SOL    HW129330   1.294   3.744   3.780  0.1625  2.3858  0.1411
 5957SOL    HW229331   1.175   3.697   3.861 -2.3197  2.3806  3.8185
 5958SOL     OW29332   1.649   1.720   1.883 -0.4056 -0.3338  0.5975
 5958SOL    HW129333   1.704   1.740   1.959  0.8483 -1.7371  0.0740
 5958SOL    HW229334   1.710   1.709   1.810 -1.7911 -2.0138 -0.3089
 5959SOL     OW29335   2.779   4.635   5.171 -0.2796  0.2260  0.2186
 5959SOL    HW129336   2.729   4.636   5.253 -0.3213 -0.2232  0.2002
 5959SOL    HW229337   2.842   4.703   5.191 -2.2495  2.2633 -0.5205
 5960SOL     OW29338   1.068   1.434  16.542  0.1236  0.2386 -0.7091
 5960SOL    HW129339   1.162   1.427  16.523  0.5387  1.0443  0.9673
 5960SOL    HW229340   1.036   1.493  16.474 -0.9024  0.7602  0.2325
 5961SOL     OW29341   3.991   1.804   5.087  0.1433  0.1691 -0.5188
 5961SOL    HW129342   4.004   1.716   5.050 -1.5084 -1.1409  1.9815
 5961SOL    HW229343   4.068   1.846   5.050  0.3946  0.8435  0.7737
 5962SOL     OW29344   0.083   0.784   4.410  0.7738 -0.4088  0.1913
 5962SOL    HW129345   0.006   0.753   4.364 -0.0022  1.1738  0.4206
 5962SOL    HW229346   0.153   0.769   4.347  1.1965 -0.5402  0.6862
 5963SOL     OW29347   0.956   1.257   9.804 -0.1758 -0.1242  0.8115
 5963SOL    HW129348   1.001   1.265   9.888  0.9395  0.8183  0.1154
 5963SOL    HW229349   0.902   1.183   9.834 -0.5338 -0.7335 -1.3206
 5964SOL     OW29350   1.405   4.115   7.987 -0.2106  0.1006  0.6028
 5964SOL    HW129351   1.410   4.127   8.082  2.5352  0.6924  0.3778
 5964SOL    HW229352   1.498   4.113   7.966 -0.1350  0.9869  0.8890
 5965SOL     OW29353   1.847   2.803   1.451  0.4224  0.1608  0.7291
 5965SOL    HW129354   1.901   2.823   1.374 -1.0672  1.1703 -0.0449
 5965SOL    HW229355   1.774   2.865   1.454 -0.3587 -0.7849  1.2273
 5966SOL     OW29356   2.441   3.665   2.736  0.3251  0.2504  0.2584
 5966SOL    HW129357   2.438   3.608   2.659  2.1309  1.7846 -0.9452
 5966SOL    HW229358   2.364   3.632   2.782  0.6450 -0.9554 -0.0596
 5967SOL     OW29359   2.116   4.296  11.770 -0.3030 -1.0007  0.0062
 5967SOL    HW129360   2.058   4.275  11.844  0.3993  0.5994  1.0101
 5967SOL    HW229361   2.201   4.288  11.812 -0.7015  1.2770  1.2941
 5968SOL     OW29362   4.526   2.895  12.474 -0.0482  0.0456 -0.2533
 5968SOL    HW129363   4.605   2.871  12.426  0.0679 -0.0766 -0.0057
 5968SOL    HW229364   4.539   2.853  12.559 -0.3839  1.7361  0.6265
 5969SOL     OW29365   1.431   1.484  10.009 -0.4004 -0.1480 -0.0550
 5969SOL    HW129366   1.450   1.412  10.068  1.0577 -1.1432 -1.7337
 5969SOL    HW229367   1.362   1.526  10.059 -0.4414  3.2382 -2.9060
 5970SOL     OW29368   2.873   3.637   5.936 -0.3968  0.1954  0.3422
 5970SOL    HW129369   2.826   3.720   5.934 -2.1184 -0.8066 -0.7885
 5970SOL    HW229370   2.818   3.589   5.998 -1.0898 -0.1554 -0.5430
 5971SOL     OW29371   1.303   0.707  14.749 -0.0519  0.1228 -0.6762
 5971SOL    HW129372   1.335   0.704  14.839 -0.8763 -1.1506 -0.4288
 5971SOL    HW229373   1.374   0.663  14.702  0.3491 -0.5531  0.5691
 5972SOL     OW29374   4.024   0.655   3.969 -0.2161 -0.8683 -0.9130
 5972SOL    HW129375   4.000   0.736   3.924 -0.9206 -1.1422 -1.0200
 5972SOL    HW229376   3.958   0.638   4.036 -1.5227  1.4550 -1.6277
 5973SOL     OW29377   3.796   3.733   4.623 -0.6530 -0.1434  0.1059
 5973SOL    HW129378   3.831   3.687   4.546 -0.3214 -1.3049  0.9383
 5973SOL    HW229379   3.783   3.822   4.593  0.5762 -0.2818 -0.8657
 5974SOL     OW29380   0.208   3.471   6.422  0.1108 -0.0230  0.2927
 5974SOL    HW129381   0.286   3.482   6.477  0.1074  2.6608 -0.2257
 5974SOL    HW229382   0.162   3.552   6.445  1.3162  0.6907  0.2399
 5975SOL     OW29383   3.867   2.126   7.647 -0.2763  0.2894 -0.1803
 5975SOL    HW129384   3.839   2.215   7.667 -1.9809 -0.4037  0.5071
 5975SOL    HW229385   3.930   2.140   7.577 -0.5621  1.2632 -0.2412
 5976SOL     OW29386   1.031   0.580  12.787 -0.4911  0.1256  0.4821
 5976SOL    HW129387   0.949   0.623  12.763 -0.7778 -0.3138  0.6853
 5976SOL    HW229388   1.001   0.504  12.836  1.6839 -0.6799  0.5724
 5977SOL     OW29389   3.235   2.068   6.342 -0.6964 -0.2044  0.0121
 5977SOL    HW129390   3.195   1.986   6.312  0.7770 -0.8106 -0.2705
 5977SOL    HW229391   3.320   2.053   6.302  0.5309  2.6301  1.5936
 5978SOL     OW29392   1.113   3.588   6.671 -0.0366  0.2020  0.2971
 5978SOL    HW129393   1.041   3.526   6.688  0.1597 -0.2696 -0.5635
 5978SOL    HW229394   1.064   3.670   6.676  1.6971  1.1118  2.0665
 5979SOL     OW29395   2.664   1.892   5.226  0.6150  0.0022 -0.3042
 5979SOL    HW129396   2.755   1.891   5.198  0.1945 -2.4618 -1.5520
 5979SOL    HW229397   2.667   1.930   5.315 -0.9107 -0.4495 -0.0454
 5980SOL     OW29398   2.749   2.662   4.089 -0.3364  0.3107 -0.3085
 5980SOL    HW129399   2.672   2.623   4.047 -0.9030 -0.5282  1.4694
 5980SOL    HW229400   2.715   2.750   4.102 -0.7697  0.1048 -0.0016
 5981SOL     OW29401   3.229   4.466   2.503 -0.2412  0.7228 -0.3950
 5981SOL    HW129402   3.230   4.399   2.571 -2.3076  1.8760  0.7971
 5981SOL    HW229403   3.230   4.407   2.427 -1.8810 -0.0059  0.1603
 5982SOL     OW29404   1.102   4.136   8.371  0.2136  0.1872 -0.4033
 5982SOL    HW129405   1.145   4.058   8.406 -0.2300 -0.0436 -0.3658
 5982SOL    HW229406   1.039   4.150   8.442 -1.4444  1.1068 -2.0499
 5983SOL     OW29407   4.467   0.067  16.657 -0.5069 -0.2120  0.0213
 5983SOL    HW129408   4.507   0.052  16.742  1.2450  0.2863 -0.7004
 5983SOL    HW229409   4.392   0.125  16.670 -0.6244 -0.1955 -0.6820
 5984SOL     OW29410   4.120   0.030  14.838 -0.1065 -0.1551 -0.1199
 5984SOL    HW129411   4.044   0.086  14.851  0.8414  1.1635 -0.3292
 5984SOL    HW229412   4.077   4.664  14.845 -0.1212 -0.1328  0.0830
 5985SOL     OW29413   4.443   4.679   3.824  0.7112 -0.1238 -0.6021
 5985SOL    HW129414   4.475   0.024   3.762  1.3098 -0.1604 -0.3322
 5985SOL    HW229415   4.359   4.649   3.790  2.0280 -3.5068 -0.8547
 5986SOL     OW29416   4.159   0.200   0.983 -0.3297  0.3481 -0.7866
 5986SOL    HW129417   4.184   0.292   0.977 -0.1854  0.3136 -0.7211
 5986SOL    HW229418   4.111   0.182   0.902 -1.4998 -0.6294  0.1390
 5987SOL     OW29419   4.034   1.167   5.704  0.2394  0.5303  0.4172
 5987SOL    HW129420   4.004   1.220   5.630 -0.4572  0.1604  0.4302
 5987SOL    HW229421   4.019   1.078   5.672 -0.5789  0.1544  1.8123
 5988SOL     OW29422   1.955   0.375  11.196  0.2062  0.3035 -0.3894
 5988SOL    HW129423   2.004   0.438  11.248  1.0259  0.0974 -0.9135
 5988SOL    HW229424   2.012   0.364  11.121 -0.3131 -0.7534 -0.6417
 5989SOL     OW29425   1.455   2.618   1.519 -0.4751  0.2721 -0.3038
 5989SOL    HW129426   1.514   2.667   1.577  3.3809  1.3950 -5.1722
 5989SOL    HW229427   1.464   2.678   1.444 -1.0472  0.9075  0.1386
 5990SOL     OW29428   3.758   4.354   3.880 -0.0878 -0.0965  0.2165
 5990SOL    HW129429   3.828   4.288   3.879 -0.3439 -0.3489 -0.5008
 5990SOL    HW229430   3.721   4.351   3.792  1.2018 -1.4317 -0.2876
 5991SOL     OW29431   0.860   2.089   6.291  0.3041  0.6230 -0.3658
 5991SOL    HW129432   0.930   2.080   6.226  0.7383  0.0110  0.1832
 5991SOL    HW229433   0.794   2.123   6.231 -0.4739  0.3495  0.3327
 5992SOL     OW29434   4.621   2.586   8.438  0.2513  0.3987  0.1870
 5992SOL    HW129435   4.614   2.615   8.529  1.5107 -0.7756  0.6498
 5992SOL    HW229436   4.590   2.662   8.388  0.8452  2.4635  2.9178
 5993SOL     OW29437   0.760   0.722   1.368 -0.1924 -0.1101  0.1652
 5993SOL    HW129438   0.826   0.780   1.407 -0.3987 -1.2453  2.1958
 5993SOL    HW229439   0.819   0.648   1.364  2.0292  1.6287  0.7251
 5994SOL     OW29440   0.868   2.604  11.619 -0.5187  0.1109 -1.0580
 5994SOL    HW129441   0.929   2.663  11.664  0.7882 -1.7366 -0.3925
 5994SOL    HW229442   0.811   2.661  11.568 -0.9045  0.0262 -0.7226
 5995SOL     OW29443   1.619   4.308   7.727 -0.0576  0.3479 -0.5315
 5995SOL    HW129444   1.646   4.355   7.648  1.2975 -1.9245 -1.4340
 5995SOL    HW229445   1.683   4.352   7.782 -3.9776  2.5304  2.2327
 5996SOL     OW29446   0.065   0.487   2.649  0.6050  0.5425 -0.4613
 5996SOL    HW129447   0.129   0.559   2.651  1.1263 -0.0344  3.4445
 5996SOL    HW229448   4.712   0.542   2.676  0.8835  0.6442  0.0886
 5997SOL     OW29449   2.658   2.401   9.346 -0.2375  0.0362 -0.0015
 5997SOL    HW129450   2.610   2.362   9.272 -0.1865 -0.3916  0.1953
 5997SOL    HW229451   2.594   2.470   9.366  0.2493  0.5745 -0.2875
 5998SOL     OW29452   1.434   3.389   3.111  0.2586  0.0053 -0.3780
 5998SOL    HW129453   1.492   3.332   3.060  0.0804  0.6716 -1.3305
 5998SOL    HW229454   1.471   3.383   3.199  2.8202 -2.4554 -1.6131
 5999SOL     OW29455   3.361   4.311   8.735 -0.1246 -0.1607  0.3393
 5999SOL    HW129456   3.300   4.383   8.753 -1.5869 -0.6040 -2.7602
 5999SOL    HW229457   3.432   4.326   8.797 -1.5258 -1.4466  2.2484
 6000SOL     OW29458   3.805   3.277  15.510  0.3815 -0.5158  0.4979
 6000SOL    HW129459   3.760   3.239  15.435  1.0858 -0.7301  0.1855
 6000SOL    HW229460   3.731   3.321  15.552 -0.5859 -1.5310 -0.1309
 6001SOL     OW29461   4.211   3.367  15.522  0.1369 -0.5211  0.3101
 6001SOL    HW129462   4.240   3.416  15.446 -1.0654  0.0482  0.2153
 6001SOL    HW229463   4.252   3.281  15.518  1.7639  0.3596 -1.6178
 6002SOL     OW29464   3.368   1.432  14.907  0.4003 -0.0201  0.2254
 6002SOL    HW129465   3.351   1.400  14.995 -2.2745 -1.2911 -0.7468
 6002SOL    HW229466   3.305   1.379  14.857  0.2660  0.5140 -0.1828
 6003SOL     OW29467   3.761   1.354   0.290 -0.0908 -0.2301  0.2163
 6003SOL    HW129468   3.776   1.259   0.290  2.6953  0.1987  2.9576
 6003SOL    HW229469   3.774   1.378   0.382  1.9586  0.6159 -0.2904
 6004SOL     OW29470   1.408   3.028   2.883  0.5028 -0.5641 -0.3537
 6004SOL    HW129471   1.342   3.026   2.813  0.6153  2.0609 -0.5515
 6004SOL    HW229472   1.348   3.018   2.956  1.7203  4.7560  1.4122
 6005SOL     OW29473   2.098   0.489   3.660 -0.0390  0.2124 -0.1107
 6005SOL    HW129474   2.146   0.545   3.722 -0.0678 -1.9612  1.8831
 6005SOL    HW229475   2.143   0.405   3.654  0.4290  0.5774 -1.5885
 6006SOL     OW29476   1.398   2.314  16.060  0.2400  0.6753 -0.4064
 6006SOL    HW129477   1.484   2.305  16.021  1.1836  0.9941  1.5806
 6006SOL    HW229478   1.422   2.306  16.152  0.6701  1.6320 -0.4338
 6007SOL     OW29479   2.270   3.941  10.681 -0.1342 -0.1759  0.5595
 6007SOL    HW129480   2.316   3.859  10.700  1.1002  0.7257  1.4863
 6007SOL    HW229481   2.246   3.929  10.589 -1.0898 -1.4417  0.9623
 6008SOL     OW29482   0.554   3.505   5.951  0.8058  0.2638  0.1373
 6008SOL    HW129483   0.475   3.468   5.911  1.8347 -1.4382 -0.3196
 6008SOL    HW229484   0.562   3.581   5.894  1.3619  0.0891 -0.0136
 6009SOL     OW29485   4.583   4.606   6.703  0.2493 -0.2468 -0.4137
 6009SOL    HW129486   4.617   4.684   6.746 -1.7798  0.7321 -0.6088
 6009SOL    HW229487   4.645   4.537   6.726  0.8842 -0.0587 -1.5436
 6010SOL     OW29488   0.945   0.601   7.958  0.0036 -0.1283 -0.0049
 6010SOL    HW129489   0.934   0.696   7.955 -1.9355 -0.4387 -3.0147
 6010SOL    HW229490   0.964   0.587   7.865  0.8989 -0.6405  0.2620
 6011SOL     OW29491   1.046   2.165  15.982  0.2828 -0.3535  0.8007
 6011SOL    HW129492   1.002   2.102  16.038  1.2201 -0.7445  1.1005
 6011SOL    HW229493   1.095   2.108  15.923  1.0553  0.2459  0.8481
 6012SOL     OW29494   2.700   2.800  10.683 -0.4939  0.6663  0.0533
 6012SOL    HW129495   2.767   2.772  10.745 -1.6671 -2.0999  0.0680
 6012SOL    HW229496   2.666   2.885  10.711 -1.5632 -0.2204  1.4194
 6013SOL     OW29497   1.857   0.674   4.931 -0.7778 -0.1745  0.1544
 6013SOL    HW129498   1.854   0.578   4.928  0.6453 -0.1951 -1.0974
 6013SOL    HW229499   1.945   0.689   4.967 -1.5909  3.2797  0.6548
 6014SOL     OW29500   3.963   0.798   1.604  0.3413 -0.1451 -0.4522
 6014SOL    HW129501   3.973   0.776   1.697  0.8603 -0.3978 -0.5654
 6014SOL    HW229502   3.907   0.725   1.577 -0.3085 -0.0271  0.6057
 6015SOL     OW29503   2.069   1.437   6.082  0.2951 -0.2854 -0.0533
 6015SOL    HW129504   2.154   1.395   6.094  1.2500  1.6645  0.0515
 6015SOL    HW229505   2.021   1.411   6.161  3.2572  0.5149  1.9822
 6016SOL     OW29506   2.112   0.893   4.384  0.1630 -0.0272  0.2228
 6016SOL    HW129507   2.019   0.877   4.402  0.1332 -1.4954 -1.1926
 6016SOL    HW229508   2.104   0.988   4.388  0.7550 -0.0363  1.7204
 6017SOL     OW29509   1.421   2.139   3.946  0.0249 -0.2175 -0.2542
 6017SOL    HW129510   1.329   2.120   3.961 -0.1558  1.2570  0.4997
 6017SOL    HW229511   1.448   2.173   4.032  1.4820  2.8556 -1.9307
 6018SOL     OW29512   4.042   0.585   7.688  0.1453 -0.0119 -0.3430
 6018SOL    HW129513   4.009   0.609   7.602 -1.3130  2.7789  0.9855
 6018SOL    HW229514   4.095   0.662   7.708  1.1609 -0.2464 -2.1557
 6019SOL     OW29515   2.105   3.676  14.669  0.0254 -0.1765  0.3036
 6019SOL    HW129516   2.096   3.754  14.614  0.6426 -0.9183 -0.8366
 6019SOL    HW229517   2.024   3.683  14.721 -0.3306  2.1748 -0.5550
 6020SOL     OW29518   2.092   1.668  17.547 -0.0588 -0.4973  0.4891
 6020SOL    HW129519   2.137   1.718  17.478  2.6179 -1.0968  1.7914
 6020SOL    HW229520   2.158   1.657  17.615  1.3956 -3.2708 -1.3461
 6021SOL     OW29521   1.621   2.440  11.029 -0.5166 -0.4323 -0.1029
 6021SOL    HW129522   1.661   2.399  11.106  0.8325 -1.6941 -1.4926
 6021SOL    HW229523   1.556   2.485  11.084  0.7332  0.8599  0.3149
 6022SOL     OW29524   4.425   0.102   2.070  0.0569 -0.1347 -0.5442
 6022SOL    HW129525   4.373   0.123   1.993 -1.6723 -0.6802  0.4882
 6022SOL    HW229526   4.377   0.025   2.101 -0.0862  1.5869  3.4641
 6023SOL     OW29527   0.605   0.390   3.160 -0.2975  0.0091  0.4376
 6023SOL    HW129528   0.529   0.344   3.194 -0.9064 -0.5386 -1.7035
 6023SOL    HW229529   0.631   0.327   3.093 -2.8594 -0.5939  0.0378
 6024SOL     OW29530   0.573   3.307   4.587 -0.1567  0.1768  0.7005
 6024SOL    HW129531   0.558   3.226   4.540 -0.6355 -0.0665  1.2630
 6024SOL    HW229532   0.586   3.278   4.678  0.2520  2.7626  1.4640
 6025SOL     OW29533   0.133   2.109   2.309 -0.2659 -0.0372  0.7771
 6025SOL    HW129534   0.078   2.062   2.246 -0.8737 -0.4284  1.5977
 6025SOL    HW229535   0.215   2.063   2.292 -0.8672 -0.1970 -1.7134
 6026SOL     OW29536   1.672   0.191   9.541 -0.7008  0.0931  0.4875
 6026SOL    HW129537   1.632   0.246   9.474 -0.9805 -3.7581 -2.5424
 6026SOL    HW229538   1.666   0.112   9.488 -1.4485 -0.1905  0.9906
 6027SOL     OW29539   2.735   0.506   7.494 -0.2482 -0.4651 -0.7656
 6027SOL    HW129540   2.768   0.419   7.516 -0.2660 -1.1456 -3.3863
 6027SOL    HW229541   2.652   0.512   7.540  0.2254 -0.0575  0.0363
 6028SOL     OW29542   2.782   4.560   0.788 -0.2230 -0.5048  0.0152
 6028SOL    HW129543   2.703   4.600   0.825  0.2933  0.1069  0.4474
 6028SOL    HW229544   2.743   4.513   0.714  2.2138 -1.2987 -0.7805
 6029SOL     OW29545   2.189   4.577  10.818  0.3569  0.7648 -0.4005
 6029SOL    HW129546   2.144   4.515  10.876 -1.2051  0.2978 -2.0651
 6029SOL    HW229547   2.238   4.515  10.764 -1.2724 -0.8172 -0.0906
 6030SOL     OW29548   4.528   0.740   2.018 -0.5281  0.0720  0.0017
 6030SOL    HW129549   4.454   0.680   2.011  0.0629 -0.5267 -1.0136
 6030SOL    HW229550   4.479   0.811   2.061 -1.9839 -0.5092 -0.7015
 6031SOL     OW29551   1.616   0.495  13.205 -0.2369 -0.3640  0.5287
 6031SOL    HW129552   1.570   0.427  13.254 -2.9568  0.4049 -0.9551
 6031SOL    HW229553   1.547   0.533  13.151 -1.8765  0.8535  3.4911
 6032SOL     OW29554   0.495   3.960   3.896 -0.0355  0.4157  0.2260
 6032SOL    HW129555   0.564   3.906   3.934 -0.6035 -0.6750 -0.2917
 6032SOL    HW229556   0.530   3.992   3.813  0.8098 -0.1521  0.3670
 6033SOL     OW29557   1.061   4.378   9.136 -0.2059 -0.2152  0.1039
 6033SOL    HW129558   1.114   4.305   9.104 -0.4119 -0.5870  0.5970
 6033SOL    HW229559   1.129   4.445   9.142  0.4887 -1.0705  2.0280
 6034SOL     OW29560   3.536   2.063   5.942  0.2005 -0.0502 -0.1491
 6034SOL    HW129561   3.569   1.974   5.954 -1.0376 -0.2961  1.3392
 6034SOL    HW229562   3.450   2.043   5.905 -0.0360 -0.2558  0.5215
 6035SOL     OW29563   1.709   0.894   6.949  0.3182 -0.7271  0.7536
 6035SOL    HW129564   1.663   0.916   6.869  1.3933 -1.1630  0.0080
 6035SOL    HW229565   1.656   0.937   7.016 -0.1471 -1.6873  1.0022
 6036SOL     OW29566   4.048   1.594  13.515  0.1604  0.8617 -0.1524
 6036SOL    HW129567   4.120   1.568  13.572  0.4062  0.8870 -0.4518
 6036SOL    HW229568   4.099   1.602  13.435  1.8632 -3.6459  0.4735
 6037SOL     OW29569   4.211   0.838   2.955  0.3328  0.6439  0.3835
 6037SOL    HW129570   4.173   0.772   2.897 -0.3742  1.4932 -0.1037
 6037SOL    HW229571   4.292   0.866   2.912  0.1879 -0.1030 -0.3769
 6038SOL     OW29572   3.649   3.483  15.590  0.3853 -0.3645 -0.0176
 6038SOL    HW129573   3.563   3.522  15.573  0.6708  0.5192  0.5613
 6038SOL    HW229574   3.704   3.561  15.577  0.7568 -0.6221  0.0192
 6039SOL     OW29575   4.645   4.597  16.524 -0.0629 -0.3618  0.0252
 6039SOL    HW129576   4.585   4.658  16.565  0.1080 -1.4491  1.9010
 6039SOL    HW229577   4.706   4.655  16.477 -1.3749  1.3169  0.3857
 6040SOL     OW29578   4.411   1.876   6.250 -0.5884 -0.2614 -0.3366
 6040SOL    HW129579   4.477   1.847   6.313  0.1390  1.1244 -0.4618
 6040SOL    HW229580   4.388   1.790   6.215 -2.3460  0.0289  0.0774
 6041SOL     OW29581   4.281   2.580   3.966 -0.0086 -0.3023  0.4286
 6041SOL    HW129582   4.343   2.538   3.906  0.5636  0.9562  0.1453
 6041SOL    HW229583   4.219   2.599   3.896 -0.9031  1.4489  1.7101
 6042SOL     OW29584   2.792   0.205   6.578 -0.7204 -0.2673 -0.5701
 6042SOL    HW129585   2.779   0.236   6.668 -1.8019 -2.7095  0.1089
 6042SOL    HW229586   2.773   0.111   6.576 -1.6171 -0.1091  0.4993
 6043SOL     OW29587   1.229   1.970   0.499  0.0837  0.3197 -0.1837
 6043SOL    HW129588   1.139   1.979   0.529 -0.2725  1.1709 -1.4964
 6043SOL    HW229589   1.222   1.964   0.403 -1.7380  1.0674 -0.1047
 6044SOL     OW29590   2.961   0.783   5.130 -0.2537  0.1642  0.1091
 6044SOL    HW129591   2.890   0.719   5.143  0.7699 -1.1054 -0.4818
 6044SOL    HW229592   2.916   0.859   5.167 -0.9368 -0.8388  1.3368
 6045SOL     OW29593   3.008   0.639   3.874 -0.2447 -0.0843 -0.0251
 6045SOL    HW129594   3.006   0.548   3.904 -3.5916  0.3929  1.2300
 6045SOL    HW229595   2.962   0.681   3.946  1.5471 -1.3922  1.8652
 6046SOL     OW29596   1.936   1.844   3.000  0.2641 -0.7332 -0.3025
 6046SOL    HW129597   1.890   1.783   3.057  0.7210  0.0412  0.9069
 6046SOL    HW229598   1.893   1.926   3.025 -1.2808 -0.7097 -3.0340
 6047SOL     OW29599   2.951   0.925   2.549  0.3019 -0.8080 -0.1107
 6047SOL    HW129600   2.916   0.837   2.564 -0.2008 -0.9897 -2.3745
 6047SOL    HW229601   2.903   0.961   2.475 -0.1783  1.1570  1.1541
 6048SOL     OW29602   1.488   3.348   7.306  0.3438 -0.5364  0.5187
 6048SOL    HW129603   1.486   3.426   7.251  1.1871 -0.4123  0.6625
 6048SOL    HW229604   1.402   3.309   7.292  1.6648 -2.8497 -1.2300
 6049SOL     OW29605   1.104   2.401   2.736  0.1306 -0.4518  0.5404
 6049SOL    HW129606   1.039   2.472   2.738 -0.7379 -1.2294 -0.3520
 6049SOL    HW229607   1.074   2.366   2.653 -1.3481 -0.0720  0.9130
 6050SOL     OW29608   2.130   1.901  14.809  0.2875  0.2758  0.3635
 6050SOL    HW129609   2.168   1.901  14.896  0.0782 -0.4239  0.4598
 6050SOL    HW229610   2.053   1.954  14.828 -0.7795  0.4169 -4.3768
 6051SOL     OW29611   1.279   1.920   9.417 -0.6316  0.3669  0.2837
 6051SOL    HW129612   1.316   2.008   9.405 -1.2660  0.3540 -1.7221
 6051SOL    HW229613   1.186   1.944   9.410 -0.7838 -0.5862 -0.9443
 6052SOL     OW29614   1.410   2.523   0.522  0.1677 -0.1795  0.1173
 6052SOL    HW129615   1.455   2.494   0.601  1.6503  1.4688 -0.1214
 6052SOL    HW229616   1.477   2.521   0.453 -0.2240  1.4227 -0.3127
 6053SOL     OW29617   3.754   0.886  15.297  0.8444  0.3603 -0.4781
 6053SOL    HW129618   3.842   0.853  15.313  0.0827 -1.1658  0.6432
 6053SOL    HW229619   3.722   0.923  15.380  2.3166 -2.2745  1.2843
 6054SOL     OW29620   0.245   4.604  15.843 -0.2451 -0.0173 -0.0801
 6054SOL    HW129621   0.297   4.683  15.862 -0.2890  0.0042 -0.0497
 6054SOL    HW229622   0.317   4.542  15.838 -1.7638 -1.6640 -1.5078
 6055SOL     OW29623   2.721   4.485  14.609 -0.0190  0.2136 -0.4662
 6055SOL    HW129624   2.654   4.494  14.541  0.1705 -1.0210 -0.8156
 6055SOL    HW229625   2.664   4.459  14.682  1.0411  1.4087  0.7909
 6056SOL     OW29626   2.671   3.211  13.282  0.4684  0.0687 -0.5277
 6056SOL    HW129627   2.742   3.178  13.226  2.0737  0.1606  1.4516
 6056SOL    HW229628   2.597   3.208  13.221  1.0320  0.5115 -1.2353
 6057SOL     OW29629   4.714   4.305  13.159  0.3812  0.3385  0.1887
 6057SOL    HW129630   0.041   4.363  13.100 -0.9272 -0.1958 -1.3840
 6057SOL    HW229631   0.049   4.324  13.235  0.1354  3.6234 -0.4966
 6058SOL     OW29632   4.586   1.754  16.476  0.1318  0.2874 -0.5638
 6058SOL    HW129633   4.652   1.716  16.534  0.8015  2.3020 -0.0054
 6058SOL    HW229634   4.565   1.836  16.522  0.0722  1.1214 -2.0841
 6059SOL     OW29635   2.016   0.165   4.606  0.1882 -0.1707  0.0188
 6059SOL    HW129636   1.958   0.209   4.544 -0.5774  0.3684  1.1233
 6059SOL    HW229637   2.060   0.090   4.565  0.0424  0.6770 -1.6758
 6060SOL     OW29638   0.469   4.478   1.921  0.0062  0.7063  0.6497
 6060SOL    HW129639   0.401   4.422   1.960 -0.5690  1.5907  0.8965
 6060SOL    HW229640   0.439   4.567   1.936 -0.0065  0.8745 -0.3165
 6061SOL     OW29641   3.331   0.031   3.617 -0.4489 -0.4074  0.3088
 6061SOL    HW129642   3.357   0.003   3.705 -0.8693 -0.2019  0.4994
 6061SOL    HW229643   3.266   4.684   3.600 -1.4141  0.4159  0.7306
 6062SOL     OW29644   4.148   1.567  15.671  0.3363 -0.4956 -0.2442
 6062SOL    HW129645   4.187   1.638  15.723 -1.0035  0.8857 -1.1246
 6062SOL    HW229646   4.213   1.506  15.704  0.4671 -1.4411 -2.2888
 6063SOL     OW29647   3.614   3.374  11.111 -0.4287  0.3962 -0.4621
 6063SOL    HW129648   3.533   3.349  11.154 -0.7064 -0.0750 -1.2709
 6063SOL    HW229649   3.628   3.463  11.144  0.1658 -0.2941  1.1208
 6064SOL     OW29650   0.913   1.579  14.443 -0.1387  0.2912  0.1148
 6064SOL    HW129651   0.956   1.578  14.528  0.9974  0.0673 -0.4633
 6064SOL    HW229652   0.941   1.494  14.408  0.6641  0.2476  0.8715
 6065SOL     OW29653   3.110   1.200  15.871  0.1575  0.5494 -0.1810
 6065SOL    HW129654   3.188   1.144  15.874  0.6024  1.1254 -0.7964
 6065SOL    HW229655   3.149   1.281  15.905  1.2853 -0.6151  1.3136
 6066SOL     OW29656   1.725   3.568   0.862 -0.4218  0.2303  0.2846
 6066SOL    HW129657   1.769   3.653   0.848  0.9335 -0.7248 -1.3160
 6066SOL    HW229658   1.646   3.586   0.810 -0.7384 -0.4290  0.5510
 6067SOL     OW29659   4.257   2.972   7.336  0.5147  0.6511  0.0399
 6067SOL    HW129660   4.336   2.972   7.390  0.7838 -1.8059 -0.3434
 6067SOL    HW229661   4.216   2.900   7.385 -0.2821 -0.1417 -1.8037
 6068SOL     OW29662   0.098   3.282  12.644 -0.1194 -0.6226 -0.3971
 6068SOL    HW129663   0.029   3.349  12.644 -0.4283 -0.9336 -2.3538
 6068SOL    HW229664   0.057   3.216  12.588 -1.6857 -0.2406  0.2776
 6069SOL     OW29665   0.852   1.773  12.571  0.5194  0.6668  0.0639
 6069SOL    HW129666   0.925   1.835  12.574  0.4558  0.7003  0.8198
 6069SOL    HW229667   0.774   1.826  12.551 -1.3754 -2.2971 -0.3240
 6070SOL     OW29668   0.592   2.343   9.842  0.2031 -0.3722  0.1623
 6070SOL    HW129669   0.612   2.355   9.934  2.3909  5.2412 -1.0738
 6070SOL    HW229670   0.674   2.299   9.818  0.1693 -0.5523  0.3819
 6071SOL     OW29671   2.307   1.777   8.683 -0.8268  0.3797  0.5824
 6071SOL    HW129672   2.395   1.759   8.715 -0.5661  0.1110 -0.2849
 6071SOL    HW229673   2.315   1.867   8.716 -0.0924  0.5894 -0.1719
 6072SOL     OW29674   1.387   4.504  10.356 -0.1853 -0.6939 -0.0729
 6072SOL    HW129675   1.357   4.413  10.362  0.7578 -0.6842  4.7585
 6072SOL    HW229676   1.464   4.509  10.412  0.2841  0.6075 -0.8459
 6073SOL     OW29677   3.532   4.593   6.282  0.3587  0.1056 -0.3843
 6073SOL    HW129678   3.596   4.632   6.223 -0.7671  1.8498 -0.4482
 6073SOL    HW229679   3.579   4.584   6.365  2.0878  0.7136 -1.2963
 6074SOL     OW29680   0.079   0.617   5.792  0.6595 -0.3533 -0.3324
 6074SOL    HW129681   0.157   0.649   5.838  1.0951 -2.2384  0.2189
 6074SOL    HW229682   0.027   0.596   5.870 -2.0715  1.1883 -1.7479
 6075SOL     OW29683   2.086   2.782   5.705 -0.1335  0.6559  0.0312
 6075SOL    HW129684   2.008   2.778   5.648 -0.5302  0.2215  0.6015
 6075SOL    HW229685   2.135   2.720   5.651 -1.3669  0.6110 -1.0334
 6076SOL     OW29686   1.333   4.426   4.919  0.0220 -0.3816 -0.3955
 6076SOL    HW129687   1.313   4.433   4.825  1.4554  0.3368 -0.6444
 6076SOL    HW229688   1.410   4.370   4.922 -1.2381 -1.9965  1.8746
 6077SOL     OW29689   4.431   0.348   3.084 -0.2238  0.2395 -0.3981
 6077SOL    HW129690   4.376   0.425   3.098  0.0077 -0.1767  2.7755
 6077SOL    HW229691   4.392   0.275   3.132  0.5845  0.6717  0.9201
 6078SOL     OW29692   4.109   2.489   4.645  0.6583  0.1587 -0.2539
 6078SOL    HW129693   4.196   2.449   4.649 -0.2697 -1.6333  1.8954
 6078SOL    HW229694   4.118   2.549   4.719  0.2004 -1.5103  1.1598
 6079SOL     OW29695   2.481   4.377  16.819  0.1007 -0.1449  0.4414
 6079SOL    HW129696   2.563   4.427  16.822  0.1360 -0.0539 -2.9477
 6079SOL    HW229697   2.420   4.434  16.866 -0.4819  0.3909 -0.9776
 6080SOL     OW29698   2.571   1.044  12.722  0.2729  0.6751  0.2949
 6080SOL    HW129699   2.565   1.136  12.747  1.2073  0.3193  1.8035
 6080SOL    HW229700   2.615   1.011  12.801 -0.6597  0.7071  0.8172
 6081SOL     OW29701   0.292   0.613   2.239 -0.2713 -0.6802 -0.6217
 6081SOL    HW129702   0.206   0.611   2.196 -0.2274  0.1659 -0.7372
 6081SOL    HW229703   0.261   0.674   2.306  0.3287  1.4683 -2.3011
 6082SOL     OW29704   1.399   1.553   6.957 -0.0689 -0.3436 -0.4432
 6082SOL    HW129705   1.337   1.482   6.944 -0.2309  0.2586 -2.8964
 6082SOL    HW229706   1.449   1.522   7.033  1.1325  2.3658 -0.1484
 6083SOL     OW29707   2.998   3.700   3.400 -0.2331  0.0688  0.2145
 6083SOL    HW129708   2.916   3.667   3.436 -0.5267  0.1735 -0.3542
 6083SOL    HW229709   3.052   3.621   3.398  3.2718  2.4962 -1.3870
 6084SOL     OW29710   3.539   4.205   6.375  0.8367  1.0467  0.0989
 6084SOL    HW129711   3.505   4.118   6.396  1.8168  0.6766  0.1547
 6084SOL    HW229712   3.517   4.262   6.449 -1.4222 -0.3531  0.5069
 6085SOL     OW29713   3.958   3.963   7.899 -0.1262  0.0006  0.2677
 6085SOL    HW129714   4.051   3.953   7.919  0.3868  2.2426 -1.0115
 6085SOL    HW229715   3.961   3.982   7.805 -0.5932 -1.5536 -0.0733
 6086SOL     OW29716   0.325   3.269   3.216 -0.1152 -0.1290  1.1269
 6086SOL    HW129717   0.330   3.176   3.197  1.9224  0.3655 -0.7255
 6086SOL    HW229718   0.415   3.301   3.205 -0.6023  0.5499 -0.8542
 6087SOL     OW29719   1.208   0.048   4.741  0.1422  1.0024 -0.3557
 6087SOL    HW129720   1.294   0.067   4.778  0.0795  0.7459 -0.0737
 6087SOL    HW229721   1.180   0.138   4.724  0.4773  1.2528  0.4383
 6088SOL     OW29722   3.721   4.416   0.829  0.4806  0.3604  0.0857
 6088SOL    HW129723   3.657   4.487   0.826 -0.4576 -0.5772 -1.7269
 6088SOL    HW229724   3.784   4.453   0.891  0.5501  0.6162 -0.1382
 6089SOL     OW29725   1.817   0.719   1.260 -0.3475  1.2642  0.4669
 6089SOL    HW129726   1.881   0.678   1.318  0.4681  2.3162  0.3199
 6089SOL    HW229727   1.866   0.795   1.228  1.1187  1.1573  2.5020
 6090SOL     OW29728   2.764   0.616   4.479  0.4404  0.0888 -0.1351
 6090SOL    HW129729   2.711   0.562   4.420  3.9739 -0.4971 -2.8255
 6090SOL    HW229730   2.835   0.651   4.424  0.3367 -2.2510 -1.7970
 6091SOL     OW29731   0.796   3.800   5.670  0.1458 -0.3276 -0.5797
 6091SOL    HW129732   0.755   3.883   5.647  1.5311  0.8757  1.3279
 6091SOL    HW229733   0.836   3.778   5.585  3.6759  0.8341  0.8018
 6092SOL     OW29734   1.881   3.031   7.144 -0.4336 -0.3340  0.2399
 6092SOL    HW129735   1.842   3.107   7.187 -0.0978 -0.1919  0.2860
 6092SOL    HW229736   1.860   3.036   7.050 -0.6347 -0.4497  0.2792
 6093SOL     OW29737   4.576   2.918   9.826 -0.1677 -0.5060 -0.2460
 6093SOL    HW129738   4.488   2.941   9.857  0.6028  0.5847  1.1520
 6093SOL    HW229739   4.573   2.945   9.734  1.4875 -2.1224 -0.7743
 6094SOL     OW29740   0.962   4.114   8.104  0.3438 -0.6572 -0.1813
 6094SOL    HW129741   0.929   4.030   8.070  0.7703 -0.2720 -1.5264
 6094SOL    HW229742   0.988   4.090   8.193  0.4017 -1.6215 -0.4571
 6095SOL     OW29743   0.756   4.036   2.129  0.3799  0.3107 -0.0580
 6095SOL    HW129744   0.830   4.096   2.141 -0.0962  1.4920 -2.9455
 6095SOL    HW229745   0.676   4.083   2.154  0.0738  0.7579 -1.8604
 6096SOL     OW29746   0.314   0.034   0.319 -0.7432 -0.0281 -0.3931
 6096SOL    HW129747   0.366   0.091   0.375 -0.9904  2.8144 -3.0601
 6096SOL    HW229748   0.357   0.055   0.236 -0.2762 -1.9678 -0.6583
 6097SOL     OW29749   4.528   0.810   4.782 -0.1129  0.4723 -0.7715
 6097SOL    HW129750   4.435   0.796   4.796  0.4078 -1.6915  0.4333
 6097SOL    HW229751   4.550   0.749   4.711  1.7160  0.5934 -0.3141
 6098SOL     OW29752   3.396   4.339   3.810  0.0702  0.0918  0.0355
 6098SOL    HW129753   3.450   4.274   3.856 -1.5839 -1.2275  0.0882
 6098SOL    HW229754   3.390   4.290   3.729  0.4048  0.1058  0.0010
 6099SOL     OW29755   0.356   1.377   1.810  0.0485 -0.2910 -0.0349
 6099SOL    HW129756   0.439   1.398   1.852 -0.4220  2.3645 -0.4302
 6099SOL    HW229757   0.299   1.403   1.883  0.9684 -2.0981  1.3419
 6100SOL     OW29758   2.373   0.933   2.506 -0.0297 -0.0326  0.7618
 6100SOL    HW129759   2.409   1.019   2.484  0.6444 -0.2967  0.8403
 6100SOL    HW229760   2.365   0.892   2.420 -0.5893  0.6698  0.4806
 6101SOL     OW29761   2.935   1.188  14.935 -0.0916 -0.8494 -0.1093
 6101SOL    HW129762   2.969   1.253  14.996  0.0004 -0.7056 -0.3134
 6101SOL    HW229763   2.947   1.110  14.989  0.1257  0.4196  1.6667
 6102SOL     OW29764   0.036   0.770   7.621  0.6030 -0.5167  0.3497
 6102SOL    HW129765   0.050   0.860   7.590  1.0041 -0.0577  1.8254
 6102SOL    HW229766   0.113   0.774   7.678  0.5448  0.0905  0.3927
 6103SOL     OW29767   2.293   1.771   9.374 -0.2994  0.0213  0.3394
 6103SOL    HW129768   2.345   1.700   9.413  0.2327  0.1721 -0.0869
 6103SOL    HW229769   2.265   1.826   9.446 -1.0710  1.6318 -1.1788
 6104SOL     OW29770   0.381   0.502   3.397 -0.4342  0.6078  0.0421
 6104SOL    HW129771   0.424   0.495   3.483  2.5343  0.7164 -1.4555
 6104SOL    HW229772   0.377   0.409   3.376  1.3675 -0.1522  2.9455
 6105SOL     OW29773   4.716   1.990   3.849  0.0028  0.2320 -0.1086
 6105SOL    HW129774   4.698   2.025   3.936  3.0553 -1.2155  1.0932
 6105SOL    HW229775   0.078   2.029   3.821 -1.7907  3.0989 -1.5175
 6106SOL     OW29776   4.201   0.867   8.881  0.0338 -0.1279  0.0713
 6106SOL    HW129777   4.261   0.828   8.817  0.4028  0.8372 -0.1620
 6106SOL    HW229778   4.265   0.895   8.947  0.9835  0.2488 -1.0157
 6107SOL     OW29779   0.377   0.446  11.817 -0.1550  0.3502  0.0014
 6107SOL    HW129780   0.301   0.487  11.859 -0.9678 -1.9385  0.7387
 6107SOL    HW229781   0.336   0.371  11.774  3.0647 -1.5147  0.2310
 6108SOL     OW29782   1.163   4.135  15.066 -0.3076 -0.0622  0.4631
 6108SOL    HW129783   1.234   4.192  15.038 -1.0118  2.1323  3.1325
 6108SOL    HW229784   1.085   4.176  15.028  0.7701  0.4887 -1.1600
 6109SOL     OW29785   2.438   3.334   4.635 -0.8273 -0.1005  0.2976
 6109SOL    HW129786   2.463   3.298   4.721 -2.0113 -1.7616 -0.0554
 6109SOL    HW229787   2.510   3.308   4.578 -1.2850  0.1754 -0.3948
 6110SOL     OW29788   0.905   4.644   8.953  0.2053 -0.2386  1.1974
 6110SOL    HW129789   0.966   4.572   8.970  0.1275 -0.7585 -0.7103
 6110SOL    HW229790   0.830   4.584   8.956 -0.3857  0.4926  0.9061
 6111SOL     OW29791   2.618   3.853   6.630  0.4428 -0.4687  0.5301
 6111SOL    HW129792   2.655   3.777   6.674 -1.8529 -1.0601  1.4679
 6111SOL    HW229793   2.647   3.921   6.691  1.7527 -1.3969  0.9323
 6112SOL     OW29794   4.578   1.574   2.131 -0.0747 -0.2051  0.1922
 6112SOL    HW129795   4.588   1.636   2.203  0.2452 -0.9948  0.8188
 6112SOL    HW229796   4.522   1.620   2.069  3.1633  2.3995 -0.7837
 6113SOL     OW29797   1.546   2.865   1.987 -0.6127 -0.7293  0.3824
 6113SOL    HW129798   1.519   2.774   1.972  1.0386 -1.1610  0.0461
 6113SOL    HW229799   1.575   2.883   1.897  0.4849  1.0948  1.1112
 6114SOL     OW29800   4.577   2.107   6.699  0.4384 -0.3662  0.3809
 6114SOL    HW129801   4.639   2.043   6.663 -0.3666 -1.3189  0.6998
 6114SOL    HW229802   4.542   2.060   6.775  0.0658 -0.9709 -0.1713
 6115SOL     OW29803   2.807   3.598   5.308 -0.2190  0.1692  0.3031
 6115SOL    HW129804   2.736   3.578   5.368  0.1292  0.3970  0.7838
 6115SOL    HW229805   2.839   3.675   5.355 -2.0554  1.9360 -1.3000
 6116SOL     OW29806   1.105   2.412   6.593  0.4737 -0.0401 -0.0222
 6116SOL    HW129807   1.105   2.317   6.583  0.4953 -0.0023 -0.3705
 6116SOL    HW229808   1.115   2.418   6.688  1.5653 -1.6897 -0.0419
 6117SOL     OW29809   4.100   2.228   9.231 -0.2076  1.0305 -0.3623
 6117SOL    HW129810   4.012   2.190   9.228 -0.3711  1.3631  0.2942
 6117SOL    HW229811   4.082   2.321   9.238 -0.1952  1.0316 -0.3447
 6118SOL     OW29812   1.428   3.405   6.513  0.2440 -0.3903  0.4081
 6118SOL    HW129813   1.429   3.347   6.589  2.0732 -0.5188  0.2912
 6118SOL    HW229814   1.336   3.407   6.488  0.3487 -1.2452 -0.0631
 6119SOL     OW29815   3.363   0.508   4.007 -0.7594  0.2265  0.7539
 6119SOL    HW129816   3.277   0.489   3.970 -1.2961  0.9813  1.6108
 6119SOL    HW229817   3.375   0.592   3.962 -2.7700 -0.3977 -0.9286
 6120SOL     OW29818   2.669   4.401   3.661 -0.0982 -0.5375  0.3034
 6120SOL    HW129819   2.694   4.362   3.577  1.3283  1.7498 -0.3571
 6120SOL    HW229820   2.753   4.438   3.687 -0.0230  0.4182 -1.2858
 6121SOL     OW29821   3.600   2.134   6.996  0.8984 -0.1034 -0.8493
 6121SOL    HW129822   3.606   2.157   7.089 -3.2472  3.7032 -1.5197
 6121SOL    HW229823   3.680   2.082   6.988 -0.1308 -1.3675 -2.8663
 6122SOL     OW29824   0.174   0.493   6.542  0.0481 -0.4600 -0.2648
 6122SOL    HW129825   0.215   0.567   6.497  0.3026 -1.3647 -1.4968
 6122SOL    HW229826   0.152   0.533   6.627 -1.8129  0.9510 -1.4015
 6123SOL     OW29827   0.245   2.576  11.713 -0.5124  0.2331  0.2569
 6123SOL    HW129828   0.333   2.615  11.714  0.4200 -1.9654  2.2806
 6123SOL    HW229829   0.196   2.642  11.664 -1.6167 -0.6296  0.2174
 6124SOL     OW29830   3.200   0.098   8.260  0.0719  0.5392  0.5177
 6124SOL    HW129831   3.144   0.131   8.330  1.1482 -0.0752  1.6679
 6124SOL    HW229832   3.177   0.158   8.189 -2.1648  1.0455  1.6785
 6125SOL     OW29833   2.258   3.670   3.905 -0.1485  0.5111 -0.2218
 6125SOL    HW129834   2.253   3.586   3.860  0.2822  0.6131 -0.4534
 6125SOL    HW229835   2.225   3.647   3.992 -0.0772  1.0574 -0.0537
 6126SOL     OW29836   3.012   2.929  10.280 -0.7929 -0.4960 -0.4640
 6126SOL    HW129837   3.076   2.991  10.244 -0.7057 -0.4560 -0.2397
 6126SOL    HW229838   3.016   2.952  10.373  1.2802 -2.0288 -0.1701
 6127SOL     OW29839   0.526   0.608   5.215  0.3565  0.0502  0.6906
 6127SOL    HW129840   0.617   0.580   5.204  0.5892  1.0266  0.1466
 6127SOL    HW229841   0.495   0.535   5.269 -0.1258 -1.5888 -1.7945
 6128SOL     OW29842   2.039   0.979   2.971 -0.0916 -0.2065 -0.1640
 6128SOL    HW129843   2.067   0.910   3.032 -0.5418 -0.1191  0.1397
 6128SOL    HW229844   2.092   0.956   2.895  2.0384 -1.9184  1.8073
 6129SOL     OW29845   0.478   3.456   5.534 -0.3129  0.1739 -0.2432
 6129SOL    HW129846   0.567   3.451   5.569 -0.3150  0.1879 -0.2361
 6129SOL    HW229847   0.492   3.446   5.440 -0.2434 -0.0583 -0.2088
 6130SOL     OW29848   2.566   2.751   7.589 -0.4310  0.0403  0.0241
 6130SOL    HW129849   2.550   2.778   7.679 -0.0407  2.4365 -0.6460
 6130SOL    HW229850   2.587   2.658   7.595 -1.5124 -0.2911 -1.1551
 6131SOL     OW29851   3.791   0.648   7.242 -0.1498 -0.0933  0.0522
 6131SOL    HW129852   3.704   0.654   7.205 -1.0814 -0.9794  2.0629
 6131SOL    HW229853   3.840   0.601   7.175  0.7227  1.9302 -0.7316
 6132SOL     OW29854   3.041   0.564  11.643  0.1202  0.4706  0.3095
 6132SOL    HW129855   3.123   0.520  11.665 -0.5883 -0.9009  0.2251
 6132SOL    HW229856   2.977   0.505  11.684  1.2403 -1.6979 -1.0527
 6133SOL     OW29857   4.374   0.054   4.734  0.1910 -0.0922  1.0594
 6133SOL    HW129858   4.440   0.113   4.696 -0.7571 -0.8681 -1.7996
 6133SOL    HW229859   4.419   4.692   4.716  0.4092  0.5705 -1.3977
 6134SOL     OW29860   3.304   0.918   6.144 -0.3385 -0.2090 -0.0732
 6134SOL    HW129861   3.350   0.897   6.063  1.4760  2.8428  0.2032
 6134SOL    HW229862   3.270   1.000   6.109 -1.7687 -1.1552 -0.9114
 6135SOL     OW29863   0.855   2.044   8.630 -0.1414  0.0255 -0.1121
 6135SOL    HW129864   0.848   1.997   8.547 -1.8229 -1.2050  0.7299
 6135SOL    HW229865   0.867   2.134   8.601  0.6267  0.2783  0.9739
 6136SOL     OW29866   0.827   2.254   9.523 -0.4574  0.1711  0.0086
 6136SOL    HW129867   0.735   2.240   9.498  0.1423 -0.4028 -1.8434
 6136SOL    HW229868   0.829   2.343   9.558 -0.0222  0.3333 -0.4552
 6137SOL     OW29869   0.004   1.550   6.916 -0.2102  0.4352 -0.1004
 6137SOL    HW129870   0.000   1.471   6.970 -0.5074  0.7071  0.2696
 6137SOL    HW229871   0.059   1.515   6.846  0.1742  0.0189  0.4153
 6138SOL     OW29872   1.012   0.957   4.260 -0.1071  0.3413 -0.2388
 6138SOL    HW129873   1.069   0.988   4.330 -0.1008  0.6613 -0.3849
 6138SOL    HW229874   0.974   0.879   4.301  0.2449  1.0731  1.4532
 6139SOL     OW29875   2.562   3.560  17.180 -0.2585 -0.3635 -0.8415
 6139SOL    HW129876   2.624   3.526  17.244 -1.6830 -4.8982 -1.8500
 6139SOL    HW229877   2.479   3.517  17.203 -0.1845 -0.7332 -1.2778
 6140SOL     OW29878   3.171   3.948   5.918 -0.1364 -0.1983 -0.6601
 6140SOL    HW129879   3.151   4.027   5.968  1.3709  0.3259 -0.8699
 6140SOL    HW229880   3.136   3.885   5.981 -1.0402  0.8368 -0.1324
 6141SOL     OW29881   4.019   2.893   5.238 -0.6535  0.5598 -0.3418
 6141SOL    HW129882   4.072   2.837   5.181 -0.0843 -0.6279  1.3660
 6141SOL    HW229883   4.037   2.864   5.327  1.3558  0.8130 -0.6686
 6142SOL     OW29884   2.709   1.249   1.525  0.4999 -0.3554  0.2580
 6142SOL    HW129885   2.801   1.246   1.499  0.4115  2.2565 -0.3369
 6142SOL    HW229886   2.703   1.319   1.590  1.0658 -0.2064  0.1478
 6143SOL     OW29887   0.324   1.851  10.893 -0.2581 -0.3715 -0.1619
 6143SOL    HW129888   0.389   1.799  10.941 -0.2174  0.1246  0.3108
 6143SOL    HW229889   0.366   1.936  10.901 -1.2060 -0.0021  0.7699
 6144SOL     OW29890   3.274   1.348   6.968  0.6166  0.1973  0.3612
 6144SOL    HW129891   3.238   1.409   7.032  1.3266  2.0760 -1.0092
 6144SOL    HW229892   3.266   1.405   6.891  2.1866 -0.0558 -0.0029
 6145SOL     OW29893   2.580   0.166  15.717 -0.0840  0.2338  1.1438
 6145SOL    HW129894   2.533   0.088  15.688 -0.5055  1.3685 -1.2014
 6145SOL    HW229895   2.666   0.145  15.681 -1.4184 -2.2036 -0.6248
 6146SOL     OW29896   2.296   0.429  16.605 -0.2811  0.1784  0.3780
 6146SOL    HW129897   2.340   0.505  16.641 -1.5572  2.0697 -2.0561
 6146SOL    HW229898   2.214   0.470  16.577 -0.4758 -0.3522  0.1545
 6147SOL     OW29899   4.558   2.556   9.053 -0.0263  0.2737 -0.0864
 6147SOL    HW129900   4.635   2.500   9.044 -0.7922 -0.9853  1.1715
 6147SOL    HW229901   4.515   2.527   9.133  0.3448 -1.9206 -0.7000
 6148SOL     OW29902   2.849   2.404   6.458 -0.0877 -0.1835 -0.8697
 6148SOL    HW129903   2.935   2.403   6.418  0.1019  0.0779 -0.4674
 6148SOL    HW229904   2.791   2.362   6.395 -1.1699 -1.2789  0.8355
 6149SOL     OW29905   4.603   4.259   7.180  0.2852 -0.2429  0.4204
 6149SOL    HW129906   4.570   4.231   7.265  2.4092 -0.1008  1.2832
 6149SOL    HW229907   4.667   4.192   7.159  0.8648  0.4047  0.1337
 6150SOL     OW29908   1.360   0.401   2.979  0.0257  0.0102 -0.1447
 6150SOL    HW129909   1.444   0.388   2.936  0.5488 -0.2548  0.9613
 6150SOL    HW229910   1.366   0.336   3.049 -0.0071 -1.1836 -1.2392
 6151SOL     OW29911   0.140   3.943   4.834 -0.0445  0.2156 -0.1205
 6151SOL    HW129912   0.145   4.038   4.849 -0.7849  0.0150  1.2837
 6151SOL    HW229913   0.046   3.937   4.846 -0.2840 -2.6652 -3.5400
 6152SOL     OW29914   1.596   1.434   9.793  0.9392 -0.2784 -0.5210
 6152SOL    HW129915   1.539   1.462   9.722  0.4796  1.4038  0.5172
 6152SOL    HW229916   1.538   1.455   9.867  1.4870  1.8414 -0.6949
 6153SOL     OW29917   1.970   1.648   2.454  0.0583  0.7450 -0.0062
 6153SOL    HW129918   2.064   1.655   2.438  0.0061  0.8700 -0.2594
 6153SOL    HW229919   1.962   1.565   2.501  0.9572  1.8766  2.1297
 6154SOL     OW29920   2.721   0.669   8.107  0.2532  0.5545 -0.7593
 6154SOL    HW129921   2.772   0.700   8.182 -0.9654 -0.0151  0.3193
 6154SOL    HW229922   2.737   0.739   8.043 -2.2239  2.9498  1.2176
 6155SOL     OW29923   3.462   4.673   4.369  0.1550  0.1586 -0.0681
 6155SOL    HW129924   3.465   4.600   4.430 -1.0575  0.7691  0.7382
 6155SOL    HW229925   3.388   0.008   4.394  0.9087  1.7476 -1.3580
 6156SOL     OW29926   0.029   4.549   7.215  0.3906  0.4356  0.0716
 6156SOL    HW129927   4.705   4.551   7.299 -0.1953 -0.9863 -0.1996
 6156SOL    HW229928   0.011   4.463   7.178 -0.2615  0.1581  1.0358
 6157SOL     OW29929   2.736   0.058   4.887  0.4325 -0.2293 -0.1129
 6157SOL    HW129930   2.661   0.050   4.827 -0.5808 -2.0956  1.4071
 6157SOL    HW229931   2.807   0.087   4.830 -1.1142  3.0254 -0.3418
 6158SOL     OW29932   4.501   4.139   6.258  0.3510 -0.4473  0.2964
 6158SOL    HW129933   4.538   4.111   6.174 -1.4149 -0.9274 -0.3231
 6158SOL    HW229934   4.473   4.229   6.243  0.5872 -0.3973  0.1588
 6159SOL     OW29935   4.512   3.386  12.875  0.4465 -0.2572 -0.0648
 6159SOL    HW129936   4.580   3.348  12.931 -0.6079 -1.1398  0.6217
 6159SOL    HW229937   4.562   3.435  12.810  1.3372 -1.2979 -0.1698
 6160SOL     OW29938   3.438   4.177   8.204  0.2350  0.0563 -0.3267
 6160SOL    HW129939   3.504   4.108   8.193  0.4292  0.0884  0.5660
 6160SOL    HW229940   3.483   4.234   8.266 -2.1016 -0.2793  1.6877
 6161SOL     OW29941   1.243   3.131  15.274 -0.2146  1.0049  0.1743
 6161SOL    HW129942   1.172   3.190  15.248  0.3737  1.7635  0.2627
 6161SOL    HW229943   1.244   3.048  15.227 -1.2108  1.6709 -1.0303
 6162SOL     OW29944   1.460   0.362   5.863 -0.2624 -0.3242  0.1936
 6162SOL    HW129945   1.489   0.290   5.919 -0.3320 -1.0970 -0.7685
 6162SOL    HW229946   1.369   0.376   5.888  0.1918  0.4009  1.4252
 6163SOL     OW29947   0.825   0.570   9.953  0.1062  0.2551  0.0922
 6163SOL    HW129948   0.806   0.639  10.017 -0.5619 -0.0341  0.2079
 6163SOL    HW229949   0.918   0.584   9.936 -0.3940  0.2637 -2.6608
 6164SOL     OW29950   2.614   3.638   4.506  0.0913  0.6837  0.0107
 6164SOL    HW129951   2.526   3.640   4.544 -0.5968  0.6434 -1.5587
 6164SOL    HW229952   2.655   3.583   4.572 -0.0952  0.2042 -0.2715
 6165SOL     OW29953   1.894   2.652   8.159  0.0319  0.0723  0.6550
 6165SOL    HW129954   1.809   2.638   8.117  1.0426 -0.6007 -1.1973
 6165SOL    HW229955   1.921   2.560   8.153  3.5319  1.1279  0.2755
 6166SOL     OW29956   3.435   0.250  11.244 -0.1497 -0.7422  0.7094
 6166SOL    HW129957   3.353   0.290  11.215 -0.6682 -1.3712  1.3429
 6166SOL    HW229958   3.396   0.198  11.314 -0.5017 -0.5733  0.6392
 6167SOL     OW29959   3.972   0.311   7.675 -0.5053 -0.1723  0.4277
 6167SOL    HW129960   4.064   0.286   7.663 -0.7057 -0.5759 -0.2434
 6167SOL    HW229961   3.979   0.406   7.683 -2.5171  0.0227 -0.1015
 6168SOL     OW29962   2.081   4.108  15.926  0.1727 -0.4453 -0.2876
 6168SOL    HW129963   2.136   4.150  15.859 -0.6935  0.3328 -0.5091
 6168SOL    HW229964   2.112   4.159  16.001  1.5280 -0.8539 -0.5658
 6169SOL     OW29965   2.351   3.129   9.797 -0.1537 -0.2626  0.2297
 6169SOL    HW129966   2.423   3.087   9.751 -1.5664 -1.7395 -0.6293
 6169SOL    HW229967   2.305   3.050   9.826 -1.1661  0.5784  0.9110
 6170SOL     OW29968   0.791   4.335   3.847 -0.4453 -0.0008  0.3367
 6170SOL    HW129969   0.728   4.362   3.781 -1.5922  0.2546  1.5402
 6170SOL    HW229970   0.864   4.387   3.814  0.9981 -0.8752  2.1718
 6171SOL     OW29971   0.486   2.411   4.600 -0.6863 -0.0923 -0.5272
 6171SOL    HW129972   0.427   2.336   4.614 -0.5680  0.0096  0.5628
 6171SOL    HW229973   0.526   2.378   4.520 -0.1771  0.7653 -0.6196
 6172SOL     OW29974   0.399   3.918   8.715 -0.2100  0.3534 -0.6483
 6172SOL    HW129975   0.364   3.849   8.771 -0.8481  2.0941  1.0935
 6172SOL    HW229976   0.356   3.990   8.763 -0.1978 -0.9457  1.2965
 6173SOL     OW29977   0.592   0.581   3.912  0.3544 -0.1557  0.4702
 6173SOL    HW129978   0.687   0.591   3.907  0.4434 -1.3527 -0.0381
 6173SOL    HW229979   0.595   0.490   3.885  0.2265  0.6930 -2.3705
 6174SOL     OW29980   2.500   4.353   6.674  0.2017 -0.1861  0.1147
 6174SOL    HW129981   2.565   4.324   6.737 -0.4770 -1.6796  0.1470
 6174SOL    HW229982   2.420   4.338   6.725  1.4193 -3.2631  1.1090
 6175SOL     OW29983   2.103   3.746  15.637  0.2371  0.3806 -0.4855
 6175SOL    HW129984   2.182   3.735  15.691  0.7471 -0.6247 -1.4307
 6175SOL    HW229985   2.087   3.653  15.623 -2.2495  1.0065 -1.6797
 6176SOL     OW29986   3.371   4.200  16.183 -0.3843  0.3685  0.1255
 6176SOL    HW129987   3.442   4.185  16.246  0.3641  0.8628 -0.5961
 6176SOL    HW229988   3.377   4.295  16.198  0.5913  0.2196  0.7059
 6177SOL     OW29989   0.127   3.830   8.417  0.4546 -0.5065 -0.1516
 6177SOL    HW129990   0.208   3.785   8.440 -0.2812 -1.5416  0.3734
 6177SOL    HW229991   0.125   3.805   8.325  0.6906 -1.0271 -0.0125
 6178SOL     OW29992   4.143   4.091  12.032  0.2453  0.2778  0.3181
 6178SOL    HW129993   4.161   4.181  12.003  0.9368 -0.0483 -0.2609
 6178SOL    HW229994   4.229   4.050  12.025  1.3045  2.4553  0.5302
 6179SOL     OW29995   2.635   4.625   1.145  0.1993  0.2044 -0.5619
 6179SOL    HW129996   2.551   4.579   1.143 -0.5157  1.4800  0.5517
 6179SOL    HW229997   2.670   4.618   1.234  0.9946  0.0160 -0.8909
 6180SOL     OW29998   3.424   1.083   2.218  0.0015  0.3130 -0.0123
 6180SOL    HW129999   3.449   1.170   2.250  0.2017  0.5240 -0.7389
 6180SOL    HW230000   3.467   1.030   2.285 -0.8675  0.6035  0.7727
 6181SOL     OW30001   1.197   2.734   7.888 -0.3591  0.0242 -0.0291
 6181SOL    HW130002   1.106   2.724   7.913 -0.9593  1.5039 -1.6179
 6181SOL    HW230003   1.194   2.827   7.864 -1.5071 -0.6193 -2.3698
 6182SOL     OW30004   3.355   1.446   4.113  0.3774  0.1609 -0.3622
 6182SOL    HW130005   3.300   1.397   4.052  0.9147 -1.7423  0.6878
 6182SOL    HW230006   3.311   1.446   4.198  1.0921  1.1230  0.0189
 6183SOL     OW30007   4.225   4.670   1.373 -0.1271 -0.0459  0.0916
 6183SOL    HW130008   4.319   4.657   1.381  0.0497  1.2912  0.1676
 6183SOL    HW230009   4.230   0.028   1.318 -2.3670 -0.5633 -0.8954
 6184SOL     OW30010   1.457   4.436   6.617 -0.2380  0.1878  0.2478
 6184SOL    HW130011   1.468   4.359   6.673 -1.1937  0.0769  0.2867
 6184SOL    HW230012   1.473   4.401   6.530  0.4862  2.7763 -0.6610
 6185SOL     OW30013   2.042   2.953   2.758  0.1988 -0.9032 -0.1394
 6185SOL    HW130014   2.055   3.047   2.763  0.1382 -0.8048 -1.7835
 6185SOL    HW230015   1.964   2.952   2.702  0.4655  1.1532 -0.5449
 6186SOL     OW30016   1.090   0.327   9.734 -0.5876  0.4696  0.1346
 6186SOL    HW130017   1.149   0.283   9.795 -0.8933 -0.9498 -0.5932
 6186SOL    HW230018   1.137   0.410   9.729  0.3871 -0.0736  0.2998
 6187SOL     OW30019   0.443   1.551   3.183  0.4079 -0.1640  0.7690
 6187SOL    HW130020   0.485   1.604   3.252  1.8805  1.6116 -1.4761
 6187SOL    HW230021   0.473   1.597   3.104 -1.1286  0.0822  0.3393
 6188SOL     OW30022   2.909   3.951   6.209  0.2102  0.9425  0.0731
 6188SOL    HW130023   2.972   4.015   6.241 -1.5974  3.1265 -0.7080
 6188SOL    HW230024   2.863   3.936   6.292  0.1172 -2.9610 -0.6934
 6189SOL     OW30025   3.975   1.362   2.532 -0.6559 -0.2176 -0.0444
 6189SOL    HW130026   4.021   1.350   2.449  0.6169  1.7177  0.3862
 6189SOL    HW230027   3.950   1.451   2.508  0.0017 -0.0590 -0.1240
 6190SOL     OW30028   2.582   4.130  10.748 -0.2828  0.4398 -0.4181
 6190SOL    HW130029   2.531   4.088  10.817 -1.7454  2.3990 -0.3233
 6190SOL    HW230030   2.546   4.079  10.675 -1.8239 -1.2192  1.4866
 6191SOL     OW30031   4.527   4.563  10.115  0.0931 -0.2480  0.5355
 6191SOL    HW130032   4.442   4.593  10.147  0.4758 -0.1579  1.4787
 6191SOL    HW230033   4.569   4.646  10.092  1.3562  0.0448  3.8561
 6192SOL     OW30034   2.849   3.916   4.666 -0.6671  0.1544  0.1551
 6192SOL    HW130035   2.850   3.849   4.734 -0.9231 -0.2089 -0.1968
 6192SOL    HW230036   2.786   3.970   4.714 -0.4893  0.9648 -0.5331
 6193SOL     OW30037   0.158   2.129   0.359 -0.0191 -0.1519  0.4902
 6193SOL    HW130038   0.228   2.127   0.425  0.1694  1.6466  0.3647
 6193SOL    HW230039   0.086   2.083   0.401 -0.2011  0.4014  0.7882
 6194SOL     OW30040   4.622   2.618  13.753 -0.5587  0.0332 -0.0942
 6194SOL    HW130041   4.637   2.699  13.801  2.6092 -0.6715  0.1036
 6194SOL    HW230042   4.569   2.574  13.821 -0.6202 -2.3715 -1.6965
 6195SOL     OW30043   3.047   1.635   4.762 -0.4217 -0.1030  0.9199
 6195SOL    HW130044   3.086   1.558   4.721  0.6846  0.2780  1.2625
 6195SOL    HW230045   2.974   1.583   4.795  0.1241 -1.6655 -0.3641
 6196SOL     OW30046   4.267   0.743   2.256 -0.4153  0.4549 -0.1220
 6196SOL    HW130047   4.274   0.679   2.185 -1.2474  0.6434 -0.3810
 6196SOL    HW230048   4.227   0.692   2.326 -1.5762  0.3246 -0.8679
 6197SOL     OW30049   2.427   0.877   1.752  0.0441  0.2437  0.0312
 6197SOL    HW130050   2.474   0.954   1.722  0.3385 -0.1029 -0.3954
 6197SOL    HW230051   2.437   0.894   1.846  0.9649 -0.5328  0.0763
 6198SOL     OW30052   1.192   3.592  16.003  0.2279 -0.5205 -0.2081
 6198SOL    HW130053   1.260   3.660  15.999  1.0999 -1.4579 -1.1204
 6198SOL    HW230054   1.110   3.637  15.986 -0.1553 -0.8829  0.6713
 6199SOL     OW30055   2.476   3.576  10.026  0.4423  0.0434 -0.0006
 6199SOL    HW130056   2.524   3.495  10.009 -1.4919 -0.9178 -0.8969
 6199SOL    HW230057   2.408   3.535  10.080  0.8565  0.4250  0.8131
 6200SOL     OW30058   2.223   0.269   5.056  0.4847  0.1404 -0.1636
 6200SOL    HW130059   2.163   0.309   5.118  1.9967  0.8373  0.8679
 6200SOL    HW230060   2.305   0.312   5.081 -0.8553  0.9968  2.7832
 6201SOL     OW30061   0.969   3.894   4.663  0.4528  0.5632  0.1027
 6201SOL    HW130062   1.007   3.894   4.575  1.8478  0.9807  0.7071
 6201SOL    HW230063   1.016   3.817   4.694 -0.6622  1.2011  3.2961
 6202SOL     OW30064   0.914   1.486   4.311 -0.0185  0.5697 -0.0701
 6202SOL    HW130065   0.969   1.420   4.353  1.3755  2.0810  0.4829
 6202SOL    HW230066   0.986   1.531   4.267  0.2161 -1.2973 -1.5906
 6203SOL     OW30067   0.075   0.162   4.008  0.6391  0.0638  0.0513
 6203SOL    HW130068   0.155   0.157   4.060 -0.1333 -0.9471  1.1522
 6203SOL    HW230069   0.049   0.070   4.012  0.7525  0.1114  1.6614
 6204SOL     OW30070   1.860   1.466   8.022  0.2040 -0.5327  0.6042
 6204SOL    HW130071   1.843   1.521   7.946 -0.3900  0.8762  1.7685
 6204SOL    HW230072   1.802   1.500   8.090 -0.7546  0.4521 -0.7162
 6205SOL     OW30073   2.056   3.374   8.696 -0.4176  0.0583  0.2481
 6205SOL    HW130074   1.974   3.336   8.667  2.1789 -3.6860 -2.0717
 6205SOL    HW230075   2.107   3.380   8.615  1.2244 -2.1444  1.1299
 6206SOL     OW30076   4.285   3.821   4.349  0.1017  0.3492  0.5836
 6206SOL    HW130077   4.313   3.844   4.261  0.4078 -1.4232  0.2058
 6206SOL    HW230078   4.221   3.887   4.374 -2.1093 -1.2972 -0.7450
 6207SOL     OW30079   2.016   1.869  13.194 -0.1550  0.3450  0.5454
 6207SOL    HW130080   2.027   1.915  13.277 -0.0546  0.2179  0.6019
 6207SOL    HW230081   1.921   1.857  13.198 -0.0058 -1.0290  0.1521
 6208SOL     OW30082   4.511   4.124   2.943 -0.1375 -0.0108 -0.0796
 6208SOL    HW130083   4.432   4.126   2.889  0.0121 -0.2272 -0.3135
 6208SOL    HW230084   4.473   4.093   3.025  0.0117 -1.6089 -0.5967
 6209SOL     OW30085   1.702   0.748   3.509  0.0547  0.1560 -0.0494
 6209SOL    HW130086   1.755   0.717   3.436 -0.4390  0.1199 -0.3900
 6209SOL    HW230087   1.718   0.673   3.566 -1.1686  0.4937  0.7555
 6210SOL     OW30088   0.533   3.752   6.359  0.1931 -0.3102  0.0717
 6210SOL    HW130089   0.593   3.688   6.321  2.9196  3.0314 -1.3098
 6210SOL    HW230090   0.448   3.729   6.321 -0.9584  1.6281  1.4472
 6211SOL     OW30091   1.062   1.665   4.122 -0.0894 -0.1873  0.7851
 6211SOL    HW130092   1.152   1.696   4.121 -0.3553  0.6206  1.4068
 6211SOL    HW230093   1.014   1.747   4.107 -0.7443 -0.7179 -0.0541
 6212SOL     OW30094   0.544   3.970   6.512  0.1946 -0.3563  0.2180
 6212SOL    HW130095   0.549   3.908   6.439 -0.6917 -0.0193 -0.1286
 6212SOL    HW230096   0.579   3.921   6.586  1.4397  0.6503  0.2916
 6213SOL     OW30097   1.439   2.993   6.339 -0.4662  0.4694 -0.2419
 6213SOL    HW130098   1.381   2.917   6.331  0.4678 -0.1562 -1.1414
 6213SOL    HW230099   1.493   2.961   6.411  1.9045  1.2118 -1.6877
 6214SOL     OW30100   2.070   3.332   4.679 -0.2203 -0.5367 -0.1953
 6214SOL    HW130101   2.069   3.247   4.722  0.6934 -0.2199  0.4572
 6214SOL    HW230102   2.128   3.383   4.736 -1.5876 -1.2643  1.8463
 6215SOL     OW30103   2.803   3.554  11.011 -0.1442  0.0009  0.5500
 6215SOL    HW130104   2.811   3.620  11.080 -0.6648 -0.9163  1.4884
 6215SOL    HW230105   2.880   3.498  11.024 -0.5169 -0.0920  2.2335
 6216SOL     OW30106   4.035   3.876   7.614  0.3569 -1.0086 -0.4915
 6216SOL    HW130107   3.951   3.875   7.568 -0.0910 -0.9515  0.3167
 6216SOL    HW230108   4.033   3.787   7.648  1.2272 -1.3006 -1.2089
 6217SOL     OW30109   1.164   2.704   5.808  0.4146 -0.0737  0.2029
 6217SOL    HW130110   1.162   2.646   5.732 -0.0224  0.1881  0.0162
 6217SOL    HW230111   1.212   2.779   5.772  1.3635 -0.6437  0.2818
 6218SOL     OW30112   4.265   0.875   0.123  0.2576 -0.7318 -0.1745
 6218SOL    HW130113   4.229   0.841   0.041 -0.4541  1.7754 -0.9014
 6218SOL    HW230114   4.288   0.967   0.106 -1.3660 -0.4107 -0.6264
 6219SOL     OW30115   1.064   3.132   8.946 -0.6548 -0.4060  0.1926
 6219SOL    HW130116   1.111   3.070   9.002  1.0288  1.3085  0.6561
 6219SOL    HW230117   1.105   3.210   8.982 -2.2078 -0.0231  1.1027
 6220SOL     OW30118   3.679   0.865  13.284  0.2805 -0.3481  0.0596
 6220SOL    HW130119   3.641   0.783  13.316  1.4833 -0.9815 -0.1447
 6220SOL    HW230120   3.686   0.840  13.192  3.2666 -2.3721  0.8609
 6221SOL     OW30121   3.827   0.598   1.497 -0.0147  0.2594  0.4785
 6221SOL    HW130122   3.829   0.505   1.520 -2.4698  0.3814  1.1667
 6221SOL    HW230123   3.781   0.592   1.413 -0.1273  1.7679  0.4264
 6222SOL     OW30124   4.191   3.396  10.716  0.2933 -0.0251 -0.1053
 6222SOL    HW130125   4.194   3.455  10.641 -0.5048 -0.2271 -0.2973
 6222SOL    HW230126   4.225   3.455  10.783  0.5679 -0.3749  0.0694
 6223SOL     OW30127   1.574   0.016  12.074  0.0844  0.3240  0.3011
 6223SOL    HW130128   1.526   0.098  12.061  1.6723  1.4692  1.5820
 6223SOL    HW230129   1.663   0.052  12.065  0.8798 -1.7941 -0.1457
 6224SOL     OW30130   1.634   1.716   3.574  0.0021 -0.0921  0.5320
 6224SOL    HW130131   1.612   1.624   3.559  3.3303 -0.9334  0.9065
 6224SOL    HW230132   1.621   1.722   3.668  1.1191  2.0945  0.5515
 6225SOL     OW30133   4.458   2.210   8.343 -0.1368  0.1943  0.3081
 6225SOL    HW130134   4.498   2.161   8.272 -1.5240 -0.7364  0.1646
 6225SOL    HW230135   4.429   2.128   8.383  1.3168  0.9716  2.9497
 6226SOL     OW30136   1.564   0.854   7.557  0.2163 -0.0005 -0.7242
 6226SOL    HW130137   1.536   0.907   7.483  0.8992  0.6630 -0.5058
 6226SOL    HW230138   1.641   0.810   7.521 -0.2498 -1.4369  0.0204
 6227SOL     OW30139   4.415   4.031   0.283  0.4949 -0.3407  0.2704
 6227SOL    HW130140   4.359   4.091   0.234 -0.3708 -2.2048 -1.0263
 6227SOL    HW230141   4.349   3.995   0.342 -1.0409 -0.7515 -1.6907
 6228SOL     OW30142   0.397   4.186  12.086 -0.4033 -0.0516  0.0281
 6228SOL    HW130143   0.422   4.195  12.178 -1.9369  0.3210  0.3931
 6228SOL    HW230144   0.366   4.095  12.081 -0.3815 -0.0603  0.0538
 6229SOL     OW30145   1.079   2.056  16.293 -0.3989 -0.1348 -0.3727
 6229SOL    HW130146   1.122   2.013  16.367 -1.9772 -1.0175  0.0380
 6229SOL    HW230147   1.030   2.126  16.336 -0.2433 -0.8304  0.9227
 6230SOL     OW30148   0.701   3.314  11.381  0.5283  0.1601  0.1073
 6230SOL    HW130149   0.700   3.262  11.461 -0.5606  0.3210  0.2030
 6230SOL    HW230150   0.627   3.374  11.393 -1.1957 -1.9428 -0.0050
 6231SOL     OW30151   0.157   2.018   6.181  0.8399 -0.1399  0.2443
 6231SOL    HW130152   0.134   2.032   6.089  1.9610 -1.3802 -0.2215
 6231SOL    HW230153   0.129   2.100   6.223 -1.4365 -1.5931  1.5746
 6232SOL     OW30154   4.560   4.171  14.919 -0.2876  0.0642 -0.0623
 6232SOL    HW130155   4.623   4.214  14.976  0.6312  1.2632 -1.9819
 6232SOL    HW230156   4.559   4.081  14.954 -1.6741 -0.2245 -0.8496
 6233SOL     OW30157   3.067   2.606   7.163  0.2947  0.1762 -0.7656
 6233SOL    HW130158   3.054   2.560   7.080 -0.9263 -0.0347 -0.4547
 6233SOL    HW230159   3.080   2.531   7.221 -1.0842  0.7771  0.3180
 6234SOL     OW30160   4.189   3.569   4.757 -0.1496  0.5295  0.0691
 6234SOL    HW130161   4.185   3.622   4.836  0.1797 -1.8674  1.6685
 6234SOL    HW230162   4.140   3.622   4.694 -2.2043  1.2933  2.3047
 6235SOL     OW30163   1.121   1.872   7.343 -0.0066  0.3436 -0.5104
 6235SOL    HW130164   1.134   1.895   7.251  1.8726 -3.0976 -1.0742
 6235SOL    HW230165   1.037   1.826   7.339 -0.4656  1.0144  1.1291
 6236SOL     OW30166   1.313   2.388   5.844  0.1284  0.5912  0.3406
 6236SOL    HW130167   1.263   2.380   5.925  0.5629  0.7045  0.6171
 6236SOL    HW230168   1.243   2.430   5.794 -0.2462  1.9844  2.0447
 6237SOL     OW30169   0.487   0.767  12.041 -0.9931 -0.3775 -0.2167
 6237SOL    HW130170   0.582   0.767  12.050 -0.8601 -2.9611 -1.6297
 6237SOL    HW230171   0.471   0.856  12.010 -1.2698  0.1015  1.2863
 6238SOL     OW30172   3.257   2.042   4.527 -0.6318 -0.1524 -0.8377
 6238SOL    HW130173   3.350   2.052   4.548 -0.7558  3.1541 -1.7986
 6238SOL    HW230174   3.240   1.952   4.557 -0.7025  0.4452  0.9516
 6239SOL     OW30175   3.701   2.049  13.700 -0.0583 -0.5615  0.3539
 6239SOL    HW130176   3.736   2.083  13.783  0.9615  0.1358 -0.3483
 6239SOL    HW230177   3.634   1.991  13.735  0.5423 -1.2982  0.2811
 6240SOL     OW30178   4.311   3.441   8.573  0.6874  0.4684  0.0410
 6240SOL    HW130179   4.269   3.499   8.636 -1.0351 -0.5855 -0.1402
 6240SOL    HW230180   4.313   3.500   8.498  0.0308  0.5008  0.0497
 6241SOL     OW30181   0.702   4.133  16.085 -0.1107 -0.8302 -0.0814
 6241SOL    HW130182   0.642   4.197  16.046  0.0143 -1.1057 -0.7332
 6241SOL    HW230183   0.639   4.062  16.099  0.5249 -1.2667  0.5276
 6242SOL     OW30184   3.265   2.405  15.955 -0.6044 -0.6408  0.0645
 6242SOL    HW130185   3.298   2.461  15.884 -1.6725  0.0415  0.1053
 6242SOL    HW230186   3.248   2.477  16.016  2.7957  0.0944  0.1387
 6243SOL     OW30187   1.075   2.595   5.303 -0.1636  0.1787 -0.1003
 6243SOL    HW130188   1.084   2.562   5.213 -1.2666  2.0197 -0.8946
 6243SOL    HW230189   0.982   2.615   5.310 -0.2535 -0.9861  1.9024
 6244SOL     OW30190   3.421   1.222   8.617 -0.2672  0.1657  0.2542
 6244SOL    HW130191   3.390   1.185   8.700 -1.9828  2.3104  0.5922
 6244SOL    HW230192   3.512   1.229   8.646 -0.3713 -2.2402  1.1561
 6245SOL     OW30193   1.794   2.143   6.215  0.3517  0.3615  0.2162
 6245SOL    HW130194   1.806   2.237   6.209 -1.5169  0.4837 -1.7062
 6245SOL    HW230195   1.873   2.105   6.178  0.9601  0.2987  1.5725
 6246SOL     OW30196   2.709   1.645   3.248  0.2990 -0.8947 -0.0909
 6246SOL    HW130197   2.705   1.554   3.217 -0.1532 -0.7186 -0.5669
 6246SOL    HW230198   2.690   1.643   3.342  0.6514 -1.8468 -0.0452
 6247SOL     OW30199   2.231   0.129   3.122  0.8784  0.1234 -0.2974
 6247SOL    HW130200   2.200   0.217   3.144 -0.5026 -1.0267  2.3552
 6247SOL    HW230201   2.325   0.132   3.138  0.5431  0.7187  1.5440
 6248SOL     OW30202   3.156   3.494   4.227 -0.2393  0.0561  0.2521
 6248SOL    HW130203   3.083   3.444   4.264  0.6457 -1.8608 -0.6127
 6248SOL    HW230204   3.120   3.500   4.139  0.6983  0.7017 -0.0756
 6249SOL     OW30205   1.978   4.523   7.655  0.3601 -0.0310  0.1863
 6249SOL    HW130206   1.884   4.542   7.650 -0.1041 -2.8220 -1.7032
 6249SOL    HW230207   1.998   4.508   7.563 -0.7619  1.6632 -0.3281
 6250SOL     OW30208   1.723   2.124   6.991  0.8340 -0.1644 -0.2961
 6250SOL    HW130209   1.679   2.209   6.995 -0.0995 -0.6510 -0.1155
 6250SOL    HW230210   1.811   2.152   6.968  0.1293  0.1222 -2.5695
 6251SOL     OW30211   3.218   2.412   9.582 -0.4399 -0.2054 -0.5396
 6251SOL    HW130212   3.227   2.504   9.559  0.1241 -0.4649 -1.3739
 6251SOL    HW230213   3.290   2.373   9.533 -0.4760  0.1775 -0.8927
 6252SOL     OW30214   3.745   2.565  11.247 -0.4062  0.1726  0.2265
 6252SOL    HW130215   3.694   2.485  11.253 -1.7201  1.0632  0.8564
 6252SOL    HW230216   3.698   2.618  11.312 -0.5974 -1.2872  1.2688
 6253SOL     OW30217   4.323   2.088   9.180  0.5911  0.0795 -0.1922
 6253SOL    HW130218   4.327   2.049   9.267  0.0101  1.4545  0.4454
 6253SOL    HW230219   4.246   2.144   9.189  0.6998  0.0102  1.0596
 6254SOL     OW30220   3.814   0.036   2.616 -0.9512  0.0431  0.0235
 6254SOL    HW130221   3.846   0.126   2.612 -0.0529 -0.3044 -0.7986
 6254SOL    HW230222   3.892   4.700   2.609  0.7246  2.2972  0.4632
 6255SOL     OW30223   4.119   0.021   2.971  0.3516 -0.3295 -0.5775
 6255SOL    HW130224   4.132   4.651   2.942  1.7263 -0.1549 -0.5016
 6255SOL    HW230225   4.135   0.066   2.888 -1.3774  1.5432  0.1156
 6256SOL     OW30226   4.281   1.681   2.297 -0.0940  0.4570 -0.0044
 6256SOL    HW130227   4.317   1.645   2.215  2.2523  0.3114  1.0870
 6256SOL    HW230228   4.337   1.639   2.362 -0.8328 -0.9920 -0.3018
 6257SOL     OW30229   1.309   3.979  16.750  0.0178  0.1260  0.1406
 6257SOL    HW130230   1.264   3.910  16.797 -0.7969  0.5825  0.0219
 6257SOL    HW230231   1.400   3.972  16.781  0.2627  1.9449 -0.1577
 6258SOL     OW30232   1.298   2.551   2.463  0.0528  0.3861  0.1599
 6258SOL    HW130233   1.364   2.577   2.528  0.1756  1.2515 -0.3168
 6258SOL    HW230234   1.341   2.572   2.380  1.4519 -0.5726  0.6345
 6259SOL     OW30235   4.352   1.209   7.439 -0.4867  0.3437  0.1082
 6259SOL    HW130236   4.301   1.276   7.485  0.0809  1.2670 -0.6263
 6259SOL    HW230237   4.382   1.160   7.516 -0.7248  3.6009  2.2665
 6260SOL     OW30238   2.064   1.853   1.752  0.0085 -0.6649  0.1177
 6260SOL    HW130239   2.045   1.867   1.845 -0.6309 -0.4367 -0.0457
 6260SOL    HW230240   2.060   1.942   1.716  0.6047 -1.7859 -2.7439
 6261SOL     OW30241   3.366   0.049   5.443 -0.1938  0.4037 -0.1199
 6261SOL    HW130242   3.367   0.139   5.475  0.1720  0.7143 -0.9953
 6261SOL    HW230243   3.461   0.034   5.441  0.0469  1.8214  0.4430
 6262SOL     OW30244   0.460   2.727  11.730 -0.1218 -0.1150  0.3843
 6262SOL    HW130245   0.480   2.819  11.746 -0.5258  0.0701 -0.1821
 6262SOL    HW230246   0.517   2.712  11.654 -1.5578 -0.7233 -0.5757
 6263SOL     OW30247   3.756   2.878   8.791  0.0849 -0.3425  0.2898
 6263SOL    HW130248   3.838   2.927   8.788  0.4430 -0.9892 -0.5541
 6263SOL    HW230249   3.754   2.831   8.707  0.7100 -2.1272  1.2768
 6264SOL     OW30250   3.962   2.459   9.918  0.1823  0.0456  0.0154
 6264SOL    HW130251   3.928   2.382   9.872 -1.8602  0.5853  0.6458
 6264SOL    HW230252   4.052   2.464   9.886  0.7354 -1.9772  1.2698
 6265SOL     OW30253   1.254   3.681   8.769  0.0599 -0.4136  0.9230
 6265SOL    HW130254   1.209   3.625   8.706  0.2370  0.5331 -0.0533
 6265SOL    HW230255   1.320   3.706   8.704 -1.4868  3.4685  0.8062
 6266SOL     OW30256   3.423   2.510   5.674 -0.3221 -0.4553 -0.9355
 6266SOL    HW130257   3.417   2.427   5.720  0.7117  0.8101  1.4483
 6266SOL    HW230258   3.338   2.503   5.631 -0.4734 -1.2416 -0.4964
 6267SOL     OW30259   0.160   3.897   9.978 -0.4082 -0.4357  0.6399
 6267SOL    HW130260   0.165   3.846   9.897  0.2416 -0.6807  0.8372
 6267SOL    HW230261   0.135   3.978   9.934 -1.8453 -1.3043 -0.1397
 6268SOL     OW30262   2.235   0.558   5.785 -0.3150 -0.1153  0.7150
 6268SOL    HW130263   2.228   0.610   5.865 -1.2108 -0.2544  0.7222
 6268SOL    HW230264   2.325   0.526   5.790 -0.0963  0.6282  1.5749
 6269SOL     OW30265   2.244   3.561   2.881 -0.3887  0.2817 -0.5271
 6269SOL    HW130266   2.271   3.485   2.933 -0.1608  0.0925 -0.9176
 6269SOL    HW230267   2.153   3.556   2.908  0.3989  0.4168  2.1863
 6270SOL     OW30268   4.074   4.592   6.486  0.0033 -0.0249 -0.6346
 6270SOL    HW130269   4.019   4.670   6.490 -1.3902 -0.9391 -1.7966
 6270SOL    HW230270   4.052   4.543   6.565 -0.4557  0.4059 -0.4973
 6271SOL     OW30271   0.672   3.998   4.149 -0.4836  0.6876  0.2275
 6271SOL    HW130272   0.713   4.081   4.123 -3.1546  2.3208  1.3107
 6271SOL    HW230273   0.581   4.016   4.169 -0.1799  2.6940 -0.1057
 6272SOL     OW30274   3.337   3.887   9.052 -0.3884 -0.7443 -0.1886
 6272SOL    HW130275   3.298   3.965   9.013  0.9154  0.7563  1.4827
 6272SOL    HW230276   3.340   3.833   8.973  0.1000  0.7409 -1.1788
 6273SOL     OW30277   4.081   0.629   5.919 -0.2125 -0.1469  0.3210
 6273SOL    HW130278   4.050   0.705   5.968 -2.5948 -1.1794  0.3896
 6273SOL    HW230279   4.175   0.647   5.908 -0.5681  0.1089 -2.3560
 6274SOL     OW30280   4.226   1.634   0.104  0.0751  0.5123  0.1133
 6274SOL    HW130281   4.300   1.617   0.045  0.4636  0.4227  0.6282
 6274SOL    HW230282   4.271   1.669   0.182  0.1279  1.2528 -0.2457
 6275SOL     OW30283   2.723   2.168  14.487 -0.1233 -0.0085  0.1626
 6275SOL    HW130284   2.667   2.102  14.447  0.7512 -0.8769  0.3773
 6275SOL    HW230285   2.706   2.237  14.422  0.5102  0.0252  0.0286
 6276SOL     OW30286   3.336   3.690   7.107  0.3805 -0.1337  0.2191
 6276SOL    HW130287   3.326   3.761   7.170  1.6792 -0.4113  0.7436
 6276SOL    HW230288   3.428   3.667   7.121  0.2014 -0.0419  1.5217
 6277SOL     OW30289   0.023   1.038   7.530  0.8634  0.0812 -0.2198
 6277SOL    HW130290   4.686   1.058   7.457  0.2473 -1.1536 -0.0736
 6277SOL    HW230291   0.072   1.116   7.557  1.8514 -0.4688 -0.4135
 6278SOL     OW30292   2.716   2.125   6.725  0.4291 -0.3676 -0.4458
 6278SOL    HW130293   2.795   2.177   6.712  0.9565 -1.8094 -3.0420
 6278SOL    HW230294   2.772   2.048   6.740 -0.1478 -0.8616 -0.8422
 6279SOL     OW30295   0.908   3.776  17.082 -0.2901  0.0791  0.2492
 6279SOL    HW130296   0.930   3.859  17.039  2.1711 -1.0618 -0.7201
 6279SOL    HW230297   0.970   3.722  17.033  1.5071  0.4779  2.0443
 6280SOL     OW30298   0.295   3.464   3.413  0.0356 -0.3045  0.0736
 6280SOL    HW130299   0.313   3.407   3.339  2.7015 -0.6754  1.0088
 6280SOL    HW230300   0.230   3.527   3.381  0.1135 -0.2694 -0.0174
 6281SOL     OW30301   4.525   3.936   3.522  0.1478  0.1762 -0.5722
 6281SOL    HW130302   4.456   3.942   3.588 -1.1402 -1.5670 -1.7968
 6281SOL    HW230303   4.605   3.967   3.566 -1.0791  0.0587  1.7484
 6282SOL     OW30304   0.298   3.461   5.828  0.1443  0.0675 -0.5105
 6282SOL    HW130305   0.309   3.544   5.783  1.8513  1.3458  2.2851
 6282SOL    HW230306   0.287   3.403   5.753  1.3981 -0.4735 -0.2774
 6283SOL     OW30307   3.749   2.070   6.236 -0.0749  0.2987 -0.1357
 6283SOL    HW130308   3.787   2.103   6.317 -1.5973 -1.8239  1.4237
 6283SOL    HW230309   3.824   2.077   6.177  0.5659  1.7371  0.8799
 6284SOL     OW30310   3.368   4.558   3.283  0.1495 -0.4283  0.0353
 6284SOL    HW130311   3.405   4.573   3.197  1.5570 -1.4473  0.4616
 6284SOL    HW230312   3.363   4.649   3.313 -0.2945 -0.9076  1.4425
 6285SOL     OW30313   2.824   1.480   6.708 -0.0993 -0.2209  0.4841
 6285SOL    HW130314   2.792   1.494   6.619 -0.5866 -2.0221  0.3786
 6285SOL    HW230315   2.850   1.388   6.697 -0.1665 -0.3630  1.5086
 6286SOL     OW30316   2.414   3.953   7.640 -0.0824 -0.8278  0.2697
 6286SOL    HW130317   2.322   3.939   7.615 -0.0134  1.4450 -1.1929
 6286SOL    HW230318   2.419   4.048   7.646  1.8061 -0.9217 -0.0005
 6287SOL     OW30319   0.430   4.126   4.658  0.3259 -0.5830 -0.3635
 6287SOL    HW130320   0.488   4.201   4.649  0.2513 -0.3961  0.7704
 6287SOL    HW230321   0.380   4.155   4.734  0.7816 -0.8218  0.0307
 6288SOL     OW30322   4.680   1.680  12.419  0.5080 -0.4704  0.0552
 6288SOL    HW130323   4.675   1.639  12.333  1.2860 -0.4900  0.0197
 6288SOL    HW230324   4.600   1.733  12.417  0.9068  0.0209 -2.0749
 6289SOL     OW30325   2.694   0.008   6.886  0.3888 -0.2878 -0.1130
 6289SOL    HW130326   2.739   4.691   6.810 -2.0908 -0.8054 -1.3315
 6289SOL    HW230327   2.620   0.059   6.852 -0.1323  0.0710  1.5365
 6290SOL     OW30328   3.450   1.840   7.593 -0.1506 -0.5226 -0.0341
 6290SOL    HW130329   3.540   1.872   7.593 -0.4898  0.4273 -1.8498
 6290SOL    HW230330   3.479   1.749   7.589 -1.4859 -0.9320 -0.3057
 6291SOL     OW30331   2.273   2.733   4.386  0.3643 -0.7114  0.4866
 6291SOL    HW130332   2.183   2.702   4.390 -0.2498  1.0648  0.4142
 6291SOL    HW230333   2.278   2.782   4.468  0.3254 -0.6442  0.4487
 6292SOL     OW30334   4.064   2.448  16.664  0.4892 -0.3618  0.1202
 6292SOL    HW130335   3.984   2.470  16.712  1.8198  0.6145  1.8715
 6292SOL    HW230336   4.058   2.511  16.593 -0.6761 -0.3353  0.2336
 6293SOL     OW30337   3.995   4.487   1.447  0.7491 -0.1860  0.2736
 6293SOL    HW130338   3.930   4.555   1.429  0.3483  0.0148  2.4190
 6293SOL    HW230339   4.078   4.529   1.424  0.9235 -0.6131  0.1290
 6294SOL     OW30340   1.551   1.223   3.853  0.1918  0.5746 -0.0686
 6294SOL    HW130341   1.503   1.140   3.841 -0.8758  1.1151  0.4230
 6294SOL    HW230342   1.513   1.274   3.782 -2.7816 -1.0610  0.3276
 6295SOL     OW30343   4.602   2.578   1.170  0.7303  0.0285  0.0695
 6295SOL    HW130344   4.697   2.567   1.171  0.7129 -0.1917 -0.5741
 6295SOL    HW230345   4.573   2.515   1.104  1.0299  1.7055 -1.6666
 6296SOL     OW30346   1.866   2.101   1.919  0.1768 -0.4083 -0.3298
 6296SOL    HW130347   1.772   2.085   1.924  0.0565  0.8103  1.3790
 6296SOL    HW230348   1.905   2.018   1.946  0.7021 -0.4350 -1.1999
 6297SOL     OW30349   2.883   2.175   4.248 -0.3814 -0.4234 -0.5984
 6297SOL    HW130350   2.829   2.138   4.178 -0.2346  1.5301 -1.7355
 6297SOL    HW230351   2.966   2.181   4.201 -0.5903  0.5350 -0.8315
 6298SOL     OW30352   2.519   2.581   4.322  0.3724 -0.4223 -0.3133
 6298SOL    HW130353   2.437   2.627   4.337 -0.3883 -1.4898 -1.2295
 6298SOL    HW230354   2.528   2.603   4.230 -1.4255 -0.5915 -0.5134
 6299SOL     OW30355   0.225   4.702   8.763 -0.2941  0.6161  0.1870
 6299SOL    HW130356   0.208   4.655   8.682 -1.5375  0.6174  0.4333
 6299SOL    HW230357   0.292   4.643   8.799  1.7017  2.2964 -0.8150
 6300SOL     OW30358   1.353   0.305   7.097  0.0534  0.0837 -0.1690
 6300SOL    HW130359   1.433   0.301   7.150  0.9306  3.2041 -1.2548
 6300SOL    HW230360   1.338   0.400   7.095 -0.0333  0.0139 -2.6579
 6301SOL     OW30361   0.193   2.460  17.412  0.2022 -0.2782 -0.5184
 6301SOL    HW130362   0.127   2.426  17.472 -0.3517  1.6981 -0.0070
 6301SOL    HW230363   0.172   2.553  17.418 -0.4503 -0.5883  1.7929
 6302SOL     OW30364   2.175   0.145   6.041 -0.3295 -0.4893 -0.0186
 6302SOL    HW130365   2.264   0.174   6.061  0.1798 -0.3015 -2.5040
 6302SOL    HW230366   2.153   0.190   5.960 -0.8112 -1.7028 -0.5674
 6303SOL     OW30367   1.941   0.588   1.450 -0.2710 -0.0093 -0.1891
 6303SOL    HW130368   1.881   0.573   1.523  1.0437 -3.7073  0.1029
 6303SOL    HW230369   1.946   0.498   1.419 -1.6148 -0.1652  0.0414
 6304SOL     OW30370   2.797   3.543   3.244  0.6298  0.1759 -0.3518
 6304SOL    HW130371   2.862   3.509   3.183  0.0971 -1.1515 -0.1782
 6304SOL    HW230372   2.736   3.473   3.266  0.2132 -0.0595 -2.2765
 6305SOL     OW30373   0.329   3.499  15.225 -0.1196 -0.2760  0.1048
 6305SOL    HW130374   0.300   3.441  15.154  0.4282  0.0474 -0.3874
 6305SOL    HW230375   0.250   3.553  15.227  0.4603  0.5988 -0.2983
 6306SOL     OW30376   3.279   3.352   8.883 -0.1520 -0.2839  0.1108
 6306SOL    HW130377   3.337   3.298   8.937  2.2610  1.7129 -0.5019
 6306SOL    HW230378   3.199   3.366   8.934 -1.3939  1.3769 -2.3219
 6307SOL     OW30379   3.057   4.277   7.429  0.1794 -0.0800  0.3895
 6307SOL    HW130380   2.983   4.272   7.490 -0.1435 -0.9009 -0.0776
 6307SOL    HW230381   3.007   4.289   7.348  1.9443  0.2364 -0.6578
 6308SOL     OW30382   1.291   3.046  11.885 -0.9561  0.3473  0.1575
 6308SOL    HW130383   1.329   3.021  11.801 -1.9557  0.2552 -0.2704
 6308SOL    HW230384   1.229   2.978  11.910 -0.5167 -0.3479 -0.6270
 6309SOL     OW30385   0.767   3.745  16.025  0.6853  0.3255  0.2746
 6309SOL    HW130386   0.733   3.835  16.027  1.1904  0.5125  0.4830
 6309SOL    HW230387   0.699   3.690  16.064  0.0596  0.7556 -0.2036
 6310SOL     OW30388   1.945   2.680   2.461  0.6487 -0.7444 -0.7763
 6310SOL    HW130389   2.022   2.651   2.510 -0.3103 -1.1302  0.5258
 6310SOL    HW230390   1.874   2.638   2.510  1.1919 -0.5269  0.1951
 6311SOL     OW30391   2.126   3.586   7.439 -0.1966  0.8789  0.5718
 6311SOL    HW130392   2.133   3.618   7.349 -1.7353  0.9363  0.4657
 6311SOL    HW230393   2.120   3.667   7.489 -0.4994  1.4943 -0.4530
 6312SOL     OW30394   3.792   1.353  17.176 -0.4222  0.2473 -0.5351
 6312SOL    HW130395   3.746   1.317  17.100  1.5522 -2.9737 -0.1795
 6312SOL    HW230396   3.772   1.447  17.178 -5.1741 -0.7732 -0.8529
 6313SOL     OW30397   1.549   2.965  15.781 -0.4421 -0.0724  0.1443
 6313SOL    HW130398   1.620   2.915  15.822 -0.2681 -1.0410 -1.3321
 6313SOL    HW230399   1.564   2.945  15.688  0.2653  0.1126  0.2220
 6314SOL     OW30400   1.895   4.397  10.101  0.3825 -0.2840  0.1045
 6314SOL    HW130401   1.871   4.418  10.191  1.5678 -3.5677  1.1666
 6314SOL    HW230402   1.876   4.304  10.092  1.1280 -0.4715  0.4830
 6315SOL     OW30403   3.989   1.484   0.040 -0.1388  0.0517 -0.0420
 6315SOL    HW130404   4.016   1.399   0.075 -2.3744 -0.4232  0.5396
 6315SOL    HW230405   4.063   1.536   0.069 -1.7431  1.3452  1.6833
 6316SOL     OW30406   3.768   3.699   2.188  0.5913 -0.7245  0.2185
 6316SOL    HW130407   3.706   3.771   2.196  2.5077  0.8166  0.9053
 6316SOL    HW230408   3.845   3.746   2.156 -0.7770  1.0036 -0.5024
 6317SOL     OW30409   1.452   0.015   8.781 -0.1239  0.3889  0.6628
 6317SOL    HW130410   1.481   0.106   8.792  0.4950  0.6721 -3.1223
 6317SOL    HW230411   1.489   0.005   8.693  0.8190 -2.2399  1.3485
 6318SOL     OW30412   0.286   0.148  15.302 -0.2951 -0.3125  0.0797
 6318SOL    HW130413   0.294   0.217  15.367 -0.4981 -0.4054  0.2042
 6318SOL    HW230414   0.217   0.193  15.252 -2.3193 -0.9695  2.2736
 6319SOL     OW30415   1.187   0.564   3.149 -0.4819 -0.2821 -0.3676
 6319SOL    HW130416   1.248   0.493   3.128 -0.2303 -0.7641  2.0367
 6319SOL    HW230417   1.230   0.649   3.146  0.8677 -0.9212  0.6320
 6320SOL     OW30418   4.671   2.164   5.049 -0.6243 -0.5998  0.2267
 6320SOL    HW130419   4.611   2.172   4.974  1.6803 -1.8049 -1.7666
 6320SOL    HW230420   4.719   2.082   5.056 -3.6935 -2.5172 -1.2770
 6321SOL     OW30421   1.256   1.630   9.053  0.1913  0.1405  0.1409
 6321SOL    HW130422   1.250   1.725   9.048  0.8379  0.2103  0.7169
 6321SOL    HW230423   1.173   1.601   9.016  1.0862 -1.9176 -0.2919
 6322SOL     OW30424   1.244   0.857   7.027  0.7348 -0.4358 -0.1051
 6322SOL    HW130425   1.208   0.939   7.062  1.1847  0.1212 -0.9423
 6322SOL    HW230426   1.271   0.893   6.942  0.5090  0.1522  0.0677
 6323SOL     OW30427   1.218   0.349   6.018 -0.2612  0.4708  0.0055
 6323SOL    HW130428   1.198   0.256   6.008 -1.6127  0.5948  1.6013
 6323SOL    HW230429   1.240   0.351   6.111  1.5196 -0.3478 -0.3841
 6324SOL     OW30430   1.751   1.538  13.867 -0.1469 -0.1364 -0.0854
 6324SOL    HW130431   1.836   1.495  13.868 -0.6354 -1.1130 -0.2811
 6324SOL    HW230432   1.758   1.580  13.782 -4.3115  0.9968  0.1450
 6325SOL     OW30433   3.017   3.896  17.069 -0.4105 -0.1405  0.3591
 6325SOL    HW130434   3.049   3.980  17.102 -1.3379 -0.1706  1.3537
 6325SOL    HW230435   2.980   3.913  16.982 -1.2202 -2.6552  0.2122
 6326SOL     OW30436   2.592   4.387   3.227 -0.5204  0.4103  0.0825
 6326SOL    HW130437   2.632   4.349   3.149  1.7150  1.4268  0.7213
 6326SOL    HW230438   2.503   4.393   3.192 -0.0800  1.5353 -0.8539
 6327SOL     OW30439   1.161   0.476   1.182 -0.3632  0.0277 -0.5202
 6327SOL    HW130440   1.170   0.513   1.094  2.6722 -0.8252 -0.5590
 6327SOL    HW230441   1.200   0.391   1.164  3.1202  1.5033  0.1402
 6328SOL     OW30442   0.118   2.749   8.220  0.0791 -0.6162 -0.1793
 6328SOL    HW130443   0.089   2.673   8.270 -0.9619 -0.4352 -0.5005
 6328SOL    HW230444   0.191   2.712   8.171  1.4327  2.7854 -0.7007
 6329SOL     OW30445   2.659   0.967   6.696 -0.2815 -0.1473 -0.0527
 6329SOL    HW130446   2.616   0.921   6.768  3.6286 -1.6744  1.3071
 6329SOL    HW230447   2.750   0.980   6.725  0.5899 -0.9025 -2.4679
 6330SOL     OW30448   2.124   0.568  17.154 -0.1148  0.2955 -0.0396
 6330SOL    HW130449   2.103   0.542  17.064  1.0167  0.6511 -0.4103
 6330SOL    HW230450   2.070   0.505  17.203 -1.3036 -0.0831 -1.8353
 6331SOL     OW30451   0.625   4.254   6.059 -0.5180  0.0491 -0.2490
 6331SOL    HW130452   0.669   4.327   6.016 -0.9303 -0.3631 -1.3656
 6331SOL    HW230453   0.569   4.208   5.997 -1.6200  2.0436 -0.7387
 6332SOL     OW30454   3.284   2.647   6.836  0.4678  0.3303  0.0271
 6332SOL    HW130455   3.193   2.629   6.858  0.2653  0.0410 -1.0609
 6332SOL    HW230456   3.273   2.694   6.753 -1.4852 -1.6515 -0.8089
 6333SOL     OW30457   4.344   4.039   4.089  0.1347 -0.4426 -0.1381
 6333SOL    HW130458   4.268   4.023   4.033 -0.8258 -0.6647  1.2260
 6333SOL    HW230459   4.389   3.958   4.066 -1.9022 -1.9651  1.2601
 6334SOL     OW30460   1.216   4.670   8.897 -0.1459  0.2702  0.3808
 6334SOL    HW130461   1.296   4.688   8.846  0.1385  0.0414  0.7419
 6334SOL    HW230462   1.249   4.593   8.943 -1.0399 -1.4698 -1.8799
 6335SOL     OW30463   4.210   1.797   3.769  0.0121 -0.1674  0.6226
 6335SOL    HW130464   4.232   1.705   3.784  2.0983  0.0936 -0.7907
 6335SOL    HW230465   4.189   1.799   3.676  0.0792 -0.4854  0.6007
 6336SOL     OW30466   2.501   0.882  13.149 -0.7030 -0.6100  0.4637
 6336SOL    HW130467   2.537   0.794  13.136 -0.8340 -0.4877 -0.7543
 6336SOL    HW230468   2.547   0.937  13.086 -2.5981  0.0926 -0.3067
 6337SOL     OW30469   1.269   0.300   9.049 -0.8060 -0.1126 -0.0870
 6337SOL    HW130470   1.186   0.319   9.093 -0.8646 -0.2450 -0.1384
 6337SOL    HW230471   1.285   0.378   8.996  0.8857 -0.9467 -0.7944
 6338SOL     OW30472   2.177   3.290   1.892  0.7239  0.0881  0.2872
 6338SOL    HW130473   2.134   3.234   1.957  1.7069 -2.4303 -1.2592
 6338SOL    HW230474   2.198   3.234   1.818  0.3408 -1.3357  1.2522
 6339SOL     OW30475   3.417   0.607   2.422 -0.1211  0.0509 -0.4228
 6339SOL    HW130476   3.401   0.517   2.396 -0.8269 -0.0396  0.3337
 6339SOL    HW230477   3.397   0.656   2.342 -1.0211  0.2637 -0.0679
 6340SOL     OW30478   3.336   4.327  10.953  0.4436 -0.0900 -0.8292
 6340SOL    HW130479   3.327   4.416  10.986  1.7701  0.4488 -1.9259
 6340SOL    HW230480   3.373   4.332  10.865  0.5179  0.4480 -0.7655
 6341SOL     OW30481   0.315   3.215   4.880 -0.3837 -0.1727 -0.4382
 6341SOL    HW130482   0.220   3.223   4.871 -0.3480 -0.4754 -1.1163
 6341SOL    HW230483   0.324   3.121   4.893  0.2939 -0.0576 -0.0752
 6342SOL     OW30484   1.548   0.747   5.595 -0.4607 -0.9584  0.2482
 6342SOL    HW130485   1.530   0.661   5.556  0.9322 -0.7956 -0.7381
 6342SOL    HW230486   1.461   0.785   5.581  0.1917  0.0235 -1.1394
 6343SOL     OW30487   3.619   4.655   0.754  0.0585  0.7984 -0.0652
 6343SOL    HW130488   3.543   4.691   0.800 -0.3792 -1.1654  0.7394
 6343SOL    HW230489   3.646   0.001   0.690  3.2659 -0.7684 -0.3530
 6344SOL     OW30490   2.518   1.774  14.650  0.0865 -0.4463 -0.0603
 6344SOL    HW130491   2.437   1.724  14.648 -0.9257  1.1304  1.4962
 6344SOL    HW230492   2.578   1.730  14.711  0.0552 -1.0954 -0.4978
 6345SOL     OW30493   4.503   1.058   9.418 -0.3239 -0.2058  0.5808
 6345SOL    HW130494   4.431   1.115   9.392  2.2347  1.6909 -2.2515
 6345SOL    HW230495   4.577   1.088   9.366 -0.5570 -2.1315 -0.8578
 6346SOL     OW30496   3.080   0.311   3.232  0.0030 -0.1613  0.8331
 6346SOL    HW130497   3.043   0.375   3.293 -3.6278 -1.4041 -0.0132
 6346SOL    HW230498   3.156   0.271   3.274  0.2595 -1.7139 -1.1140
 6347SOL     OW30499   3.424   1.406   8.135  0.8919  0.8411 -0.2694
 6347SOL    HW130500   3.440   1.325   8.184 -2.5151 -0.3473 -1.1129
 6347SOL    HW230501   3.441   1.469   8.205  0.7949  0.7441 -0.1566
 6348SOL     OW30502   0.706   0.474   7.968 -0.6264  0.3130  0.1286
 6348SOL    HW130503   0.782   0.532   7.979 -1.7706  2.2079 -1.8557
 6348SOL    HW230504   0.739   0.418   7.898 -2.5504 -1.4078  0.6121
 6349SOL     OW30505   3.559   3.276   4.683  0.0171 -0.2600 -0.1113
 6349SOL    HW130506   3.614   3.268   4.761  0.9267 -1.3839 -0.8640
 6349SOL    HW230507   3.573   3.371   4.672  0.3812  0.1998  4.2367
 6350SOL     OW30508   4.563   4.201  12.704  0.3461  0.2243  0.2332
 6350SOL    HW130509   4.550   4.247  12.787 -2.0526 -0.7234  0.3792
 6350SOL    HW230510   4.523   4.116  12.721  1.2324 -0.0932  0.7360
 6351SOL     OW30511   1.849   0.384   7.355 -0.5893 -0.3206 -0.3006
 6351SOL    HW130512   1.939   0.393   7.386 -0.4517 -2.4975 -0.0544
 6351SOL    HW230513   1.805   0.396   7.440 -0.1702 -1.9105  0.1427
 6352SOL     OW30514   2.654   2.314  14.244  0.1227 -0.6249 -0.1751
 6352SOL    HW130515   2.723   2.288  14.183  2.1194 -0.3245  1.9505
 6352SOL    HW230516   2.606   2.375  14.188 -1.0183 -0.6306  0.7972
 6353SOL     OW30517   3.647   0.170   4.342  0.8446  0.9268 -0.1580
 6353SOL    HW130518   3.651   0.128   4.256 -0.7827  1.7023 -0.6216
 6353SOL    HW230519   3.562   0.129   4.362  0.1233  2.1265 -0.7594
 6354SOL     OW30520   4.570   3.060   9.602 -0.2337  0.3779 -0.2627
 6354SOL    HW130521   4.514   3.027   9.531  1.5090 -1.3811 -0.8047
 6354SOL    HW230522   4.523   3.141   9.622 -3.8830 -1.8348  0.1366
 6355SOL     OW30523   3.773   2.479   5.173  0.0036  0.0384 -0.7065
 6355SOL    HW130524   3.856   2.502   5.131  0.2162  0.3917 -0.0990
 6355SOL    HW230525   3.793   2.527   5.254 -1.7983  1.6155 -1.2063
 6356SOL     OW30526   1.111   1.955  12.295  0.1876  0.4561 -0.0188
 6356SOL    HW130527   1.078   1.869  12.272 -0.4142  0.2013  1.8138
 6356SOL    HW230528   1.131   1.989  12.208 -1.6731 -0.8841 -0.9564
 6357SOL     OW30529   1.116   3.267   7.595  0.2393  0.0429  0.0290
 6357SOL    HW130530   1.162   3.283   7.513 -0.8008 -0.3422 -0.6304
 6357SOL    HW230531   1.041   3.325   7.581  0.6991 -0.0976 -2.9073
 6358SOL     OW30532   2.293   2.449   8.482 -0.4104  0.1381  0.0049
 6358SOL    HW130533   2.296   2.423   8.574  0.8129  1.0300  0.2188
 6358SOL    HW230534   2.298   2.543   8.496  0.9777  0.0138  0.3474
 6359SOL     OW30535   3.905   1.694   5.467  0.0047  0.2894  0.4633
 6359SOL    HW130536   3.893   1.788   5.451  2.2785  0.5247  0.1039
 6359SOL    HW230537   3.861   1.653   5.393  0.2571  1.5498 -0.3882
 6360SOL     OW30538   0.218   4.106   7.733  0.4860  0.4214  0.2942
 6360SOL    HW130539   0.270   4.043   7.684 -0.8362 -1.2253  0.9986
 6360SOL    HW230540   0.129   4.099   7.697  0.9891  1.8764 -1.2326
 6361SOL     OW30541   2.394   3.703   7.424 -0.5960 -0.1772  0.2737
 6361SOL    HW130542   2.392   3.785   7.474 -0.0813  0.8076 -1.3107
 6361SOL    HW230543   2.301   3.697   7.399 -0.1360  3.0894 -2.1831
 6362SOL     OW30544   2.568   0.790   6.401 -0.5490 -0.2536  0.0025
 6362SOL    HW130545   2.574   0.724   6.470  0.7838 -0.1642 -0.0303
 6362SOL    HW230546   2.597   0.742   6.323  2.4129 -0.5153  1.2566
 6363SOL     OW30547   4.034   2.891   6.883 -0.4225 -0.2164  0.4891
 6363SOL    HW130548   3.947   2.852   6.882 -0.0881 -0.9640  0.3067
 6363SOL    HW230549   4.078   2.832   6.944 -1.2289 -0.3293  0.9573
 6364SOL     OW30550   1.617   2.799   8.729  0.3459  0.2777 -0.4303
 6364SOL    HW130551   1.568   2.723   8.759 -0.3316  0.7463 -0.3657
 6364SOL    HW230552   1.707   2.773   8.749 -0.4378 -1.8415  0.3637
 6365SOL     OW30553   2.343   4.637   1.070 -0.1642  0.6201  0.2640
 6365SOL    HW130554   2.360   4.683   1.152  0.5585 -1.0906  1.0696
 6365SOL    HW230555   2.344   4.718   1.019  3.0692  0.9686  0.9134
 6366SOL     OW30556   2.298   1.398   3.683  0.6008 -0.1990 -0.1202
 6366SOL    HW130557   2.273   1.488   3.705  1.7345  0.1546 -0.2825
 6366SOL    HW230558   2.210   1.363   3.701 -0.4981  2.0448 -1.0855
 6367SOL     OW30559   3.874   3.861   3.674 -0.2990 -0.4336 -0.1679
 6367SOL    HW130560   3.909   3.925   3.736  0.8901 -0.3242 -0.9435
 6367SOL    HW230561   3.938   3.792   3.695  0.2483 -0.6018 -2.3697
 6368SOL     OW30562   0.470   2.590  16.198 -0.0676  0.8370  0.6167
 6368SOL    HW130563   0.389   2.625  16.160  1.2965  1.9901 -1.2122
 6368SOL    HW230564   0.497   2.676  16.233  0.2475  0.0761  2.2601
 6369SOL     OW30565   2.863   2.399   3.778  0.3474  0.1265  0.3392
 6369SOL    HW130566   2.898   2.379   3.691  0.7718 -0.7201  0.7059
 6369SOL    HW230567   2.947   2.387   3.823  0.5745  0.4479 -0.0022
 6370SOL     OW30568   4.104   0.819  15.854  0.0715 -0.1955 -0.0684
 6370SOL    HW130569   4.032   0.788  15.909 -0.5587  3.7164  1.3257
 6370SOL    HW230570   4.137   0.735  15.822  1.9057 -0.1483  1.7138
 6371SOL     OW30571   3.056   0.420   4.667  0.8356  0.4528 -0.0602
 6371SOL    HW130572   3.149   0.396   4.670 -0.4133 -4.3396  0.5618
 6371SOL    HW230573   3.024   0.373   4.590  0.6111 -1.1444  1.0075
 6372SOL     OW30574   3.934   3.312   6.488  0.6396  0.6629 -0.9902
 6372SOL    HW130575   3.887   3.353   6.415  0.3797 -0.5106 -1.4830
 6372SOL    HW230576   3.986   3.384   6.524 -0.8887  0.9843  0.5843
 6373SOL     OW30577   3.545   3.431  16.376  0.4865  0.3676 -0.5243
 6373SOL    HW130578   3.548   3.522  16.346  1.2064  0.2129 -0.9087
 6373SOL    HW230579   3.451   3.424  16.392  0.4678 -0.7038 -1.1129
 6374SOL     OW30580   0.243   3.766  15.808 -0.0976 -0.0127 -0.0151
 6374SOL    HW130581   0.319   3.816  15.777 -0.7442 -0.0169 -1.5914
 6374SOL    HW230582   0.209   3.819  15.880 -1.9784 -1.8287  0.4437
 6375SOL     OW30583   2.237   4.673   4.797 -0.4591 -0.3115 -0.2264
 6375SOL    HW130584   2.264   4.584   4.820 -1.4652 -0.7305 -0.6457
 6375SOL    HW230585   2.149   4.672   4.835 -0.4538  0.0600 -0.2048
 6376SOL     OW30586   3.870   4.415   1.761  0.0276 -0.3376 -0.0111
 6376SOL    HW130587   3.828   4.472   1.697 -1.7015 -1.4303  0.1356
 6376SOL    HW230588   3.823   4.435   1.843 -0.7304  1.6065 -0.9146
 6377SOL     OW30589   0.136   3.858  12.864  0.1067  0.0892  0.1766
 6377SOL    HW130590   0.222   3.898  12.862 -0.3439  0.9144 -3.1246
 6377SOL    HW230591   0.088   3.923  12.916 -0.2482  0.6658 -0.8778
 6378SOL     OW30592   4.459   2.108  15.959  0.2487  0.4606 -0.0671
 6378SOL    HW130593   4.481   2.049  15.886 -0.8755  1.2034 -1.0011
 6378SOL    HW230594   4.483   2.052  16.033 -1.5722  0.7307  0.7307
 6379SOL     OW30595   0.799   2.323   1.746  0.2033 -0.4240  0.6153
 6379SOL    HW130596   0.750   2.266   1.804  0.0456 -0.8580  0.0494
 6379SOL    HW230597   0.727   2.376   1.712  1.0163  0.6020  0.4885
 6380SOL     OW30598   0.872   1.584   2.596 -0.1049 -0.2901  0.4649
 6380SOL    HW130599   0.812   1.575   2.670  0.4490  0.3455  0.9792
 6380SOL    HW230600   0.798   1.616   2.544  1.4056 -0.1233 -1.5953
 6381SOL     OW30601   1.677   4.157   5.252  0.4076 -0.4004 -0.6720
 6381SOL    HW130602   1.603   4.187   5.199  1.2077  0.3819 -1.3552
 6381SOL    HW230603   1.624   4.109   5.315  1.2799 -1.4991 -0.7643
 6382SOL     OW30604   0.912   1.071  11.060  0.6236 -0.0182  0.6187
 6382SOL    HW130605   0.926   0.996  11.002  1.9912  2.1959 -1.9323
 6382SOL    HW230606   0.992   1.123  11.051  0.3046  0.2674 -0.6096
 6383SOL     OW30607   0.091   0.472   6.203  0.1939 -0.2609  0.4274
 6383SOL    HW130608   0.102   0.404   6.136  0.4877 -0.2877  0.5011
 6383SOL    HW230609   0.176   0.469   6.248 -0.1674 -2.1469  0.9894
 6384SOL     OW30610   3.399   2.197   5.304 -0.5035 -0.1726  0.8378
 6384SOL    HW130611   3.376   2.271   5.249 -1.3082 -0.2040  1.1280
 6384SOL    HW230612   3.494   2.211   5.296 -0.6753  2.0528  2.6605
 6385SOL     OW30613   4.658   0.932   9.963  0.1730  0.0154 -0.0037
 6385SOL    HW130614   4.582   0.874   9.960  0.5943 -0.5395  0.0472
 6385SOL    HW230615   4.634   1.003   9.903  1.5667 -0.0519 -0.6201
 6386SOL     OW30616   1.056   4.482   1.958 -0.3057  0.3097 -0.1588
 6386SOL    HW130617   1.145   4.454   1.939 -0.5463 -0.6119  0.0357
 6386SOL    HW230618   1.051   4.568   1.918  0.8553 -1.8615 -4.9910
 6387SOL     OW30619   0.880   4.290   1.850 -0.0310  0.0293  0.1380
 6387SOL    HW130620   0.893   4.378   1.885 -1.8907  0.4125 -0.1145
 6387SOL    HW230621   0.821   4.311   1.777 -0.9409 -1.3438  0.4797
 6388SOL     OW30622   4.068   2.812   5.531  0.3489  0.7640 -0.1223
 6388SOL    HW130623   4.157   2.777   5.528 -0.0639 -0.1641 -1.3094
 6388SOL    HW230624   4.050   2.811   5.625 -1.3040  1.6062 -0.4331
 6389SOL     OW30625   4.196   2.563   7.787 -0.6116  0.0238  0.3995
 6389SOL    HW130626   4.228   2.533   7.703 -0.9803  1.9687 -0.4129
 6389SOL    HW230627   4.121   2.504   7.800 -0.3629 -0.0915  1.3123
 6390SOL     OW30628   2.964   3.380   9.611 -0.0405 -0.0620 -0.0985
 6390SOL    HW130629   2.978   3.374   9.705  0.0401 -0.0983 -0.1126
 6390SOL    HW230630   3.007   3.465   9.600  0.0177 -0.2093 -1.0031
 6391SOL     OW30631   1.507   2.470   3.064 -0.3633  0.5813 -0.1137
 6391SOL    HW130632   1.584   2.422   3.032 -1.3535 -0.1114 -1.4538
 6391SOL    HW230633   1.454   2.481   2.985  0.1357  0.1093 -0.5163
 6392SOL     OW30634   1.945   4.157   8.578 -0.0301 -0.0059 -0.2684
 6392SOL    HW130635   1.997   4.077   8.585  1.5559  0.9414 -1.3092
 6392SOL    HW230636   2.010   4.209   8.530  2.5949 -0.5300  2.7819
 6393SOL     OW30637   1.288   0.113  12.172 -0.2475 -0.0482  0.0356
 6393SOL    HW130638   1.367   0.080  12.128  1.9586  0.8447  3.3925
 6393SOL    HW230639   1.235   0.034  12.184  0.6433 -1.0018 -2.1069
 6394SOL     OW30640   0.404   4.451   8.133 -0.3193  0.0927 -0.3875
 6394SOL    HW130641   0.453   4.419   8.209 -0.5999  0.9538  0.1566
 6394SOL    HW230642   0.336   4.385   8.122 -0.0759 -0.3525  0.8192
 6395SOL     OW30643   2.894   2.979   6.954 -0.1119  0.4643  0.1364
 6395SOL    HW130644   2.905   2.986   6.859 -0.3369  0.5819  0.1197
 6395SOL    HW230645   2.854   3.065   6.970  0.1086  0.9199 -1.7471
 6396SOL     OW30646   3.209   1.040   5.188 -0.0806 -0.4497  0.4256
 6396SOL    HW130647   3.300   1.058   5.164 -1.2323  1.8155 -2.3447
 6396SOL    HW230648   3.185   0.986   5.113  2.0038  1.6560 -1.7646
 6397SOL     OW30649   2.647   2.385   2.675  0.3003 -0.4769  0.1267
 6397SOL    HW130650   2.705   2.453   2.710 -0.3242  0.8246 -1.3674
 6397SOL    HW230651   2.650   2.318   2.743  1.1969 -2.2898 -1.7033
 6398SOL     OW30652   1.524   0.460   9.872  0.3010  0.1656 -0.4253
 6398SOL    HW130653   1.557   0.375   9.901 -1.9686 -0.5869 -0.0724
 6398SOL    HW230654   1.593   0.476   9.807  1.7291 -0.1613  1.0325
 6399SOL     OW30655   1.986   4.318   4.068 -0.3057 -0.4505 -0.7207
 6399SOL    HW130656   2.034   4.334   3.987  1.0604  0.3609  0.2675
 6399SOL    HW230657   1.898   4.315   4.030  0.6000  0.4657 -2.8773
 6400SOL     OW30658   2.695   2.187   2.014 -0.1350 -0.0914 -0.0727
 6400SOL    HW130659   2.634   2.125   1.974  0.0612 -0.8088  0.7297
 6400SOL    HW230660   2.658   2.191   2.102  0.1715 -1.4878  0.1204
 6401SOL     OW30661   0.606   1.860   4.616 -0.9003  0.0595 -0.8119
 6401SOL    HW130662   0.640   1.873   4.705 -0.6271  0.2986 -0.9492
 6401SOL    HW230663   0.518   1.827   4.636  0.5150 -1.7639  2.4424
 6402SOL     OW30664   1.242   0.992   3.584 -0.0247  0.4998 -0.5947
 6402SOL    HW130665   1.182   0.962   3.516  1.8337 -1.5411 -1.3711
 6402SOL    HW230666   1.284   1.070   3.547  1.1538  0.1062 -0.0874
 6403SOL     OW30667   4.653   2.137   9.458  0.0838  0.0233 -0.3791
 6403SOL    HW130668   4.606   2.184   9.527  0.4349 -0.8021  0.4081
 6403SOL    HW230669   0.001   2.200   9.433  1.6855 -0.8756  1.7480
 6404SOL     OW30670   1.282   1.478   4.029 -0.7262 -0.0564  0.2092
 6404SOL    HW130671   1.285   1.485   3.933 -1.9130  0.5883  0.2264
 6404SOL    HW230672   1.284   1.570   4.055  0.7589  0.1616 -0.6414
 6405SOL     OW30673   3.662   1.835   5.820  0.2752 -0.2788 -0.2028
 6405SOL    HW130674   3.720   1.789   5.880  1.0028 -0.9558 -1.4301
 6405SOL    HW230675   3.628   1.762   5.769 -1.3090 -0.4668  1.1251
 6406SOL     OW30676   4.196   0.619   1.763  0.4522 -0.7961  0.7317
 6406SOL    HW130677   4.233   0.672   1.692 -1.6128 -0.1083  0.1784
 6406SOL    HW230678   4.135   0.676   1.809  0.9201 -0.5898  1.0925
 6407SOL     OW30679   3.046   2.534   7.543  0.3986 -0.2406  0.1176
 6407SOL    HW130680   3.063   2.546   7.636  1.0530  2.8755 -0.3749
 6407SOL    HW230681   3.104   2.606   7.516  0.3346  0.0704  0.8029
 6408SOL     OW30682   1.012   4.309   3.283  0.5954 -0.1280 -0.0729
 6408SOL    HW130683   1.041   4.377   3.345 -1.5461  0.1448  0.6080
 6408SOL    HW230684   1.094   4.277   3.245  0.5699  0.7640 -0.8806
 6409SOL     OW30685   0.039   1.421   7.909 -0.6254  0.6007  0.1056
 6409SOL    HW130686   0.100   1.356   7.945 -3.1028 -0.8727  1.6052
 6409SOL    HW230687   0.092   1.473   7.848  0.7251 -1.3293 -0.3682
 6410SOL     OW30688   4.364   3.072   9.947 -0.3089  0.1790 -0.0030
 6410SOL    HW130689   4.316   3.080   9.864 -1.2913 -0.1965  0.5390
 6410SOL    HW230690   4.355   3.161   9.981  0.9036 -0.9467  3.2059
 6411SOL     OW30691   0.480   2.718   7.896 -0.0188  0.2994 -0.0504
 6411SOL    HW130692   0.410   2.657   7.873 -2.6679  2.8611  1.2615
 6411SOL    HW230693   0.437   2.803   7.888 -1.5612 -0.3418  1.3908
 6412SOL     OW30694   4.287   3.337   4.691 -0.3853 -0.1765  0.1962
 6412SOL    HW130695   4.217   3.333   4.627  0.1771 -1.1179 -0.3583
 6412SOL    HW230696   4.260   3.417   4.736  0.3274 -0.8917  1.9161
 6413SOL     OW30697   3.707   0.083   4.589 -0.6943 -0.0977  0.2765
 6413SOL    HW130698   3.682   0.125   4.507  1.6264  0.3583 -0.2169
 6413SOL    HW230699   3.783   0.031   4.562  2.1993  3.6899  1.1122
 6414SOL     OW30700   1.859   2.476   5.693  0.0182  0.1447  0.0394
 6414SOL    HW130701   1.873   2.488   5.599  0.6157  1.2016  0.2584
 6414SOL    HW230702   1.767   2.449   5.695  0.3262 -0.9392 -0.9425
 6415SOL     OW30703   0.837   0.406   5.541 -0.0757 -0.2920 -0.2235
 6415SOL    HW130704   0.830   0.448   5.455 -2.7197  0.9956  0.6283
 6415SOL    HW230705   0.786   0.326   5.529 -0.1056 -0.4512  0.9916
 6416SOL     OW30706   0.634   0.834  10.879 -1.0615  0.3902  0.1879
 6416SOL    HW130707   0.618   0.862  10.789  1.8301 -0.1165 -0.4745
 6416SOL    HW230708   0.682   0.753  10.864 -2.2859 -0.5474  1.2783
 6417SOL     OW30709   3.748   3.655  15.084 -0.2436  0.1450 -0.9673
 6417SOL    HW130710   3.838   3.622  15.088 -0.0961  0.5207 -1.2265
 6417SOL    HW230711   3.699   3.576  15.108  1.1205 -0.5070 -0.3037
 6418SOL     OW30712   1.196   2.002   0.223 -0.1012 -0.6746 -0.4490
 6418SOL    HW130713   1.213   2.089   0.187  0.6491 -0.7723 -0.3199
 6418SOL    HW230714   1.103   2.001   0.198 -0.0137 -0.5554 -0.7810
 6419SOL     OW30715   1.162   3.312   7.885 -0.0293  0.3932  0.4390
 6419SOL    HW130716   1.114   3.267   7.816  1.0141  0.6580 -0.4599
 6419SOL    HW230717   1.138   3.403   7.869 -1.6763 -0.5155 -2.1800
 6420SOL     OW30718   3.022   1.011   7.664 -0.1183 -0.3608 -1.1302
 6420SOL    HW130719   2.998   0.923   7.694  1.0588  0.1905  1.4549
 6420SOL    HW230720   3.112   0.998   7.635  0.0567  1.5608 -1.4670
 6421SOL     OW30721   3.237   2.962  12.717  0.4761 -0.2135  0.3893
 6421SOL    HW130722   3.329   2.934  12.726  0.9917  2.2799  2.9253
 6421SOL    HW230723   3.220   2.963  12.811  0.2509  2.0053  0.3086
 6422SOL     OW30724   2.916   3.818  10.912 -0.4642 -0.1140 -0.2708
 6422SOL    HW130725   2.828   3.803  10.945 -1.1499  0.4786 -1.8209
 6422SOL    HW230726   2.933   3.743  10.855 -1.5380  1.6357 -2.8962
 6423SOL     OW30727   0.711   3.001   9.871  0.0504 -0.0932 -0.3118
 6423SOL    HW130728   0.713   3.065   9.799 -1.5866 -1.2433 -1.3571
 6423SOL    HW230729   0.673   2.929   9.822 -2.0923  0.9682 -0.2142
 6424SOL     OW30730   3.316   0.832   3.222  0.3654  0.6985 -0.6074
 6424SOL    HW130731   3.336   0.838   3.129  3.7902  0.7904  0.1499
 6424SOL    HW230732   3.334   0.917   3.262  3.8057  0.2424 -1.1940
 6425SOL     OW30733   3.534   2.397  11.241  0.5302  0.0841 -0.2147
 6425SOL    HW130734   3.440   2.394  11.261  1.0802 -0.9523  2.2899
 6425SOL    HW230735   3.564   2.306  11.249  0.2273 -0.0927 -1.1038
 6426SOL     OW30736   2.924   2.513  11.392 -0.1036 -0.1287 -0.5726
 6426SOL    HW130737   2.954   2.459  11.319  2.3138 -2.7944  2.4120
 6426SOL    HW230738   3.004   2.517  11.444 -0.3582  2.2093 -0.3556
 6427SOL     OW30739   3.171   2.913   6.647  0.6413  0.4553 -0.0563
 6427SOL    HW130740   3.244   2.965   6.680  0.3111 -2.2256  4.9077
 6427SOL    HW230741   3.109   2.983   6.624  1.8632  1.0839 -1.3960
 6428SOL     OW30742   4.045   1.525   2.198  0.2505  0.0893  0.1540
 6428SOL    HW130743   4.088   1.452   2.241 -2.2073 -1.1061  0.5792
 6428SOL    HW230744   4.120   1.551   2.144  0.8145 -1.0645  0.3989
 6429SOL     OW30745   0.848   3.172   3.820  0.3333  0.5933  0.1861
 6429SOL    HW130746   0.842   3.081   3.791 -1.0032  0.6460  0.3180
 6429SOL    HW230747   0.908   3.161   3.895  1.5215  1.3821 -0.6419
 6430SOL     OW30748   4.582   2.876   5.572  0.8153  0.3895 -0.2854
 6430SOL    HW130749   4.569   2.971   5.562 -1.4241  0.0430 -0.7776
 6430SOL    HW230750   4.673   2.866   5.600 -0.1574  1.9380  3.5030
 6431SOL     OW30751   2.476   0.118   2.064  0.3885  0.6433 -0.0439
 6431SOL    HW130752   2.514   0.050   2.008 -1.6391 -1.4790  1.2075
 6431SOL    HW230753   2.444   0.177   1.995 -3.3830  1.6472  2.5637
 6432SOL     OW30754   2.974   0.504   7.159 -0.3144 -0.9881 -0.1032
 6432SOL    HW130755   2.921   0.440   7.112 -1.0475 -0.1410 -0.4234
 6432SOL    HW230756   3.031   0.534   7.088 -0.4001 -0.2874  0.1196
 6433SOL     OW30757   2.270   0.662  12.405  0.2638 -0.1746 -0.1347
 6433SOL    HW130758   2.289   0.717  12.330  3.2912 -1.2653 -0.1992
 6433SOL    HW230759   2.332   0.590  12.392 -0.3729 -1.0574  1.6269
 6434SOL     OW30760   3.523   4.235  15.317  0.0640 -0.5040  0.0951
 6434SOL    HW130761   3.486   4.147  15.324  2.3558 -1.5650 -1.3056
 6434SOL    HW230762   3.614   4.225  15.343  0.2929  0.3857 -0.3593
 6435SOL     OW30763   2.341   3.420   7.171 -0.5013 -0.2829 -0.3734
 6435SOL    HW130764   2.290   3.493   7.134  0.1788 -0.0135 -0.7669
 6435SOL    HW230765   2.426   3.461   7.157 -0.6703  0.1555 -0.1284
 6436SOL     OW30766   0.939   2.148   0.182 -0.1792 -0.3792 -0.1256
 6436SOL    HW130767   0.961   2.240   0.199 -1.8330 -0.2096  1.1223
 6436SOL    HW230768   0.847   2.150   0.210 -0.3419 -0.4823 -0.6657
 6437SOL     OW30769   2.457   2.265   6.649 -0.1455 -0.2488 -0.2924
 6437SOL    HW130770   2.445   2.306   6.734 -2.5152  0.4996 -0.9792
 6437SOL    HW230771   2.522   2.200   6.676 -1.2767 -1.3259 -0.1108
 6438SOL     OW30772   0.856   1.850   8.006  0.3121 -0.1746 -0.5325
 6438SOL    HW130773   0.935   1.807   8.039 -0.1084 -1.1583 -0.7874
 6438SOL    HW230774   0.862   1.941   8.036 -0.3209 -0.2569 -0.1424
 6439SOL     OW30775   0.302   2.597   0.913 -0.2450 -0.3703  0.3973
 6439SOL    HW130776   0.260   2.537   0.852 -2.1665  0.4519  0.9328
 6439SOL    HW230777   0.239   2.601   0.985  0.9723  0.2271  1.4355
 6440SOL     OW30778   1.269   3.392   6.935 -0.3243  0.0639 -0.0506
 6440SOL    HW130779   1.277   3.383   7.030  2.1874  2.8717  0.0109
 6440SOL    HW230780   1.173   3.381   6.933 -0.3858 -0.1955  3.5596
 6441SOL     OW30781   3.942   4.335  10.467 -0.0692 -0.1465 -0.1541
 6441SOL    HW130782   3.992   4.258  10.492 -0.2811 -0.5147 -0.8746
 6441SOL    HW230783   3.957   4.402  10.534  1.5438 -1.7966  1.1347
 6442SOL     OW30784   2.204   0.985   1.292  0.4187 -0.1935 -0.0185
 6442SOL    HW130785   2.279   0.966   1.348  0.4128 -0.2132 -0.0175
 6442SOL    HW230786   2.241   1.021   1.211 -1.6454 -0.3329 -1.0227
 6443SOL     OW30787   1.599   4.027   7.073 -0.2632 -0.1388  0.0536
 6443SOL    HW130788   1.572   4.104   7.122 -2.5500  0.4971 -2.2429
 6443SOL    HW230789   1.517   4.004   7.030 -0.8782  1.1011  0.5857
 6444SOL     OW30790   2.867   2.192   0.847 -0.3277 -0.5597 -0.1017
 6444SOL    HW130791   2.827   2.228   0.926 -2.3882  1.1577 -1.9060
 6444SOL    HW230792   2.946   2.245   0.846 -1.2087  0.7642 -0.3504
 6445SOL     OW30793   3.220   2.093   9.953 -0.2126  0.0178  0.2994
 6445SOL    HW130794   3.214   2.023  10.019  0.7285  0.0505  0.4186
 6445SOL    HW230795   3.257   2.050   9.876  1.1674 -0.1875  1.0599
 6446SOL     OW30796   3.338   1.121   2.794 -0.6630 -0.2060 -0.7804
 6446SOL    HW130797   3.272   1.125   2.725 -0.1136  0.3358 -1.2762
 6446SOL    HW230798   3.361   1.213   2.803  4.9253 -1.7633  0.5704
 6447SOL     OW30799   0.217   4.308   8.422  0.3369  0.0954 -0.2400
 6447SOL    HW130800   0.154   4.239   8.444  0.9556  0.1307  1.6361
 6447SOL    HW230801   0.206   4.303   8.327 -3.0827  0.7024  0.1242
 6448SOL     OW30802   4.052   2.808   8.261 -0.7677 -0.0836 -0.1877
 6448SOL    HW130803   4.109   2.851   8.325  0.4667 -0.1795 -1.2308
 6448SOL    HW230804   4.072   2.851   8.178  0.5022 -1.8808 -0.7975
 6449SOL     OW30805   1.092   0.672   1.621 -0.0654 -0.0961  0.2058
 6449SOL    HW130806   1.040   0.602   1.661 -0.4684 -1.1677 -2.1816
 6449SOL    HW230807   1.145   0.615   1.564  1.3522 -0.9584  2.3705
 6450SOL     OW30808   4.651   4.400  14.538 -0.2184  0.2195  0.5383
 6450SOL    HW130809   4.606   4.331  14.587 -1.7049  0.7621 -0.0552
 6450SOL    HW230810   4.672   4.349  14.460 -0.4034 -0.1585  0.7331
 6451SOL     OW30811   4.684   3.181  13.059 -0.5879  0.5435  0.0010
 6451SOL    HW130812   0.042   3.234  13.048  0.6450 -0.8053  2.1130
 6451SOL    HW230813   0.009   3.121  13.119 -0.8950  0.5407  0.2324
 6452SOL     OW30814   0.212   0.439   7.275  0.1264 -0.3346 -0.4651
 6452SOL    HW130815   0.251   0.392   7.349  0.0918  1.4488  0.6958
 6452SOL    HW230816   0.278   0.503   7.250 -0.7942  0.6554 -0.3469
 6453SOL     OW30817   2.677   4.481  10.205 -0.1117  0.0015  0.0507
 6453SOL    HW130818   2.686   4.416  10.274  3.2637 -0.1385 -0.5274
 6453SOL    HW230819   2.627   4.553  10.243  1.1220  1.4683 -1.0981
 6454SOL     OW30820   2.140   4.295  14.903  0.6009 -0.3585  0.8285
 6454SOL    HW130821   2.153   4.376  14.854  3.1601 -1.0024  0.4225
 6454SOL    HW230822   2.085   4.239  14.848 -1.2664  1.8153  0.5174
 6455SOL     OW30823   0.779   0.747  16.796  0.4709 -0.4097 -0.4361
 6455SOL    HW130824   0.828   0.668  16.821  0.3169 -0.2938  0.2444
 6455SOL    HW230825   0.693   0.713  16.825  1.1820 -1.3591  0.5777
 6456SOL     OW30826   1.721   0.385   6.135 -0.1882 -0.0996 -0.3390
 6456SOL    HW130827   1.795   0.371   6.077 -0.6996 -0.3613 -0.9278
 6456SOL    HW230828   1.689   0.473   6.119 -4.0739 -1.2458  0.9182
 6457SOL     OW30829   3.714   3.919   4.212  0.0356 -0.1171  0.4361
 6457SOL    HW130830   3.770   3.842   4.210  1.8509  1.1370  2.4556
 6457SOL    HW230831   3.632   3.871   4.218  0.1832 -0.2850  1.0878
 6458SOL     OW30832   1.889   4.467  13.894 -0.3206  0.0870  0.1834
 6458SOL    HW130833   1.965   4.447  13.949 -1.1720 -1.6052  0.7463
 6458SOL    HW230834   1.923   4.418  13.820 -0.4082 -1.8745  1.4218
 6459SOL     OW30835   3.623   3.345   4.389 -0.0260 -0.0054  0.2729
 6459SOL    HW130836   3.574   3.325   4.468  0.7362 -3.9114 -0.2619
 6459SOL    HW230837   3.552   3.382   4.336  2.2730  3.3431 -0.4292
 6460SOL     OW30838   2.822   1.233   8.574  0.4799  0.7108  0.8220
 6460SOL    HW130839   2.910   1.248   8.607  0.4125  2.7043  0.0988
 6460SOL    HW230840   2.833   1.235   8.478  0.1847 -0.6895  0.7534
 6461SOL     OW30841   2.044   1.304  10.792  0.1543 -0.2277  0.0532
 6461SOL    HW130842   2.113   1.243  10.767  0.6951  0.1232  0.6935
 6461SOL    HW230843   2.055   1.366  10.720  0.2846 -1.9381 -1.3881
 6462SOL     OW30844   4.684   1.723   7.352 -0.3891 -0.5084  0.1066
 6462SOL    HW130845   4.703   1.683   7.437  0.5373  0.1593  0.2074
 6462SOL    HW230846   4.611   1.778   7.380  0.2347  0.6761 -0.5996
 6463SOL     OW30847   0.389   1.247   2.445 -0.4226 -0.2491 -0.1669
 6463SOL    HW130848   0.440   1.321   2.477 -0.4219  0.7128 -2.4040
 6463SOL    HW230849   0.450   1.192   2.395  0.5003  0.0219  0.6516
 6464SOL     OW30850   4.516   2.792   8.936  0.8592  0.0266  0.1455
 6464SOL    HW130851   4.520   2.858   9.004 -1.0260 -1.5012  1.7322
 6464SOL    HW230852   4.540   2.711   8.981  0.0809  0.8538  2.0291
 6465SOL     OW30853   0.067   4.309   7.533  0.6442  0.1361  0.0961
 6465SOL    HW130854   0.045   4.218   7.515  0.7929  0.0470  0.3564
 6465SOL    HW230855   0.163   4.302   7.529  0.8029  1.3733  1.5910
 6466SOL     OW30856   3.724   3.059  14.698 -0.0470  0.2462  0.3264
 6466SOL    HW130857   3.806   3.107  14.713  1.8019 -3.1583  1.1999
 6466SOL    HW230858   3.695   3.122  14.632  0.4310  1.2749  1.0790
 6467SOL     OW30859   2.655   4.038   2.983  0.8794 -0.4024 -0.2629
 6467SOL    HW130860   2.593   4.046   2.911  0.7051 -4.3885 -0.5359
 6467SOL    HW230861   2.675   4.130   2.999  1.7092 -0.4741 -0.9083
 6468SOL     OW30862   2.713   2.529   6.218  0.3526 -0.7534  0.0803
 6468SOL    HW130863   2.777   2.525   6.147  0.4607  0.0530  0.1239
 6468SOL    HW230864   2.678   2.440   6.216  1.6429 -1.2882  1.9876
 6469SOL     OW30865   1.533   1.657   8.396  0.2078 -0.7447 -0.1975
 6469SOL    HW130866   1.513   1.596   8.466 -1.6843 -0.6186 -0.6290
 6469SOL    HW230867   1.475   1.732   8.405 -0.5111 -1.2697 -0.4962
 6470SOL     OW30868   3.338   3.960  11.144  0.0286 -0.6613  0.5257
 6470SOL    HW130869   3.385   4.042  11.160 -3.7707  0.9746  3.2604
 6470SOL    HW230870   3.398   3.892  11.174  3.6750  2.6859  0.7784
 6471SOL     OW30871   4.083   3.476   8.131 -0.3441 -0.3007 -0.0859
 6471SOL    HW130872   4.056   3.469   8.223  0.5338  0.9302  0.2593
 6471SOL    HW230873   4.166   3.430   8.139  0.4916  1.4164  1.0132
 6472SOL     OW30874   1.253   1.571  14.462 -0.2676 -0.4000  0.1238
 6472SOL    HW130875   1.236   1.637  14.395  0.7967  0.8391  1.0652
 6472SOL    HW230876   1.199   1.606  14.533  1.1616  0.8263  0.6061
 6473SOL     OW30877   0.131   4.240   5.949  0.3435 -0.3525  0.5179
 6473SOL    HW130878   0.146   4.332   5.971  0.7787 -0.0081 -1.1838
 6473SOL    HW230879   0.206   4.208   5.999 -1.6065 -1.5292  2.6791
 6474SOL     OW30880   4.184   3.675  11.409 -0.2964  0.5076 -0.2643
 6474SOL    HW130881   4.175   3.585  11.438  0.3633  1.9465  4.3510
 6474SOL    HW230882   4.246   3.706  11.475  0.6851  0.5345 -1.1997
 6475SOL     OW30883   4.506   2.814   5.163 -0.0156 -0.3043  0.1169
 6475SOL    HW130884   4.548   2.814   5.077 -0.6407 -0.8715 -0.1840
 6475SOL    HW230885   4.475   2.905   5.155  2.6448  0.6990  1.2526
 6476SOL     OW30886   1.012   0.070  13.386  0.0950  0.0798  0.5019
 6476SOL    HW130887   1.046   0.156  13.410  0.0896  0.0721  0.5361
 6476SOL    HW230888   0.918   0.087  13.389  0.1077  0.2760 -0.1492
 6477SOL     OW30889   4.386   2.455   8.410 -0.0127  0.4544  0.0419
 6477SOL    HW130890   4.397   2.367   8.374  2.9696  0.0936  1.8422
 6477SOL    HW230891   4.475   2.490   8.406 -0.4461  1.5030 -0.4212
 6478SOL     OW30892   0.881   4.040   5.137  0.0728 -0.3042  0.0500
 6478SOL    HW130893   0.956   3.982   5.148 -1.3967 -2.4575 -1.2006
 6478SOL    HW230894   0.885   4.057   5.043 -0.8349  0.5816  0.1767
 6479SOL     OW30895   4.123   4.322   1.230 -0.4857 -0.0157 -0.0865
 6479SOL    HW130896   4.166   4.405   1.207 -4.0642  2.1540  1.0462
 6479SOL    HW230897   4.037   4.347   1.263 -0.1221 -0.6488  1.3548
 6480SOL     OW30898   1.234   3.948   1.183  0.4340 -0.6286  0.3404
 6480SOL    HW130899   1.209   3.973   1.273 -2.3931  0.0402 -0.6325
 6480SOL    HW230900   1.252   4.039   1.159 -0.1604 -0.8086 -0.7694
 6481SOL     OW30901   2.046   2.130   5.607  0.4173 -0.3804  0.1358
 6481SOL    HW130902   2.123   2.118   5.552  0.8741 -1.7369  1.0813
 6481SOL    HW230903   2.085   2.149   5.691 -0.5326  0.0919  0.4751
 6482SOL     OW30904   3.777   4.229  15.628  0.1123  0.0645  0.3311
 6482SOL    HW130905   3.752   4.316  15.659 -1.8529 -1.0801  1.9540
 6482SOL    HW230906   3.708   4.185  15.677 -0.3821  0.7938  0.2870
 6483SOL     OW30907   1.239   2.111   1.977 -0.1201  0.0228  0.7942
 6483SOL    HW130908   1.298   2.138   2.047  0.9842 -3.4126  1.2206
 6483SOL    HW230909   1.233   2.018   2.001 -0.7478  0.0836  0.8576
 6484SOL     OW30910   3.996   1.959   0.837 -0.2870  0.1075  0.1215
 6484SOL    HW130911   4.066   1.903   0.871 -0.0369  0.5938  0.4089
 6484SOL    HW230912   3.937   1.959   0.913 -0.6250 -1.1274 -0.1420
 6485SOL     OW30913   2.490   0.832  15.579  0.2718  0.3306 -0.2771
 6485SOL    HW130914   2.501   0.922  15.550 -1.5696  0.0482 -1.8380
 6485SOL    HW230915   2.483   0.787  15.495 -0.1462 -0.9054  0.4223
 6486SOL     OW30916   2.295   4.257   7.089  0.3157 -0.4530  0.0089
 6486SOL    HW130917   2.219   4.314   7.102  2.2785  1.7903  1.6628
 6486SOL    HW230918   2.340   4.316   7.028 -0.1615 -2.3501 -2.1887
 6487SOL     OW30919   2.746   4.030   2.459 -0.1597 -0.1967 -0.1202
 6487SOL    HW130920   2.805   4.100   2.485 -1.9387  1.5559 -0.8763
 6487SOL    HW230921   2.719   4.053   2.371  2.0171 -2.0248 -1.2712
 6488SOL     OW30922   4.076   0.909   4.926 -0.1458 -0.5951  0.6360
 6488SOL    HW130923   4.027   0.984   4.960 -2.0530 -1.9133  0.8320
 6488SOL    HW230924   4.133   0.946   4.859 -0.5123 -1.8906 -0.3769
 6489SOL     OW30925   0.579   3.052  16.291  0.0549 -0.6726 -0.1641
 6489SOL    HW130926   0.598   3.146  16.296  0.3118 -0.6167 -2.0905
 6489SOL    HW230927   0.649   3.028  16.231 -0.0346 -0.9524 -0.1586
 6490SOL     OW30928   2.620   0.316   7.290  0.3316  0.0184  0.0912
 6490SOL    HW130929   2.673   0.264   7.350 -0.6709  0.6543  1.5457
 6490SOL    HW230930   2.618   0.403   7.330  1.0712  0.7353 -1.4562
 6491SOL     OW30931   0.620   4.160   1.149  0.2120 -0.0629 -0.2493
 6491SOL    HW130932   0.628   4.255   1.150 -1.0090  0.0504 -0.7286
 6491SOL    HW230933   0.711   4.133   1.140 -0.0563 -1.1079  0.2049
 6492SOL     OW30934   2.389   0.409   1.076  0.2901 -0.0610 -0.4758
 6492SOL    HW130935   2.474   0.401   1.120  1.3206  1.1383 -2.2517
 6492SOL    HW230936   2.408   0.488   1.026  0.0754  0.0937 -0.3158
 6493SOL     OW30937   0.755   0.976   5.514  0.4823  0.2852  0.1683
 6493SOL    HW130938   0.827   0.914   5.502 -0.5298 -0.8304 -0.2031
 6493SOL    HW230939   0.720   0.984   5.425 -2.3554 -0.3538  1.2129
 6494SOL     OW30940   0.673   1.656   6.198  0.3980  0.2744 -0.8428
 6494SOL    HW130941   0.694   1.745   6.227  0.3012 -0.4711  1.5325
 6494SOL    HW230942   0.743   1.647   6.134  1.2643  0.0997  0.1243
 6495SOL     OW30943   1.440   4.322   0.080  0.5333 -0.5094  1.0831
 6495SOL    HW130944   1.432   4.226   0.077 -3.0154 -0.1283 -1.0274
 6495SOL    HW230945   1.352   4.351   0.058  1.8738  2.7283  0.0559
 6496SOL     OW30946   3.549   4.612   3.809  0.0956 -0.5834  0.3831
 6496SOL    HW130947   3.599   4.584   3.732  2.5632  0.7317  1.4819
 6496SOL    HW230948   3.475   4.552   3.815  0.1373 -0.8006 -1.3436
 6497SOL     OW30949   3.078   3.481   6.015  0.3342  0.3531 -0.1714
 6497SOL    HW130950   3.130   3.547   6.061  0.8807 -0.4484  0.3639
 6497SOL    HW230951   3.009   3.539   5.983 -0.9774 -0.9294  0.3216
 6498SOL     OW30952   2.300   2.823   6.174 -0.4494 -0.4191 -0.3059
 6498SOL    HW130953   2.224   2.841   6.229  1.2117  2.1876  1.1434
 6498SOL    HW230954   2.270   2.869   6.095  1.7506  2.7706  0.7278
 6499SOL     OW30955   2.519   4.361   0.667  0.0300  0.1475 -0.2856
 6499SOL    HW130956   2.610   4.374   0.641 -0.1501 -0.7221 -1.2960
 6499SOL    HW230957   2.475   4.421   0.607  0.6530  1.9176  1.0185
 6500SOL     OW30958   1.620   0.840   3.889  0.2428  0.3928 -0.3615
 6500SOL    HW130959   1.680   0.907   3.922  3.6363 -2.3719 -0.8756
 6500SOL    HW230960   1.547   0.886   3.849  0.2485 -0.9515 -1.9187
 6501SOL     OW30961   3.937   2.562   5.411 -0.0331 -0.2604 -0.5650
 6501SOL    HW130962   3.954   2.510   5.490 -0.8887  0.2591 -0.0345
 6501SOL    HW230963   4.018   2.548   5.363  1.1063 -0.0479  1.2880
 6502SOL     OW30964   2.320   3.051   6.885  0.3644 -0.1856 -0.0207
 6502SOL    HW130965   2.298   2.958   6.891 -0.6008  0.0229 -0.3373
 6502SOL    HW230966   2.262   3.085   6.954 -0.3899  2.9107 -2.1662
 6503SOL     OW30967   3.878   2.138   4.807  0.0329  0.4002  0.6300
 6503SOL    HW130968   3.848   2.220   4.768 -0.9304  0.5113  1.6335
 6503SOL    HW230969   3.861   2.079   4.733  0.9047 -2.4200  2.6443
 6504SOL     OW30970   2.406   0.547   3.121  0.1167 -0.1303 -0.0975
 6504SOL    HW130971   2.401   0.640   3.145 -2.0058 -0.6569  1.4627
 6504SOL    HW230972   2.431   0.561   3.029 -0.7845  3.5899  0.2181
 6505SOL     OW30973   0.841   0.926   6.287  0.3412  0.3085 -0.1647
 6505SOL    HW130974   0.810   0.963   6.370 -0.1877 -3.1572  1.1931
 6505SOL    HW230975   0.767   0.947   6.230  0.5787  3.3705  0.6552
 6506SOL     OW30976   2.048   0.863   8.744 -0.0484  0.4108 -0.2875
 6506SOL    HW130977   2.094   0.861   8.660  0.2885 -1.8545 -0.0407
 6506SOL    HW230978   2.118   0.892   8.802 -0.6151 -0.1003  0.6511
 6507SOL     OW30979   1.621   0.790   4.982 -0.2126  0.2878  1.0297
 6507SOL    HW130980   1.606   0.783   4.888 -1.4965  1.3151  1.1718
 6507SOL    HW230981   1.710   0.755   4.981  0.0331  0.9902 -2.4750
 6508SOL     OW30982   1.844   2.218  12.268  0.0505  0.1000 -0.5250
 6508SOL    HW130983   1.827   2.291  12.209 -0.8199  0.1401 -0.2236
 6508SOL    HW230984   1.767   2.165  12.250  0.5720 -0.9901  0.4115
 6509SOL     OW30985   3.445   4.335   5.516  0.3048  0.3045 -0.0030
 6509SOL    HW130986   3.414   4.358   5.603  0.6758 -1.6716  0.6481
 6509SOL    HW230987   3.490   4.251   5.525  1.0598  0.6000 -0.9934
 6510SOL     OW30988   0.655   4.478   9.282 -0.0341 -0.2021 -0.1564
 6510SOL    HW130989   0.568   4.478   9.323 -0.2149  1.6907 -0.5552
 6510SOL    HW230990   0.682   4.398   9.326  1.6897 -0.4420 -1.6361
 6511SOL     OW30991   1.501   2.679   3.258 -0.0153 -0.2356 -0.3400
 6511SOL    HW130992   1.503   2.603   3.200 -0.6167 -1.0697  0.7372
 6511SOL    HW230993   1.591   2.706   3.237 -0.0872  1.1769  1.1461
 6512SOL     OW30994   3.215   0.579   6.401 -0.0566 -0.0694 -0.1425
 6512SOL    HW130995   3.259   0.495   6.417 -0.0922 -0.1297 -0.3695
 6512SOL    HW230996   3.136   0.541   6.362 -0.3227  2.0761 -1.6441
 6513SOL     OW30997   0.514   3.485   7.405 -0.5595  0.0163 -0.3175
 6513SOL    HW130998   0.590   3.541   7.386 -0.9544  1.2355  1.7293
 6513SOL    HW230999   0.485   3.532   7.483 -3.6821 -1.1062 -0.7975
 6514SOL     OW31000   4.302   3.316   8.103  0.1744 -0.8315 -0.0758
 6514SOL    HW131001   4.395   3.333   8.120 -0.2698  0.9770  0.5446
 6514SOL    HW231002   4.311   3.241   8.045  1.3136 -0.4197 -0.4476
 6515SOL     OW31003   0.743   0.923  16.347  0.3169 -0.2166  0.6233
 6515SOL    HW131004   0.817   0.983  16.349  0.7410 -0.7396  0.6476
 6515SOL    HW231005   0.684   0.967  16.286 -0.1099 -1.2533  0.2807
 6516SOL     OW31006   2.907   2.237   5.132 -0.1638 -0.2663 -0.0030
 6516SOL    HW131007   2.926   2.161   5.187 -1.0856 -0.0827  0.5773
 6516SOL    HW231008   2.959   2.209   5.057 -0.1788  0.7949 -0.4077
 6517SOL     OW31009   4.280   4.076  12.405 -0.7441  0.1926 -0.0325
 6517SOL    HW131010   4.342   4.038  12.344  0.2365 -0.6071  1.4782
 6517SOL    HW231011   4.198   4.083  12.355 -0.9064  3.1796  0.6332
 6518SOL     OW31012   2.079   3.052   4.758  0.0713  0.3508  0.3950
 6518SOL    HW131013   1.994   3.021   4.728  0.5678  0.2848 -0.9402
 6518SOL    HW231014   2.084   3.017   4.847  0.1760 -0.6187  0.0025
 6519SOL     OW31015   0.324   0.612   5.567  0.3450 -0.3654 -0.5580
 6519SOL    HW131016   0.236   0.575   5.560 -0.2294  0.9898 -0.5357
 6519SOL    HW231017   0.373   0.535   5.596 -0.3244 -0.6538 -0.1825
 6520SOL     OW31018   1.201   0.534   8.427 -0.0314 -0.0401 -0.2511
 6520SOL    HW131019   1.112   0.561   8.409  0.0636 -0.2264 -1.0036
 6520SOL    HW231020   1.215   0.578   8.511  1.1525 -1.2763  0.2215
 6521SOL     OW31021   3.386   3.831   6.582  0.0308  0.1876 -0.1071
 6521SOL    HW131022   3.375   3.778   6.660  1.5600 -0.5867 -0.4130
 6521SOL    HW231023   3.359   3.778   6.507 -2.7514 -0.9949  1.7490
 6522SOL     OW31024   0.222   1.975   7.816  0.0192 -0.1695  0.4441
 6522SOL    HW131025   0.231   2.046   7.880 -1.6703 -1.2455  1.8583
 6522SOL    HW231026   0.194   1.907   7.877  0.5361 -1.2410 -0.5216
 6523SOL     OW31027   1.509   4.234  16.901 -0.0497  0.1008 -0.3014
 6523SOL    HW131028   1.504   4.138  16.893  0.0244  0.0968 -0.2949
 6523SOL    HW231029   1.465   4.266  16.823 -0.6777  0.2549  0.1157
 6524SOL     OW31030   3.511   0.864   7.215  0.5733  0.1042 -0.0926
 6524SOL    HW131031   3.564   0.900   7.286  0.6322  0.7314 -0.4568
 6524SOL    HW231032   3.432   0.842   7.266  0.7407 -0.8988 -0.2760
 6525SOL     OW31033   3.959   4.399   2.411  0.5219  0.0041  0.1029
 6525SOL    HW131034   3.919   4.323   2.369  1.1086  0.7177 -1.7886
 6525SOL    HW231035   4.043   4.358   2.430  1.2732  1.5658  0.1869
 6526SOL     OW31036   4.501   3.771   3.739  0.2129 -0.2584  0.5261
 6526SOL    HW131037   4.453   3.738   3.662  1.6317  1.0809 -0.9184
 6526SOL    HW231038   4.579   3.716   3.730  1.0132  0.9910 -0.0320
 6527SOL     OW31039   1.982   4.329   5.993 -0.2868  0.1993  0.6642
 6527SOL    HW131040   2.070   4.361   6.010 -0.1437  0.4316 -0.4969
 6527SOL    HW231041   1.963   4.303   6.083 -0.7870 -2.8257 -0.2838
 6528SOL     OW31042   1.681   1.181   6.415 -0.5181  0.1535 -0.4432
 6528SOL    HW131043   1.585   1.182   6.422 -0.4051 -0.5735  1.2872
 6528SOL    HW231044   1.713   1.206   6.502  0.5805 -1.7776 -0.2930
 6529SOL     OW31045   3.663   2.218   5.243  0.3995 -0.2673 -0.2701
 6529SOL    HW131046   3.700   2.211   5.331  1.1153 -2.7534 -0.7921
 6529SOL    HW231047   3.689   2.306   5.216  0.6047 -0.3057 -0.1961
 6530SOL     OW31048   3.619   2.268   6.727 -0.2439  0.2807 -0.1895
 6530SOL    HW131049   3.599   2.222   6.809 -0.4181 -2.0377 -1.5553
 6530SOL    HW231050   3.534   2.287   6.687 -1.1308 -0.6517  1.2575
 6531SOL     OW31051   2.939   2.176  10.680  0.7564 -0.1898 -0.7116
 6531SOL    HW131052   2.919   2.203  10.770  2.1102  2.9445 -1.3482
 6531SOL    HW231053   3.025   2.134  10.689 -0.1208 -1.5981  1.3816
 6532SOL     OW31054   0.111   1.242   6.701  0.3259  0.1851  0.2585
 6532SOL    HW131055   0.041   1.303   6.682 -0.3858  0.1032  2.6837
 6532SOL    HW231056   0.172   1.273   6.633 -2.0756  2.7397 -0.7433
 6533SOL     OW31057   1.646   0.786  15.508 -0.6486 -0.0376  0.3427
 6533SOL    HW131058   1.729   0.787  15.556  0.7140  0.1739 -2.0493
 6533SOL    HW231059   1.607   0.701  15.529 -0.3136 -0.6270 -1.4487
 6534SOL     OW31060   2.147   1.518   1.400  0.4548 -0.2212  0.0573
 6534SOL    HW131061   2.087   1.547   1.331  0.1372 -2.1868 -0.4801
 6534SOL    HW231062   2.184   1.435   1.370  0.6488 -0.2629  0.4234
 6535SOL     OW31063   3.401   3.630  10.652  0.7966 -0.0644  0.2510
 6535SOL    HW131064   3.334   3.686  10.612  2.3183  0.7890 -1.1120
 6535SOL    HW231065   3.479   3.652  10.601  0.0852  1.0860 -0.3417
 6536SOL     OW31066   2.156   2.106  11.281  0.0973 -0.4342  0.6451
 6536SOL    HW131067   2.211   2.120  11.204  0.2054  0.7096  0.9288
 6536SOL    HW231068   2.224   2.106  11.349  1.1886 -2.4049 -0.4661
 6537SOL     OW31069   3.493   4.303   2.428 -0.7153  0.2476  0.5763
 6537SOL    HW131070   3.430   4.322   2.497 -2.1194 -0.7934 -0.4329
 6537SOL    HW231071   3.570   4.353   2.456 -0.8728  0.5730  0.4225
 6538SOL     OW31072   1.811   4.565   7.285 -0.1664  0.6594  0.3303
 6538SOL    HW131073   1.802   4.592   7.194  1.6251  2.3336  0.6694
 6538SOL    HW231074   1.856   4.638   7.328  1.6821 -0.8411  0.9727
 6539SOL     OW31075   0.205   4.564   8.537 -0.1898  0.0372 -0.3867
 6539SOL    HW131076   0.214   4.471   8.516  0.3765 -0.4026  1.8598
 6539SOL    HW231077   0.168   4.597   8.455  2.0404  4.0530  0.2553
 6540SOL     OW31078   2.444   0.553   8.231  0.3127  0.2750 -0.0196
 6540SOL    HW131079   2.437   0.467   8.189 -0.6633 -1.4199  3.6042
 6540SOL    HW231080   2.459   0.616   8.161  1.4053  0.1781  0.1240
 6541SOL     OW31081   0.056   2.534   6.383  0.1984 -0.1051 -0.0521
 6541SOL    HW131082   0.092   2.515   6.469 -0.4062 -2.8222 -0.4027
 6541SOL    HW231083   4.683   2.534   6.404 -0.6040 -1.6260 -3.5678
 6542SOL     OW31084   1.669   4.558  12.447 -0.0758 -0.3438 -0.9299
 6542SOL    HW131085   1.620   4.524  12.372 -0.7835 -0.1566 -0.5517
 6542SOL    HW231086   1.758   4.544  12.414  0.1043  0.8795 -0.9751
 6543SOL     OW31087   1.023   2.682   8.881  0.0872  0.0424 -0.4901
 6543SOL    HW131088   1.046   2.655   8.970 -0.5077 -0.6093 -0.5308
 6543SOL    HW231089   1.109   2.712   8.854  0.3123 -0.2236 -0.0679
 6544SOL     OW31090   0.928   1.056   8.747  0.1080  0.1451 -0.0979
 6544SOL    HW131091   0.885   0.989   8.799 -0.7046  0.7683  0.0344
 6544SOL    HW231092   1.015   1.048   8.787  1.1142  1.3957 -2.0026
 6545SOL     OW31093   0.538   1.312   3.109 -0.2687 -0.0819  0.0950
 6545SOL    HW131094   0.485   1.331   3.032  0.9823  0.0438 -0.7323
 6545SOL    HW231095   0.493   1.355   3.181 -1.7896  1.3164 -1.7038
 6546SOL     OW31096   3.150   0.780   1.123 -0.8026  0.2303 -0.2573
 6546SOL    HW131097   3.235   0.747   1.095 -0.8018  2.0787 -2.4106
 6546SOL    HW231098   3.086   0.730   1.071  1.4936 -0.9187 -1.9579
 6547SOL     OW31099   1.123   1.178   6.427 -0.1570 -0.3065  0.0940
 6547SOL    HW131100   1.134   1.126   6.348  1.1325 -2.0156  1.4177
 6547SOL    HW231101   1.133   1.263   6.384  1.1570 -1.0858 -1.1223
 6548SOL     OW31102   4.021   2.107  13.524 -0.3412 -0.2488  0.0513
 6548SOL    HW131103   4.109   2.088  13.492 -0.1445 -0.3432  0.6458
 6548SOL    HW231104   4.038   2.157  13.604 -0.7028  1.4340 -0.9351
 6549SOL     OW31105   2.653   4.040   7.518  0.3692 -0.5402  0.3231
 6549SOL    HW131106   2.573   4.015   7.563  0.1075 -2.0834 -0.9944
 6549SOL    HW231107   2.717   3.982   7.560  2.2979  1.7624  0.5749
 6550SOL     OW31108   2.749   2.053  13.761  0.2589 -0.2769  0.5419
 6550SOL    HW131109   2.837   2.071  13.728 -0.5157  0.1484 -1.2735
 6550SOL    HW231110   2.713   2.001  13.689 -0.4279  0.1213  0.5950
 6551SOL     OW31111   1.233   3.258  13.404 -0.4508  0.2511  0.6816
 6551SOL    HW131112   1.178   3.270  13.482  0.3932 -2.1892  1.6729
 6551SOL    HW231113   1.208   3.171  13.373 -0.6271 -0.3367  2.4599
 6552SOL     OW31114   1.622   4.623   1.751 -0.7933  0.5421 -0.1017
 6552SOL    HW131115   1.619   4.717   1.733 -2.2512  0.7373  1.1448
 6552SOL    HW231116   1.538   4.589   1.721 -0.5651  1.3138 -1.5716
 6553SOL     OW31117   1.266   3.604   6.045 -0.1565 -0.1471 -0.2890
 6553SOL    HW131118   1.314   3.646   6.117 -1.3296  2.0460 -0.7950
 6553SOL    HW231119   1.223   3.535   6.096 -1.1220  1.4365  1.0402
 6554SOL     OW31120   4.168   2.331  14.024 -0.6919 -0.0744  0.2826
 6554SOL    HW131121   4.212   2.293  14.099 -1.2653  0.4537  0.8908
 6554SOL    HW231122   4.076   2.327  14.051 -0.7673 -1.0494 -0.1298
 6555SOL     OW31123   1.908   0.479   8.590 -0.6277  0.2867 -0.8134
 6555SOL    HW131124   1.958   0.557   8.614 -1.9374  0.7899  0.3045
 6555SOL    HW231125   1.820   0.511   8.568 -1.6943 -2.0483  0.1192
 6556SOL     OW31126   2.952   3.404   9.889 -0.2547 -0.0114 -0.1813
 6556SOL    HW131127   3.020   3.472   9.894 -0.6946  0.2318  2.6939
 6556SOL    HW231128   2.961   3.371   9.979 -0.6290  0.4283  0.0128
 6557SOL     OW31129   4.707   1.495  16.954 -0.5723 -0.7083  0.4543
 6557SOL    HW131130   0.034   1.578  16.956 -2.1124  0.2242 -1.2737
 6557SOL    HW231131   4.629   1.520  16.904  0.3050  0.4114 -0.3526
 6558SOL     OW31132   0.403   0.040   7.424 -0.7007 -0.2546  0.1411
 6558SOL    HW131133   0.335   0.101   7.454  1.8436  1.6908  1.9416
 6558SOL    HW231134   0.397   4.693   7.492  0.0922  0.1189  0.5836
 6559SOL     OW31135   2.480   0.749   5.233 -0.5141 -0.7994  0.7844
 6559SOL    HW131136   2.459   0.785   5.319 -4.5243 -0.8515 -0.1955
 6559SOL    HW231137   2.454   0.825   5.182  0.9535 -1.2043 -0.5399
 6560SOL     OW31138   0.793   1.341   9.608  0.4480 -0.3036 -0.5419
 6560SOL    HW131139   0.843   1.343   9.690  0.8430 -0.6099 -0.7771
 6560SOL    HW231140   0.789   1.249   9.579 -5.9321 -0.7102  1.4984
 6561SOL     OW31141   2.105   1.722   2.817 -0.0993  0.0853  0.1646
 6561SOL    HW131142   2.021   1.684   2.790 -0.3031  1.4332 -1.1166
 6561SOL    HW231143   2.072   1.801   2.859 -2.5766 -0.4707 -0.7329
 6562SOL     OW31144   1.713   4.539   1.493  0.3536  0.1034  0.1451
 6562SOL    HW131145   1.663   4.602   1.441 -0.0497  1.3887  2.0519
 6562SOL    HW231146   1.702   4.576   1.581  3.1620  2.7150 -0.5729
 6563SOL     OW31147   3.194   2.101   7.978 -0.3191  0.2295  0.0966
 6563SOL    HW131148   3.237   2.016   7.969 -3.9363 -1.8333  2.2551
 6563SOL    HW231149   3.130   2.092   8.049  0.1854 -0.0366  0.5123
 6564SOL     OW31150   3.101   4.156   5.569  0.2582 -0.1288 -0.0608
 6564SOL    HW131151   3.083   4.073   5.612 -1.1517 -0.7425 -1.7809
 6564SOL    HW231152   3.059   4.139   5.484 -0.1565  2.2118 -0.3377
 6565SOL     OW31153   2.537   1.141   4.034  0.5831  0.5301  0.0151
 6565SOL    HW131154   2.593   1.076   3.992  1.3851 -0.2959  2.3957
 6565SOL    HW231155   2.536   1.200   3.958  0.4793  1.9572  1.1278
 6566SOL     OW31156   0.371   1.438   8.916 -1.4011  0.1697 -0.6686
 6566SOL    HW131157   0.400   1.421   8.826  0.4022  0.9174 -0.2266
 6566SOL    HW231158   0.380   1.532   8.930  1.0093 -0.1470 -0.1517
 6567SOL     OW31159   1.845   2.458   1.845  0.2176 -0.3865 -0.3900
 6567SOL    HW131160   1.796   2.456   1.927 -0.5123 -1.4497 -0.8504
 6567SOL    HW231161   1.901   2.382   1.858  2.0793  0.7085 -2.0333
 6568SOL     OW31162   2.713   1.017   6.421 -0.1783  0.7423 -0.2978
 6568SOL    HW131163   2.630   0.969   6.428 -0.2333  0.9879  0.6579
 6568SOL    HW231164   2.749   0.997   6.507 -1.4987 -1.4203 -0.2498
 6569SOL     OW31165   2.985   1.668  12.254 -0.1424  0.5062  0.0148
 6569SOL    HW131166   2.936   1.713  12.323 -0.1644 -0.7040  0.7908
 6569SOL    HW231167   3.012   1.739  12.196  0.1634 -0.0107 -0.4677
 6570SOL     OW31168   0.056   1.243  14.764 -0.2624  0.1446  0.0705
 6570SOL    HW131169   0.089   1.178  14.826  0.5778 -0.0936 -0.6265
 6570SOL    HW231170   0.055   1.186  14.687  3.4147 -0.4426  0.4535
 6571SOL     OW31171   3.864   3.055   8.335 -0.0147 -1.3401  0.3041
 6571SOL    HW131172   3.799   3.088   8.272 -0.5655 -0.8786  1.1063
 6571SOL    HW231173   3.946   3.088   8.297 -0.4791 -1.6645 -0.9870
 6572SOL     OW31174   1.625   2.818   9.405 -0.0399  0.3005 -0.7124
 6572SOL    HW131175   1.711   2.850   9.432 -1.1646  2.7458 -0.0726
 6572SOL    HW231176   1.569   2.879   9.453  0.3946  1.2419 -1.4018
 6573SOL     OW31177   4.090   0.376   0.552  0.0875  0.0489  0.0902
 6573SOL    HW131178   4.018   0.423   0.509 -1.3539  0.8590  3.4048
 6573SOL    HW231179   4.163   0.379   0.489 -0.8940 -4.8461 -1.2514
 6574SOL     OW31180   3.178   4.098  10.826 -0.0849 -0.5886  0.1376
 6574SOL    HW131181   3.151   4.104  10.735  1.2656  2.0138 -0.0761
 6574SOL    HW231182   3.202   4.190  10.839  0.0247 -0.7052  0.7813
 6575SOL     OW31183   3.876   2.882  13.616 -0.9119  0.7246  0.5524
 6575SOL    HW131184   3.939   2.945  13.581  0.5250 -2.1772 -2.1112
 6575SOL    HW231185   3.846   2.930  13.693 -2.9603 -1.2917  1.0086
 6576SOL     OW31186   3.154   1.395   4.687  0.1174  0.2682  0.0612
 6576SOL    HW131187   3.239   1.368   4.654  1.1083  2.4453  0.8058
 6576SOL    HW231188   3.082   1.347   4.646 -0.2327  0.3700  0.5482
 6577SOL     OW31189   1.416   0.212  11.936 -0.2943  0.3111 -0.5268
 6577SOL    HW131190   1.434   0.259  11.855  1.9599 -0.3670 -0.4083
 6577SOL    HW231191   1.339   0.176  11.892 -0.1958  1.2326 -1.4589
 6578SOL     OW31192   0.700   2.463   3.513  0.3588  0.5452 -0.5158
 6578SOL    HW131193   0.767   2.407   3.473  0.3927  1.5538 -1.8646
 6578SOL    HW231194   0.704   2.550   3.475 -1.3707  1.1080  0.5951
 6579SOL     OW31195   3.987   3.311   3.201  0.2031 -0.4124  1.0595
 6579SOL    HW131196   3.903   3.330   3.244 -0.2942 -0.1953 -0.0267
 6579SOL    HW231197   3.954   3.271   3.121 -1.6243  0.9698  1.1271
 6580SOL     OW31198   1.008   4.683  11.497  0.5890  0.9398  0.3028
 6580SOL    HW131199   0.916   4.657  11.487  0.6876  0.2006  1.3583
 6580SOL    HW231200   1.021   4.703  11.405  1.0101  1.1046  0.4004
 6581SOL     OW31201   2.815   0.069   7.140 -0.5304  0.6718  0.0097
 6581SOL    HW131202   2.772   0.037   7.060  1.2719 -0.0216 -0.6933
 6581SOL    HW231203   2.762   0.017   7.200  0.1001  1.2661  1.0736
 6582SOL     OW31204   0.308   3.713   3.162 -0.0056  0.4542 -0.1826
 6582SOL    HW131205   0.277   3.780   3.101  0.7486  0.2185 -0.8352
 6582SOL    HW231206   0.225   3.671   3.186  0.4456  1.1905  2.6727
 6583SOL     OW31207   4.320   4.256   4.530 -0.4685 -0.0144  0.7671
 6583SOL    HW131208   4.289   4.213   4.451  0.2232  3.3299 -1.3102
 6583SOL    HW231209   4.286   4.189   4.590 -1.9686 -2.0222 -2.3232
 6584SOL     OW31210   0.023   0.829   9.399 -0.5088 -0.7185  0.4997
 6584SOL    HW131211   0.114   0.805   9.381 -0.9875 -0.3977 -2.3182
 6584SOL    HW231212   4.704   0.753   9.443 -2.1972 -0.9883 -1.4784
 6585SOL     OW31213   3.098   2.614  15.669 -0.1689  0.2534 -0.1928
 6585SOL    HW131214   3.057   2.532  15.694  3.6326 -0.7615  2.8176
 6585SOL    HW231215   3.104   2.592  15.576 -0.0044  0.5068 -0.2422
 6586SOL     OW31216   0.288   1.737   6.718  0.4848  0.2320 -0.5153
 6586SOL    HW131217   0.303   1.691   6.800  1.2272  0.3953 -0.5597
 6586SOL    HW231218   0.378   1.762   6.697  1.2147 -0.9245  1.2306
 6587SOL     OW31219   3.843   1.144   1.017 -0.6204 -0.2673  0.2272
 6587SOL    HW131220   3.922   1.092   1.035  0.3830  0.8846 -0.9042
 6587SOL    HW231221   3.882   1.199   0.950  1.4520 -2.5231 -0.4151
 6588SOL     OW31222   2.911   0.286   8.345  0.4425  0.9513 -0.0808
 6588SOL    HW131223   2.982   0.271   8.408  0.6824 -1.1440 -0.8419
 6588SOL    HW231224   2.887   0.378   8.360  0.1705  1.1333 -1.6410
 6589SOL     OW31225   2.879   3.201   8.024 -0.0491  0.2962 -0.3742
 6589SOL    HW131226   2.958   3.156   7.997 -1.3531 -2.1158 -0.2309
 6589SOL    HW231227   2.886   3.183   8.118 -0.6464  0.9962 -0.1905
 6590SOL     OW31228   2.561   0.408  15.815 -0.2335  0.3007 -0.1262
 6590SOL    HW131229   2.489   0.399  15.877  0.5113  0.2974  0.7332
 6590SOL    HW231230   2.578   0.317  15.791 -1.0318  0.4887 -1.4153
 6591SOL     OW31231   4.485   1.458   9.322  0.1397  0.4786 -0.0051
 6591SOL    HW131232   4.576   1.449   9.294  0.0825  0.6950 -0.2542
 6591SOL    HW231233   4.463   1.546   9.293  0.7647  0.6834  0.1439
 6592SOL     OW31234   3.644   0.757   5.933  0.2918 -0.1531 -0.1099
 6592SOL    HW131235   3.673   0.774   5.843  0.9472  0.7495  0.2807
 6592SOL    HW231236   3.567   0.814   5.928  1.6868  1.6050 -1.3405
 6593SOL     OW31237   1.301   2.546  11.555 -0.1131 -0.1713  0.3978
 6593SOL    HW131238   1.365   2.610  11.524  0.6966 -0.9871  0.3928
 6593SOL    HW231239   1.238   2.542  11.484  2.3706 -0.2168 -1.8174
 6594SOL     OW31240   0.798   4.214   5.376 -0.5809  0.6393  0.4114
 6594SOL    HW131241   0.891   4.203   5.394 -0.4202 -0.0283 -0.8526
 6594SOL    HW231242   0.801   4.180   5.287  0.6887 -0.1175  0.7463
 6595SOL     OW31243   1.215   2.357  14.172  0.1311 -0.4009 -0.3385
 6595SOL    HW131244   1.233   2.432  14.114 -1.7329  0.5630  0.3184
 6595SOL    HW231245   1.120   2.359  14.159  0.1844  0.1112 -0.6670
 6596SOL     OW31246   0.698   0.087   2.612 -0.2111  0.4250 -0.2338
 6596SOL    HW131247   0.691   0.074   2.517  1.2810 -2.2820  0.0218
 6596SOL    HW231248   0.606   0.109   2.630  0.1593  2.7455 -1.1534
 6597SOL     OW31249   2.201   1.263   2.471 -0.3616 -0.4052  0.0055
 6597SOL    HW131250   2.191   1.271   2.376  0.7584 -1.7538 -0.2233
 6597SOL    HW231251   2.293   1.237   2.469 -0.3223 -0.4225  1.6712
 6598SOL     OW31252   3.119   3.035   6.077  0.2995 -0.6696  0.0017
 6598SOL    HW131253   3.183   3.069   6.140  1.1148  0.6198 -1.5350
 6598SOL    HW231254   3.059   3.110   6.076 -0.4482 -1.2386  1.9433
 6599SOL     OW31255   2.151   4.081  13.608  0.0646  0.4026  0.3569
 6599SOL    HW131256   2.236   4.039  13.622 -0.5565 -1.2551 -0.7613
 6599SOL    HW231257   2.090   4.007  13.604  0.6298 -0.0193 -0.6312
 6600SOL     OW31258   1.640   4.430   6.207 -0.5855  0.8123 -0.3614
 6600SOL    HW131259   1.683   4.513   6.229  1.6606  0.1758 -2.3211
 6600SOL    HW231260   1.666   4.431   6.115  2.0967  1.1738  0.3951
 6601SOL     OW31261   3.502   1.488   5.949 -0.5041 -0.5825 -0.3860
 6601SOL    HW131262   3.420   1.498   5.997 -1.6022  1.1990 -2.6441
 6601SOL    HW231263   3.501   1.401   5.910  2.7132 -0.1070 -1.5465
 6602SOL     OW31264   3.337   2.907   5.647  0.5046  0.9148  0.5633
 6602SOL    HW131265   3.323   2.829   5.702  1.3735 -0.3376 -0.9873
 6602SOL    HW231266   3.432   2.916   5.653  0.7303 -1.0339 -0.0136
 6603SOL     OW31267   3.059   3.435  15.283  0.3605 -0.0439 -0.0159
 6603SOL    HW131268   3.113   3.358  15.300  1.7362  0.9738  0.2845
 6603SOL    HW231269   3.011   3.409  15.205  2.0389 -0.4123 -0.9390
 6604SOL     OW31270   3.666   3.959   2.124 -0.1177  0.1644  1.2873
 6604SOL    HW131271   3.656   3.953   2.029  1.0214 -0.4476  1.2175
 6604SOL    HW231272   3.651   4.053   2.140  1.1465  0.7610 -1.0223
 6605SOL     OW31273   3.999   2.365  15.921  0.4622 -0.1006  1.0462
 6605SOL    HW131274   4.079   2.326  15.956 -0.3172 -1.0276  1.8059
 6605SOL    HW231275   3.954   2.294  15.876 -1.1868  1.2660  0.5435
 6606SOL     OW31276   4.167   0.183   6.321 -0.1388  0.3904 -0.1492
 6606SOL    HW131277   4.234   0.158   6.257 -0.8940  3.2161 -2.0512
 6606SOL    HW231278   4.196   0.126   6.392  2.0260  2.8038  0.9385
 6607SOL     OW31279   2.327   0.041   5.255  0.1674  0.2451  0.2589
 6607SOL    HW131280   2.257   0.042   5.190 -1.8375  1.1955  2.4335
 6607SOL    HW231281   2.399   0.012   5.199 -0.6508  0.8935 -1.1263
 6608SOL     OW31282   0.885   2.338   2.295  0.2954 -0.7578 -0.2784
 6608SOL    HW131283   0.978   2.337   2.319  0.3635  0.8496 -0.4537
 6608SOL    HW231284   0.849   2.290   2.369 -0.1210  2.3672  1.5821
 6609SOL     OW31285   2.456   4.142   4.966  0.0492  0.3493 -0.5578
 6609SOL    HW131286   2.363   4.160   4.975 -0.1674 -1.4299  0.9259
 6609SOL    HW231287   2.492   4.201   4.900  2.6296  1.0766  1.5192
 6610SOL     OW31288   0.521   3.884   3.247 -0.1549  0.1090  0.0720
 6610SOL    HW131289   0.447   3.827   3.228 -0.2773  0.4446 -0.4265
 6610SOL    HW231290   0.550   3.900   3.157 -2.1261 -2.1872 -0.9606
 6611SOL     OW31291   0.240   3.909   0.085 -0.4686  0.0840 -0.0877
 6611SOL    HW131292   0.287   3.922   0.002 -1.7986  0.9263 -0.7017
 6611SOL    HW231293   0.285   3.967   0.146 -3.2107  2.0715  0.0251
 6612SOL     OW31294   0.027   1.033   6.536 -0.3147  0.1585 -0.2126
 6612SOL    HW131295   4.700   1.098   6.483 -0.5318  0.6686  0.6059
 6612SOL    HW231296   0.046   1.086   6.614 -2.2017  2.1506 -1.1104
 6613SOL     OW31297   3.497   0.060   3.171 -0.2118  0.2037 -0.2102
 6613SOL    HW131298   3.527   0.146   3.142  0.5244 -0.2260 -0.7290
 6613SOL    HW231299   3.475   0.017   3.089  1.2170  0.6530 -0.8422
 6614SOL     OW31300   0.397   3.210   9.377  0.0790 -0.2259  0.0594
 6614SOL    HW131301   0.355   3.136   9.334  1.5512 -1.4236  0.6886
 6614SOL    HW231302   0.333   3.275   9.406 -2.5112 -2.0143 -1.6626
 6615SOL     OW31303   2.680   0.359  12.101  0.0526  0.6957 -0.3614
 6615SOL    HW131304   2.675   0.331  12.009  0.5972  1.7482 -0.7081
 6615SOL    HW231305   2.592   0.397  12.099  0.0078  0.6034 -0.0346
 6616SOL     OW31306   0.330   4.394   7.816 -0.2167 -0.8165  0.0900
 6616SOL    HW131307   0.364   4.306   7.798 -3.2332 -2.0739  0.6650
 6616SOL    HW231308   0.237   4.376   7.809  0.3410 -3.1450 -1.1313
 6617SOL     OW31309   1.368   3.745   9.042 -0.0282  0.1858  0.2973
 6617SOL    HW131310   1.395   3.829   9.005 -0.8849  1.3546  2.3363
 6617SOL    HW231311   1.311   3.719   8.969  0.0754 -3.9045  1.6547
 6618SOL     OW31312   0.888   4.321   4.744  0.0871  0.3098 -0.3302
 6618SOL    HW131313   0.932   4.360   4.669  2.5894 -1.9717 -0.0494
 6618SOL    HW231314   0.798   4.339   4.715  0.1673  1.8116  0.3514
 6619SOL     OW31315   0.550   1.955   7.472 -0.3339 -0.0850  0.3407
 6619SOL    HW131316   0.470   1.985   7.515 -1.6910 -0.0414 -2.2531
 6619SOL    HW231317   0.598   2.032   7.441  2.1956 -1.8898 -0.2549
 6620SOL     OW31318   1.326   3.473  14.812  0.4146 -0.5954  0.5390
 6620SOL    HW131319   1.272   3.444  14.739  1.5820  0.3039 -0.7048
 6620SOL    HW231320   1.374   3.392  14.827  0.6314  0.4485  5.3848
 6621SOL     OW31321   2.055   2.293   9.083 -0.2138 -0.4586  0.4636
 6621SOL    HW131322   2.093   2.366   9.131 -0.4782  0.2381 -0.3885
 6621SOL    HW231323   1.965   2.305   9.114  0.4439  0.9096  1.8397
 6622SOL     OW31324   1.312   0.040  11.287  0.2408  0.0797  0.2764
 6622SOL    HW131325   1.232   4.714  11.261  1.1199 -0.4828 -1.4497
 6622SOL    HW231326   1.355   4.693  11.338 -0.8446 -1.0214 -0.2560
 6623SOL     OW31327   1.210   4.540  11.612 -0.6527  0.3000 -0.1348
 6623SOL    HW131328   1.132   4.580  11.573  0.3779  0.4907 -2.0050
 6623SOL    HW231329   1.178   4.528  11.701 -0.9707 -0.0641 -0.3014
 6624SOL     OW31330   4.701   1.338  14.384 -0.1602  0.4058  0.1151
 6624SOL    HW131331   0.014   1.426  14.364  0.0364  0.3595  0.2432
 6624SOL    HW231332   0.060   1.292  14.355 -0.2953  1.0044 -1.2177
 6625SOL     OW31333   2.411   0.631   7.007 -0.1296  0.3846  0.4025
 6625SOL    HW131334   2.470   0.565   6.971 -0.9616  1.2037 -2.4928
 6625SOL    HW231335   2.458   0.702   6.964  0.9366 -0.1664  0.6490
 6626SOL     OW31336   4.507   1.975   8.141  0.5115 -0.2767 -0.1804
 6626SOL    HW131337   4.423   2.015   8.117  1.0185 -1.2967 -3.6419
 6626SOL    HW231338   4.477   1.886   8.164 -2.8424  1.0403  0.5904
 6627SOL     OW31339   3.295   2.808   3.635 -0.6450 -0.1207  0.2398
 6627SOL    HW131340   3.326   2.836   3.721 -3.0054 -0.8045  1.3114
 6627SOL    HW231341   3.377   2.790   3.589 -0.3733 -0.8541  1.0256
 6628SOL     OW31342   0.435   4.528   2.525 -0.6113  0.4044  0.0716
 6628SOL    HW131343   0.385   4.608   2.509  0.3145  0.8068 -0.7841
 6628SOL    HW231344   0.395   4.468   2.462 -0.0793 -0.0868  0.1943
 6629SOL     OW31345   2.767   0.198   3.483 -0.0983  0.2207  0.3753
 6629SOL    HW131346   2.737   0.110   3.459  0.2427  0.5584 -1.3544
 6629SOL    HW231347   2.815   0.221   3.403 -0.6293  3.4946  0.9898
 6630SOL     OW31348   3.042   2.298  10.059  0.3915 -0.4013 -0.2570
 6630SOL    HW131349   3.000   2.315   9.975 -1.1871  3.1981  1.2988
 6630SOL    HW231350   3.100   2.222  10.045  1.8062  0.7354 -0.5816
 6631SOL     OW31351   3.362   2.701   2.820  0.0037 -0.1061 -0.6198
 6631SOL    HW131352   3.278   2.689   2.776  0.1732 -0.5655 -0.8245
 6631SOL    HW231353   3.421   2.643   2.772 -1.2722 -0.5489 -1.6334
 6632SOL     OW31354   2.114   4.678   3.839 -0.2020  0.1459 -0.1357
 6632SOL    HW131355   2.019   4.679   3.831 -0.1323  0.3245 -0.9839
 6632SOL    HW231356   2.115   4.712   3.928 -1.0219 -2.9763  1.0554
 6633SOL     OW31357   3.108   3.620   5.565  0.0969  0.0369 -0.1406
 6633SOL    HW131358   3.175   3.571   5.611 -0.1816 -2.4201 -2.3451
 6633SOL    HW231359   3.038   3.554   5.561  0.1074  0.0617 -0.7194
 6634SOL     OW31360   2.077   4.681   6.534 -0.1817  0.2092 -0.4023
 6634SOL    HW131361   2.066   0.015   6.455 -1.5797  1.0828  0.3978
 6634SOL    HW231362   2.066   4.591   6.503 -2.5589  0.1983  0.4856
 6635SOL     OW31363   1.083   4.328   7.326 -0.1015  0.0429  0.0676
 6635SOL    HW131364   1.161   4.273   7.333 -0.8596 -1.5031 -3.7455
 6635SOL    HW231365   1.095   4.394   7.257  2.5947  2.0597  2.4259
 6636SOL     OW31366   1.533   4.098   8.240  0.2380 -0.2632  0.3049
 6636SOL    HW131367   1.543   4.054   8.324  1.7642 -1.1858 -0.3562
 6636SOL    HW231368   1.625   4.118   8.223  0.1847  1.1886  1.6963
 6637SOL     OW31369   2.500   1.146  12.027  0.5350  0.2160 -0.7488
 6637SOL    HW131370   2.578   1.093  12.010  1.8982  2.1800 -0.6545
 6637SOL    HW231371   2.480   1.123  12.118 -4.2809  3.9036 -0.8801
 6638SOL     OW31372   2.049   0.431   3.958  0.2431 -0.1271 -0.6707
 6638SOL    HW131373   2.024   0.376   4.032  1.4632  1.8086  1.1965
 6638SOL    HW231374   2.107   0.372   3.910  0.5122  0.0393 -0.5503
 6639SOL     OW31375   1.071   1.923  12.572  0.3394  0.0138  0.7665
 6639SOL    HW131376   1.160   1.891  12.587 -0.4762 -2.0149  1.1514
 6639SOL    HW231377   1.083   1.961  12.484 -0.2389  0.2351  0.7836
 6640SOL     OW31378   3.904   0.182   3.360 -0.0395 -0.2733  0.3324
 6640SOL    HW131379   3.868   0.094   3.360  2.3085 -1.2248  1.7435
 6640SOL    HW231380   3.879   0.211   3.447 -0.8717  1.2462 -0.4087
 6641SOL     OW31381   2.993   0.348   7.670 -0.2016  0.5067  0.3423
 6641SOL    HW131382   3.077   0.301   7.674  0.6183  1.9478  0.1658
 6641SOL    HW231383   3.021   0.439   7.669  1.1625  0.1246  2.4289
 6642SOL     OW31384   0.578   1.268   4.355 -0.3638 -0.3961  0.0498
 6642SOL    HW131385   0.549   1.287   4.266  0.1287  0.0945 -0.0080
 6642SOL    HW231386   0.517   1.329   4.397 -0.7860 -0.9285  0.2036
 6643SOL     OW31387   2.547   3.746   7.774  0.1644  0.0930  0.0484
 6643SOL    HW131388   2.489   3.822   7.783  0.9760  0.6475  0.6286
 6643SOL    HW231389   2.591   3.757   7.690 -1.3543  1.2026 -0.6073
 6644SOL     OW31390   3.981   1.615   1.759 -0.0174  0.3303 -0.0136
 6644SOL    HW131391   3.985   1.542   1.698 -1.5158 -1.5441  2.1334
 6644SOL    HW231392   3.951   1.569   1.837  0.5156 -1.4920 -0.8905
 6645SOL     OW31393   0.230   2.503   5.368  0.3107  0.1400  0.4904
 6645SOL    HW131394   0.237   2.426   5.311 -2.0748  0.8566 -0.7610
 6645SOL    HW231395   0.204   2.576   5.313  1.4082  1.2204  1.3944
 6646SOL     OW31396   1.138   2.985   5.035 -0.4069  0.4717  0.0331
 6646SOL    HW131397   1.210   3.046   5.020 -0.7275  0.5999 -1.0011
 6646SOL    HW231398   1.104   2.966   4.947  0.7755  0.7176 -0.4708
 6647SOL     OW31399   3.322   4.226   1.937  0.2506  0.4632  0.8392
 6647SOL    HW131400   3.412   4.261   1.936  0.0853  0.9340  2.6004
 6647SOL    HW231401   3.333   4.135   1.964  0.6345  0.3544  0.3060
 6648SOL     OW31402   1.627   2.901   7.736 -0.0176  0.0789  0.1615
 6648SOL    HW131403   1.571   2.932   7.664 -2.6122 -1.7558  1.3949
 6648SOL    HW231404   1.650   2.989   7.766 -1.0204  0.4823 -0.2438
 6649SOL     OW31405   0.088   0.041   2.659 -0.3640  0.2935  0.3620
 6649SOL    HW131406   0.180   0.016   2.655 -0.8091 -0.7787 -2.7252
 6649SOL    HW231407   0.051   4.699   2.598 -0.0976  0.7473 -0.2648
 6650SOL     OW31408   4.326   0.724  16.543  0.1544  0.3631  0.1411
 6650SOL    HW131409   4.405   0.754  16.499  1.2368 -1.9696  0.4758
 6650SOL    HW231410   4.313   0.661  16.472  2.5961 -0.2868  0.2817
 6651SOL     OW31411   4.566   1.181   3.062 -0.0998  0.0922 -0.6395
 6651SOL    HW131412   4.609   1.265   3.047  0.8113  0.2566  2.8410
 6651SOL    HW231413   4.594   1.133   2.984 -1.8952 -3.7724  1.0399
 6652SOL     OW31414   3.841   4.133   0.406 -0.5657  0.0560 -0.6693
 6652SOL    HW131415   3.826   4.178   0.488 -1.9527 -3.0367  0.7730
 6652SOL    HW231416   3.798   4.197   0.350  0.3268  0.6495 -0.6837
 6653SOL     OW31417   3.494   0.206   2.089  0.2705 -0.2709  0.2755
 6653SOL    HW131418   3.584   0.237   2.091  1.0963 -2.6011 -0.7963
 6653SOL    HW231419   3.468   0.208   2.181 -1.1761  1.2055 -0.1663
 6654SOL     OW31420   3.211   4.707   4.731  0.1202 -0.2167  0.5027
 6654SOL    HW131421   3.239   4.630   4.681 -2.4541 -1.4448  0.9860
 6654SOL    HW231422   3.301   0.005   4.758 -0.7928  1.8934  2.0972
 6655SOL     OW31423   0.523   2.142   5.250  0.6952 -0.2009  0.0804
 6655SOL    HW131424   0.578   2.073   5.213  2.3269  0.8854  0.5188
 6655SOL    HW231425   0.467   2.089   5.306  1.4703 -0.6085  0.4694
 6656SOL     OW31426   4.561   2.248  11.631 -0.4331  0.7848  0.2495
 6656SOL    HW131427   4.556   2.278  11.722 -0.0798  0.1393  0.4766
 6656SOL    HW231428   4.640   2.194  11.632 -1.0489 -0.1068  1.2978
 6657SOL     OW31429   1.787   3.839  11.057  0.2266  0.1356  0.4240
 6657SOL    HW131430   1.832   3.844  11.141  0.4472  3.5337  0.1006
 6657SOL    HW231431   1.823   3.761  11.014 -0.9711 -0.0316 -0.3114
 6658SOL     OW31432   0.575   3.894   0.268 -0.0633  0.1496  0.7945
 6658SOL    HW131433   0.659   3.937   0.253  0.6428 -1.5621 -0.2182
 6658SOL    HW231434   0.605   3.827   0.330 -0.3280 -0.1314  0.6183
 6659SOL     OW31435   0.022   1.795  13.314  0.2747 -0.1545 -0.6774
 6659SOL    HW131436   0.021   1.830  13.404 -0.2239 -2.3781  0.1723
 6659SOL    HW231437   0.105   1.832  13.284 -0.9978  0.3879 -3.5144
 6660SOL     OW31438   1.792   2.347   8.509 -0.2843  0.2330  0.2889
 6660SOL    HW131439   1.751   2.360   8.423  0.7450 -0.1907 -0.2564
 6660SOL    HW231440   1.818   2.438   8.523 -0.8731  0.2550  1.2958
 6661SOL     OW31441   3.577   0.649   3.618  0.1086 -0.3787  0.3665
 6661SOL    HW131442   3.542   0.738   3.619 -1.1055 -0.8308 -1.4578
 6661SOL    HW231443   3.570   0.629   3.525 -1.6283 -3.2587  1.0968
 6662SOL     OW31444   4.126   2.660   9.618  0.0486  0.6444 -0.0052
 6662SOL    HW131445   4.099   2.595   9.552 -0.0844 -0.6926  1.3753
 6662SOL    HW231446   4.076   2.629   9.694  1.9248 -0.2601  0.8542
 6663SOL     OW31447   2.991   3.299   7.045  0.3299 -0.0347 -0.5008
 6663SOL    HW131448   3.016   3.379   7.092 -0.1702  0.1060 -0.4692
 6663SOL    HW231449   2.908   3.292   7.092 -0.5624  1.7481 -1.7871
 6664SOL     OW31450   1.805   3.952   5.611  0.3296  0.1624  0.5426
 6664SOL    HW131451   1.889   3.983   5.578  0.4362  2.2220  2.7418
 6664SOL    HW231452   1.792   4.027   5.669  0.4628  0.6978 -0.1278
 6665SOL     OW31453   4.643   2.044   0.938 -0.5056 -0.0250  0.5801
 6665SOL    HW131454   4.668   2.115   0.997  0.3699  1.8179 -1.9998
 6665SOL    HW231455   4.550   2.067   0.929 -0.4129  0.0870 -0.0953
 6666SOL     OW31456   3.088   4.487  16.778  0.4735 -0.1234 -0.0488
 6666SOL    HW131457   3.034   4.495  16.700 -0.2292  1.7001  0.6240
 6666SOL    HW231458   3.057   4.559  16.833  1.1508 -0.0518  0.2429
 6667SOL     OW31459   1.192   4.370   6.229 -0.0381 -0.0268  0.1670
 6667SOL    HW131460   1.129   4.318   6.181  0.6301 -0.8071  0.1255
 6667SOL    HW231461   1.189   4.459   6.193  0.9498  0.2162  0.6462
 6668SOL     OW31462   0.547   4.061  16.455 -0.3147 -0.3257  0.5432
 6668SOL    HW131463   0.459   4.025  16.455 -1.6165  2.8452  1.2495
 6668SOL    HW231464   0.594   3.992  16.408  0.8999 -0.6019  2.1207
 6669SOL     OW31465   2.090   3.629  11.706  0.2243 -0.3170  1.0471
 6669SOL    HW131466   2.121   3.588  11.787  0.5296 -0.2304  0.9742
 6669SOL    HW231467   2.159   3.694  11.691  0.7242 -0.7404  1.4955
 6670SOL     OW31468   2.065   1.037   7.963  0.3691 -0.3934 -0.3097
 6670SOL    HW131469   1.990   0.984   7.934  0.7511 -0.1543 -1.6942
 6670SOL    HW231470   2.078   1.091   7.886  0.6509  0.0676  0.0604
 6671SOL     OW31471   3.436   2.632   4.426  0.1385 -0.3623  0.3352
 6671SOL    HW131472   3.478   2.616   4.511  0.1631 -0.0379  0.3856
 6671SOL    HW231473   3.403   2.546   4.403  1.8699 -0.8813 -0.2109
 6672SOL     OW31474   3.938   1.888   1.820 -0.0577 -0.5866  0.3460
 6672SOL    HW131475   3.916   1.806   1.775 -2.1053  0.3196 -0.3449
 6672SOL    HW231476   3.992   1.850   1.889  0.1043  2.7314  1.9950
 6673SOL     OW31477   0.284   4.533   2.283 -0.4593 -0.0201  0.1210
 6673SOL    HW131478   0.231   4.509   2.207 -0.6602 -3.1662  1.2551
 6673SOL    HW231479   0.308   4.625   2.269  3.1640 -0.9795  0.0058
 6674SOL     OW31480   3.776   1.816   7.801 -0.1246  0.1032  0.0864
 6674SOL    HW131481   3.793   1.886   7.738 -3.9333 -0.0027 -1.0237
 6674SOL    HW231482   3.728   1.859   7.872 -2.2151  0.7136 -1.7136
 6675SOL     OW31483   3.908   0.162   2.163  0.3281 -0.0419 -0.5658
 6675SOL    HW131484   3.884   0.143   2.072  0.1223 -1.3195 -0.2449
 6675SOL    HW231485   3.897   0.257   2.155 -1.4134 -0.0352  2.0178
 6676SOL     OW31486   1.358   0.918   4.759 -0.2678 -0.2326  0.4732
 6676SOL    HW131487   1.434   0.861   4.746  2.0814  2.5921  1.8189
 6676SOL    HW231488   1.372   0.954   4.847 -2.0473  3.0651 -0.6120
 6677SOL     OW31489   1.138   1.881   2.151 -0.1930  0.0824  0.0809
 6677SOL    HW131490   1.096   1.864   2.235 -0.1209 -0.0030  0.1004
 6677SOL    HW231491   1.065   1.889   2.090  0.2236  0.8545 -0.3072
 6678SOL     OW31492   2.158   0.147  12.409 -0.1073 -0.1414 -0.7334
 6678SOL    HW131493   2.117   0.119  12.327 -0.5204 -2.0626  0.1509
 6678SOL    HW231494   2.097   0.194  12.466  0.9694  1.0966 -0.5961
 6679SOL     OW31495   3.329   3.710   4.385  0.2892 -0.2026 -0.1233
 6679SOL    HW131496   3.296   3.633   4.431  0.0649  0.1811  0.3477
 6679SOL    HW231497   3.350   3.765   4.460 -0.8799 -0.0901  0.1123
 6680SOL     OW31498   0.695   4.049   0.796 -0.9049 -0.1654 -0.2690
 6680SOL    HW131499   0.785   4.050   0.826 -0.2972 -1.2507 -2.0156
 6680SOL    HW231500   0.687   3.966   0.749  1.1594 -0.0269 -0.8621
 6681SOL     OW31501   1.415   2.772   0.913 -0.0686  0.0981  0.3860
 6681SOL    HW131502   1.360   2.803   0.985  0.9016  0.7410  0.8542
 6681SOL    HW231503   1.472   2.709   0.955  0.2741 -0.7662 -1.3664
 6682SOL     OW31504   1.782   0.974   8.725  0.2622  0.4876 -0.0362
 6682SOL    HW131505   1.737   0.894   8.754  0.5432  0.0626 -0.7584
 6682SOL    HW231506   1.869   0.932   8.722  0.2941  0.3725  2.0737
 6683SOL     OW31507   2.009   3.659   3.068 -0.4512 -0.1212  0.0107
 6683SOL    HW131508   1.988   3.749   3.043 -0.4432 -0.6093 -1.7364
 6683SOL    HW231509   2.014   3.667   3.164  2.3741  3.1319 -0.3981
 6684SOL     OW31510   4.295   3.861  11.975 -0.7911 -0.2593  0.2349
 6684SOL    HW131511   4.233   3.799  12.014 -2.0687 -0.5900 -2.3554
 6684SOL    HW231512   4.344   3.807  11.913 -0.7089  1.5438 -1.2628
 6685SOL     OW31513   2.429   4.622   8.674  0.2746  0.0947 -0.2135
 6685SOL    HW131514   2.511   4.603   8.629 -0.6098 -3.1192 -0.5199
 6685SOL    HW231515   2.377   4.662   8.604  0.5990  0.4593 -0.2417
 6686SOL     OW31516   1.124   3.059   2.064  0.8643  0.7890 -0.4241
 6686SOL    HW131517   1.157   3.000   2.132  0.3059  2.0939  0.9870
 6686SOL    HW231518   1.133   3.014   1.980 -1.3599 -1.4823  0.5581
 6687SOL     OW31519   1.081   1.988  12.889  0.1376 -0.1211 -0.4638
 6687SOL    HW131520   1.121   1.988  12.802  2.3612 -2.3099  0.5690
 6687SOL    HW231521   1.157   1.955  12.936 -1.1714 -1.4952  0.7039
 6688SOL     OW31522   0.475   2.324   6.283  0.4695  1.2306 -0.5016
 6688SOL    HW131523   0.449   2.411   6.254  2.8980  1.7805 -0.9750
 6688SOL    HW231524   0.426   2.270   6.220 -0.9756  0.6590  1.1148
 6689SOL     OW31525   0.119   3.280   7.576 -0.0783  0.5435  0.0580
 6689SOL    HW131526   0.146   3.308   7.489 -1.5202  0.0007 -0.5639
 6689SOL    HW231527   0.143   3.187   7.580 -0.8326  0.3666  0.4129
 6690SOL     OW31528   2.117   0.252  11.032  0.7753 -0.1485 -0.7149
 6690SOL    HW131529   2.102   0.177  11.089  1.0601  1.4278  1.4514
 6690SOL    HW231530   2.197   0.220  10.990 -0.0294 -0.7625 -1.7667
 6691SOL     OW31531   2.627   1.448   7.127 -0.3217 -0.5466 -0.0586
 6691SOL    HW131532   2.717   1.429   7.155 -0.5098 -1.2769  0.0339
 6691SOL    HW231533   2.598   1.357   7.129 -0.8795 -0.3588  0.2926
 6692SOL     OW31534   1.363   3.635   3.216 -0.4720  0.1127 -0.3242
 6692SOL    HW131535   1.379   3.551   3.172 -1.5767 -0.2355 -0.0740
 6692SOL    HW231536   1.267   3.635   3.210 -0.4743 -1.0848 -0.3127
 6693SOL     OW31537   3.769   2.572   4.289 -0.3162 -0.4211  0.1058
 6693SOL    HW131538   3.778   2.564   4.384 -0.1779  0.0807  0.1316
 6693SOL    HW231539   3.860   2.558   4.261  0.1023  1.2538  0.6675
 6694SOL     OW31540   4.590   1.869   3.240 -0.2764  0.0415  0.3930
 6694SOL    HW131541   4.655   1.903   3.178 -0.2966 -0.6661 -0.0168
 6694SOL    HW231542   4.610   1.932   3.309 -0.2193  0.0369  0.3813
 6695SOL     OW31543   1.735   4.187   4.298 -0.3310 -0.0280 -0.4012
 6695SOL    HW131544   1.768   4.269   4.261 -0.9693  0.1856 -0.5017
 6695SOL    HW231545   1.748   4.125   4.227 -0.8220 -0.8142  0.1890
 6696SOL     OW31546   1.197   3.896   0.810 -0.2258  0.6003 -0.2057
 6696SOL    HW131547   1.177   3.832   0.879 -1.8629  0.5357 -0.7316
 6696SOL    HW231548   1.171   3.841   0.736  0.0079 -0.6415  0.6380
 6697SOL     OW31549   1.750   0.548   5.311 -0.2181 -0.5197  0.4229
 6697SOL    HW131550   1.694   0.626   5.309  1.7275  0.8443 -1.1190
 6697SOL    HW231551   1.737   0.523   5.219  1.3176  2.9149 -0.7520
 6698SOL     OW31552   0.827   4.667   4.104 -0.0420  0.0768  0.4559
 6698SOL    HW131553   0.783   4.596   4.151  0.0405  0.6736  1.4319
 6698SOL    HW231554   0.802   4.658   4.012  2.3135  0.5395 -0.2247
 6699SOL     OW31555   1.294   0.356   4.212 -0.2114 -0.7750 -0.3368
 6699SOL    HW131556   1.205   0.391   4.221 -0.1004 -0.7004  0.4165
 6699SOL    HW231557   1.302   0.376   4.119  2.2931 -2.4729 -0.4713
 6700SOL     OW31558   1.754   2.062   4.062 -0.3111  0.3381 -0.1088
 6700SOL    HW131559   1.776   2.092   4.151  0.3493  0.1361 -0.2054
 6700SOL    HW231560   1.780   2.138   4.011 -1.3077 -0.3018 -1.5670
 6701SOL     OW31561   3.414   0.702   8.041 -0.2254  0.4653  0.3601
 6701SOL    HW131562   3.348   0.687   7.974  2.7766  3.4441 -3.2562
 6701SOL    HW231563   3.390   0.792   8.064  2.6190  0.3889  3.7334
 6702SOL     OW31564   4.552   2.193   3.966  0.6879  0.1078  0.1063
 6702SOL    HW131565   4.569   2.226   3.878  2.8895 -0.4334  0.3314
 6702SOL    HW231566   4.549   2.274   4.017  4.1146  1.3647 -1.7446
 6703SOL     OW31567   3.814   2.332   4.608 -0.2541 -0.2472  0.1871
 6703SOL    HW131568   3.784   2.420   4.586  1.6481  0.3636 -0.0402
 6703SOL    HW231569   3.836   2.305   4.519  0.9006 -4.4007  1.7353
 6704SOL     OW31570   3.831   1.795  13.569  0.0731  0.9177 -0.2536
 6704SOL    HW131571   3.895   1.726  13.549 -1.9548 -0.1744 -3.0245
 6704SOL    HW231572   3.765   1.737  13.607 -0.4438 -1.1467 -4.3192
 6705SOL     OW31573   1.156   1.833   2.806 -0.2151  0.3928  0.6525
 6705SOL    HW131574   1.129   1.921   2.781 -2.7352 -0.6352 -0.2684
 6705SOL    HW231575   1.236   1.858   2.852  1.0855  0.9546 -1.9152
 6706SOL     OW31576   2.562   0.125  16.768 -0.7351  0.0894 -0.5570
 6706SOL    HW131577   2.623   0.198  16.777  0.3889 -0.8437 -0.7343
 6706SOL    HW231578   2.575   0.088  16.855  0.2550 -0.2555 -0.8593
 6707SOL     OW31579   2.361   4.599  10.533 -0.0268  0.6580 -0.4231
 6707SOL    HW131580   2.369   4.510  10.568  0.6553  0.8643 -0.0624
 6707SOL    HW231581   2.408   4.652  10.597  0.3179 -0.4741  0.2531
 6708SOL     OW31582   1.848   0.704   5.579 -0.6292  0.2707  0.4714
 6708SOL    HW131583   1.786   0.696   5.651 -0.2096 -0.5298  0.7416
 6708SOL    HW231584   1.801   0.643   5.521  0.9631  0.0019 -0.5497
 6709SOL     OW31585   0.481   4.376  17.569  0.0403  0.1744  0.4813
 6709SOL    HW131586   0.480   4.440  17.640 -0.8376  0.3719  0.2849
 6709SOL    HW231587   0.463   4.296  17.618 -0.0948  1.2422  2.1632
 6710SOL     OW31588   1.052   3.572   7.837  0.5392  0.3565  0.5720
 6710SOL    HW131589   1.040   3.651   7.784 -0.3731 -0.8988 -1.0940
 6710SOL    HW231590   0.966   3.536   7.856  0.1253  1.0719  0.0842
 6711SOL     OW31591   1.475   2.062   6.943  0.1810 -0.5510  0.6801
 6711SOL    HW131592   1.450   1.970   6.934 -1.9760  0.4141 -3.3606
 6711SOL    HW231593   1.568   2.062   6.965  0.2185  0.3410  0.5291
 6712SOL     OW31594   4.470   3.312  12.293  0.5156 -0.4869 -0.9286
 6712SOL    HW131595   4.462   3.253  12.368  0.4103  0.8620  0.1239
 6712SOL    HW231596   4.563   3.334  12.288  0.2847  0.8611  0.8251
 6713SOL     OW31597   0.127   0.333   8.552 -0.2956  0.2458 -0.2132
 6713SOL    HW131598   0.185   0.339   8.628 -0.0952  1.4592 -0.4663
 6713SOL    HW231599   0.199   0.330   8.489  0.2181  0.0078  0.3835
 6714SOL     OW31600   4.186   2.562   3.719 -0.6055 -0.4360  0.3232
 6714SOL    HW131601   4.175   2.484   3.663 -1.4176  0.7082 -1.0955
 6714SOL    HW231602   4.275   2.583   3.689 -0.5826  0.0294  0.7380
 6715SOL     OW31603   0.650   3.236   4.144  0.1667 -0.5669  0.4519
 6715SOL    HW131604   0.557   3.212   4.137  0.3761 -0.5770 -2.0190
 6715SOL    HW231605   0.669   3.198   4.230 -2.2003 -1.6064  0.5295
 6716SOL     OW31606   0.814   4.223   9.144  0.4881 -0.3174 -0.2841
 6716SOL    HW131607   0.862   4.141   9.142  1.9735  0.5190  0.4298
 6716SOL    HW231608   0.885   4.283   9.169 -1.0379 -0.1004  3.5925
 6717SOL     OW31609   1.073   1.351  14.460 -0.1195  0.8366 -0.2588
 6717SOL    HW131610   1.131   1.283  14.426  3.3584  3.5914  0.1921
 6717SOL    HW231611   1.133   1.425  14.467  0.1171  0.4635  1.6312
 6718SOL     OW31612   2.822   0.595  10.976  0.3050  0.1566 -0.0048
 6718SOL    HW131613   2.894   0.647  11.012 -1.4637  0.3979  3.1955
 6718SOL    HW231614   2.862   0.509  10.978 -1.9482 -0.8499  2.4390
 6719SOL     OW31615   0.600   4.684   3.146  0.9830 -0.7249 -0.5602
 6719SOL    HW131616   0.536   4.626   3.186  0.4323 -0.6976 -1.4140
 6719SOL    HW231617   0.672   4.623   3.132 -0.8747 -2.8072 -0.8756
 6720SOL     OW31618   2.104   1.475   5.404 -0.5050  0.7817 -0.1909
 6720SOL    HW131619   2.162   1.439   5.336 -1.7683  2.1918 -2.0063
 6720SOL    HW231620   2.021   1.470   5.357 -1.6139  0.8410  1.7562
 6721SOL     OW31621   3.530   2.942   8.464  0.5070  0.4220  0.0977
 6721SOL    HW131622   3.617   2.910   8.490 -1.1787 -1.0865  3.8316
 6721SOL    HW231623   3.511   2.887   8.387 -1.6177  2.3903 -0.7675
 6722SOL     OW31624   0.840   0.100   9.557  0.2851 -0.2806 -0.5945
 6722SOL    HW131625   0.895   0.047   9.615 -2.0537  0.4637  2.3299
 6722SOL    HW231626   0.750   0.079   9.582  0.2409 -1.0808 -1.4304
 6723SOL     OW31627   2.385   4.375  10.781 -0.1857 -0.4113 -0.0776
 6723SOL    HW131628   2.415   4.284  10.792  0.6942  0.1683  2.3465
 6723SOL    HW231629   2.471   4.413  10.795 -0.6211  0.3103  0.6534
 6724SOL     OW31630   2.887   0.036  12.055  0.7094 -0.5062  0.0842
 6724SOL    HW131631   2.796   0.024  12.082 -0.0764  0.9997 -1.9076
 6724SOL    HW231632   2.927   4.689  12.109 -1.2802 -0.8675  1.0839
 6725SOL     OW31633   4.424   2.753  14.763 -0.4828  0.2367  0.3731
 6725SOL    HW131634   4.417   2.823  14.697 -1.1463 -0.7861 -0.6356
 6725SOL    HW231635   4.331   2.729  14.765 -0.1344 -1.1272 -0.2593
 6726SOL     OW31636   3.130   4.219   6.805  0.0548  0.5935  0.4997
 6726SOL    HW131637   3.188   4.167   6.861  0.9677  2.2758  1.1121
 6726SOL    HW231638   3.049   4.223   6.856  0.6451  0.5747  1.4336
 6727SOL     OW31639   2.789   3.991   8.178  0.2139 -0.2058 -0.5022
 6727SOL    HW131640   2.836   3.908   8.173 -0.4808 -0.5366 -1.4969
 6727SOL    HW231641   2.795   4.020   8.269  1.4779  0.1873 -0.7025
 6728SOL     OW31642   3.988   4.671  16.733 -0.1029  0.0106 -0.4378
 6728SOL    HW131643   4.053   4.673  16.662  0.8104  1.2590  0.4300
 6728SOL    HW231644   3.967   0.043  16.746  1.0177  0.3540 -1.0270
 6729SOL     OW31645   0.100   3.061   5.015  0.2899  0.0079 -0.4713
 6729SOL    HW131646   0.060   3.146   5.035 -1.6579 -1.3841  1.5741
 6729SOL    HW231647   0.168   3.052   5.081  0.8184  1.3029 -0.8379
 6730SOL     OW31648   1.833   2.903  16.753 -1.0647  0.0405  0.2556
 6730SOL    HW131649   1.855   2.981  16.701  0.8088  0.8046  2.2069
 6730SOL    HW231650   1.907   2.850  16.725  0.5533  1.4832  1.8461
 6731SOL     OW31651   4.382   0.015   0.863 -0.5739  0.1095 -0.2828
 6731SOL    HW131652   4.326   0.029   0.787  0.4030 -1.0427 -1.2185
 6731SOL    HW231653   4.384   0.107   0.887  2.4220 -0.2116  0.6795
 6732SOL     OW31654   2.286   0.606   8.464  0.3408 -0.4048 -0.1783
 6732SOL    HW131655   2.359   0.601   8.403 -0.1158 -0.5107 -0.7125
 6732SOL    HW231656   2.248   0.518   8.463  1.3891 -0.8649  0.7617
 6733SOL     OW31657   2.985   4.516  14.683  0.4989  0.1788  0.0375
 6733SOL    HW131658   3.004   4.428  14.651  0.9073 -0.1857  1.2887
 6733SOL    HW231659   2.895   4.523  14.651  0.4850 -1.4130 -0.2650
 6734SOL     OW31660   0.108   1.339  16.772 -0.0328 -0.4953  0.0133
 6734SOL    HW131661   0.059   1.370  16.848 -1.2355  0.1569 -1.0392
 6734SOL    HW231662   0.165   1.411  16.745  0.1968 -0.7786 -0.2671
 6735SOL     OW31663   1.786   4.552   7.000  0.0285 -0.3858 -0.8508
 6735SOL    HW131664   1.735   4.475   6.977  2.4830 -2.2884  0.1071
 6735SOL    HW231665   1.794   4.575   6.907  1.2067  0.9552 -0.4146
 6736SOL     OW31666   2.587   1.855   6.250 -0.4239 -0.3777 -0.0210
 6736SOL    HW131667   2.555   1.837   6.339  1.1743  0.0533  0.6338
 6736SOL    HW231668   2.609   1.770   6.213 -0.4236  1.1320 -3.4700
 6737SOL     OW31669   0.693   0.076  10.977 -0.2036  0.0031  0.2851
 6737SOL    HW131670   0.675   0.057  11.069  2.4210 -0.4239  0.7110
 6737SOL    HW231671   0.782   0.107  10.993 -0.7674  0.5022  2.4725
 6738SOL     OW31672   2.382   3.838   0.109  0.0736 -0.6461  0.0458
 6738SOL    HW131673   2.376   3.768   0.044 -0.2956  1.3019 -2.0080
 6738SOL    HW231674   2.297   3.836   0.153 -0.4920  2.8072 -0.9129
 6739SOL     OW31675   1.938   1.031   3.311  0.0854 -0.3377 -0.3699
 6739SOL    HW131676   1.975   0.962   3.256 -0.8805 -1.0630 -0.1015
 6739SOL    HW231677   2.007   1.061   3.371 -1.1617 -0.3772  1.0908
 6740SOL     OW31678   0.197   2.398  13.325  0.2069 -0.4241 -0.1524
 6740SOL    HW131679   0.152   2.471  13.282 -0.0492 -0.6669 -0.3019
 6740SOL    HW231680   0.195   2.444  13.409 -1.0079 -0.1991 -0.3043
 6741SOL     OW31681   4.172   4.034   2.299 -0.8634  0.1783  0.2424
 6741SOL    HW131682   4.185   4.014   2.206 -1.2582  1.2543 -0.0370
 6741SOL    HW231683   4.170   3.946   2.337 -0.6347  0.6196  1.2942
 6742SOL     OW31684   1.143   2.879   6.686 -0.6356  0.5097  0.2892
 6742SOL    HW131685   1.140   2.902   6.779 -0.4520  0.1937  0.3735
 6742SOL    HW231686   1.071   2.821   6.661  0.9372 -1.1651 -0.3292
 6743SOL     OW31687   2.959   2.842   7.894  0.2624 -0.4334  0.0141
 6743SOL    HW131688   2.984   2.842   7.986  2.3861  1.5906 -0.5593
 6743SOL    HW231689   2.974   2.933   7.867 -1.3681 -0.2147 -0.1584
 6744SOL     OW31690   0.733   2.724  10.683  0.3260  0.0359  0.2293
 6744SOL    HW131691   0.747   2.770  10.600  2.7876 -2.7620 -0.8946
 6744SOL    HW231692   0.672   2.786  10.722  1.3069  2.0162 -1.3575
 6745SOL     OW31693   4.321   2.207  11.894 -0.3206 -0.2871 -0.0520
 6745SOL    HW131694   4.290   2.159  11.971 -2.2432 -1.0304 -1.2931
 6745SOL    HW231695   4.414   2.182  11.897  0.2547  1.5825 -2.4948
 6746SOL     OW31696   3.164   1.194  12.462 -0.2481  0.2882  0.0595
 6746SOL    HW131697   3.168   1.236  12.376 -0.2898  0.7277  0.2771
 6746SOL    HW231698   3.193   1.104  12.447 -0.0319  0.5354 -1.0262
 6747SOL     OW31699   2.684   3.987   3.673 -0.0619 -1.0648  0.2539
 6747SOL    HW131700   2.589   3.978   3.664 -0.0402 -1.1262  0.0854
 6747SOL    HW231701   2.700   4.027   3.588  0.5595  0.1927  0.9595
 6748SOL     OW31702   3.508   4.262   0.647  0.4486  0.8110 -0.0091
 6748SOL    HW131703   3.526   4.214   0.728  0.1546  2.7872  1.2321
 6748SOL    HW231704   3.591   4.310   0.637  0.8046  0.4235  1.1431
 6749SOL     OW31705   0.996   3.762  15.915  0.0534  0.6856 -0.2415
 6749SOL    HW131706   0.903   3.756  15.935  0.0399  0.8200 -0.2611
 6749SOL    HW231707   1.019   3.851  15.942  0.8540  0.1526  0.8349
 6750SOL     OW31708   4.639   1.795   5.265 -0.2217 -0.0108  0.4699
 6750SOL    HW131709   4.703   1.857   5.300  0.4669  0.2316 -1.2264
 6750SOL    HW231710   4.673   1.712   5.300  0.0354 -1.0201 -2.2103
 6751SOL     OW31711   0.000   2.227   2.518 -0.1066 -0.4369  0.3129
 6751SOL    HW131712   0.043   2.150   2.479 -0.0110 -1.6212  2.7260
 6751SOL    HW231713   0.070   2.246   2.580 -2.3872 -1.3121  3.1652
 6752SOL     OW31714   4.367   3.449  15.724 -0.0833 -0.4807 -0.0507
 6752SOL    HW131715   4.300   3.439  15.657 -2.1005 -1.0225  2.0673
 6752SOL    HW231716   4.353   3.368  15.774  0.3285 -0.2077  0.5088
 6753SOL     OW31717   4.044   3.629   7.708  0.5969 -0.2290 -0.6174
 6753SOL    HW131718   4.012   3.557   7.653  0.3977 -0.7664  0.2087
 6753SOL    HW231719   3.995   3.609   7.787 -1.1253 -2.8722 -2.3134
 6754SOL     OW31720   0.345   3.670   8.502  0.5485 -0.1826 -0.2944
 6754SOL    HW131721   0.372   3.600   8.562  1.0096  0.7480  0.5862
 6754SOL    HW231722   0.347   3.743   8.564 -0.7438  0.6981 -1.3007
 6755SOL     OW31723   3.764   2.002   8.796  0.5791  0.5806  0.7037
 6755SOL    HW131724   3.738   1.983   8.705 -2.9929  2.6166  1.2911
 6755SOL    HW231725   3.774   1.914   8.832 -1.4940 -0.2703 -0.7759
 6756SOL     OW31726   0.628   2.800   7.502  0.2586  0.8284 -0.3475
 6756SOL    HW131727   0.646   2.706   7.505  1.3721  1.0296 -0.4462
 6756SOL    HW231728   0.537   2.796   7.530 -0.4069  1.9855 -2.3504
 6757SOL     OW31729   2.826   1.124  14.591  0.7979 -0.4027  0.7603
 6757SOL    HW131730   2.875   1.204  14.574 -1.5393 -0.0906 -4.6515
 6757SOL    HW231731   2.856   1.057  14.530  0.9230  1.7872 -1.5612
 6758SOL     OW31732   0.019   1.231   1.848  0.1035  0.2278  0.3483
 6758SOL    HW131733   0.100   1.195   1.814 -0.7111  0.5876 -1.9638
 6758SOL    HW231734   0.045   1.249   1.938 -1.2443  0.5798  0.6751
 6759SOL     OW31735   0.626   1.068  13.563 -0.0726 -0.1944  0.3581
 6759SOL    HW131736   0.688   1.060  13.636 -2.2201  1.3656  2.3263
 6759SOL    HW231737   0.648   0.997  13.502 -0.1905 -1.3404  1.6487
 6760SOL     OW31738   2.315   3.803   3.077  0.2703 -0.2894 -0.0211
 6760SOL    HW131739   2.223   3.828   3.068  0.0522 -1.2749 -0.5449
 6760SOL    HW231740   2.348   3.874   3.131  1.6440 -0.0455 -1.1640
 6761SOL     OW31741   2.680   4.582   8.549  0.3494 -0.3856  0.1320
 6761SOL    HW131742   2.705   4.524   8.477 -1.6234 -1.6563  0.4885
 6761SOL    HW231743   2.710   4.668   8.518 -2.3195  0.3970 -0.2926
 6762SOL     OW31744   2.639   4.250   6.914  0.8846  0.2171  0.2831
 6762SOL    HW131745   2.621   4.179   6.976  3.5861 -0.4744  0.3111
 6762SOL    HW231746   2.600   4.324   6.959  0.0747  0.8723 -1.4904
 6763SOL     OW31747   1.495   3.584   5.366 -0.1758 -0.2987 -0.2317
 6763SOL    HW131748   1.573   3.604   5.313 -2.0484  0.2591 -2.7628
 6763SOL    HW231749   1.520   3.643   5.437 -0.1902 -0.0742 -0.4124
 6764SOL     OW31750   2.217   2.151  13.693 -0.0090 -0.8463  0.2788
 6764SOL    HW131751   2.130   2.130  13.661  0.6283 -0.1479 -1.9523
 6764SOL    HW231752   2.271   2.119  13.620  1.8819  1.3607  0.6950
 6765SOL     OW31753   2.830   1.141   2.402  0.2111 -0.2642  0.4004
 6765SOL    HW131754   2.810   1.200   2.474  1.0385  2.3859 -1.5598
 6765SOL    HW231755   2.915   1.175   2.376 -0.9787  2.4829  0.1346
 6766SOL     OW31756   0.347   4.171   1.618 -0.3678  0.2927 -0.4133
 6766SOL    HW131757   0.428   4.196   1.574 -0.4050  1.0025 -0.0822
 6766SOL    HW231758   0.388   4.160   1.705 -0.5428 -1.5875 -0.5857
 6767SOL     OW31759   2.765   4.698   4.365 -0.5472  0.1118 -0.0628
 6767SOL    HW131760   2.844   4.661   4.325 -1.4919 -1.2934 -0.6246
 6767SOL    HW231761   2.742   4.637   4.435  0.7995  1.0979  1.2574
 6768SOL     OW31762   1.792   1.116   4.394  0.6099 -0.2034  0.6715
 6768SOL    HW131763   1.811   1.151   4.307 -1.7316  1.1024  0.7070
 6768SOL    HW231764   1.767   1.197   4.439 -1.2820 -0.3899 -0.0660
 6769SOL     OW31765   2.123   3.284   2.495 -0.1205  0.5430  0.4201
 6769SOL    HW131766   2.047   3.233   2.466 -1.3708  2.9556 -0.6435
 6769SOL    HW231767   2.176   3.275   2.416 -1.0467  1.6297 -0.3306
 6770SOL     OW31768   4.718   2.827   7.043  0.1586  0.0716 -0.2040
 6770SOL    HW131769   0.069   2.824   6.979  0.7417  1.7151  0.3874
 6770SOL    HW231770   0.006   2.917   7.074  1.3536 -1.2803  3.3778
 6771SOL     OW31771   3.677   3.399  15.144  0.2205  0.0108  0.3868
 6771SOL    HW131772   3.657   3.341  15.070  1.6084  0.5591 -0.4077
 6771SOL    HW231773   3.740   3.346  15.193  0.4397 -0.3752 -0.3202
 6772SOL     OW31774   0.739   4.690  11.252  0.3522  0.6932  0.1228
 6772SOL    HW131775   0.727   4.684  11.346 -1.3116 -2.5084 -0.3012
 6772SOL    HW231776   0.679   4.620  11.226 -1.1821  1.5325  1.3866
 6773SOL     OW31777   1.467   3.744   8.621 -0.4400 -0.9188 -0.4228
 6773SOL    HW131778   1.412   3.775   8.549  1.3767  0.5032 -1.1894
 6773SOL    HW231779   1.521   3.684   8.569  0.0968  0.2531 -1.2160
 6774SOL     OW31780   1.622   3.081   5.839  0.6368 -0.3041  0.3647
 6774SOL    HW131781   1.611   3.030   5.759  2.0659 -0.0427  0.0056
 6774SOL    HW231782   1.666   3.028   5.905  1.7496  0.2785  0.0988
 6775SOL     OW31783   2.096   3.932   8.504 -0.0835  0.1777 -0.2682
 6775SOL    HW131784   2.136   3.893   8.582 -0.8389  1.9598  1.0042
 6775SOL    HW231785   2.012   3.885   8.496 -0.2941  0.6180 -0.6473
 6776SOL     OW31786   4.710   4.470   1.800  0.0033  0.0960 -0.9741
 6776SOL    HW131787   4.615   4.472   1.806  0.0731  0.9080 -0.2277
 6776SOL    HW231788   0.019   4.420   1.876  1.3114  2.5167  0.1031
 6777SOL     OW31789   3.788   1.709  12.878  0.1805 -0.1020 -0.1710
 6777SOL    HW131790   3.802   1.622  12.839 -2.9442 -0.7803  0.1857
 6777SOL    HW231791   3.773   1.768  12.804  2.4383 -0.8320 -1.2182
 6778SOL     OW31792   2.928   0.222  17.665 -1.0181 -0.1818 -0.0733
 6778SOL    HW131793   2.977   0.141  17.671 -2.4716 -1.1906 -1.7372
 6778SOL    HW231794   2.955   0.268   0.060  1.7937 -0.3211 -0.9509
 6779SOL     OW31795   0.857   1.807   9.432 -0.3701  0.0689 -0.2577
 6779SOL    HW131796   0.908   1.787   9.354  0.0645  0.3489 -0.0424
 6779SOL    HW231797   0.797   1.874   9.399  2.7458  2.3407 -1.2494
 6780SOL     OW31798   1.368   0.690   2.910  0.3324  1.0385  0.1617
 6780SOL    HW131799   1.412   0.668   2.828  0.6464 -1.1470  0.9131
 6780SOL    HW231800   1.304   0.619   2.918 -1.4490  2.4383 -1.6362
 6781SOL     OW31801   4.178   1.576   6.917  0.4075  0.0668 -0.1881
 6781SOL    HW131802   4.140   1.597   7.002  0.9279  1.0467 -0.1965
 6781SOL    HW231803   4.272   1.578   6.937  0.0744 -0.8335  1.4573
 6782SOL     OW31804   2.226   3.497  11.882 -0.7733 -0.0251  0.0239
 6782SOL    HW131805   2.172   3.456  11.949 -0.7322 -0.3486 -0.1380
 6782SOL    HW231806   2.259   3.420  11.836  0.2960 -0.1323  0.9622
 6783SOL     OW31807   3.726   1.032  14.479 -0.9373 -0.6928 -0.1143
 6783SOL    HW131808   3.776   1.017  14.559  0.3302 -1.9735 -1.1532
 6783SOL    HW231809   3.644   0.989  14.504 -1.9747  1.0930 -0.3574
 6784SOL     OW31810   0.645   1.895   4.153 -0.6739 -0.0055  0.3402
 6784SOL    HW131811   0.566   1.845   4.170  0.1385 -1.9825 -1.7589
 6784SOL    HW231812   0.674   1.913   4.243  2.8526 -1.7272 -0.4617
 6785SOL     OW31813   1.406   2.096  13.313  0.1503  0.3334  0.0014
 6785SOL    HW131814   1.353   2.133  13.384  1.4874  2.3916 -0.0983
 6785SOL    HW231815   1.376   2.145  13.237 -1.3150 -0.9705 -0.2711
 6786SOL     OW31816   3.306   0.474   6.682 -0.4759  0.1659 -0.0748
 6786SOL    HW131817   3.253   0.413   6.630 -0.1931  1.6231 -2.0800
 6786SOL    HW231818   3.342   0.406   6.739 -0.7401  0.9480  1.0179
 6787SOL     OW31819   1.179   4.614   8.137 -0.2142  0.0385 -0.4978
 6787SOL    HW131820   1.190   4.526   8.174 -0.3397 -0.4025 -1.5251
 6787SOL    HW231821   1.108   4.653   8.189  0.2913  0.2259  0.0478
 6788SOL     OW31822   4.544   4.025   7.765  0.2898  0.6381 -0.6509
 6788SOL    HW131823   4.506   4.057   7.847  1.3904  1.7553 -0.5644
 6788SOL    HW231824   4.469   3.996   7.714  1.3497 -1.5289 -1.0040
 6789SOL     OW31825   2.769   2.204  14.013 -0.3907 -0.4817 -0.2599
 6789SOL    HW131826   2.861   2.206  14.042  0.2138 -1.0886 -2.1339
 6789SOL    HW231827   2.773   2.148  13.935 -1.3601 -0.1938 -0.5053
 6790SOL     OW31828   3.382   3.920   7.697  0.2298 -0.8708  0.0661
 6790SOL    HW131829   3.462   3.941   7.745  0.6439 -0.6722 -0.7043
 6790SOL    HW231830   3.393   3.989   7.632 -0.5870 -1.2774 -0.4988
 6791SOL     OW31831   2.100   2.536   4.217 -0.1230  0.6216  0.1036
 6791SOL    HW131832   2.048   2.472   4.266  2.8134 -1.5992  0.3127
 6791SOL    HW231833   2.178   2.486   4.193 -0.0957  0.2410  0.9908
 6792SOL     OW31834   0.683   4.210   6.539  0.1285  0.2799 -0.2133
 6792SOL    HW131835   0.625   4.134   6.542  0.8389 -0.3763 -3.4161
 6792SOL    HW231836   0.724   4.196   6.454  0.7453 -1.4634  0.3834
 6793SOL     OW31837   4.207   4.192   5.733  0.7073 -0.1596 -0.4971
 6793SOL    HW131838   4.201   4.111   5.784  2.3214 -0.0197 -0.0830
 6793SOL    HW231839   4.199   4.158   5.644 -0.4009 -0.1063 -0.4198
 6794SOL     OW31840   2.568   3.029  13.711 -0.5039 -0.7676 -0.1516
 6794SOL    HW131841   2.562   3.081  13.631 -0.1589 -0.3479  0.0975
 6794SOL    HW231842   2.489   3.057  13.757  1.1287  1.6712  1.1693
 6795SOL     OW31843   3.320   1.217  15.478 -0.3278  0.4881  0.1212
 6795SOL    HW131844   3.351   1.129  15.501  1.3686  1.3712  1.1821
 6795SOL    HW231845   3.330   1.276  15.553  0.3593 -0.3221  0.6699
 6796SOL     OW31846   2.478   0.741  15.318  0.1569 -0.2998  0.1178
 6796SOL    HW131847   2.466   0.662  15.265  0.9638  0.4964 -1.2353
 6796SOL    HW231848   2.403   0.798  15.301 -1.4191 -1.6334  2.5872
 6797SOL     OW31849   0.908   3.162  13.383 -0.1198  0.2143 -0.7068
 6797SOL    HW131850   0.841   3.113  13.430  1.8109 -0.0512  1.7836
 6797SOL    HW231851   0.957   3.193  13.460  0.7706  1.0503 -1.5991
 6798SOL     OW31852   3.242   2.535   4.701 -0.1084  0.1692  1.0419
 6798SOL    HW131853   3.284   2.477   4.765  1.6969  0.8461  0.4761
 6798SOL    HW231854   3.200   2.478   4.636 -1.3072  0.0247  1.9401
 6799SOL     OW31855   0.104   4.621   7.710  0.0783  0.2115 -0.3045
 6799SOL    HW131856   0.057   4.672   7.645 -0.3911 -1.3115 -1.1624
 6799SOL    HW231857   0.176   4.593   7.653 -0.1457 -3.3354  1.1389
 6800SOL     OW31858   2.669   2.533   1.959 -0.5435  0.1404  0.7668
 6800SOL    HW131859   2.589   2.544   2.009  0.9934  0.1230  3.2566
 6800SOL    HW231860   2.731   2.500   2.025  0.8402 -0.5068 -0.8407
 6801SOL     OW31861   3.543   3.688   6.146  0.1913  0.2630  0.3762
 6801SOL    HW131862   3.573   3.650   6.228 -0.5566 -1.1325 -0.0131
 6801SOL    HW231863   3.548   3.610   6.090  1.4726  0.6690 -0.0795
 6802SOL     OW31864   1.327   1.902   7.651 -0.9773 -0.8484  0.0346
 6802SOL    HW131865   1.296   1.976   7.598 -0.9778  0.0742  1.3260
 6802SOL    HW231866   1.274   1.913   7.730 -0.0244 -0.2057  0.5933
 6803SOL     OW31867   2.469   0.594   2.089 -0.0131  0.2084 -0.3905
 6803SOL    HW131868   2.386   0.566   2.049  0.8364  0.0363 -2.0407
 6803SOL    HW231869   2.531   0.549   2.031 -1.9313 -2.4718 -0.3859
 6804SOL     OW31870   0.715   1.496   6.426  0.0345 -0.2689  0.2882
 6804SOL    HW131871   0.725   1.583   6.386  0.9751 -0.2335  0.6150
 6804SOL    HW231872   0.630   1.467   6.391  1.0622 -1.6281 -1.0674
 6805SOL     OW31873   2.131   4.352   2.453 -0.1040 -0.0464  0.3486
 6805SOL    HW131874   2.125   4.267   2.497 -0.2668 -0.1569  0.1159
 6805SOL    HW231875   2.052   4.405   2.457  0.9335  1.4898  0.8036
 6806SOL     OW31876   2.039   1.540   9.622  0.1829  0.2952  0.5944
 6806SOL    HW131877   1.959   1.504   9.660 -0.3375  0.4939 -0.3098
 6806SOL    HW231878   2.097   1.541   9.699  2.8324 -0.6575 -1.3736
 6807SOL     OW31879   3.855   1.522   4.701 -0.1694  0.3102  0.2010
 6807SOL    HW131880   3.777   1.475   4.728  0.9532 -0.0714  2.8037
 6807SOL    HW231881   3.840   1.518   4.607  1.7389 -0.1129 -0.0875
 6808SOL     OW31882   4.289   3.637   8.080  0.3000  0.7739  0.5768
 6808SOL    HW131883   4.325   3.561   8.127 -0.9072 -0.6351 -0.7667
 6808SOL    HW231884   4.203   3.600   8.060 -0.0849  1.2807  1.2958
 6809SOL     OW31885   0.375   0.839   2.398 -0.0961 -0.3733 -0.1909
 6809SOL    HW131886   0.440   0.795   2.342  1.1914 -0.0701  1.0557
 6809SOL    HW231887   0.344   0.910   2.342  1.1635 -0.3925 -0.9170
 6810SOL     OW31888   4.613   2.423   4.251  0.7072  0.6890 -0.2591
 6810SOL    HW131889   4.695   2.395   4.291 -0.2690 -0.7027  0.7475
 6810SOL    HW231890   4.642   2.507   4.215  2.1580  0.3422  0.0965
 6811SOL     OW31891   0.198   3.911   1.490 -0.2535  0.1590 -0.1568
 6811SOL    HW131892   0.290   3.921   1.511 -0.1830 -0.7073 -0.0597
 6811SOL    HW231893   0.170   3.884   1.577 -0.5045 -0.2298 -0.3582
 6812SOL     OW31894   2.004   0.091  11.248  0.0211 -0.1994 -0.0562
 6812SOL    HW131895   1.923   0.041  11.252  0.6054 -0.9675  2.6969
 6812SOL    HW231896   1.970   0.180  11.238  1.6492  0.5256  0.7686
 6813SOL     OW31897   0.868   2.892   0.111  0.5313  0.2248  0.5499
 6813SOL    HW131898   0.781   2.919   0.084  0.4218  0.3933  1.0806
 6813SOL    HW231899   0.918   2.943   0.048 -2.0618 -2.5669 -3.7706
 6814SOL     OW31900   0.709   4.707   7.474  0.3337  0.1727 -0.1369
 6814SOL    HW131901   0.629   0.004   7.424 -0.2558  1.6992  1.3211
 6814SOL    HW231902   0.700   0.053   7.543 -0.3968 -1.0834  0.9735
 6815SOL     OW31903   2.901   2.280   1.870  0.5177 -0.1778  0.5268
 6815SOL    HW131904   2.822   2.243   1.911 -0.5625  1.8951  0.3207
 6815SOL    HW231905   2.947   2.301   1.951  0.6990 -1.1388  0.6760
 6816SOL     OW31906   2.461   1.179   8.179 -0.3219 -0.0104  0.3756
 6816SOL    HW131907   2.485   1.251   8.238  3.1890 -0.8935  0.0554
 6816SOL    HW231908   2.544   1.132   8.173 -0.4336 -0.5230  2.6857
 6817SOL     OW31909   3.889   4.409   4.730 -0.0897  0.8188  0.3199
 6817SOL    HW131910   3.829   4.396   4.656  0.0170  1.0734  0.1921
 6817SOL    HW231911   3.856   4.341   4.789 -0.0056 -0.3575 -0.9755
 6818SOL     OW31912   1.434   1.358   3.652  0.5581  0.2855 -0.2756
 6818SOL    HW131913   1.507   1.382   3.596  3.2478 -0.9529  2.6900
 6818SOL    HW231914   1.387   1.319   3.579  0.1567  1.6908 -0.7682
 6819SOL     OW31915   2.249   1.274   2.746  0.5724  0.0113  0.2061
 6819SOL    HW131916   2.199   1.254   2.667 -1.0452 -1.2350  1.5491
 6819SOL    HW231917   2.177   1.275   2.809 -0.2781  0.2641 -0.7707
 6820SOL     OW31918   3.620   2.653   3.598 -0.3898  0.3763  0.8090
 6820SOL    HW131919   3.711   2.652   3.627 -0.7543 -0.1538  1.9101
 6820SOL    HW231920   3.581   2.608   3.673 -0.3096  0.7005  1.0437
 6821SOL     OW31921   2.672   0.942  12.016  0.0119  0.3455  0.2897
 6821SOL    HW131922   2.666   0.853  11.980  1.3093 -0.2526  1.5441
 6821SOL    HW231923   2.731   0.931  12.090 -1.4989 -0.6266  1.3443
 6822SOL     OW31924   1.410   2.175   2.711  0.2170 -0.5296  0.4260
 6822SOL    HW131925   1.465   2.104   2.680  1.4526  0.1718  1.0377
 6822SOL    HW231926   1.476   2.238   2.740 -0.3094  0.9277 -1.5339
 6823SOL     OW31927   3.950   4.660  13.128 -0.0161  0.7626  0.2629
 6823SOL    HW131928   4.010   4.689  13.058  2.9320 -0.0067  2.4682
 6823SOL    HW231929   4.007   4.639  13.202  1.8297  2.9958 -0.5185
 6824SOL     OW31930   0.062   2.998  13.238  0.3965  0.5118 -0.3156
 6824SOL    HW131931   0.100   3.020  13.323  0.7595 -0.2473 -0.2717
 6824SOL    HW231932   0.001   2.928  13.262  1.2517 -0.1065  0.0483
 6825SOL     OW31933   4.114   1.374  12.886  0.3473 -0.4162 -0.0483
 6825SOL    HW131934   4.061   1.363  12.965  0.6366  0.4357  0.2665
 6825SOL    HW231935   4.050   1.413  12.826 -0.0710 -0.8090  0.1478
 6826SOL     OW31936   3.339   4.596   4.072 -0.0138 -0.2056  0.0053
 6826SOL    HW131937   3.431   4.569   4.079 -0.3564 -1.5127 -0.4474
 6826SOL    HW231938   3.331   4.678   4.120  1.7074 -0.4490  0.7106
 6827SOL     OW31939   1.846   4.337  15.289  0.5518  0.0042  0.2712
 6827SOL    HW131940   1.836   4.316  15.382  0.0016 -5.1862 -0.9445
 6827SOL    HW231941   1.903   4.270  15.251  2.0099  1.2637  0.2861
 6828SOL     OW31942   2.228   3.196   7.788  0.4301 -0.1215  0.7791
 6828SOL    HW131943   2.214   3.122   7.729 -0.1408  0.4809  0.1628
 6828SOL    HW231944   2.158   3.177   7.851  0.7920 -1.7624  0.6997
 6829SOL     OW31945   2.280   4.101   3.914 -0.3158 -0.0625  0.3886
 6829SOL    HW131946   2.244   4.135   3.996 -0.1942  1.7828 -0.3288
 6829SOL    HW231947   2.288   4.181   3.862 -1.8473  0.2559  0.6551
 6830SOL     OW31948   2.742   3.003   7.363 -0.0226 -0.2199  0.2015
 6830SOL    HW131949   2.705   2.915   7.355  1.6365 -0.6876 -2.4369
 6830SOL    HW231950   2.836   2.985   7.363 -0.2168 -1.2244 -0.8986
 6831SOL     OW31951   3.421   3.829   4.627  0.1526  0.6387  0.2157
 6831SOL    HW131952   3.370   3.909   4.639  2.4091  1.6492  3.1074
 6831SOL    HW231953   3.492   3.857   4.570  0.8158  1.1565  1.2915
 6832SOL     OW31954   0.042   3.254   6.119 -0.2950  0.1626  0.1283
 6832SOL    HW131955   4.689   3.229   6.062 -0.5609  1.3547 -0.0674
 6832SOL    HW231956   0.094   3.174   6.116  0.2532  0.5179  0.2642
 6833SOL     OW31957   2.515   3.991   8.941  0.3592  0.1840 -0.4400
 6833SOL    HW131958   2.501   3.978   8.847 -0.0335 -0.9995 -0.2235
 6833SOL    HW231959   2.610   3.983   8.946  0.1498 -0.7587  2.0701
 6834SOL     OW31960   0.068   1.288  17.118  0.3322 -0.3325 -0.0299
 6834SOL    HW131961   0.159   1.305  17.142  0.3838 -2.9201  1.6807
 6834SOL    HW231962   0.044   1.364  17.066 -0.3064 -1.5973 -1.5691
 6835SOL     OW31963   2.370   4.636   7.147 -0.4628  0.0144  0.1935
 6835SOL    HW131964   2.282   4.618   7.112 -1.1017 -0.4523  2.0429
 6835SOL    HW231965   2.377   0.011   7.139 -1.7643  0.0107 -1.0743
 6836SOL     OW31966   2.318   2.107  11.050 -0.1120 -0.1408  0.1539
 6836SOL    HW131967   2.292   2.022  11.015  2.6527 -0.9525  0.0744
 6836SOL    HW231968   2.292   2.162  10.977  1.1409  1.4164  0.8788
 6837SOL     OW31969   4.115   2.270   8.551  0.0589 -0.2342  0.0105
 6837SOL    HW131970   4.200   2.266   8.507 -1.6183 -1.2596 -3.0927
 6837SOL    HW231971   4.095   2.178   8.563 -2.5588  0.4440  0.7974
 6838SOL     OW31972   2.450   2.649  13.024 -0.2053  0.5975  0.4324
 6838SOL    HW131973   2.466   2.726  13.078  1.8545  0.1853  0.4085
 6838SOL    HW231974   2.492   2.677  12.943 -0.9097  1.2935  0.3074
 6839SOL     OW31975   0.083   3.481   1.677 -0.7730 -0.2678  0.2797
 6839SOL    HW131976   0.089   3.386   1.685 -0.1705 -0.0153  2.6370
 6839SOL    HW231977   0.024   3.483   1.602  0.3545  1.2688 -0.5645
 6840SOL     OW31978   3.776   0.197   7.989 -0.1823 -0.0328  0.1160
 6840SOL    HW131979   3.688   0.195   8.025 -0.3844 -1.5657 -0.4818
 6840SOL    HW231980   3.827   0.250   8.051  2.5632 -0.8066 -1.4690
 6841SOL     OW31981   4.059   1.703   9.178  0.7001 -0.3163 -0.4990
 6841SOL    HW131982   4.077   1.710   9.272  3.2352  0.4278 -1.0469
 6841SOL    HW231983   4.134   1.651   9.148 -0.0683 -2.3227  1.0498
 6842SOL     OW31984   2.419   0.452   5.134  0.0167  0.5864  0.4643
 6842SOL    HW131985   2.452   0.381   5.188  3.3551  0.5757 -1.5625
 6842SOL    HW231986   2.459   0.520   5.189  2.0404 -0.6353  0.4845
 6843SOL     OW31987   2.642   2.924   4.084 -0.3119 -0.0111  0.2330
 6843SOL    HW131988   2.652   3.014   4.052  0.5331  0.5229  1.9713
 6843SOL    HW231989   2.551   2.933   4.114 -0.6347 -1.8659 -0.1849
 6844SOL     OW31990   3.897   4.312   7.712 -0.2261 -0.1071 -0.2635
 6844SOL    HW131991   3.984   4.288   7.743 -0.8854 -0.5386  1.2945
 6844SOL    HW231992   3.917   4.397   7.673  2.6601 -0.5508  0.2765
 6845SOL     OW31993   2.200   1.429   9.039  0.0599 -0.0534  0.0013
 6845SOL    HW131994   2.228   1.501   9.096 -0.6223  1.4968 -1.6605
 6845SOL    HW231995   2.106   1.446   9.033  0.2652  0.5368 -1.4391
 6846SOL     OW31996   3.534   2.683   1.942 -0.3522 -0.1387 -0.1513
 6846SOL    HW131997   3.527   2.616   2.010  2.5163 -1.5290 -1.2272
 6846SOL    HW231998   3.563   2.755   1.998  0.6709  0.0401 -0.8974
 6847SOL     OW31999   1.564   0.974   7.801 -0.8670 -0.0077  0.1822
 6847SOL    HW132000   1.561   0.942   7.711 -2.6421 -0.6615  0.4916
 6847SOL    HW232001   1.478   0.944   7.830 -1.2367  0.6145 -0.2890
 6848SOL     OW32002   1.252   1.282   6.941 -0.0231 -0.1191  0.0902
 6848SOL    HW132003   1.252   1.275   7.036 -0.8896  0.0164  0.1004
 6848SOL    HW232004   1.197   1.207   6.921 -1.3113  0.6253  0.8514
 6849SOL     OW32005   3.487   3.301  16.713 -0.5035  0.0757  0.1984
 6849SOL    HW132006   3.519   3.341  16.794 -0.7706 -1.0057  0.8381
 6849SOL    HW232007   3.543   3.325  16.639  0.8135  2.9925  2.0987
 6850SOL     OW32008   0.882   0.886  13.652  0.3213 -0.4317  0.4317
 6850SOL    HW132009   0.949   0.877  13.585  0.6190  0.6014  0.5979
 6850SOL    HW232010   0.903   0.975  13.680 -2.6141 -0.1063  1.6106
 6851SOL     OW32011   1.020   4.706  11.238  0.1865  0.4073  0.2575
 6851SOL    HW132012   0.925   4.710  11.243  0.1497  1.5836 -1.5241
 6851SOL    HW232013   1.032   4.663  11.154 -2.3843 -0.2465  0.2367
 6852SOL     OW32014   4.132   3.173   5.192  0.5555  0.0778 -0.2705
 6852SOL    HW132015   4.184   3.137   5.264 -1.4797  0.4171  1.3815
 6852SOL    HW232016   4.076   3.095   5.194 -1.1045  1.2664 -0.3201
 6853SOL     OW32017   1.644   0.640   6.129 -0.0003  0.4251 -0.2529
 6853SOL    HW132018   1.716   0.701   6.142  1.3800 -0.9426 -1.4883
 6853SOL    HW232019   1.590   0.696   6.073 -2.2752 -2.0373 -0.5194
 6854SOL     OW32020   3.118   0.290  17.170  0.1969  0.2323 -0.1195
 6854SOL    HW132021   3.067   0.209  17.162  1.1778 -0.5748  1.6995
 6854SOL    HW232022   3.100   0.334  17.087  0.0399  0.8740  0.2584
 6855SOL     OW32023   1.614   0.059   4.297 -0.7249 -0.3834 -0.3498
 6855SOL    HW132024   1.623   4.685   4.289 -1.1731 -0.4148 -0.5405
 6855SOL    HW232025   1.625   0.082   4.205  0.1715 -0.6354 -0.2960
 6856SOL     OW32026   4.008   3.607   5.775 -0.1615 -0.0175  0.4048
 6856SOL    HW132027   3.947   3.544   5.735 -0.1246  0.0530  0.2363
 6856SOL    HW232028   4.078   3.550   5.804  1.9470  0.9518 -2.7829
 6857SOL     OW32029   1.009   3.188   3.055 -0.0287 -0.6741 -0.1101
 6857SOL    HW132030   1.068   3.258   3.030  0.5297 -0.9703  0.3835
 6857SOL    HW232031   1.071   3.116   3.047  2.5801  1.5275  0.6257
 6858SOL     OW32032   0.691   2.001   1.898  0.2711  0.3146  0.1194
 6858SOL    HW132033   0.635   2.064   1.943  0.3340  1.0910 -0.8854
 6858SOL    HW232034   0.652   1.916   1.919  1.2391 -0.7141 -2.2740
 6859SOL     OW32035   2.970   2.759   4.208  0.3656  0.4220 -0.1220
 6859SOL    HW132036   2.901   2.717   4.155 -0.1645  0.7517  0.3048
 6859SOL    HW232037   3.025   2.683   4.229 -0.9363 -0.9006 -1.4127
 6860SOL     OW32038   4.106   4.719   2.274 -0.7578  0.3954 -0.2891
 6860SOL    HW132039   4.061   0.073   2.235 -0.8137  0.3926 -0.2302
 6860SOL    HW232040   4.078   0.000   2.366  1.6206  0.5368  0.4246
 6861SOL     OW32041   3.556   3.327   7.233 -0.1834  0.1099 -0.3968
 6861SOL    HW132042   3.604   3.318   7.150  0.4277 -1.3985  0.1325
 6861SOL    HW232043   3.467   3.309   7.204 -0.4090  0.2225  0.2289
 6862SOL     OW32044   1.064   3.848   5.167 -0.2267  0.7445  0.4665
 6862SOL    HW132045   1.051   3.802   5.084  0.6623 -1.2035  1.4251
 6862SOL    HW232046   1.155   3.832   5.193 -1.7292 -4.1626  2.5929
 6863SOL     OW32047   3.134   0.035   1.550  0.3398  0.5004 -0.3329
 6863SOL    HW132048   3.217   4.707   1.547 -0.6307 -1.3367  2.7463
 6863SOL    HW232049   3.109   0.037   1.457  0.3865  1.4186 -0.3187
 6864SOL     OW32050   1.569   4.637  13.829  0.1377 -0.4510  0.0683
 6864SOL    HW132051   1.542   4.650  13.920  0.1528 -3.6624  0.5357
 6864SOL    HW232052   1.496   4.674  13.778 -0.9648 -0.6916  1.4732
 6865SOL     OW32053   3.356   3.482  13.574  0.4677 -0.9057 -0.0360
 6865SOL    HW132054   3.421   3.489  13.644  1.5879 -2.0691 -0.9742
 6865SOL    HW232055   3.297   3.414  13.606 -0.9916  1.0247  1.3721
 6866SOL     OW32056   0.492   3.321   8.791 -0.0562  0.5469  0.4209
 6866SOL    HW132057   0.515   3.344   8.701 -2.1949  0.4896 -0.1505
 6866SOL    HW232058   0.463   3.231   8.775 -0.8751  1.4239 -3.1259
 6867SOL     OW32059   0.788   1.004  16.973 -0.5312  0.1536 -0.2327
 6867SOL    HW132060   0.778   0.918  16.933 -1.4042  0.4695 -0.6839
 6867SOL    HW232061   0.803   0.970  17.062 -0.2757 -1.6204 -0.9518
 6868SOL     OW32062   3.606   1.634   7.582 -0.4254 -0.5068  0.1235
 6868SOL    HW132063   3.662   1.568   7.622 -0.1489  0.2113  0.9249
 6868SOL    HW232064   3.668   1.706   7.575 -0.7973 -0.2575 -0.5900
 6869SOL     OW32065   0.691   3.255  16.129  0.1556  0.2195 -0.1667
 6869SOL    HW132066   0.764   3.195  16.141 -1.9858 -2.3487  0.0155
 6869SOL    HW232067   0.704   3.305  16.209  0.8213  0.3324 -0.3482
 6870SOL     OW32068   1.010   0.225  15.451 -0.1062 -1.1146  0.4768
 6870SOL    HW132069   1.041   0.288  15.384 -2.5103 -1.3899 -0.8816
 6870SOL    HW232070   0.947   0.166  15.410  1.1709 -2.2275  0.1111
 6871SOL     OW32071   2.325   3.520   5.259 -0.2493 -0.6470 -0.0231
 6871SOL    HW132072   2.343   3.594   5.318 -3.2373  1.3288 -1.6102
 6871SOL    HW232073   2.377   3.450   5.299 -2.5490 -2.0397  0.4956
 6872SOL     OW32074   1.889   1.120   9.833  0.3286 -0.2432  0.3433
 6872SOL    HW132075   1.854   1.160   9.912 -0.7169 -0.5078  0.0113
 6872SOL    HW232076   1.929   1.052   9.888 -1.7064 -1.7876 -0.0804
 6873SOL     OW32077   1.588   2.777  16.704  0.1515  0.3290 -0.2570
 6873SOL    HW132078   1.667   2.829  16.716  0.0502  0.0055  1.7533
 6873SOL    HW232079   1.517   2.828  16.742  1.0093  1.2112  0.1421
 6874SOL     OW32080   3.280   3.480   8.246 -0.2549 -0.1892 -0.2025
 6874SOL    HW132081   3.276   3.504   8.338  0.2908  0.7028 -0.4143
 6874SOL    HW232082   3.291   3.386   8.260  1.8961 -0.2449 -2.2838
 6875SOL     OW32083   4.354   2.829  10.119  0.3620  0.2753  0.1348
 6875SOL    HW132084   4.446   2.811  10.098  0.7154  0.8119  1.2427
 6875SOL    HW232085   4.357   2.924  10.107 -0.7256 -0.0142 -2.5054
 6876SOL     OW32086   1.451   2.604   8.765 -0.2975  0.6542 -0.3772
 6876SOL    HW132087   1.393   2.544   8.717  1.2275 -1.4631  0.4594
 6876SOL    HW232088   1.467   2.547   8.840  0.5181 -0.3933 -1.3470
 6877SOL     OW32089   2.156   3.715   7.197  0.4380  0.0467  0.1967
 6877SOL    HW132090   2.167   3.807   7.173 -1.9005 -0.1100 -1.4898
 6877SOL    HW232091   2.089   3.685   7.136 -1.3196  0.6370  1.8445
 6878SOL     OW32092   3.032   1.155   2.899  0.2070 -0.1903 -0.0727
 6878SOL    HW132093   3.037   1.072   2.947  0.6655  0.6341  1.3055
 6878SOL    HW232094   3.049   1.132   2.808 -0.0545  1.9235 -0.6537
 6879SOL     OW32095   0.549   3.431   5.287  0.2931 -0.2505  0.0056
 6879SOL    HW132096   0.481   3.365   5.270  0.0216 -0.3788  1.5105
 6879SOL    HW232097   0.527   3.498   5.223  3.1039 -1.1121 -1.8511
 6880SOL     OW32098   1.691   2.228  13.650 -0.2528  0.0690 -0.2044
 6880SOL    HW132099   1.674   2.317  13.618  1.1087 -0.2239 -1.7650
 6880SOL    HW232100   1.688   2.185  13.564 -1.3366  1.1815 -0.7226
 6881SOL     OW32101   2.281   2.559   7.696  0.2548  0.2898  0.2644
 6881SOL    HW132102   2.242   2.472   7.702  0.3778  0.2140 -0.0549
 6881SOL    HW232103   2.335   2.557   7.617 -3.6408  0.6069 -2.4166
 6882SOL     OW32104   1.776   1.995   9.222  0.5052  0.4411  0.4875
 6882SOL    HW132105   1.803   1.907   9.195 -2.4351 -0.3023 -0.0136
 6882SOL    HW232106   1.846   2.026   9.279  0.8307 -0.8624  0.7944
 6883SOL     OW32107   0.140   2.579   0.321 -0.1066 -0.1081 -0.2419
 6883SOL    HW132108   0.079   2.540   0.259 -2.2251 -0.3071  1.9701
 6883SOL    HW232109   0.198   2.503   0.330 -1.1800 -0.9935 -0.7241
 6884SOL     OW32110   3.332   1.299  15.226 -0.0408  0.3077 -0.2590
 6884SOL    HW132111   3.312   1.240  15.298 -1.3351  0.9156 -0.1182
 6884SOL    HW232112   3.428   1.298  15.218 -0.0678  1.8879 -0.7557
 6885SOL     OW32113   1.953   3.708  14.280  0.5481 -0.4213  0.1311
 6885SOL    HW132114   1.939   3.639  14.215  1.5357  0.0633 -0.5922
 6885SOL    HW232115   1.965   3.645  14.352  0.5712 -0.0224  0.4759
 6886SOL     OW32116   2.217   3.388   5.587 -0.4173 -0.0280 -0.1594
 6886SOL    HW132117   2.188   3.474   5.615  3.5212  0.8958  1.1181
 6886SOL    HW232118   2.233   3.335   5.666 -1.9337  1.6990  1.3140
 6887SOL     OW32119   4.308   3.662   7.661 -0.2786  0.1236 -0.1853
 6887SOL    HW132120   4.317   3.568   7.646 -1.0082 -0.0612  0.5474
 6887SOL    HW232121   4.218   3.652   7.693 -0.2176 -0.5325 -0.2126
 6888SOL     OW32122   3.018   1.222  10.100 -0.4694  0.6385  0.1626
 6888SOL    HW132123   3.050   1.305  10.135 -0.0385  0.5653 -0.0538
 6888SOL    HW232124   3.041   1.159  10.169 -0.8373 -0.5422 -0.7878
 6889SOL     OW32125   1.860   0.711   4.441 -0.2758 -0.2845  0.1596
 6889SOL    HW132126   1.921   0.649   4.403  0.2904  1.7947 -2.3347
 6889SOL    HW232127   1.882   0.702   4.534  1.3587 -0.0400 -0.2024
 6890SOL     OW32128   3.561   2.919   2.805  0.2443  0.1316 -0.3825
 6890SOL    HW132129   3.525   2.832   2.818 -1.0752  1.1697  2.8476
 6890SOL    HW232130   3.577   2.920   2.710  1.8623 -0.1103 -0.1129
 6891SOL     OW32131   3.396   1.799   4.198  0.3636 -0.2081 -0.1533
 6891SOL    HW132132   3.475   1.833   4.155  0.2692  1.2914  0.8476
 6891SOL    HW232133   3.353   1.874   4.239 -1.0227 -0.9983 -0.1711
 6892SOL     OW32134   2.212   1.532   9.866 -0.2826 -0.0127  0.6131
 6892SOL    HW132135   2.176   1.595   9.928 -0.0034 -0.7776  1.5496
 6892SOL    HW232136   2.245   1.465   9.925 -3.1824  0.3212  2.6305
 6893SOL     OW32137   4.460   4.239   7.433 -0.3182  0.0764  0.0299
 6893SOL    HW132138   4.392   4.247   7.500 -0.5220 -0.5376 -0.1022
 6893SOL    HW232139   4.391   4.220   7.369 -0.5016  0.6023  0.0724
 6894SOL     OW32140   4.316   1.022  14.998  0.0027  0.0332 -0.2679
 6894SOL    HW132141   4.324   0.946  14.940 -1.6928 -1.7420  1.8280
 6894SOL    HW232142   4.407   1.032  15.027  0.6419  0.2025 -2.2677
 6895SOL     OW32143   3.672   1.276   8.707 -0.4477 -0.1172  0.2289
 6895SOL    HW132144   3.752   1.224   8.703 -0.2111  0.3516 -1.0177
 6895SOL    HW232145   3.687   1.311   8.794  4.3333  0.7186 -0.9540
 6896SOL     OW32146   0.868   2.201   3.748  0.5331  0.0188 -0.0640
 6896SOL    HW132147   0.837   2.274   3.802 -1.3710  0.4610 -1.7956
 6896SOL    HW232148   0.861   2.223   3.656 -0.3388  1.6376  0.4033
 6897SOL     OW32149   1.578   3.725   6.697  0.3584 -0.1010 -0.7825
 6897SOL    HW132150   1.552   3.731   6.606 -3.3280  1.9287  0.4358
 6897SOL    HW232151   1.498   3.691   6.736  0.4222  0.4419 -0.1794
 6898SOL     OW32152   3.185   3.587   7.837 -0.0740 -0.6441 -0.1366
 6898SOL    HW132153   3.240   3.663   7.816 -1.3488  0.4981  0.6658
 6898SOL    HW232154   3.152   3.613   7.923 -0.6519  0.7469 -0.7844
 6899SOL     OW32155   2.031   2.976   0.792 -0.5058  0.3655 -0.2949
 6899SOL    HW132156   2.078   3.055   0.765  1.2301 -0.8585 -0.8096
 6899SOL    HW232157   2.039   2.921   0.715  2.1324  2.3405 -1.4064
 6900SOL     OW32158   3.692   2.465  17.582 -0.2636 -0.9559  0.6055
 6900SOL    HW132159   3.639   2.493  17.657  0.6940  0.5204  0.7293
 6900SOL    HW232160   3.781   2.476  17.614 -0.4913  1.3708  0.4591
 6901SOL     OW32161   2.674   3.301   8.821  0.1057  0.1786  0.4353
 6901SOL    HW132162   2.756   3.351   8.816 -2.2272  3.8580 -1.8278
 6901SOL    HW232163   2.644   3.332   8.906 -2.0275 -0.4725 -0.0817
 6902SOL     OW32164   1.606   4.090   2.073 -0.2551 -0.2815 -0.0199
 6902SOL    HW132165   1.541   4.033   2.114  0.1065 -1.4500 -1.0757
 6902SOL    HW232166   1.613   4.159   2.139 -1.4017 -0.9140  0.7751
 6903SOL     OW32167   3.025   3.545   8.489 -0.3791  0.4062  0.7739
 6903SOL    HW132168   3.004   3.554   8.582 -0.3656 -1.4618  0.9461
 6903SOL    HW232169   3.037   3.635   8.458 -0.1447 -0.5500 -1.8427
 6904SOL     OW32170   4.159   3.354  17.016 -0.4219 -0.3767  0.1985
 6904SOL    HW132171   4.078   3.324  16.974 -0.3722 -1.4009  0.8337
 6904SOL    HW232172   4.184   3.439  16.981  0.1731 -0.8630 -0.5442
 6905SOL     OW32173   0.354   1.116   4.222  0.2154  0.1100 -0.4416
 6905SOL    HW132174   0.352   1.071   4.306 -0.7023  1.6683  0.3798
 6905SOL    HW232175   0.277   1.078   4.179 -0.3171  0.2274  0.4209
 6906SOL     OW32176   3.078   1.354  15.160 -0.1211  0.0062  0.1247
 6906SOL    HW132177   3.171   1.371  15.171 -0.1210  0.0384  0.0702
 6906SOL    HW232178   3.063   1.314  15.246 -1.3297  0.4099  0.1004
 6907SOL     OW32179   2.920   4.652   7.678 -0.4497 -0.0094  0.3247
 6907SOL    HW132180   2.952   4.596   7.748 -0.6490 -1.4180 -0.7075
 6907SOL    HW232181   2.990   4.641   7.614  0.2788 -1.3879  1.3552
 6908SOL     OW32182   2.079   1.766   3.497 -0.0917 -0.0536 -0.5308
 6908SOL    HW132183   2.103   1.712   3.572 -1.7615 -0.5918 -0.4009
 6908SOL    HW232184   2.095   1.716   3.417 -0.9579 -0.8444 -0.1978
 6909SOL     OW32185   1.114   4.600  10.999 -0.2760  0.1397  0.5749
 6909SOL    HW132186   1.118   4.518  10.949  0.0747 -0.6973  1.9673
 6909SOL    HW232187   1.200   4.641  10.988  0.4211 -1.4395  0.0539
 6910SOL     OW32188   4.578   3.705   8.535  0.1991 -0.1184  0.0698
 6910SOL    HW132189   4.616   3.643   8.598 -0.5481 -1.0242 -0.3796
 6910SOL    HW232190   4.638   3.779   8.540 -0.5574  0.5023 -0.0408
 6911SOL     OW32191   1.226   0.260  12.601 -0.7750  0.3743  0.1668
 6911SOL    HW132192   1.237   0.167  12.619 -0.6609  0.6364  1.4342
 6911SOL    HW232193   1.315   0.283  12.574 -1.1049  1.4143 -0.0473
 6912SOL     OW32194   2.326   1.872   1.376  0.4193  0.4258 -0.1584
 6912SOL    HW132195   2.231   1.859   1.379  0.3491  1.3166  1.2123
 6912SOL    HW232196   2.324   1.948   1.319  0.7582  0.7148  0.2150
 6913SOL     OW32197   3.657   1.199  16.119 -0.5767 -0.4617 -0.0783
 6913SOL    HW132198   3.587   1.234  16.174  0.0330 -1.1132  1.0999
 6913SOL    HW232199   3.684   1.123  16.170 -0.8000 -0.3895  0.1501
 6914SOL     OW32200   3.212   2.829   8.352 -0.3472 -0.4266  0.4638
 6914SOL    HW132201   3.209   2.733   8.357  0.1896 -0.4866 -0.3032
 6914SOL    HW232202   3.295   2.843   8.306 -0.8386  0.1747 -0.2252
 6915SOL     OW32203   1.563   0.853  17.340  0.1170 -0.0839 -0.4071
 6915SOL    HW132204   1.636   0.897  17.295 -1.0545  0.7447 -1.4912
 6915SOL    HW232205   1.591   0.761  17.344  0.5331  0.1780  2.1352
 6916SOL     OW32206   0.783   0.129   3.334  0.0982  0.3810  0.5940
 6916SOL    HW132207   0.722   0.087   3.273  1.3118  1.1505 -1.1378
 6916SOL    HW232208   0.844   0.171   3.274  0.1211  0.7347  0.8698
 6917SOL     OW32209   2.796   2.741   6.720  0.2419  0.3041  0.7619
 6917SOL    HW132210   2.730   2.673   6.710  2.3591 -1.8125  1.0665
 6917SOL    HW232211   2.848   2.728   6.641 -2.9813  2.8458 -1.7380
 6918SOL     OW32212   4.229   0.564   1.378  0.2611 -0.5366  0.2029
 6918SOL    HW132213   4.308   0.609   1.407 -0.7574 -0.0960  2.3002
 6918SOL    HW232214   4.271   0.520   1.304  0.9157  1.2547 -0.4837
 6919SOL     OW32215   0.729   3.623   7.342 -0.0551  0.1758 -0.0847
 6919SOL    HW132216   0.794   3.609   7.410 -0.7260 -1.9170  0.1450
 6919SOL    HW232217   0.784   3.643   7.266  0.8971  1.0740  0.8515
 6920SOL     OW32218   1.678   3.872   1.076 -0.8160  1.0600  0.3492
 6920SOL    HW132219   1.710   3.953   1.115 -2.0732  1.9312 -0.4680
 6920SOL    HW232220   1.660   3.887   0.983  1.4321  0.5482 -0.1764
 6921SOL     OW32221   0.203   3.650   5.211  0.5495 -0.3353  0.3073
 6921SOL    HW132222   0.152   3.726   5.184 -1.2388 -1.1810  1.3391
 6921SOL    HW232223   0.230   3.599   5.135 -0.1428  1.6057 -1.2359
 6922SOL     OW32224   2.129   1.871   2.323 -0.1538  0.0845 -0.5911
 6922SOL    HW132225   2.050   1.897   2.371 -0.5236 -2.1749  0.0122
 6922SOL    HW232226   2.133   1.933   2.250  0.7590 -0.5519 -1.0846
 6923SOL     OW32227   2.065   4.377   3.814  0.9617 -0.1284  0.3782
 6923SOL    HW132228   1.992   4.405   3.759 -0.6997 -0.5007  2.3513
 6923SOL    HW232229   2.127   4.449   3.800  0.7157 -0.1727 -0.9055
 6924SOL     OW32230   0.782   1.870  14.075 -0.2389 -0.0664 -0.6271
 6924SOL    HW132231   0.855   1.930  14.092  2.5305 -3.3422 -0.9930
 6924SOL    HW232232   0.787   1.833  14.163 -2.3108  1.2628  0.0323
 6925SOL     OW32233   3.339   0.731   3.865  0.5252 -0.0641  0.0791
 6925SOL    HW132234   3.312   0.688   3.784 -1.9767  1.1464  0.2657
 6925SOL    HW232235   3.270   0.797   3.872  1.3434  0.8109 -0.0577
 6926SOL     OW32236   4.670   2.978   2.890  0.2651 -0.4872  0.3913
 6926SOL    HW132237   0.036   3.017   2.878  0.2245 -0.6596 -0.4288
 6926SOL    HW232238   4.619   3.033   2.831 -1.4532 -0.0097  2.3062
 6927SOL     OW32239   0.170   0.415   9.562 -0.1757  0.5264  0.6989
 6927SOL    HW132240   0.158   0.322   9.542  0.0086  0.2933  1.7061
 6927SOL    HW232241   0.180   0.444   9.471  0.5488 -3.1410 -0.3878
 6928SOL     OW32242   2.683   2.638   3.201 -0.2174  0.5267  0.3194
 6928SOL    HW132243   2.764   2.686   3.218 -0.0690 -0.1327  1.5021
 6928SOL    HW232244   2.717   2.551   3.222  1.8081  1.7835  2.2284
 6929SOL     OW32245   3.088   0.286   3.615  0.0063  0.1707 -0.1856
 6929SOL    HW132246   3.018   0.222   3.630  1.5059 -1.7754 -1.5614
 6929SOL    HW232247   3.069   0.321   3.528  0.0869 -0.9079 -0.6307
 6930SOL     OW32248   2.632   3.599   7.495 -0.6386 -0.5699  0.1786
 6930SOL    HW132249   2.660   3.684   7.460  0.5173 -0.3263  1.7228
 6930SOL    HW232250   2.537   3.610   7.489 -0.4301  1.0094 -0.4070
 6931SOL     OW32251   4.184   0.326   3.360  0.3598 -0.1707 -0.2093
 6931SOL    HW132252   4.237   0.276   3.299  0.6779  1.9583 -1.6828
 6931SOL    HW232253   4.106   0.343   3.307  1.1455  2.5588 -0.4972
 6932SOL     OW32254   1.604   0.362   8.241  0.4071  0.0991 -0.4000
 6932SOL    HW132255   1.527   0.305   8.249  0.7683 -0.7172 -2.5878
 6932SOL    HW232256   1.555   0.439   8.271 -1.3983 -0.7845 -1.1054
 6933SOL     OW32257   0.197   2.557  13.533 -0.2581 -0.3338 -0.4426
 6933SOL    HW132258   0.215   2.651  13.524 -0.9324 -0.4233 -2.8307
 6933SOL    HW232259   0.218   2.551  13.626 -0.4568 -2.3858 -0.5381
 6934SOL     OW32260   2.802   0.762  12.203  0.4154  0.0771  0.1659
 6934SOL    HW132261   2.870   0.700  12.176  2.6281  2.4272  0.3085
 6934SOL    HW232262   2.856   0.834  12.235  0.9453 -0.4554  0.4699
 6935SOL     OW32263   2.189   0.589   5.272  0.4912 -0.1909  0.0474
 6935SOL    HW132264   2.169   0.612   5.363 -0.3147 -2.3558  0.4117
 6935SOL    HW232265   2.216   0.497   5.280 -2.0763 -0.9020  0.5815
 6936SOL     OW32266   2.332   0.265   2.476 -0.1545  0.0660 -0.1554
 6936SOL    HW132267   2.395   0.316   2.425  0.1913  0.8339  1.0281
 6936SOL    HW232268   2.256   0.284   2.421 -0.0725 -0.0798 -0.3147
 6937SOL     OW32269   0.154   3.697   9.800 -0.5605  0.2215 -0.3071
 6937SOL    HW132270   0.193   3.615   9.768 -0.1005  0.4649 -0.3773
 6937SOL    HW232271   0.060   3.684   9.788 -0.7319  2.3462 -1.0887
 6938SOL     OW32272   1.143   2.398  16.085  0.5812  0.5984  0.2414
 6938SOL    HW132273   1.085   2.324  16.066 -0.0339  1.4250 -1.1262
 6938SOL    HW232274   1.220   2.378  16.033 -1.3869 -1.6398 -1.8389
 6939SOL     OW32275   0.482   1.438   5.984  0.0069 -0.5677 -0.2504
 6939SOL    HW132276   0.543   1.512   5.990  1.1587 -1.5701  0.2931
 6939SOL    HW232277   0.412   1.459   5.921 -0.3172 -0.8103  0.0310
 6940SOL     OW32278   3.895   0.879   6.754 -0.5026 -0.3571  0.5717
 6940SOL    HW132279   3.809   0.874   6.795 -0.5132  0.4061  0.6420
 6940SOL    HW232280   3.955   0.862   6.827  0.8497 -1.6722 -0.8464
 6941SOL     OW32281   0.517   2.538   9.662  0.1146  0.2338 -0.3294
 6941SOL    HW132282   0.610   2.531   9.640  0.8215 -1.1221  3.0675
 6941SOL    HW232283   0.515   2.455   9.710 -3.4827 -0.6976 -2.0104
 6942SOL     OW32284   3.505   3.533   5.201 -0.0500  0.4449  0.4954
 6942SOL    HW132285   3.444   3.604   5.220 -0.0925  0.0461  1.8389
 6942SOL    HW232286   3.483   3.465   5.264  0.0202  0.5596  0.6442
 6943SOL     OW32287   1.030   0.640  12.182 -0.3773 -0.0551  0.0382
 6943SOL    HW132288   1.001   0.591  12.259 -2.1094  0.3211 -0.3788
 6943SOL    HW232289   1.126   0.636  12.189 -0.4315  0.1852  1.0291
 6944SOL     OW32290   3.714   3.078   1.180  0.0648 -0.1482  0.0363
 6944SOL    HW132291   3.722   3.027   1.099  1.9856  0.2666 -0.0295
 6944SOL    HW232292   3.627   3.054   1.213  0.3859  0.3560  1.2630
 6945SOL     OW32293   4.198   1.894   6.575 -0.1308  0.4418 -0.2390
 6945SOL    HW132294   4.221   1.986   6.590  0.0757  0.3610 -0.0449
 6945SOL    HW232295   4.270   1.865   6.632 -2.3393  1.9765  3.3891
 6946SOL     OW32296   0.054   1.696   4.840  0.2732 -0.6464  0.5188
 6946SOL    HW132297   0.028   1.625   4.900 -0.7125  0.7329  1.7238
 6946SOL    HW232298   0.023   1.668   4.754  1.9841  0.6805 -0.5379
 6947SOL     OW32299   0.896   3.841  13.119 -0.1336  0.1468  0.1507
 6947SOL    HW132300   0.917   3.768  13.060  0.8964  0.6128 -0.0675
 6947SOL    HW232301   0.937   3.804  13.197  0.3994  0.6118  0.0882
 6948SOL     OW32302   0.810   0.189   7.310  0.1045 -0.6598 -0.1490
 6948SOL    HW132303   0.801   0.155   7.221  0.5330  0.9137 -0.7854
 6948SOL    HW232304   0.833   0.107   7.354 -0.1402 -0.1935  0.8717
 6949SOL     OW32305   0.692   0.833   2.851  0.3120 -0.2430  0.3017
 6949SOL    HW132306   0.679   0.886   2.773 -1.2843 -1.4483 -0.2590
 6949SOL    HW232307   0.760   0.884   2.895 -0.0662  0.6055 -0.0936
 6950SOL     OW32308   2.276   4.229  13.100 -0.2807  0.1256 -0.5411
 6950SOL    HW132309   2.333   4.152  13.093 -1.4356 -0.9197  1.6700
 6950SOL    HW232310   2.218   4.225  13.024 -0.9637 -1.0779  0.0373
 6951SOL     OW32311   3.926   4.361   4.205 -0.1042 -0.8947  0.2744
 6951SOL    HW132312   4.017   4.352   4.177  0.0692 -3.4969  1.7147
 6951SOL    HW232313   3.886   4.430   4.152  0.8675 -1.3488 -1.0521
 6952SOL     OW32314   4.648   2.045   3.437  0.4525 -0.1284  0.0043
 6952SOL    HW132315   4.611   2.126   3.402  0.5474 -0.8574 -1.7755
 6952SOL    HW232316   4.592   2.027   3.512  1.9084  1.1374  1.4003
 6953SOL     OW32317   3.409   3.719   6.831  0.4998  0.5359  0.2342
 6953SOL    HW132318   3.336   3.717   6.892 -0.2658 -1.4609 -0.7288
 6953SOL    HW232319   3.441   3.629   6.840  1.2756  0.8930  0.9739
 6954SOL     OW32320   0.245   3.383   2.796 -0.0357 -0.0630 -0.3974
 6954SOL    HW132321   0.320   3.356   2.744  0.4404  3.1327 -1.3897
 6954SOL    HW232322   0.286   3.436   2.865 -0.3185  1.0022 -1.0426
 6955SOL     OW32323   2.045   3.628   8.802 -0.4967 -0.0757  0.0775
 6955SOL    HW132324   2.093   3.689   8.746 -0.1189 -0.5513 -0.1224
 6955SOL    HW232325   2.078   3.544   8.771 -0.0561  0.2427 -0.3221
 6956SOL     OW32326   0.935   1.930   3.445  0.0159  0.2442  0.2889
 6956SOL    HW132327   0.999   1.996   3.470 -1.7410  1.0802  2.5413
 6956SOL    HW232328   0.957   1.853   3.497  0.9498 -0.6828 -1.4811
 6957SOL     OW32329   1.956   3.648  16.551  0.0627  0.3702 -0.3489
 6957SOL    HW132330   2.030   3.597  16.519  1.8458  1.8914  1.3677
 6957SOL    HW232331   1.921   3.694  16.474  0.7975 -1.0092 -1.5032
 6958SOL     OW32332   3.722   3.960  12.023 -0.2553 -0.2639  0.1193
 6958SOL    HW132333   3.782   4.017  11.976 -1.4783  0.8966 -0.0389
 6958SOL    HW232334   3.782   3.896  12.061  0.1565 -0.0663 -0.1979
 6959SOL     OW32335   1.583   2.540   3.830 -0.2223 -0.5234  0.4417
 6959SOL    HW132336   1.614   2.570   3.745 -0.2566 -0.1212  0.5712
 6959SOL    HW232337   1.586   2.445   3.815 -0.5729 -0.4631  0.0242
 6960SOL     OW32338   2.709   2.734   8.203 -0.0252 -0.0823 -0.4627
 6960SOL    HW132339   2.795   2.750   8.164 -0.4731  0.5178 -1.1917
 6960SOL    HW232340   2.734   2.676   8.274 -0.7443 -0.6043 -0.6383
 6961SOL     OW32341   0.298   0.003   5.721  0.3687 -0.3477  0.5875
 6961SOL    HW132342   0.217   4.678   5.745 -0.0521  0.8193  1.3916
 6961SOL    HW232343   0.266   0.064   5.655  0.9234 -1.7586 -0.9695
 6962SOL     OW32344   0.297   3.757   0.334 -0.0583  0.9018 -0.2636
 6962SOL    HW132345   0.390   3.770   0.352  0.3776  0.7360 -2.4601
 6962SOL    HW232346   0.291   3.797   0.247  0.1228 -2.3863 -1.7758
 6963SOL     OW32347   0.458   3.635   7.613 -0.2946  0.4748  0.1744
 6963SOL    HW132348   0.531   3.631   7.674 -0.6004  1.8259  0.6291
 6963SOL    HW232349   0.391   3.665   7.674 -0.0750 -0.6390  0.9569
 6964SOL     OW32350   4.217   2.453  15.137  0.0537  0.0407  0.1355
 6964SOL    HW132351   4.127   2.457  15.171  0.0712  0.3296  0.1449
 6964SOL    HW232352   4.191   2.409  15.056 -1.6477  0.7224  0.3099
 6965SOL     OW32353   0.717   3.853   8.137  0.2390 -0.1081  0.0017
 6965SOL    HW132354   0.804   3.830   8.104  0.2203 -1.2023  0.7160
 6965SOL    HW232355   0.674   3.767   8.128  2.1649 -0.8139 -2.2546
 6966SOL     OW32356   1.883   4.439   0.346 -0.1539  0.5284  0.0941
 6966SOL    HW132357   1.815   4.395   0.397  0.0711 -0.9971 -0.9086
 6966SOL    HW232358   1.848   4.442   0.257  1.3906  1.0018 -0.4969
 6967SOL     OW32359   1.574   4.607   5.673  0.2362 -0.1116  0.0684
 6967SOL    HW132360   1.659   4.564   5.668  0.2106 -0.1027 -0.4276
 6967SOL    HW232361   1.562   4.662   5.596  0.2342  1.6124  1.2860
 6968SOL     OW32362   2.499   0.746  11.318 -0.7158  0.0767 -0.1781
 6968SOL    HW132363   2.501   0.749  11.414 -1.6254  0.8872 -0.1892
 6968SOL    HW232364   2.578   0.698  11.294 -1.3724 -1.9531  1.6826
 6969SOL     OW32365   1.465   3.788   5.056  0.7998 -0.2247  0.1116
 6969SOL    HW132366   1.540   3.844   5.038  2.4764 -1.8991  1.7538
 6969SOL    HW232367   1.443   3.767   4.966 -0.8183  1.2015  0.1914
 6970SOL     OW32368   1.831   3.971   7.229  0.1683 -0.1085  0.1789
 6970SOL    HW132369   1.749   3.985   7.181 -0.4020 -1.5711  0.7408
 6970SOL    HW232370   1.840   4.064   7.251 -1.6007 -0.0445  0.6270
 6971SOL     OW32371   0.139   0.301   5.992 -0.1891  0.1141  0.1099
 6971SOL    HW132372   0.217   0.298   5.937  0.4159 -0.8645  1.0144
 6971SOL    HW232373   0.080   0.300   5.916  2.1082  0.7191 -1.6841
 6972SOL     OW32374   4.540   0.319   6.151  0.0193 -0.5528 -0.2736
 6972SOL    HW132375   4.540   0.228   6.122  2.4350 -1.2344  1.8988
 6972SOL    HW232376   4.612   0.313   6.215 -1.8528 -2.0492  1.6999
 6973SOL     OW32377   3.209   3.524  15.064  0.2364  0.1256  0.3419
 6973SOL    HW132378   3.296   3.528  15.106  1.1711 -0.1987 -1.5874
 6973SOL    HW232379   3.158   3.525  15.145 -0.7932 -3.4669 -0.2711
 6974SOL     OW32380   1.426   1.552   2.947 -0.3823 -0.5746  0.0442
 6974SOL    HW132381   1.445   1.623   2.885  3.1063 -1.6742 -0.1270
 6974SOL    HW232382   1.488   1.570   3.018  0.1492  2.4135 -1.1790
 6975SOL     OW32383   0.902   2.693  16.214  0.3298 -0.1618  0.6015
 6975SOL    HW132384   0.843   2.768  16.219 -1.7963 -1.9455  1.9730
 6975SOL    HW232385   0.974   2.742  16.175 -1.1770  1.2102 -0.4421
 6976SOL     OW32386   2.343   0.857   2.251  0.4549 -0.5740  0.6895
 6976SOL    HW132387   2.330   0.928   2.188  0.2335 -2.3860 -1.2774
 6976SOL    HW232388   2.406   0.802   2.205  0.8268 -0.9530  1.6366
 6977SOL     OW32389   4.284   0.867   4.562  0.0270  0.0359  0.0921
 6977SOL    HW132390   4.267   0.780   4.524  1.7529 -0.3402  0.1782
 6977SOL    HW232391   4.358   0.889   4.506 -2.0934 -0.1500 -2.8041
 6978SOL     OW32392   3.327   3.201  15.024  0.0424 -0.7010  0.1705
 6978SOL    HW132393   3.334   3.289  15.062  0.5163 -0.4446 -0.5194
 6978SOL    HW232394   3.331   3.150  15.105 -1.7049 -1.8770 -0.4855
 6979SOL     OW32395   3.287   2.210   7.215  0.1459  0.7829  0.0175
 6979SOL    HW132396   3.305   2.253   7.298  1.5877  0.6159 -0.2032
 6979SOL    HW232397   3.318   2.122   7.237 -0.4430  0.8237  1.0310
 6980SOL     OW32398   2.418   4.103   0.381  0.6128 -0.0794  0.7654
 6980SOL    HW132399   2.413   4.143   0.468 -1.2693  0.6671  0.3102
 6980SOL    HW232400   2.339   4.051   0.374  0.3519  0.6187 -1.5313
 6981SOL     OW32401   1.011   0.620   7.656  0.0573 -0.2849 -0.3511
 6981SOL    HW132402   0.965   0.603   7.574  0.6170  1.0270 -0.9417
 6981SOL    HW232403   1.066   0.694   7.630  1.1679 -1.2485 -0.7467
 6982SOL     OW32404   0.942   0.012  13.759 -0.1213  0.4306  0.3875
 6982SOL    HW132405   0.867   4.699  13.808 -1.2179  2.5094  0.1785
 6982SOL    HW232406   0.906   0.088  13.712 -2.7243 -1.3226 -0.4429
 6983SOL     OW32407   3.550   1.248   9.165  0.6771  0.3416 -0.1003
 6983SOL    HW132408   3.612   1.275   9.097 -2.7353 -0.7569 -3.6479
 6983SOL    HW232409   3.467   1.291   9.143 -1.4647 -2.9832  1.5816
 6984SOL     OW32410   2.000   4.523   1.503 -0.2092  0.0509 -0.6647
 6984SOL    HW132411   1.915   4.483   1.490 -0.7640  0.7953  0.7199
 6984SOL    HW232412   2.032   4.491   1.587 -1.2172 -1.1383 -0.7416
 6985SOL     OW32413   1.119   1.497   2.586  0.2869  0.1525 -0.2779
 6985SOL    HW132414   1.138   1.511   2.493 -1.0716  0.0092 -0.5732
 6985SOL    HW232415   1.028   1.526   2.584  0.5625  1.0947  1.2437
 6986SOL     OW32416   3.366   0.401   7.392  0.7271 -0.3292  0.5446
 6986SOL    HW132417   3.360   0.318   7.438  1.1407  0.8559  2.7377
 6986SOL    HW232418   3.454   0.424   7.420 -0.1511  0.9214  2.2350
 6987SOL     OW32419   4.132   3.446   0.499  0.4413 -0.7740  0.1848
 6987SOL    HW132420   4.063   3.510   0.520  1.6356  0.5197  0.1143
 6987SOL    HW232421   4.183   3.460   0.579 -1.0887  0.5815  0.9236
 6988SOL     OW32422   2.806   3.051   8.646 -0.1181 -0.1998 -0.4142
 6988SOL    HW132423   2.719   3.083   8.623  1.1390  2.4152 -1.4361
 6988SOL    HW232424   2.840   3.126   8.693 -0.1076 -0.5950  0.2064
 6989SOL     OW32425   0.407   3.918  12.796  0.7420 -0.2958 -0.6652
 6989SOL    HW132426   0.482   3.874  12.835  0.3942  0.6231  1.0109
 6989SOL    HW232427   0.380   3.840  12.747  0.6435 -0.6185 -0.0989
 6990SOL     OW32428   4.216   2.161   6.638  0.6230 -0.3426  0.5200
 6990SOL    HW132429   4.282   2.223   6.606  0.6404  0.6565  2.4540
 6990SOL    HW232430   4.217   2.184   6.731  0.5490 -0.4646  0.5504
 6991SOL     OW32431   2.733   0.969   3.901  0.0412 -0.3251 -0.4552
 6991SOL    HW132432   2.653   0.919   3.884  0.5719 -0.7993 -1.5551
 6991SOL    HW232433   2.775   0.902   3.955 -1.6553  1.3115  2.8819
 6992SOL     OW32434   2.371   0.608   9.015  0.2596 -0.0107 -0.1335
 6992SOL    HW132435   2.338   0.628   8.927  0.8852 -0.3473 -0.4473
 6992SOL    HW232436   2.285   0.592   9.054 -0.0601  0.6614 -0.5597
 6993SOL     OW32437   0.214   2.245  12.621 -0.0733  0.8842  0.0863
 6993SOL    HW132438   0.287   2.303  12.642  1.2492 -0.6201 -0.3591
 6993SOL    HW232439   0.145   2.311  12.610 -0.3102  0.5434 -0.4954
 6994SOL     OW32440   2.928   2.309   7.805 -0.2329  0.3899  0.4583
 6994SOL    HW132441   2.844   2.265   7.793  0.5773 -2.0616  3.8372
 6994SOL    HW232442   2.934   2.299   7.900  0.1694 -2.0679  0.1689
 6995SOL     OW32443   0.103   3.255   4.376  0.1972  0.1633  0.2651
 6995SOL    HW132444   0.162   3.229   4.305 -1.6718 -0.5868 -1.0094
 6995SOL    HW232445   0.025   3.279   4.326 -1.2142 -3.3450  0.8554
 6996SOL     OW32446   1.159   3.915   0.131 -0.0780  0.3817 -0.0448
 6996SOL    HW132447   1.164   3.835   0.184  0.6494 -0.2661 -1.0965
 6996SOL    HW232448   1.075   3.954   0.155 -1.2075 -2.1833  0.2147
 6997SOL     OW32449   2.015   4.204   6.911  0.7412 -0.2749 -0.3771
 6997SOL    HW132450   2.000   4.115   6.943 -1.9909  0.3661  0.1532
 6997SOL    HW232451   1.942   4.210   6.850 -0.0551  0.7630  0.6600
 6998SOL     OW32452   1.128   4.592  13.199 -0.1256  0.0035  0.5944
 6998SOL    HW132453   1.039   4.561  13.217 -0.3107 -0.4247 -1.0207
 6998SOL    HW232454   1.126   4.675  13.245  1.0275  0.2686  0.1808
 6999SOL     OW32455   1.248   4.131   6.398 -0.1091  0.0995  0.0126
 6999SOL    HW132456   1.299   4.204   6.362  0.9745 -1.1117 -0.9386
 6999SOL    HW232457   1.158   4.159   6.415 -1.1807 -3.0874 -0.3746
 7000SOL     OW32458   2.912   1.510   3.482 -0.4129 -0.4300  0.1968
 7000SOL    HW132459   2.906   1.416   3.470 -1.7147 -0.6747  2.8086
 7000SOL    HW232460   2.819   1.534   3.483 -0.7684 -1.8714  1.5158
 7001SOL     OW32461   0.304   4.530  11.937  0.3471  0.2453 -0.4495
 7001SOL    HW132462   0.269   4.593  12.000 -0.6389 -0.5825 -0.1691
 7001SOL    HW232463   0.299   4.582  11.857 -1.5069 -0.7720 -1.0053
 7002SOL     OW32464   3.163   4.437   7.108 -0.0159  0.1822 -0.1755
 7002SOL    HW132465   3.200   4.396   7.030 -0.1785 -1.0512  0.4004
 7002SOL    HW232466   3.069   4.418   7.100 -0.4579  1.2210  2.7556
 7003SOL     OW32467   3.372   0.111   6.168  0.5394  0.0536  0.4249
 7003SOL    HW132468   3.396   0.102   6.076 -1.0081  0.0731  0.0328
 7003SOL    HW232469   3.436   0.044   6.195 -0.2267 -1.4372 -1.5041
 7004SOL     OW32470   3.225   4.589   0.447 -0.1428 -0.5999  0.0355
 7004SOL    HW132471   3.178   4.672   0.437  1.6956  0.2696 -1.2533
 7004SOL    HW232472   3.214   4.564   0.539  2.8063 -2.1261 -0.0412
 7005SOL     OW32473   2.929   4.623   8.198  0.2960  0.1149  0.0801
 7005SOL    HW132474   2.906   4.685   8.129 -0.8160 -0.4703 -0.0743
 7005SOL    HW232475   2.954   4.546   8.146  0.7654  1.0444 -1.0701
 7006SOL     OW32476   1.120   2.419   6.067  0.0919  0.3026  0.2256
 7006SOL    HW132477   1.085   2.437   6.155 -1.8363 -0.4797 -0.3697
 7006SOL    HW232478   1.161   2.504   6.054 -0.7630  0.4716 -1.3227
 7007SOL     OW32479   1.484   4.030  11.878  0.2352 -0.2135 -0.0560
 7007SOL    HW132480   1.457   4.117  11.848 -1.9927  0.1143  2.9186
 7007SOL    HW232481   1.578   4.048  11.886  0.8499 -3.6019  0.5508
 7008SOL     OW32482   2.218   4.532   1.990  0.1291  0.0763 -0.1902
 7008SOL    HW132483   2.227   4.526   2.085 -0.0099 -2.9895 -0.3546
 7008SOL    HW232484   2.197   4.443   1.960 -1.3296 -0.3983  2.2152
 7009SOL     OW32485   4.334   2.127   2.988  0.0782  0.0699  0.0054
 7009SOL    HW132486   4.291   2.136   2.904  0.6553  0.7933 -0.2098
 7009SOL    HW232487   4.371   2.214   3.003  1.6159 -0.7309  1.0017
 7010SOL     OW32488   3.900   1.736   8.060  0.1135  0.2978  0.1844
 7010SOL    HW132489   3.897   1.673   8.133 -2.5502 -0.8627 -0.9070
 7010SOL    HW232490   3.810   1.766   8.044  1.0488  2.4950 -0.8934
 7011SOL     OW32491   2.239   3.188   2.725 -0.6164  0.3498  0.5169
 7011SOL    HW132492   2.280   3.117   2.676 -1.9392  0.2923 -0.5124
 7011SOL    HW232493   2.166   3.224   2.674 -0.4331 -3.7313 -2.5869
 7012SOL     OW32494   2.023   0.500   8.254 -0.9904 -0.0500  0.4955
 7012SOL    HW132495   2.059   0.583   8.222 -2.4454  0.0261 -0.9454
 7012SOL    HW232496   1.952   0.527   8.312 -1.2224 -0.7362  0.5350
 7013SOL     OW32497   4.238   2.278   8.860  0.5489 -0.9492  0.2024
 7013SOL    HW132498   4.238   2.331   8.940  0.9373 -0.2918 -0.2331
 7013SOL    HW232499   4.144   2.263   8.849  0.5606 -1.1001  0.3181
 7014SOL     OW32500   2.252   0.160   7.388 -0.7666 -0.0830 -0.7054
 7014SOL    HW132501   2.315   0.147   7.459 -0.7537  0.9474 -0.5397
 7014SOL    HW232502   2.314   0.164   7.315 -0.4766  0.2040 -0.4437
 7015SOL     OW32503   3.537   2.335   8.671 -0.3998 -0.6894 -0.4761
 7015SOL    HW132504   3.498   2.330   8.759 -0.8950  0.2414 -0.6427
 7015SOL    HW232505   3.629   2.334   8.696 -0.5954  2.2181  0.2928
 7016SOL     OW32506   3.665   1.902   8.508  0.0641 -0.4176 -0.0838
 7016SOL    HW132507   3.661   1.981   8.453 -0.6073 -0.4628 -0.0988
 7016SOL    HW232508   3.747   1.866   8.474 -1.2189 -1.9094 -1.6143
 7017SOL     OW32509   1.212   1.765  14.252 -0.2638  0.7304 -0.0040
 7017SOL    HW132510   1.149   1.835  14.233  0.0577  0.8554 -0.6170
 7017SOL    HW232511   1.261   1.761  14.170 -1.5573 -3.0956 -0.5871
 7018SOL     OW32512   4.502   0.576  17.136  0.1329  0.8422  0.1446
 7018SOL    HW132513   4.507   0.554  17.043  0.4069  0.0595  0.3450
 7018SOL    HW232514   4.573   0.639  17.145  0.6470  0.2157  0.4655
 7019SOL     OW32515   0.499   4.119  12.626 -0.4457  0.3774 -0.1311
 7019SOL    HW132516   0.587   4.114  12.664  0.4761  0.5209 -2.2573
 7019SOL    HW232517   0.478   4.054  12.693 -1.7968 -1.0818 -1.9696
 7020SOL     OW32518   1.312   4.370   4.638  0.4106  0.2021 -0.0458
 7020SOL    HW132519   1.261   4.307   4.587 -1.3694  1.0886  0.6464
 7020SOL    HW232520   1.339   4.437   4.575  0.7452 -0.1699 -0.2973
 7021SOL     OW32521   0.905   1.045   8.147  0.0969  0.3963  0.1056
 7021SOL    HW132522   0.984   1.095   8.129 -0.8673  1.5508 -0.9649
 7021SOL    HW232523   0.839   1.108   8.177 -0.4799 -1.7343  3.3310
 7022SOL     OW32524   4.620   3.482   1.903 -0.3366 -0.1212  0.3392
 7022SOL    HW132525   4.534   3.456   1.869 -0.6179  1.2623 -0.0147
 7022SOL    HW232526   4.661   3.518   1.825 -1.2311  1.3356  0.5313
 7023SOL     OW32527   3.844   2.587   4.543 -0.0568  0.1122 -0.4618
 7023SOL    HW132528   3.930   2.560   4.576 -0.1156  0.2712 -0.1710
 7023SOL    HW232529   3.852   2.678   4.572  0.3024  0.0008 -0.2055
 7024SOL     OW32530   4.550   3.494  13.941 -0.4526 -0.1493  0.0597
 7024SOL    HW132531   4.525   3.585  13.922  1.6275  0.7037  1.4339
 7024SOL    HW232532   4.640   3.506  13.971 -0.9971 -0.4877  1.8234
 7025SOL     OW32533   0.640   2.328   8.971  0.0244 -0.3543  0.1567
 7025SOL    HW132534   0.549   2.305   8.953  0.3609  0.0219 -2.0527
 7025SOL    HW232535   0.697   2.251   8.976  1.8455  0.8875 -1.1890
 7026SOL     OW32536   4.626   0.911  14.104 -0.0617  0.1865  0.2203
 7026SOL    HW132537   4.657   1.001  14.109  0.2528  0.0544  0.6705
 7026SOL    HW232538   4.539   0.924  14.066 -0.9479 -2.6884  1.2259
 7027SOL     OW32539   0.643   3.205   6.571  0.2454  0.1263  0.2534
 7027SOL    HW132540   0.643   3.217   6.476  0.5186 -2.0596 -0.0242
 7027SOL    HW232541   0.722   3.152   6.582 -0.0425  0.1367  2.3779
 7028SOL     OW32542   1.377   3.592   7.864 -0.0179  0.4753 -0.6312
 7028SOL    HW132543   1.425   3.673   7.850  0.5953 -0.1822 -2.2325
 7028SOL    HW232544   1.287   3.625   7.866  0.0818  0.6512  1.0047
 7029SOL     OW32545   0.325   0.052   0.883  0.0944  0.1602  0.1947
 7029SOL    HW132546   0.369   0.037   0.966  1.2659  1.9785 -0.1067
 7029SOL    HW232547   0.378   0.125   0.851 -0.1878  1.0171  1.6605
 7030SOL     OW32548   2.319   1.143  11.701  0.3972  0.3907  0.0746
 7030SOL    HW132549   2.392   1.093  11.735  1.2321  0.0803 -2.1907
 7030SOL    HW232550   2.329   1.158  11.607 -2.1944 -2.3197 -0.6377
 7031SOL     OW32551   4.631   3.130   3.146  0.3300  0.2252  0.4458
 7031SOL    HW132552   4.629   3.065   3.075  0.1443  0.9397 -0.2111
 7031SOL    HW232553   4.546   3.173   3.135 -0.3106 -1.1079  0.2404
 7032SOL     OW32554   1.942   2.958  14.083  0.3935 -0.3129  0.3797
 7032SOL    HW132555   1.861   3.009  14.077  0.7493  0.2515  0.2856
 7032SOL    HW232556   1.946   2.908  14.002 -0.4447 -0.9352  0.7325
 7033SOL     OW32557   2.112   4.092   8.029 -0.3355  0.5051 -0.5702
 7033SOL    HW132558   2.118   4.177   8.073  0.7211 -0.2055  0.6807
 7033SOL    HW232559   2.201   4.066   8.050  0.3716  1.7982 -1.9867
 7034SOL     OW32560   3.689   0.860   3.328  0.4492 -0.3426  0.2441
 7034SOL    HW132561   3.748   0.921   3.285 -0.5047 -0.5396 -1.3311
 7034SOL    HW232562   3.660   0.815   3.249  0.8664  1.3645 -0.8599
 7035SOL     OW32563   4.623   3.752   6.904  1.0521 -0.3645  0.2111
 7035SOL    HW132564   4.594   3.701   6.828 -2.3715  0.5085  0.9550
 7035SOL    HW232565   4.578   3.708   6.976  1.0873 -0.3336  0.2520
 7036SOL     OW32566   0.804   0.726  10.608 -0.2228  0.1318  0.2842
 7036SOL    HW132567   0.835   0.640  10.581 -2.5295 -0.0228 -1.9171
 7036SOL    HW232568   0.849   0.779  10.543 -1.4922  2.3761  1.2177
 7037SOL     OW32569   4.510   2.602  11.208 -0.6523  0.1016  0.8793
 7037SOL    HW132570   4.511   2.594  11.303 -0.7612 -2.7663  0.6261
 7037SOL    HW232571   4.602   2.575  11.205 -0.1208  1.7032  2.6650
 7038SOL     OW32572   0.277   3.618   2.346 -0.1645 -0.6476 -0.1866
 7038SOL    HW132573   0.311   3.598   2.433  0.8531 -1.7558 -0.8463
 7038SOL    HW232574   0.192   3.659   2.365 -0.2293 -0.6693 -0.4318
 7039SOL     OW32575   4.040   0.651  16.221 -0.7363  0.2267 -0.0468
 7039SOL    HW132576   4.117   0.626  16.272 -0.7090  1.0597  0.3173
 7039SOL    HW232577   4.048   0.561  16.188  0.7414  1.4189 -2.9993
 7040SOL     OW32578   4.172   0.024   3.413 -0.4360 -0.1167  0.0286
 7040SOL    HW132579   4.095   0.082   3.411 -0.0493  0.4500  1.7852
 7040SOL    HW232580   4.217   0.045   3.330  1.5089 -3.6043  0.2075
 7041SOL     OW32581   0.793   0.389   4.108 -0.3942  0.2663  0.0599
 7041SOL    HW132582   0.713   0.341   4.131  0.0321 -0.7281 -0.5250
 7041SOL    HW232583   0.835   0.345   4.034  1.1690  1.7610  0.0459
 7042SOL     OW32584   1.416   3.025   8.676  0.1980  0.0251  0.2245
 7042SOL    HW132585   1.497   2.975   8.667  0.7181  1.0666 -0.9317
 7042SOL    HW232586   1.453   3.096   8.730 -1.0776 -0.6585  2.0089
 7043SOL     OW32587   1.335   0.946   7.970  0.6925  0.2443 -0.3465
 7043SOL    HW132588   1.256   0.896   7.987  0.7027  0.0992 -0.7097
 7043SOL    HW232589   1.292   1.013   7.916  1.0360 -0.1958 -1.1755
 7044SOL     OW32590   4.703   3.834   5.150  0.0848  0.1118 -0.0406
 7044SOL    HW132591   4.655   3.903   5.104  0.9018  2.0214  2.0010
 7044SOL    HW232592   4.645   3.758   5.143 -0.1036  0.4685 -2.5724
 7045SOL     OW32593   3.318   4.518   5.984  0.7364 -0.5043 -0.0542
 7045SOL    HW132594   3.287   4.498   6.072  1.4279  1.2874  0.5862
 7045SOL    HW232595   3.244   4.483   5.933 -0.4429  0.9951  0.6305
 7046SOL     OW32596   0.611   4.231   8.967  0.1412  0.0201 -0.4331
 7046SOL    HW132597   0.553   4.154   8.973 -1.6483  1.4259  0.4523
 7046SOL    HW232598   0.678   4.218   9.034  1.8035  2.4468 -1.6415
 7047SOL     OW32599   2.323   3.027  13.897  0.2942 -0.8316  0.2706
 7047SOL    HW132600   2.274   3.004  13.976  1.4319  0.0284  1.2279
 7047SOL    HW232601   2.404   2.980  13.916  0.3676 -0.2897  1.3001
 7048SOL     OW32602   1.131   3.871  15.686  0.2807  0.3204  0.3355
 7048SOL    HW132603   1.104   3.831  15.769  0.5164 -1.6611 -0.5423
 7048SOL    HW232604   1.082   3.953  15.697  1.7107  1.1537  0.5430
 7049SOL     OW32605   0.707   3.447  11.076 -0.6203  0.1245 -0.6840
 7049SOL    HW132606   0.753   3.530  11.076  1.0671 -0.8143 -1.2658
 7049SOL    HW232607   0.679   3.440  11.168 -0.8055  1.7041 -0.6255
 7050SOL     OW32608   0.767   2.357   7.926 -0.2653  0.2201 -0.0004
 7050SOL    HW132609   0.726   2.431   7.971  1.1953  0.9475  0.1612
 7050SOL    HW232610   0.844   2.402   7.890  0.0601 -0.7615 -0.5202
 7051SOL     OW32611   3.229   1.999   5.235 -0.0478 -0.0772  0.1106
 7051SOL    HW132612   3.265   1.969   5.151  1.0947  1.0033  0.2131
 7051SOL    HW232613   3.281   2.076   5.256 -1.0872  0.8704 -0.8301
 7052SOL     OW32614   1.391   4.557  13.266 -0.1755  0.1765  0.2582
 7052SOL    HW132615   1.305   4.555  13.224 -0.1426 -0.8748  0.2243
 7052SOL    HW232616   1.431   4.493  13.206  0.4992  0.8257  0.0238
 7053SOL     OW32617   0.129   3.305   1.100 -0.1979  0.7180 -0.4566
 7053SOL    HW132618   0.189   3.342   1.164 -1.6515  0.3392  1.1456
 7053SOL    HW232619   0.148   3.212   1.105 -1.2058  0.5164 -0.1903
 7054SOL     OW32620   2.371   2.843   4.153 -0.2779  0.7115  0.5289
 7054SOL    HW132621   2.391   2.763   4.105  3.2340  0.7996  1.8087
 7054SOL    HW232622   2.316   2.806   4.222  0.2667 -0.6195  0.2409
 7055SOL     OW32623   0.319   3.553   8.760  0.0497 -0.2837  0.7969
 7055SOL    HW132624   0.350   3.473   8.802 -0.5168 -0.2393  1.2827
 7055SOL    HW232625   0.224   3.551   8.768  0.0911 -2.3091  0.6725
 7056SOL     OW32626   0.033   4.474   2.919  0.8932 -0.3501 -0.0245
 7056SOL    HW132627   0.118   4.517   2.908  2.7427 -3.7628  0.8669
 7056SOL    HW232628   4.701   4.539   2.872  2.0795  0.1782 -0.6234
 7057SOL     OW32629   2.080   1.679  12.119  0.0085 -0.0527  0.2431
 7057SOL    HW132630   2.140   1.621  12.070 -0.4919 -1.0179  0.7778
 7057SOL    HW232631   2.005   1.626  12.145  0.2725 -0.6313 -0.1613
 7058SOL     OW32632   4.005   2.992  14.621 -0.3349  0.0510 -0.2683
 7058SOL    HW132633   4.030   3.024  14.534  0.3378  1.3018  0.3976
 7058SOL    HW232634   3.991   3.069  14.676 -3.3517 -0.2451 -0.5894
 7059SOL     OW32635   0.180   0.959   3.523  0.0650 -1.0310  0.0864
 7059SOL    HW132636   0.210   0.870   3.502 -0.5764 -0.8024 -1.7553
 7059SOL    HW232637   0.157   0.985   3.435 -0.4875  2.0256  1.1508
 7060SOL     OW32638   2.100   4.273   1.974  0.6968  0.1970 -0.1605
 7060SOL    HW132639   2.009   4.280   2.002  0.2432 -0.0909 -1.5725
 7060SOL    HW232640   2.130   4.224   2.051 -1.0058 -0.2599  0.2088
 7061SOL     OW32641   4.483   1.587   8.340 -0.8730 -0.3337  0.4862
 7061SOL    HW132642   4.491   1.616   8.431 -0.4988  0.3131  0.2442
 7061SOL    HW232643   4.571   1.615   8.318 -0.5103 -1.2613  0.7479
 7062SOL     OW32644   4.227   1.700   1.815 -0.2298  0.2564  1.0627
 7062SOL    HW132645   4.132   1.697   1.803  0.0515  0.7718 -1.2457
 7062SOL    HW232646   4.247   1.624   1.761  0.4046  0.9699  0.2943
 7063SOL     OW32647   3.671   1.991   3.657  0.1551 -0.0468  0.3480
 7063SOL    HW132648   3.694   2.008   3.565 -0.8464  0.1084  0.1248
 7063SOL    HW232649   3.624   1.908   3.647 -0.8706  0.4850  0.7777
 7064SOL     OW32650   2.646   0.082   2.263  0.0507 -0.6628 -0.4669
 7064SOL    HW132651   2.575   0.097   2.200 -0.7759  1.1913  0.9165
 7064SOL    HW232652   2.668   0.171   2.291 -0.8612 -0.5036 -0.2638
 7065SOL     OW32653   2.298   1.848   0.658 -0.5313 -0.1430 -0.5922
 7065SOL    HW132654   2.355   1.910   0.704 -1.2937  0.5479 -0.5574
 7065SOL    HW232655   2.260   1.797   0.729  0.9485  0.5093  0.6685
 7066SOL     OW32656   3.377   2.357   2.182 -0.0680  0.3946  0.2471
 7066SOL    HW132657   3.473   2.358   2.183 -0.0449 -0.4598 -0.3830
 7066SOL    HW232658   3.355   2.434   2.234  0.1767  0.1373  0.7286
 7067SOL     OW32659   1.319   1.953   3.492 -0.6144  0.5225 -0.2957
 7067SOL    HW132660   1.265   1.878   3.470  0.2772 -0.4217  0.7368
 7067SOL    HW232661   1.252   2.012   3.526  0.3800  0.8267  1.1377
 7068SOL     OW32662   0.942   1.464   8.444 -0.3007  0.9336  0.4258
 7068SOL    HW132663   0.922   1.413   8.523 -0.6934 -0.8758 -0.8338
 7068SOL    HW232664   0.979   1.541   8.486  0.9404  0.0730  0.9156
 7069SOL     OW32665   1.043   2.903  11.926 -0.6459  0.3881 -0.1962
 7069SOL    HW132666   1.041   2.875  11.835 -1.4398 -0.6541  0.1354
 7069SOL    HW232667   0.980   2.847  11.973  0.1771 -1.4303 -1.2419
 7070SOL     OW32668   1.102   0.144   0.553  0.1189  0.3829 -0.0957
 7070SOL    HW132669   1.019   0.191   0.562 -1.0659 -1.6003 -0.5994
 7070SOL    HW232670   1.076   0.063   0.510  4.9787 -1.0038 -0.3661
 7071SOL     OW32671   2.061   1.901   0.533  0.4185  0.3502  0.0180
 7071SOL    HW132672   2.154   1.902   0.554  0.6773 -0.2917 -1.0919
 7071SOL    HW232673   2.045   1.807   0.520  0.7797  0.6189 -2.3020
 7072SOL     OW32674   1.431   3.118   5.017 -0.0006 -0.6224 -0.5028
 7072SOL    HW132675   1.387   3.170   5.085 -0.0305  0.7707 -1.5863
 7072SOL    HW232676   1.502   3.074   5.064 -0.2973 -1.4143 -0.8070
 7073SOL     OW32677   1.646   4.038   7.933 -0.2601 -0.0574 -0.1107
 7073SOL    HW132678   1.681   4.066   7.849  0.3305  0.3385  0.2707
 7073SOL    HW232679   1.720   4.061   7.989 -0.2386 -1.1652  0.3147
 7074SOL     OW32680   2.633   1.338  15.117 -0.2812 -0.1956 -0.1541
 7074SOL    HW132681   2.576   1.407  15.152 -0.8660 -0.5760 -0.3541
 7074SOL    HW232682   2.684   1.385  15.051 -0.2924  1.9003  1.3068
 7075SOL     OW32683   3.685   2.626   7.120 -0.0440 -0.5665 -0.3564
 7075SOL    HW132684   3.631   2.612   7.197  2.0485  2.5010  1.6584
 7075SOL    HW232685   3.773   2.615   7.155  0.4398 -1.4694 -1.8414
 7076SOL     OW32686   3.691   1.143   5.180 -0.0213  0.4731 -0.0105
 7076SOL    HW132687   3.700   1.078   5.110  1.2562  1.7752 -1.0640
 7076SOL    HW232688   3.601   1.170   5.158  0.3286  1.9650  0.3648
 7077SOL     OW32689   2.251   1.016   8.216  0.0210  0.1854 -0.3025
 7077SOL    HW132690   2.319   1.084   8.212  0.9280 -0.7002 -0.0072
 7077SOL    HW232691   2.306   0.948   8.254  1.0629  0.7803 -0.7349
 7078SOL     OW32692   2.499   2.042   0.745  0.2567  0.2775 -0.6042
 7078SOL    HW132693   2.507   2.137   0.734  0.8251  0.3330  0.2364
 7078SOL    HW232694   2.590   2.011   0.742  0.4000  0.7087 -0.7242
 7079SOL     OW32695   4.340   0.744  16.023  0.8062  0.0333  0.2133
 7079SOL    HW132696   4.282   0.800  16.075  0.5421 -0.6061  0.5992
 7079SOL    HW232697   4.358   0.681  16.092  0.6468  0.6316  0.7944
 7080SOL     OW32698   3.119   0.191   4.266 -0.0626 -0.3041 -0.0771
 7080SOL    HW132699   3.194   0.168   4.212 -0.4396 -0.6644 -0.4547
 7080SOL    HW232700   3.053   0.155   4.206  0.5122  2.1667 -2.1686
 7081SOL     OW32701   1.798   1.236   8.640  0.0829 -0.2667  0.0262
 7081SOL    HW132702   1.794   1.140   8.651 -2.2381  0.0066  1.6112
 7081SOL    HW232703   1.886   1.265   8.666  0.2369  0.0036 -0.7928
 7082SOL     OW32704   4.581   0.497   5.490  0.6299  0.3120 -0.2715
 7082SOL    HW132705   4.500   0.445   5.492  0.3862  0.7182  0.2868
 7082SOL    HW232706   4.601   0.487   5.396 -0.3940  2.5343 -0.7219
 7083SOL     OW32707   1.605   2.014   6.457 -0.4158 -0.3312  0.0180
 7083SOL    HW132708   1.557   1.982   6.380 -1.5529  0.0536  0.5604
 7083SOL    HW232709   1.697   2.014   6.433 -0.4612  1.6180 -0.1662
 7084SOL     OW32710   4.600   1.892  12.694 -0.0134  0.1732  0.1481
 7084SOL    HW132711   4.541   1.864  12.624  0.3555 -1.5032  0.4986
 7084SOL    HW232712   4.604   1.987  12.681 -2.9807  0.1582 -0.8478
 7085SOL     OW32713   0.304   4.102   2.730 -0.0146 -0.6881 -0.4321
 7085SOL    HW132714   0.334   4.067   2.646 -0.5147 -1.2966 -0.3541
 7085SOL    HW232715   0.252   4.178   2.703 -0.9637 -1.0244  0.4782
 7086SOL     OW32716   4.456   3.076   5.087 -0.2398  0.5267  0.2415
 7086SOL    HW132717   4.497   3.161   5.074 -1.0908  0.8564 -0.2314
 7086SOL    HW232718   4.386   3.085   5.023  0.0592 -1.5137 -0.3934
 7087SOL     OW32719   1.941   4.197   1.562  0.4720 -0.2357 -0.0371
 7087SOL    HW132720   1.896   4.261   1.618  1.4131 -0.6612  1.1954
 7087SOL    HW232721   1.875   4.128   1.551  0.3674  0.0906 -1.4522
 7088SOL     OW32722   2.164   4.334   8.132 -0.2714 -0.3167  0.4744
 7088SOL    HW132723   2.244   4.386   8.138 -0.6125  0.0183  1.9501
 7088SOL    HW232724   2.104   4.398   8.093  0.6603  0.5114  0.4102
 7089SOL     OW32725   1.851   4.065  16.793 -0.1320 -0.1519 -0.0353
 7089SOL    HW132726   1.885   3.976  16.796 -0.1064 -0.2438 -2.9273
 7089SOL    HW232727   1.907   4.099  16.862 -0.4338  0.6943 -0.2076
 7090SOL     OW32728   4.559   1.499  12.201  0.3424 -0.4176 -0.3820
 7090SOL    HW132729   4.626   1.452  12.151 -0.7378 -1.9671 -0.3902
 7090SOL    HW232730   4.530   1.426  12.257 -1.3878 -1.3662 -2.4824
 7091SOL     OW32731   3.491   2.220   2.836  0.0312 -0.4147  0.4815
 7091SOL    HW132732   3.578   2.199   2.872  0.0897 -0.0743  0.5427
 7091SOL    HW232733   3.434   2.229   2.912 -0.0841  0.4156  0.2915
 7092SOL     OW32734   0.244   2.539  12.988  0.1658 -0.0845 -0.2483
 7092SOL    HW132735   0.299   2.474  13.032 -0.8220 -0.2363  0.7663
 7092SOL    HW232736   0.300   2.569  12.917 -0.5713  1.0569 -0.3393
 7093SOL     OW32737   3.612   4.049   9.767  1.0824  0.1002 -0.2851
 7093SOL    HW132738   3.549   4.001   9.714 -0.4538  0.0437  1.6237
 7093SOL    HW232739   3.624   4.129   9.715  1.3698  0.8481  0.9341
 7094SOL     OW32740   3.863   4.594   2.219  0.0952 -0.0349  0.4166
 7094SOL    HW132741   3.903   4.529   2.276  2.6946  0.0179 -1.3572
 7094SOL    HW232742   3.937   4.654   2.212 -0.4948  0.6556  0.0599
 7095SOL     OW32743   3.498   0.788   1.993  0.7465  0.0593 -1.1032
 7095SOL    HW132744   3.431   0.752   2.050 -0.4324  0.0634 -2.4893
 7095SOL    HW232745   3.455   0.767   1.911 -0.0003 -0.1444 -0.6548
 7096SOL     OW32746   2.497   1.646   6.690 -0.6752  0.1224 -0.2984
 7096SOL    HW132747   2.429   1.685   6.744 -1.5973 -0.7158 -0.8631
 7096SOL    HW232748   2.564   1.624   6.755  0.1122 -0.4327 -1.3067
 7097SOL     OW32749   3.184   2.524  11.496  0.7576 -0.5522 -0.2336
 7097SOL    HW132750   3.208   2.507  11.587 -0.4174  0.5334  0.2728
 7097SOL    HW232751   3.234   2.605  11.489 -0.8982  0.1383 -4.1277
 7098SOL     OW32752   1.046   1.622   7.821 -0.2216  0.6147  0.3645
 7098SOL    HW132753   1.088   1.549   7.866 -3.4315 -0.9172  0.8743
 7098SOL    HW232754   0.969   1.575   7.789  0.7532 -0.7840  0.0857
 7099SOL     OW32755   2.566   3.288  14.420  0.4574 -0.6788  0.0567
 7099SOL    HW132756   2.661   3.302  14.422  0.6068 -1.7293  0.3646
 7099SOL    HW232757   2.537   3.309  14.509  3.0128 -1.0896  0.9962
 7100SOL     OW32758   0.908   2.590   2.733 -0.2270  0.1443  0.2833
 7100SOL    HW132759   0.974   2.643   2.688 -1.5259 -0.4922 -2.3545
 7100SOL    HW232760   0.909   2.641   2.814 -1.6482 -1.8419  1.5269
 7101SOL     OW32761   0.957   2.742  14.227  0.3294  1.3346 -0.5552
 7101SOL    HW132762   0.898   2.773  14.158 -1.0756 -0.3209 -0.0698
 7101SOL    HW232763   0.988   2.657  14.195 -0.3662  1.8412 -2.5771
 7102SOL     OW32764   4.062   3.099   4.251  0.3779 -0.3989  0.3242
 7102SOL    HW132765   4.089   3.010   4.274  3.9073  1.5219  3.6836
 7102SOL    HW232766   3.974   3.106   4.288  0.6231 -0.4170  0.9080
 7103SOL     OW32767   4.578   3.030   1.223  0.1627 -0.1792 -0.4994
 7103SOL    HW132768   4.649   2.997   1.279  0.3126 -0.9551 -1.1469
 7103SOL    HW232769   4.508   2.966   1.234 -0.3198  0.2275 -1.2326
 7104SOL     OW32770   1.277   0.843   8.441  0.6429 -0.3174  0.1501
 7104SOL    HW132771   1.326   0.924   8.453  1.4729 -0.5869 -1.4527
 7104SOL    HW232772   1.193   0.874   8.406  1.4887  0.6526 -0.9822
 7105SOL     OW32773   2.672   2.178   3.716 -0.4344 -0.6499 -0.7678
 7105SOL    HW132774   2.725   2.247   3.756 -0.5468 -1.0977  0.1516
 7105SOL    HW232775   2.659   2.111   3.784 -0.3021 -1.4838 -1.5773
 7106SOL     OW32776   4.679   3.533   1.424  0.0635  0.4325 -0.4110
 7106SOL    HW132777   4.630   3.465   1.378  0.6808  0.3895 -1.0071
 7106SOL    HW232778   4.661   3.603   1.361 -0.9513  0.8315  0.3286
 7107SOL     OW32779   4.551   0.362  11.816 -0.6305  0.1727 -0.4078
 7107SOL    HW132780   4.479   0.398  11.868  1.0632  3.3771 -0.3122
 7107SOL    HW232781   4.599   0.316  11.885  0.5718 -0.0394 -1.3869
 7108SOL     OW32782   2.472   0.078   1.589  0.8295  0.5906  0.0113
 7108SOL    HW132783   2.548   0.119   1.547  0.1186  0.4810 -1.3739
 7108SOL    HW232784   2.420   0.155   1.614 -1.0226 -0.8117  0.4991
 7109SOL     OW32785   2.723   2.869  13.905  0.4660 -0.0708 -0.1093
 7109SOL    HW132786   2.696   2.918  13.827 -2.1456  0.3128  1.0408
 7109SOL    HW232787   2.777   2.796  13.874  0.6632 -0.3164  0.8130
 7110SOL     OW32788   2.442   3.885  17.280  0.3047 -0.3593 -0.4564
 7110SOL    HW132789   2.469   3.810  17.334 -1.9318 -0.4136  0.5960
 7110SOL    HW232790   2.430   3.952  17.347  3.0234 -0.1941 -0.1329
 7111SOL     OW32791   2.062   2.284   2.734 -0.1773 -0.2297  0.5794
 7111SOL    HW132792   2.128   2.230   2.777  1.1680 -0.0956 -1.3334
 7111SOL    HW232793   2.071   2.374   2.765  1.2624 -0.5868  1.1877
 7112SOL     OW32794   2.552   1.883   9.256 -0.3616 -0.0568  0.0369
 7112SOL    HW132795   2.554   1.935   9.175 -2.3426 -0.2761 -0.1458
 7112SOL    HW232796   2.465   1.845   9.251 -0.2506 -0.1614 -1.1556
 7113SOL     OW32797   1.193   0.670   3.769 -0.5242 -0.5461 -0.8272
 7113SOL    HW132798   1.142   0.746   3.739  2.3231  0.4068 -3.2585
 7113SOL    HW232799   1.282   0.696   3.742 -0.5642 -0.2202 -0.6471
 7114SOL     OW32800   1.434   0.110   5.257 -0.1050  0.1367 -0.3639
 7114SOL    HW132801   1.397   0.065   5.181 -1.2003 -1.7319  1.2555
 7114SOL    HW232802   1.430   0.205   5.244  0.9167  0.0585 -1.2262
 7115SOL     OW32803   2.512   1.069   5.998  0.1948  0.6689  0.0504
 7115SOL    HW132804   2.517   1.159   6.032 -1.2858 -0.3945  3.1147
 7115SOL    HW232805   2.597   1.033   6.022  0.4272  0.5890 -0.8890
 7116SOL     OW32806   0.458   3.597   9.066  0.0529 -0.1031  0.0773
 7116SOL    HW132807   0.492   3.607   8.977  0.6457  1.6190  0.5040
 7116SOL    HW232808   0.533   3.615   9.122  0.7070 -0.0168 -0.8391
 7117SOL     OW32809   3.300   3.110   7.259 -0.4775 -0.6600 -0.4717
 7117SOL    HW132810   3.319   3.044   7.192  0.6060  0.7530 -1.5334
 7117SOL    HW232811   3.274   3.185   7.206  0.6494  0.3270  0.4050
 7118SOL     OW32812   0.932   1.614   4.806 -0.1319 -0.7349  0.0144
 7118SOL    HW132813   0.874   1.561   4.751  1.6797 -3.2817  0.5489
 7118SOL    HW232814   1.010   1.558   4.803  1.7152  1.8873 -1.3455
 7119SOL     OW32815   4.414   4.536   1.892  0.2725  0.0731 -0.2296
 7119SOL    HW132816   4.414   4.627   1.861 -0.8795  0.2455  0.2691
 7119SOL    HW232817   4.350   4.500   1.830  0.8438  0.4352 -1.0251
 7120SOL     OW32818   0.859   2.389   5.996 -0.4340 -0.1103 -0.7173
 7120SOL    HW132819   0.860   2.464   5.937  0.4642  0.5184  0.0893
 7120SOL    HW232820   0.953   2.381   6.015 -0.5135  0.1600 -0.2143
 7121SOL     OW32821   2.383   3.548  14.869 -0.0996  0.4249  0.1101
 7121SOL    HW132822   2.293   3.577  14.881 -0.5466 -1.0981  0.4634
 7121SOL    HW232823   2.385   3.478  14.934 -0.6051  2.8889  2.7852
 7122SOL     OW32824   1.439   4.311  12.465 -0.2697 -0.5920 -0.1627
 7122SOL    HW132825   1.420   4.217  12.469  1.5120 -0.8485  2.5166
 7122SOL    HW232826   1.491   4.316  12.385  0.5223 -3.1708  0.1907
 7123SOL     OW32827   0.680   4.140   2.836  0.4518  0.3117  0.2519
 7123SOL    HW132828   0.651   4.147   2.745  0.2756  0.2630  0.3048
 7123SOL    HW232829   0.774   4.153   2.821  0.0825 -0.3696 -2.6125
 7124SOL     OW32830   2.872   1.086   6.056  0.0393 -0.0236  0.1234
 7124SOL    HW132831   2.910   1.013   6.105 -0.0484  0.2095  0.5381
 7124SOL    HW232832   2.840   1.046   5.975 -0.3659  3.7353 -1.5553
 7125SOL     OW32833   1.329   1.195   7.827 -0.3523  0.0534  0.4457
 7125SOL    HW132834   1.345   1.288   7.811 -3.4377  0.6734  0.8556
 7125SOL    HW232835   1.316   1.160   7.739 -1.3291 -0.8647  0.9398
 7126SOL     OW32836   3.101   4.311   8.493  0.3414  0.0580  0.5781
 7126SOL    HW132837   3.188   4.275   8.509  1.0543  0.6730 -2.0749
 7126SOL    HW232838   3.109   4.395   8.539 -0.1858  1.5604 -2.1147
 7127SOL     OW32839   2.854   2.843   3.818  0.0512  0.4887  0.3210
 7127SOL    HW132840   2.784   2.905   3.840 -1.4285 -0.0544 -2.8050
 7127SOL    HW232841   2.925   2.890   3.861  0.2975 -1.7609  2.3889
 7128SOL     OW32842   1.462   4.516   7.331 -0.1058 -0.0612 -0.4459
 7128SOL    HW132843   1.464   4.611   7.348  0.3857 -0.4016  1.4455
 7128SOL    HW232844   1.372   4.508   7.364 -0.4905  0.2624 -1.4315
 7129SOL     OW32845   1.527   4.307   7.177 -0.1201 -0.1469 -0.1808
 7129SOL    HW132846   1.446   4.275   7.217 -0.0827 -0.6815 -0.5384
 7129SOL    HW232847   1.521   4.397   7.209 -0.4188  0.0129 -0.6775
 7130SOL     OW32848   3.203   1.785   4.582  0.1681  0.0195 -0.3202
 7130SOL    HW132849   3.144   1.807   4.510 -0.9757  2.6147  1.4297
 7130SOL    HW232850   3.141   1.739   4.639 -2.0890  2.9986 -0.3667
 7131SOL     OW32851   0.575   1.136  11.055 -0.5757 -0.2877  0.3873
 7131SOL    HW132852   0.541   1.218  11.090  1.5934  0.7151  0.1121
 7131SOL    HW232853   0.495   1.084  11.051 -0.6661 -0.0292 -1.0907
 7132SOL     OW32854   3.296   3.922   7.274  0.3573  0.2926 -0.0771
 7132SOL    HW132855   3.297   3.865   7.351 -0.5778 -0.9919 -1.0229
 7132SOL    HW232856   3.356   3.992   7.300 -1.6262  1.4305  1.4367
 7133SOL     OW32857   1.889   2.071   8.890  0.6550  0.8520 -0.1577
 7133SOL    HW132858   1.947   2.018   8.945 -1.5501  0.1369  1.5074
 7133SOL    HW232859   1.955   2.134   8.862  1.8519 -0.6143 -0.6189
 7134SOL     OW32860   3.459   3.981   6.169 -0.4756 -0.1600 -0.1245
 7134SOL    HW132861   3.535   3.943   6.213  0.2370  0.0515 -1.2032
 7134SOL    HW232862   3.407   3.900   6.167  0.1086 -0.5406  0.3136
 7135SOL     OW32863   1.344   1.323   2.267  0.6622 -0.5912  0.3423
 7135SOL    HW132864   1.279   1.385   2.301  0.3408 -0.9683  0.4228
 7135SOL    HW232865   1.340   1.349   2.175  0.0377  0.7451  0.7406
 7136SOL     OW32866   4.527   2.033   4.399  0.1477  0.1363  0.1740
 7136SOL    HW132867   4.480   2.066   4.322  1.6149  0.7246 -0.4631
 7136SOL    HW232868   4.569   1.949   4.381  2.7075  0.8157  3.0868
 7137SOL     OW32869   2.793   1.889  11.959  0.7012  0.4576  0.3650
 7137SOL    HW132870   2.826   1.977  11.942  1.2397  0.0488 -0.7594
 7137SOL    HW232871   2.847   1.853  12.029  0.7471  0.7697  0.4864
 7138SOL     OW32872   2.387   3.208  10.081  0.1784 -0.2687 -0.1396
 7138SOL    HW132873   2.398   3.113  10.086 -1.0685 -0.4872 -1.3846
 7138SOL    HW232874   2.351   3.227   9.994  0.2279  0.4949  0.0076
 7139SOL     OW32875   0.726   0.150  13.392 -0.4481 -0.1248  0.2648
 7139SOL    HW132876   0.646   0.188  13.357  1.1237  0.8179 -2.3326
 7139SOL    HW232877   0.723   0.192  13.478  0.6069 -1.4915  0.9615
 7140SOL     OW32878   2.455   2.002  14.485  0.1211  0.7577 -0.3505
 7140SOL    HW132879   2.489   1.928  14.537 -0.9175  1.0248  0.7091
 7140SOL    HW232880   2.362   1.982  14.477  0.2245 -0.0768  0.4678
 7141SOL     OW32881   0.119   3.238   3.834 -0.1098 -0.1509  0.6717
 7141SOL    HW132882   0.153   3.328   3.834  1.6791 -0.8119  2.7775
 7141SOL    HW232883   0.045   3.252   3.775 -1.8932  0.8812  3.1736
 7142SOL     OW32884   0.283   0.821   6.654  0.2674 -0.2020 -0.1290
 7142SOL    HW132885   0.324   0.813   6.740  0.0125 -3.6297 -0.3389
 7142SOL    HW232886   0.239   0.905   6.664  1.1945  0.1774  0.7462
 7143SOL     OW32887   4.595   3.084   4.586  0.0522 -0.3390 -0.1473
 7143SOL    HW132888   4.641   3.019   4.532  0.1472  0.7566 -1.3981
 7143SOL    HW232889   4.578   3.039   4.668  0.4067  1.3804  0.8694
 7144SOL     OW32890   0.432   0.872   5.608 -0.0510  0.3895  0.0530
 7144SOL    HW132891   0.360   0.809   5.597  0.3882 -0.2492  0.7827
 7144SOL    HW232892   0.456   0.889   5.517 -1.0288 -0.1088 -0.3043
 7145SOL     OW32893   1.147   2.884   5.314 -0.0764 -0.8323 -0.1841
 7145SOL    HW132894   1.099   2.802   5.308 -0.5640 -0.5320 -0.4142
 7145SOL    HW232895   1.156   2.920   5.226 -0.3676 -0.6832 -0.1521
 7146SOL     OW32896   0.610   0.810   1.166  0.2132 -0.4352 -0.3986
 7146SOL    HW132897   0.578   0.877   1.227 -0.7205 -1.7321  0.5173
 7146SOL    HW232898   0.668   0.763   1.226  1.4723  1.1794 -0.3358
 7147SOL     OW32899   3.940   3.285   6.907 -0.3611  0.0652  0.4333
 7147SOL    HW132900   3.987   3.238   6.838 -0.2640  2.5981 -1.2218
 7147SOL    HW232901   4.008   3.344   6.940  1.4253 -1.8488  0.2037
 7148SOL     OW32902   2.097   2.672  16.866  0.4020  0.3086 -0.8780
 7148SOL    HW132903   2.135   2.677  16.954 -1.1664  0.9165 -0.2443
 7148SOL    HW232904   2.124   2.584  16.838 -0.0313 -0.4658  1.1085
 7149SOL     OW32905   1.971   0.827   8.189 -0.0058 -0.2011  0.1292
 7149SOL    HW132906   1.906   0.769   8.227 -0.9411  1.1872  0.6285
 7149SOL    HW232907   2.002   0.785   8.109  1.5528 -1.9348  1.6549
 7150SOL     OW32908   4.513   1.656  13.474 -0.4558 -0.1120  0.2333
 7150SOL    HW132909   4.487   1.575  13.519  2.0864 -1.8567 -1.4294
 7150SOL    HW232910   4.605   1.656  13.498  0.2125 -1.1844 -2.2732
 7151SOL     OW32911   3.375   0.719   5.464  0.2402  0.6000  0.0972
 7151SOL    HW132912   3.341   0.654   5.402  0.9843 -1.7199  2.1664
 7151SOL    HW232913   3.452   0.737   5.409  1.0193  0.8310  1.2821
 7152SOL     OW32914   1.566   0.901  15.838 -0.1221 -0.5576 -0.9033
 7152SOL    HW132915   1.544   0.860  15.754  0.4682  0.2485 -1.4450
 7152SOL    HW232916   1.488   0.875  15.886 -0.4257 -0.7431 -1.4880
 7153SOL     OW32917   4.582   1.007   8.222  0.1812  0.2789 -0.4200
 7153SOL    HW132918   4.491   0.976   8.228  0.6153 -0.8242  0.5760
 7153SOL    HW232919   4.593   1.057   8.303 -1.6539 -1.4424  0.9284
 7154SOL     OW32920   1.661   4.484   8.510 -0.5390 -0.2854  0.6479
 7154SOL    HW132921   1.615   4.401   8.496  2.2378 -1.4913 -1.4418
 7154SOL    HW232922   1.596   4.545   8.474 -0.5108 -0.9522 -0.5579
 7155SOL     OW32923   0.604   4.134   7.263  0.0206 -0.3183  0.1791
 7155SOL    HW132924   0.579   4.135   7.171 -0.2890 -0.9038  0.2565
 7155SOL    HW232925   0.653   4.215   7.276 -0.7405  0.4388 -1.7974
 7156SOL     OW32926   2.259   3.068   8.595  0.0213  0.0644  0.4235
 7156SOL    HW132927   2.282   3.051   8.504 -2.3409 -0.5110 -0.0771
 7156SOL    HW232928   2.342   3.101   8.629 -1.4305  1.8061  2.2605
 7157SOL     OW32929   3.687   1.240  13.829  0.0027 -0.0433  0.2620
 7157SOL    HW132930   3.657   1.158  13.868  1.9030 -0.0151  1.8026
 7157SOL    HW232931   3.630   1.293  13.886  0.7780 -0.4692  1.4386
 7158SOL     OW32932   1.569   2.935   5.202 -0.1001 -0.1163  0.3297
 7158SOL    HW132933   1.580   2.857   5.148  1.5379  1.2606 -1.3225
 7158SOL    HW232934   1.507   2.906   5.269  0.2034 -0.9636  0.2468
 7159SOL     OW32935   0.855   3.633   8.568  0.1273  0.0890 -0.1909
 7159SOL    HW132936   0.861   3.721   8.532  1.7978  0.2280  0.4213
 7159SOL    HW232937   0.832   3.579   8.492  2.0310 -0.5592 -0.3064
 7160SOL     OW32938   3.003   0.282   1.652 -0.2553 -0.5856 -0.0098
 7160SOL    HW132939   3.040   0.196   1.631  0.2061 -0.6298  0.9777
 7160SOL    HW232940   3.029   0.338   1.579 -0.5768 -1.8515 -1.1024
 7161SOL     OW32941   4.570   0.898   4.117 -0.5432 -0.6127  0.4075
 7161SOL    HW132942   4.562   0.805   4.099 -0.9674 -0.6400  0.7492
 7161SOL    HW232943   4.647   0.914   4.062 -1.5494 -0.6466 -0.9933
 7162SOL     OW32944   1.581   2.020   2.550 -0.0846  0.0851  0.4457
 7162SOL    HW132945   1.611   2.097   2.502 -0.9878 -0.2068 -0.5678
 7162SOL    HW232946   1.544   1.969   2.478 -1.2535  0.1394  1.0116
 7163SOL     OW32947   0.209   2.124   9.695  0.2086  0.2875 -0.0701
 7163SOL    HW132948   0.133   2.158   9.743  0.7572  1.0243  0.2763
 7163SOL    HW232949   0.267   2.123   9.771  0.1124  0.0385  0.0010
 7164SOL     OW32950   1.314   3.843   1.813  0.6250 -0.5117 -0.2784
 7164SOL    HW132951   1.339   3.753   1.792  5.7257  0.1175  3.1320
 7164SOL    HW232952   1.273   3.833   1.899  2.1369  0.0916  0.5150
 7165SOL     OW32953   3.794   3.265   8.714 -0.1375 -0.0503  0.1525
 7165SOL    HW132954   3.744   3.188   8.686 -1.3990  1.1684 -0.8808
 7165SOL    HW232955   3.879   3.234   8.684 -0.3743  0.7349 -1.3026
 7166SOL     OW32956   0.129   2.033   7.363 -0.3358 -0.2933  0.3279
 7166SOL    HW132957   0.114   1.991   7.278  3.7153 -2.5561  0.6802
 7166SOL    HW232958   0.070   2.107   7.357  0.8272  0.6749  0.8926
 7167SOL     OW32959   1.508   4.425  17.393  0.0541 -0.0908 -0.6325
 7167SOL    HW132960   1.467   4.507  17.423 -1.0521 -1.0631  0.5713
 7167SOL    HW232961   1.477   4.423  17.303  1.1475  0.5458 -1.0193
 7168SOL     OW32962   1.855   4.565   4.560  0.1929 -1.0446 -0.3963
 7168SOL    HW132963   1.885   4.533   4.645 -0.9541 -1.4445 -0.1453
 7168SOL    HW232964   1.764   4.537   4.556  0.3490 -1.9786  2.7442
 7169SOL     OW32965   1.953   0.022   2.574 -0.1923 -0.2174  0.3451
 7169SOL    HW132966   1.961   4.651   2.545  0.1162 -0.0464 -0.1048
 7169SOL    HW232967   2.041   0.027   2.611 -0.5965  0.3276  1.2235
 7170SOL     OW32968   2.230   2.943   3.115 -0.0507 -0.1908  0.6319
 7170SOL    HW132969   2.299   2.980   3.061 -0.9037 -0.0981 -0.3913
 7170SOL    HW232970   2.253   2.992   3.194  1.7877  1.6585 -1.0644
 7171SOL     OW32971   0.299   1.125   4.794  0.3923  0.1900  0.0972
 7171SOL    HW132972   0.282   1.037   4.826  0.1424  0.5411  0.9207
 7171SOL    HW232973   0.395   1.122   4.795  0.4199  2.1613  2.0952
 7172SOL     OW32974   1.579   4.484   4.475  0.1153  0.5313 -0.3499
 7172SOL    HW132975   1.496   4.529   4.493  0.2710  0.8164 -0.3407
 7172SOL    HW232976   1.560   4.393   4.499  0.0508  0.8473  0.8029
 7173SOL     OW32977   0.835   2.423   3.940 -0.0851  0.1718 -0.8718
 7173SOL    HW132978   0.762   2.401   3.881  0.9355 -1.2101 -1.6100
 7173SOL    HW232979   0.856   2.515   3.923  3.0770 -0.1454  1.3989
 7174SOL     OW32980   0.605   2.814   5.933  0.7083  0.1019 -0.0684
 7174SOL    HW132981   0.552   2.800   6.012  0.0683 -0.7133 -0.6394
 7174SOL    HW232982   0.693   2.788   5.959 -0.1825  0.1764  3.0130
 7175SOL     OW32983   1.317   4.263   1.551 -0.0098  0.0868 -0.1048
 7175SOL    HW132984   1.377   4.224   1.487 -0.0531 -1.3095  0.7022
 7175SOL    HW232985   1.303   4.194   1.616  1.2676  0.8361  0.9588
 7176SOL     OW32986   1.766   3.875  16.023 -0.2746 -0.0295 -0.1129
 7176SOL    HW132987   1.743   3.788  15.991  0.2875 -0.8262  1.6250
 7176SOL    HW232988   1.774   3.859  16.117  0.2618  0.0721 -0.1407
 7177SOL     OW32989   2.598   2.879   6.910 -0.0733 -0.3732  0.2323
 7177SOL    HW132990   2.545   2.886   6.831 -1.3790 -0.0769  1.1440
 7177SOL    HW232991   2.684   2.844   6.884 -0.3898 -1.7312  0.9683
 7178SOL     OW32992   2.798   3.392   6.501  0.1149  0.5731  0.1564
 7178SOL    HW132993   2.760   3.322   6.448  0.1646  0.1313  0.7036
 7178SOL    HW232994   2.765   3.366   6.587  0.7220  1.3635  0.6249
 7179SOL     OW32995   1.336   0.081   3.993  0.0823  0.3344  0.6054
 7179SOL    HW132996   1.319   0.175   3.996  1.2112  0.5603 -0.0382
 7179SOL    HW232997   1.273   0.055   4.060 -0.7276 -1.7107 -0.9532
 7180SOL     OW32998   0.357   0.656   8.631  0.3904  0.4282 -0.7329
 7180SOL    HW132999   0.333   0.643   8.539 -0.4599  0.4607 -0.5200
 7180SOL    HW233000   0.352   0.752   8.632 -4.0183  0.1970  4.4073
 7181SOL     OW33001   2.300   1.087   9.965 -0.3200  0.3535 -0.0169
 7181SOL    HW133002   2.310   1.106   9.872 -0.3337  0.4192 -0.0046
 7181SOL    HW233003   2.351   1.006   9.975 -1.3099 -0.1646  0.8360
 7182SOL     OW33004   0.640   1.940   3.444 -0.2967  0.1955  0.0393
 7182SOL    HW133005   0.645   1.934   3.540 -1.8466 -2.7097 -0.0471
 7182SOL    HW233006   0.732   1.958   3.428  0.1846 -2.2476  0.0837
 7183SOL     OW33007   0.523   0.999   1.411  0.6399 -0.4200 -0.2557
 7183SOL    HW133008   0.474   1.065   1.460  0.1522 -1.7570  1.0368
 7183SOL    HW233009   0.613   1.024   1.431  0.0562  1.5509 -0.0974
 7184SOL     OW33010   0.048   3.951  16.605  0.0347 -0.0628  0.2203
 7184SOL    HW133011   0.001   3.992  16.678 -0.2165  2.0392 -1.1171
 7184SOL    HW233012   0.033   4.021  16.542  0.6195  0.8757  1.1140
 7185SOL     OW33013   4.103   2.813   4.277  0.3007  0.3350  0.0237
 7185SOL    HW133014   4.179   2.785   4.226  0.6442  0.7256  0.3173
 7185SOL    HW233015   4.094   2.736   4.332  1.6193 -1.2985 -2.0546
 7186SOL     OW33016   4.339   0.335   5.457  0.3423 -0.0754  0.0937
 7186SOL    HW133017   4.244   0.341   5.443  0.1984 -1.4150  0.4981
 7186SOL    HW233018   4.357   0.253   5.409 -0.8427  0.7803 -1.8222
 7187SOL     OW33019   4.061   2.334   1.601 -0.3635  0.6261 -0.3852
 7187SOL    HW133020   3.993   2.390   1.563 -0.0205  0.8349 -0.6930
 7187SOL    HW233021   4.013   2.261   1.640  1.7402  0.0245  1.0682
 7188SOL     OW33022   4.465   4.488   8.518  0.1380  0.0132 -0.6175
 7188SOL    HW133023   4.376   4.476   8.553  0.4210 -0.3707 -0.0393
 7188SOL    HW233024   4.459   4.577   8.484  0.7943 -0.0788 -0.9681
 7189SOL     OW33025   0.351   3.675   3.635 -0.0746  0.0990  0.4786
 7189SOL    HW133026   0.386   3.628   3.710  1.9298 -0.7305 -0.9600
 7189SOL    HW233027   0.311   3.608   3.579 -0.7210  0.9928 -0.1336
 7190SOL     OW33028   1.463   2.753   8.286  0.5896  0.4528 -0.4350
 7190SOL    HW133029   1.392   2.813   8.311 -1.4319 -1.4760 -1.4882
 7190SOL    HW233030   1.433   2.745   8.195 -1.1752 -1.3803  0.2872
 7191SOL     OW33031   2.781   2.606   2.839 -0.1569  0.4436  0.0161
 7191SOL    HW133032   2.839   2.549   2.890 -0.1062  1.9235  1.6112
 7191SOL    HW233033   2.837   2.682   2.825 -0.8933  0.7981 -0.9443
 7192SOL     OW33034   3.985   3.352   4.978  0.0621  0.1683 -0.9576
 7192SOL    HW133035   3.953   3.335   5.067 -3.2023  0.5692 -2.0476
 7192SOL    HW233036   4.060   3.410   4.987  0.5280 -1.1261  3.7758
 7193SOL     OW33037   3.657   2.112  11.379  0.2677 -0.2763 -0.8394
 7193SOL    HW133038   3.675   2.056  11.454 -0.2487 -0.1270 -0.6012
 7193SOL    HW233039   3.727   2.106  11.314 -0.0707  0.4725 -1.2702
 7194SOL     OW33040   3.929   2.248  14.109  0.5954 -0.5602 -0.3109
 7194SOL    HW133041   3.869   2.273  14.180 -0.4625 -1.3264 -0.9183
 7194SOL    HW233042   3.860   2.251  14.042 -0.0096 -1.0622  0.2912
 7195SOL     OW33043   0.425   1.505  10.845 -0.5370 -0.2804 -0.0103
 7195SOL    HW133044   0.467   1.498  10.931 -1.3566  3.2564  0.6705
 7195SOL    HW233045   0.396   1.596  10.855  0.5278 -0.1269  1.7634
 7196SOL     OW33046   2.616   0.352  13.073  0.7126 -0.3030 -0.3680
 7196SOL    HW133047   2.568   0.292  13.130  0.2853  0.5686  0.1753
 7196SOL    HW233048   2.703   0.354  13.113  0.5299 -0.0501  0.0064
 7197SOL     OW33049   3.235   1.796   2.996 -0.1300 -0.4305  0.2368
 7197SOL    HW133050   3.242   1.806   2.901  2.7837 -1.9381  0.2917
 7197SOL    HW233051   3.140   1.795   3.009  0.0593  0.5270  1.7053
 7198SOL     OW33052   0.266   2.514   8.497 -0.0797 -0.2774 -0.8206
 7198SOL    HW133053   0.229   2.579   8.557  0.0855 -1.2740  0.3805
 7198SOL    HW233054   0.358   2.520   8.525 -0.8924 -0.8238  2.0053
 7199SOL     OW33055   3.091   3.229   2.980 -0.1249 -0.0960  0.4620
 7199SOL    HW133056   3.187   3.236   2.971 -0.0568  0.8914  1.9923
 7199SOL    HW233057   3.060   3.225   2.889  0.1837  0.3977  0.3303
 7200SOL     OW33058   1.498   4.028   5.396  0.5771 -0.3788 -0.1577
 7200SOL    HW133059   1.564   3.980   5.447 -1.5043 -0.9372  1.9797
 7200SOL    HW233060   1.445   3.957   5.360  0.1240 -0.4656  0.6760
 7201SOL     OW33061   2.930   4.174   2.807 -0.0037  0.0189  0.5521
 7201SOL    HW133062   2.959   4.228   2.880 -2.8027  1.7327  0.4095
 7201SOL    HW233063   2.987   4.097   2.808 -0.6562 -0.4169  3.6033
 7202SOL     OW33064   3.084   0.890   7.073  0.2307 -0.2998 -0.1503
 7202SOL    HW133065   3.017   0.942   7.118  2.8645  1.6740  1.4651
 7202SOL    HW233066   3.036   0.822   7.025 -0.2395 -1.5228  2.0695
 7203SOL     OW33067   1.351   4.678  14.511  0.5966 -0.5312 -0.0364
 7203SOL    HW133068   1.330   4.585  14.513 -0.2265 -0.3846 -2.0144
 7203SOL    HW233069   1.385   4.683  14.600 -0.2830  2.0845  0.1506
 7204SOL     OW33070   1.371   3.973   6.184  0.3314  0.4750  0.0875
 7204SOL    HW133071   1.328   4.028   6.250 -3.2250 -0.7265 -1.2542
 7204SOL    HW233072   1.332   4.003   6.102  0.2451  1.1545  0.3771
 7205SOL     OW33073   2.797   2.786  13.601  1.3765 -0.3026  0.2185
 7205SOL    HW133074   2.708   2.779  13.566  1.8085  2.1244 -1.3593
 7205SOL    HW233075   2.806   2.881  13.596 -2.1808 -0.0518 -1.2067
 7206SOL     OW33076   4.318   2.191   4.542 -0.1649 -0.1190  0.7258
 7206SOL    HW133077   4.357   2.111   4.509 -0.7942 -0.0915 -0.0872
 7206SOL    HW233078   4.318   2.245   4.462 -0.2825 -0.1889  0.6776
 7207SOL     OW33079   3.970   0.938   7.334  0.4704 -0.0753  0.2681
 7207SOL    HW133080   4.065   0.945   7.322  0.1336 -2.2124 -3.5882
 7207SOL    HW233081   3.949   1.030   7.315  0.7995 -0.0824 -0.1332
 7208SOL     OW33082   3.976   1.362   5.488 -0.0483 -0.0279 -0.2450
 7208SOL    HW133083   3.972   1.441   5.542 -2.9946 -1.3195  1.4245
 7208SOL    HW233084   3.910   1.379   5.420 -1.3110  0.7556  1.1659
 7209SOL     OW33085   0.826   2.594  15.719  0.5253  0.3998 -0.4846
 7209SOL    HW133086   0.874   2.658  15.772  1.4571 -0.7642  0.0798
 7209SOL    HW233087   0.859   2.511  15.754  0.3552 -0.1831 -1.7351
 7210SOL     OW33088   3.983   1.076   1.476  0.1053 -0.0127  0.6337
 7210SOL    HW133089   3.927   1.029   1.414 -0.6248  1.7627 -0.0734
 7210SOL    HW233090   3.978   1.011   1.545  1.2364  1.1152  1.7840
 7211SOL     OW33091   1.917   3.873   7.752  0.4193  0.3082  0.2098
 7211SOL    HW133092   1.901   3.847   7.661  1.3494 -1.4864  0.5492
 7211SOL    HW233093   1.889   3.964   7.743 -1.1626 -0.1910  0.2081
 7212SOL     OW33094   0.212   1.628  15.608 -0.0495 -0.0188 -0.0073
 7212SOL    HW133095   0.119   1.651  15.608 -0.1847 -0.5364 -1.5587
 7212SOL    HW233096   0.247   1.687  15.541  1.2510  0.9763  1.5855
 7213SOL     OW33097   4.187   2.136   5.627 -0.0355 -0.7388  0.0459
 7213SOL    HW133098   4.189   2.076   5.701 -0.6232 -0.9855 -0.1382
 7213SOL    HW233099   4.245   2.093   5.564 -0.8416 -0.6802 -0.7491
 7214SOL     OW33100   1.955   3.584   5.287 -0.3093 -0.2063  0.2149
 7214SOL    HW133101   1.989   3.566   5.199  0.7040 -0.5553  0.6834
 7214SOL    HW233102   1.927   3.503   5.330  4.4472 -1.8813  0.1756
 7215SOL     OW33103   0.766   1.975  16.066  0.2264  0.3696 -0.3521
 7215SOL    HW133104   0.684   1.927  16.051  0.9472 -0.6167 -1.1564
 7215SOL    HW233105   0.824   1.902  16.088 -0.2082 -0.1647 -0.9618
 7216SOL     OW33106   0.902   2.799  13.427  0.6479  0.2301  0.0894
 7216SOL    HW133107   0.834   2.855  13.464 -1.0268 -1.3742 -0.5700
 7216SOL    HW233108   0.982   2.846  13.452  0.4187  1.3158 -1.2168
 7217SOL     OW33109   0.286   4.102  13.387  0.1467  0.1243 -0.2968
 7217SOL    HW133110   0.347   4.084  13.458  0.1185  1.8119  0.1452
 7217SOL    HW233111   0.348   4.109  13.314  2.2805  2.5904  1.7895
 7218SOL     OW33112   1.258   1.977   6.491  0.2177  0.1936 -0.6515
 7218SOL    HW133113   1.279   2.044   6.427 -1.0745 -0.3000 -1.5895
 7218SOL    HW233114   1.169   1.951   6.465 -0.1163 -0.7136  1.3798
 7219SOL     OW33115   0.135   4.515   0.269  0.3307 -0.4693 -0.0410
 7219SOL    HW133116   0.157   4.607   0.283 -2.3389  0.3571 -1.3113
 7219SOL    HW233117   0.040   4.520   0.260  0.3072  2.5616  1.9404
 7220SOL     OW33118   1.600   3.552   5.748 -0.6367 -0.5109  0.2714
 7220SOL    HW133119   1.546   3.626   5.777 -0.6236 -0.7508  0.9132
 7220SOL    HW233120   1.582   3.487   5.816 -0.1258  0.8601  1.7185
 7221SOL     OW33121   2.610   4.436   6.092 -0.0027  0.2439  0.4341
 7221SOL    HW133122   2.635   4.520   6.056 -0.1209 -0.3409 -1.0021
 7221SOL    HW233123   2.516   4.447   6.108 -0.0948 -0.1814  0.1997
 7222SOL     OW33124   2.981   2.048   6.081 -0.5192 -0.5251  0.0183
 7222SOL    HW133125   2.950   2.039   6.171 -0.5158 -2.0147 -0.1246
 7222SOL    HW233126   2.913   2.100   6.039  0.1786 -1.9021 -2.8094
 7223SOL     OW33127   0.130   0.571   5.122  0.1389 -0.0941  0.2436
 7223SOL    HW133128   0.226   0.576   5.117  0.2264  0.7817  2.8331
 7223SOL    HW233129   0.120   0.494   5.065  1.5005  0.7678 -1.1562
 7224SOL     OW33130   4.191   2.597  14.619 -0.0287  0.2611  0.2155
 7224SOL    HW133131   4.125   2.625  14.555 -2.1749 -2.8095  1.0739
 7224SOL    HW233132   4.138   2.550  14.683  0.5622 -1.3102 -0.4426
 7225SOL     OW33133   1.176   3.867  11.602  0.2261 -0.1096  0.2397
 7225SOL    HW133134   1.081   3.878  11.606 -0.0286 -1.9437 -0.4333
 7225SOL    HW233135   1.181   3.811  11.680  0.1793 -1.2826 -0.5850
 7226SOL     OW33136   4.194   1.593   3.093  0.1138 -0.1759  0.1267
 7226SOL    HW133137   4.244   1.537   3.033  0.5400  0.0964  0.2340
 7226SOL    HW233138   4.263   1.631   3.147  1.6204 -0.2204 -1.8025
 7227SOL     OW33139   2.963   3.035   9.923 -0.4172  0.4702 -0.2649
 7227SOL    HW133140   3.054   3.063   9.936  0.1528 -1.7623  0.5837
 7227SOL    HW233141   2.975   2.945   9.953 -0.7518  0.4775 -0.1121
 7228SOL     OW33142   3.473   4.654  11.311  0.0120 -0.2546 -0.2641
 7228SOL    HW133143   3.555   4.703  11.314 -1.0830  1.6029 -0.7357
 7228SOL    HW233144   3.409   0.003  11.327 -0.7101 -1.2359  1.0211
 7229SOL     OW33145   0.577   3.034  14.700  0.5567  0.1608 -0.4420
 7229SOL    HW133146   0.605   3.010  14.612 -1.6878 -3.2540 -0.2599
 7229SOL    HW233147   0.593   2.945  14.733  0.7642  1.0071  1.7414
 7230SOL     OW33148   0.958   3.448   3.290 -0.1086  0.3831  0.3811
 7230SOL    HW133149   0.999   3.366   3.319 -1.8365 -0.9916 -1.0430
 7230SOL    HW233150   0.944   3.491   3.375  0.1402  0.1706  0.5285
 7231SOL     OW33151   2.226   1.252  11.161  0.2774  0.3347 -0.1552
 7231SOL    HW133152   2.310   1.298  11.160  0.6412 -0.2899  0.9664
 7231SOL    HW233153   2.187   1.326  11.207  1.5900 -1.5214  3.9622
 7232SOL     OW33154   1.767   0.627   3.769  0.1017 -0.0072 -0.0195
 7232SOL    HW133155   1.831   0.695   3.747  0.5890 -0.8423 -1.2088
 7232SOL    HW233156   1.696   0.675   3.811 -0.7269 -0.9258 -0.3716
 7233SOL     OW33157   2.365   0.415  11.142  0.1721  0.6985 -0.2466
 7233SOL    HW133158   2.283   0.456  11.170 -0.6950 -0.6060 -0.8572
 7233SOL    HW233159   2.417   0.495  11.134  0.2597  0.6584 -0.0822
 7234SOL     OW33160   2.278   0.613  11.766 -0.0280  0.5021 -0.4410
 7234SOL    HW133161   2.250   0.701  11.739 -1.2904  0.1412 -0.3355
 7234SOL    HW233162   2.196   0.566  11.750  0.1103 -0.5158  1.7937
 7235SOL     OW33163   2.945   3.070   8.269  0.1184  0.6427  0.0215
 7235SOL    HW133164   3.029   3.050   8.311 -1.0558 -0.1505  1.9749
 7235SOL    HW233165   2.930   3.155   8.310  1.5213  0.2794  1.3205
 7236SOL     OW33166   2.788   3.246   3.580 -0.5691 -0.6621  0.2757
 7236SOL    HW133167   2.756   3.330   3.547 -0.5712 -0.0928  1.7271
 7236SOL    HW233168   2.732   3.222   3.654  1.3193 -0.4437  1.7723
 7237SOL     OW33169   4.528   1.202  12.223 -0.0696  0.7243 -0.7711
 7237SOL    HW133170   4.569   1.168  12.143  2.6395 -0.7399  1.2501
 7237SOL    HW233171   4.461   1.136  12.242  1.1067 -0.6159 -1.2355
 7238SOL     OW33172   0.947   3.276  11.165  0.4659 -0.5573 -0.5768
 7238SOL    HW133173   0.882   3.295  11.232  2.1326 -1.5136  1.3122
 7238SOL    HW233174   0.901   3.288  11.082 -0.9174  2.3266  0.6164
 7239SOL     OW33175   3.106   4.125   6.318  0.1568  0.4766  0.8122
 7239SOL    HW133176   3.158   4.196   6.279 -1.5140  1.0712 -0.2999
 7239SOL    HW233177   3.155   4.090   6.393 -0.8911  0.4234  1.4756
 7240SOL     OW33178   0.909   4.118   6.983 -0.5371 -0.0019  0.1792
 7240SOL    HW133179   0.895   4.178   7.057  0.7701  1.2326 -0.5781
 7240SOL    HW233180   0.876   4.170   6.909 -2.6552 -3.4859 -1.3096
 7241SOL     OW33181   1.410   2.951   3.281 -0.3932  0.2293 -0.0083
 7241SOL    HW133182   1.434   2.859   3.273 -0.0363  0.2488  0.7750
 7241SOL    HW233183   1.498   2.987   3.274 -1.0062  1.4927 -1.1105
 7242SOL     OW33184   2.858   0.016  10.453  0.1534  0.1779 -0.4204
 7242SOL    HW133185   2.835   0.100  10.493 -0.3943  1.5054 -3.4576
 7242SOL    HW233186   2.803   4.682  10.509  0.4930  1.5790  1.2494
 7243SOL     OW33187   0.706   2.506  16.759 -0.5539 -0.3612 -0.4071
 7243SOL    HW133188   0.656   2.512  16.840  1.8175 -0.4798  1.0652
 7243SOL    HW233189   0.673   2.429  16.713 -1.4460 -0.0160 -0.3404
 7244SOL     OW33190   0.756   3.388   0.939  0.2596 -0.0891  0.4660
 7244SOL    HW133191   0.728   3.425   0.855  0.5814 -0.2382  0.2918
 7244SOL    HW233192   0.781   3.304   0.900  0.2362 -0.3512  1.0155
 7245SOL     OW33193   3.762   1.016   5.959  0.1201  0.0131  0.6086
 7245SOL    HW133194   3.836   0.957   5.975 -0.9244 -1.5867 -0.3836
 7245SOL    HW233195   3.731   0.976   5.878 -0.2619  1.9308 -0.1916
 7246SOL     OW33196   3.911   1.928   5.309  0.4149 -0.4072  0.1841
 7246SOL    HW133197   3.909   2.022   5.290  0.0598 -1.0523 -3.0085
 7246SOL    HW233198   3.943   1.886   5.230 -1.5261  0.6348 -1.1780
 7247SOL     OW33199   4.103   3.417   2.093  0.3562 -0.0609  0.0479
 7247SOL    HW133200   4.126   3.450   2.180  0.8890  1.8091 -0.7965
 7247SOL    HW233201   4.013   3.384   2.092  0.3603 -0.0624 -0.1854
 7248SOL     OW33202   1.848   1.825   3.997  0.1189  0.2741  0.2615
 7248SOL    HW133203   1.782   1.895   4.000 -0.5666 -0.3683  0.0305
 7248SOL    HW233204   1.875   1.823   4.089  0.5587  0.3758  0.1339
 7249SOL     OW33205   3.065   1.869  12.097  0.5091 -0.4636  0.3608
 7249SOL    HW133206   3.083   1.840  12.008 -1.1268  4.1615 -1.4480
 7249SOL    HW233207   3.066   1.962  12.073  3.0285 -0.7282 -0.5703
 7250SOL     OW33208   0.872   2.344  11.703  0.1366 -0.2218  0.0220
 7250SOL    HW133209   0.877   2.438  11.685 -1.1774 -0.0608  0.5061
 7250SOL    HW233210   0.885   2.312  11.613 -0.2376  1.9499 -0.8126
 7251SOL     OW33211   0.030   2.413   9.461 -0.2506  0.2458  1.2234
 7251SOL    HW133212   0.007   2.490   9.410  2.9383 -0.4608 -1.2700
 7251SOL    HW233213   0.062   2.456   9.540  0.9633  0.6755  0.4939
 7252SOL     OW33214   0.318   3.891   8.060 -0.2006 -0.1207  0.0113
 7252SOL    HW133215   0.228   3.902   8.030 -0.8665 -1.3210  1.5250
 7252SOL    HW233216   0.317   3.956   8.130 -1.8040  1.8904 -1.8622
 7253SOL     OW33217   0.125   4.222   4.866  0.0677 -0.2719  0.4000
 7253SOL    HW133218   0.073   4.299   4.841 -0.8442 -1.2534 -0.7160
 7253SOL    HW233219   0.107   4.227   4.960 -0.5959 -0.8487  0.3031
 7254SOL     OW33220   0.145   4.640   1.187 -0.3487  0.4407 -0.3997
 7254SOL    HW133221   0.116   4.629   1.096 -1.4272 -1.1606  0.1450
 7254SOL    HW233222   0.171   4.551   1.213  2.1261  1.4005  0.4455
 7255SOL     OW33223   4.455   2.535  11.456  0.1748  0.4207 -0.0335
 7255SOL    HW133224   4.473   2.574  11.541 -0.7685  0.4807  0.1378
 7255SOL    HW233225   4.371   2.491  11.473 -0.4215  1.2443 -0.8787
 7256SOL     OW33226   3.209   2.261  13.948 -0.2404 -0.4076  0.4334
 7256SOL    HW133227   3.166   2.324  14.005  0.4385  1.6612 -1.3316
 7256SOL    HW233228   3.140   2.242  13.884  0.7893 -1.0820 -0.4713
 7257SOL     OW33229   1.805   2.922   8.559  0.4394  0.5091 -0.0123
 7257SOL    HW133230   1.783   2.860   8.490 -0.7093 -0.7532  1.4744
 7257SOL    HW233231   1.730   2.908   8.618 -0.3263 -0.5568 -1.2258
 7258SOL     OW33232   2.764   2.585   7.957  0.1695  0.1648  0.3400
 7258SOL    HW133233   2.683   2.545   7.989 -0.8036  1.5422 -0.3742
 7258SOL    HW233234   2.824   2.547   8.021 -0.4038 -1.6184 -0.1832
 7259SOL     OW33235   1.744   0.036  11.125  0.3872  0.0435 -0.3364
 7259SOL    HW133236   1.676   0.072  11.182  1.0524 -0.2752  0.6672
 7259SOL    HW233237   1.677   4.704  11.082  0.9107  0.6698 -1.9176
 7260SOL     OW33238   3.783   3.552   5.245  0.4353  0.0301 -0.0452
 7260SOL    HW133239   3.690   3.568   5.231  0.9026  4.7557  2.1069
 7260SOL    HW233240   3.787   3.456   5.245 -1.1766 -0.0287 -0.5230
 7261SOL     OW33241   3.420   2.914  11.737  0.1769  0.1826 -0.2598
 7261SOL    HW133242   3.497   2.891  11.789 -0.2654  0.1677  0.3869
 7261SOL    HW233243   3.464   2.992  11.701  2.2442 -1.1378 -0.6117
 7262SOL     OW33244   3.610   2.973   5.634 -0.1621  0.5745  0.0471
 7262SOL    HW133245   3.688   2.929   5.601 -0.7547 -0.1773 -0.3389
 7262SOL    HW233246   3.612   2.938   5.723 -2.1596  3.5800  1.2496
 7263SOL     OW33247   1.479   3.516  13.183 -0.1784  0.2656 -0.0363
 7263SOL    HW133248   1.555   3.574  13.185 -1.3266  1.8613 -1.7501
 7263SOL    HW233249   1.462   3.511  13.089  0.6132  0.2210 -0.1786
 7264SOL     OW33250   2.002   1.146  11.009  0.2000 -0.4459  0.0655
 7264SOL    HW133251   2.089   1.167  11.042  0.0594 -1.2703  0.9834
 7264SOL    HW233252   1.997   1.209  10.938 -0.8746  1.0067  1.4414
 7265SOL     OW33253   3.085   2.602   5.175  0.0581  0.9058 -0.1229
 7265SOL    HW133254   3.147   2.675   5.161  1.4271  0.0414  1.4166
 7265SOL    HW233255   3.049   2.598   5.086  2.8974 -3.1941 -1.1021
 7266SOL     OW33256   1.091   1.091   8.507 -0.6792 -0.4300  0.0938
 7266SOL    HW133257   1.052   1.014   8.465  0.0489 -0.0844 -1.1995
 7266SOL    HW233258   1.052   1.088   8.594 -2.2500 -3.0509 -0.6975
 7267SOL     OW33259   1.399   3.796  15.730  0.5751 -0.1626  0.6949
 7267SOL    HW133260   1.366   3.804  15.820 -0.3353  0.7689  0.2773
 7267SOL    HW233261   1.327   3.847  15.693  1.2694  0.0663 -0.3436
 7268SOL     OW33262   0.861   1.894   9.699 -1.0225 -0.2164  0.2534
 7268SOL    HW133263   0.931   1.830   9.709  0.5513  0.9899 -2.9323
 7268SOL    HW233264   0.827   1.863   9.615  1.4577  4.4290 -2.4617
 7269SOL     OW33265   2.665   0.623  15.716  0.1703  0.5785 -0.7506
 7269SOL    HW133266   2.624   0.550  15.761 -3.0479  1.3721 -2.3969
 7269SOL    HW233267   2.592   0.685  15.709 -1.1660 -1.2902 -3.3508
 7270SOL     OW33268   1.958   1.405   2.551  0.0616  0.3144  0.1537
 7270SOL    HW133269   1.883   1.345   2.559  0.4593  0.0272  1.7450
 7270SOL    HW233270   2.023   1.350   2.508  1.4402 -0.2236  2.9353
 7271SOL     OW33271   2.347   1.346   4.424  0.7874  0.0734 -0.0408
 7271SOL    HW133272   2.379   1.391   4.346  0.6808  1.4105  0.6827
 7271SOL    HW233273   2.294   1.410   4.472  1.4915  1.3693 -1.0182
 7272SOL     OW33274   3.720   1.140  10.560  0.6300 -0.2438  0.2556
 7272SOL    HW133275   3.732   1.127  10.654 -0.1417 -0.0533  0.3785
 7272SOL    HW233276   3.709   1.235  10.557  1.1512 -0.1166  2.6581
 7273SOL     OW33277   2.653   0.404  12.790 -0.1147  0.2713 -0.1648
 7273SOL    HW133278   2.637   0.432  12.880  0.6892  0.2049 -0.0074
 7273SOL    HW233279   2.582   0.342  12.773 -1.4626  1.4603  0.9700
 7274SOL     OW33280   3.962   2.171  12.124  0.8357 -0.0598 -0.3524
 7274SOL    HW133281   3.927   2.123  12.199 -0.8605  1.4315 -0.1871
 7274SOL    HW233282   3.899   2.243  12.125  0.8722 -0.0648  1.5310
 7275SOL     OW33283   2.328   2.072  12.846 -0.3118 -0.0175 -0.5829
 7275SOL    HW133284   2.267   2.126  12.796  0.4917  0.9551 -0.5221
 7275SOL    HW233285   2.270   2.002  12.874 -0.0724 -0.6448 -1.6485
 7276SOL     OW33286   4.589   0.844   3.136 -0.0066  0.0876 -0.0626
 7276SOL    HW133287   4.510   0.795   3.158 -1.0544  1.1275 -1.5127
 7276SOL    HW233288   4.614   0.876   3.222 -0.6744  0.7159 -0.1007
 7277SOL     OW33289   1.517   2.079   0.558 -0.0215  0.6976 -0.2926
 7277SOL    HW133290   1.610   2.066   0.574  0.1147  0.8487 -0.9830
 7277SOL    HW233291   1.499   2.072   0.465  1.5620 -3.1414 -0.2971
 7278SOL     OW33292   2.941   2.918  14.104  0.2314 -0.1464  0.0775
 7278SOL    HW133293   2.965   2.890  14.015 -0.4850 -0.6018  0.0330
 7278SOL    HW233294   2.856   2.961  14.095  0.9367  1.1396 -0.6035
 7279SOL     OW33295   2.843   0.307  12.311 -0.0994  0.1825 -0.4498
 7279SOL    HW133296   2.777   0.311  12.242 -1.0344  3.8069  0.6570
 7279SOL    HW233297   2.787   0.337  12.382  1.3586 -2.3673  1.7907
 7280SOL     OW33298   2.133   4.479  15.867 -0.6114  0.8123 -0.4747
 7280SOL    HW133299   2.043   4.488  15.898 -0.2563  0.6758  0.5902
 7280SOL    HW233300   2.133   4.410  15.801  1.1233  0.9778 -0.6596
 7281SOL     OW33301   3.385   3.647   8.637  0.5405  0.6471 -0.0705
 7281SOL    HW133302   3.387   3.650   8.732  0.5154  2.7347 -0.1551
 7281SOL    HW233303   3.329   3.575   8.604  0.1162 -0.9054  4.0400
 7282SOL     OW33304   4.284   4.431   5.497  0.0531  0.1887  0.3402
 7282SOL    HW133305   4.292   4.358   5.436  2.6417  1.1367 -0.4723
 7282SOL    HW233306   4.192   4.432   5.522 -0.1580  3.0762 -0.5857
 7283SOL     OW33307   1.275   0.456  12.793  0.1778 -0.0691 -0.4919
 7283SOL    HW133308   1.191   0.500  12.784  2.3497  4.5015  1.3104
 7283SOL    HW233309   1.261   0.372  12.750 -0.6347 -1.1969  1.9259
 7284SOL     OW33310   4.133   4.322   5.018 -0.4456  0.2659 -0.1098
 7284SOL    HW133311   4.060   4.270   4.985 -0.0878 -0.7718  0.7328
 7284SOL    HW233312   4.188   4.249   5.048  0.4260  0.9621 -0.0125
 7285SOL     OW33313   2.081   0.331   0.524 -0.0806  0.1334  0.3405
 7285SOL    HW133314   2.160   0.287   0.554  0.7241  0.9620 -0.5509
 7285SOL    HW233315   2.077   0.408   0.581  0.0771  1.1360 -0.9918
 7286SOL     OW33316   3.709   0.623   8.689 -0.0485  0.0498 -0.0608
 7286SOL    HW133317   3.717   0.698   8.748 -0.0819 -0.5775  0.7299
 7286SOL    HW233318   3.651   0.661   8.622  0.0338 -1.4523 -0.9783
 7287SOL     OW33319   1.470   1.163  15.758  0.4064 -0.1302 -0.0112
 7287SOL    HW133320   1.505   1.109  15.687 -1.1170  0.4524 -1.2175
 7287SOL    HW233321   1.494   1.109  15.834 -3.0416 -0.8451  0.6012
 7288SOL     OW33322   1.462   2.510   4.292 -0.2386 -0.2799 -0.3595
 7288SOL    HW133323   1.367   2.502   4.300  0.0390 -1.5033  1.8362
 7288SOL    HW233324   1.455   2.558   4.210 -1.1109  3.5111  1.9068
 7289SOL     OW33325   3.890   1.454  12.745  0.2415  0.3657  0.1352
 7289SOL    HW133326   3.860   1.373  12.702 -0.5573  0.9808 -0.4704
 7289SOL    HW233327   3.886   1.516  12.672  0.9245  1.9020  1.4016
 7290SOL     OW33328   0.198   1.112   3.745 -0.1617 -0.0770 -0.3999
 7290SOL    HW133329   0.246   1.033   3.719 -0.5706 -0.4696  0.0352
 7290SOL    HW233330   0.150   1.124   3.663  0.6993 -2.4986 -1.2578
 7291SOL     OW33331   2.175   2.153   6.700  0.2926  0.6867  0.2894
 7291SOL    HW133332   2.186   2.247   6.713  2.7140  0.5203 -0.6845
 7291SOL    HW233333   2.100   2.133   6.757 -1.6818  4.2078 -1.0749
 7292SOL     OW33334   0.852   3.705   0.842  0.5374 -0.7456 -0.3391
 7292SOL    HW133335   0.771   3.735   0.882  0.2553 -1.8390 -0.0849
 7292SOL    HW233336   0.834   3.646   0.769  0.6534 -1.2945  0.0764
 7293SOL     OW33337   0.620   3.176   4.836  0.1169 -0.6623 -0.2775
 7293SOL    HW133338   0.644   3.224   4.916  0.0436 -1.4056  0.1952
 7293SOL    HW233339   0.707   3.143   4.814  0.2731 -1.3916  1.3918
 7294SOL     OW33340   2.545   1.341  11.166 -0.3715  0.0751 -0.3841
 7294SOL    HW133341   2.637   1.363  11.158 -0.2080 -1.1811 -1.9142
 7294SOL    HW233342   2.514   1.356  11.077  0.4505  0.4630 -0.5982
 7295SOL     OW33343   1.757   0.328  15.682  0.3416  0.7477 -0.0255
 7295SOL    HW133344   1.707   0.320  15.763  0.5086  0.2061  0.0243
 7295SOL    HW233345   1.841   0.285  15.704  0.2969  0.4299 -0.4795
 7296SOL     OW33346   0.567   0.980   4.032  0.3691  0.2461  0.5797
 7296SOL    HW133347   0.505   1.042   4.071  0.1792  0.4750 -0.0879
 7296SOL    HW233348   0.635   1.008   4.094  0.2387  0.0889  0.7924
 7297SOL     OW33349   0.477   0.039  11.926  0.0418  0.1642 -0.2898
 7297SOL    HW133350   0.383   0.037  11.908 -0.1568  4.0053  0.4361
 7297SOL    HW233351   0.519   4.704  11.859 -0.6146 -0.6614 -0.0191
 7298SOL     OW33352   1.245   4.396  14.854 -0.1959 -0.0748  0.3802
 7298SOL    HW133353   1.172   4.352  14.811  0.6989 -0.1355 -1.0798
 7298SOL    HW233354   1.187   4.448  14.910  1.1616 -0.1240  1.8333
 7299SOL     OW33355   3.030   4.391   4.472 -0.2056 -0.4766  0.1533
 7299SOL    HW133356   3.046   4.297   4.484  0.9992 -0.1695  0.9426
 7299SOL    HW233357   3.111   4.429   4.506  0.3034  0.0507 -1.6885
 7300SOL     OW33358   0.583   3.646  16.245 -0.9236 -0.4055  0.5271
 7300SOL    HW133359   0.646   3.672  16.313  0.7843  0.6147 -1.4745
 7300SOL    HW233360   0.539   3.577  16.294  0.2975 -0.3132  1.7593
 7301SOL     OW33361   3.225   2.496   3.677  0.7513 -0.1701 -0.1734
 7301SOL    HW133362   3.246   2.573   3.730  0.3217  0.2727 -0.6545
 7301SOL    HW233363   3.146   2.530   3.636 -1.2519 -3.7870  0.6766
 7302SOL     OW33364   3.686   0.101   4.023 -0.6527  0.7465  0.6700
 7302SOL    HW133365   3.642   0.070   3.944  0.0651 -1.6418  1.2191
 7302SOL    HW233366   3.675   0.196   4.018  0.1058  0.7193 -1.5346
 7303SOL     OW33367   2.364   3.297   8.172 -0.3410 -0.3501  0.1720
 7303SOL    HW133368   2.278   3.329   8.144 -0.6234 -0.8048  0.5213
 7303SOL    HW233369   2.413   3.295   8.090  0.2826 -1.8437  0.5807
 7304SOL     OW33370   3.097   4.082   2.360 -0.0637 -0.6255  0.4502
 7304SOL    HW133371   3.153   4.147   2.317 -1.6373 -1.0904 -2.2730
 7304SOL    HW233372   3.043   4.144   2.409  0.8809  1.8348 -1.6347
 7305SOL     OW33373   2.310   2.355   6.397  0.3876 -0.0556 -0.0515
 7305SOL    HW133374   2.348   2.311   6.473 -2.2145 -0.6477  0.8940
 7305SOL    HW233375   2.284   2.436   6.440  0.5172 -0.7983  1.4414
 7306SOL     OW33376   0.289   3.933   5.123 -0.4405  1.0262 -0.4134
 7306SOL    HW133377   0.357   3.867   5.112 -1.6795  0.0710 -2.4977
 7306SOL    HW233378   0.249   3.936   5.035  3.3466 -0.0886 -2.1551
 7307SOL     OW33379   4.288   4.443   3.723 -0.4186 -0.1351  0.4292
 7307SOL    HW133380   4.336   4.364   3.698 -0.6778  0.1625 -0.9985
 7307SOL    HW233381   4.285   4.475   3.633  0.1361  2.4682  1.3353
 7308SOL     OW33382   2.840   1.249   7.586  0.4303 -0.4684  0.5064
 7308SOL    HW133383   2.878   1.167   7.617 -0.0226 -0.8362  0.0883
 7308SOL    HW233384   2.864   1.235   7.494 -1.9826  1.3584 -0.3771
 7309SOL     OW33385   3.032   4.698   6.856  0.5692  0.1805 -0.4656
 7309SOL    HW133386   2.942   0.005   6.870  1.2881  2.7767 -0.8450
 7309SOL    HW233387   3.080   0.046   6.905 -0.3466 -1.3522  2.5923
 7310SOL     OW33388   3.807   0.461   6.663 -0.5437  0.3135 -0.4652
 7310SOL    HW133389   3.718   0.487   6.637 -0.9584 -1.2836 -0.6311
 7310SOL    HW233390   3.802   0.366   6.664 -1.3559  0.3463 -1.4342
 7311SOL     OW33391   1.857   0.369   3.762 -0.0594  0.1414 -0.1153
 7311SOL    HW133392   1.826   0.459   3.758 -0.2527  0.0357 -1.1418
 7311SOL    HW233393   1.953   0.377   3.762 -0.0589  0.0803 -2.2538
 7312SOL     OW33394   4.108   2.306   3.110  0.2722  0.2882  0.5531
 7312SOL    HW133395   4.123   2.238   3.044 -0.7686  0.5598  0.0315
 7312SOL    HW233396   4.013   2.308   3.111  0.2785  1.5868 -0.7315
 7313SOL     OW33397   0.599   3.404  12.309  0.4724 -0.0748 -0.1604
 7313SOL    HW133398   0.654   3.443  12.378 -0.3253 -1.8343  1.4837
 7313SOL    HW233399   0.515   3.431  12.346 -0.4361 -0.6363 -1.8518
 7314SOL     OW33400   1.487   4.503   8.141 -0.0636  0.1926  0.3752
 7314SOL    HW133401   1.415   4.441   8.153 -1.4391  1.2710 -2.2051
 7314SOL    HW233402   1.482   4.536   8.051  0.8807 -2.2365 -0.5488
 7315SOL     OW33403   0.582   2.570   8.306  0.0868 -0.1316  0.2488
 7315SOL    HW133404   0.608   2.519   8.383 -0.2545 -1.0918 -0.2730
 7315SOL    HW233405   0.600   2.654   8.348  0.4507 -0.3571  0.5474
 7316SOL     OW33406   4.282   0.985   7.802  0.3770 -0.4733 -0.0477
 7316SOL    HW133407   4.191   1.011   7.819  0.3454 -0.9993  0.6243
 7316SOL    HW233408   4.278   0.891   7.820 -1.0724  0.2679  3.5075
 7317SOL     OW33409   2.866   0.133   8.826  0.3387  0.0614  0.4294
 7317SOL    HW133410   2.771   0.131   8.837  0.3688  1.5312  0.9969
 7317SOL    HW233411   2.871   0.045   8.789  2.2832  0.0971  0.6306
 7318SOL     OW33412   2.976   4.677   8.473 -0.0588  0.1266  0.4017
 7318SOL    HW133413   2.888   4.715   8.463  0.2468  0.4226 -1.2135
 7318SOL    HW233414   2.985   4.647   8.382  0.6290  1.0256  0.1679
 7319SOL     OW33415   2.621   2.479  13.157  0.1988 -0.5305 -0.0194
 7319SOL    HW133416   2.533   2.447  13.134  0.4538 -1.1601 -0.1221
 7319SOL    HW233417   2.605   2.573  13.150 -1.1580 -0.7989 -0.6282
 7320SOL     OW33418   3.751   0.247   3.611 -0.2482  0.2726  0.1842
 7320SOL    HW133419   3.662   0.218   3.595 -0.9996  1.9946  1.1854
 7320SOL    HW233420   3.788   0.169   3.653  1.2060  0.0426 -1.5267
 7321SOL     OW33421   2.095   1.163   4.414 -0.1392  0.0362 -0.1645
 7321SOL    HW133422   2.025   1.215   4.454  0.5186  0.7087  0.1100
 7321SOL    HW233423   2.180   1.202   4.434 -0.1896 -0.2718  0.6455
 7322SOL     OW33424   3.510   2.617  12.228 -0.1504  0.2929  0.4763
 7322SOL    HW133425   3.485   2.656  12.312 -0.7574 -0.8114  0.8103
 7322SOL    HW233426   3.592   2.578  12.258 -0.4674  0.3888  1.4682
 7323SOL     OW33427   0.378   3.542   2.564  0.6717  0.0769  0.2572
 7323SOL    HW133428   0.349   3.598   2.636  1.2737  1.3114 -0.4467
 7323SOL    HW233429   0.419   3.468   2.608 -2.2788 -2.6632 -1.5952
 7324SOL     OW33430   1.701   1.636   4.423  0.6668 -0.0361 -0.1257
 7324SOL    HW133431   1.644   1.567   4.456  0.4567  1.4041  2.4645
 7324SOL    HW233432   1.723   1.600   4.337 -1.6795  0.7625 -1.0562
 7325SOL     OW33433   1.436   3.576   2.013 -0.1050  0.0785 -0.4545
 7325SOL    HW133434   1.525   3.602   2.039 -1.3294  1.3999  2.3686
 7325SOL    HW233435   1.447   3.563   1.919 -0.8629 -0.6903 -0.4324
 7326SOL     OW33436   4.576   1.147   2.252  0.1278  0.1092  0.1693
 7326SOL    HW133437   4.497   1.158   2.199 -0.2282 -1.5592  0.3601
 7326SOL    HW233438   4.538   1.074   2.302 -0.2102  0.1372 -0.0476
 7327SOL     OW33439   0.740   1.246   2.839  0.7683  0.5117 -0.2790
 7327SOL    HW133440   0.780   1.331   2.820  2.0023  0.2567  1.1374
 7327SOL    HW233441   0.648   1.270   2.843  0.9355  1.1886 -0.4322
 7328SOL     OW33442   1.326   0.995   2.745 -0.3563  0.9693  0.3211
 7328SOL    HW133443   1.321   1.088   2.726 -0.1287  1.0821  0.8006
 7328SOL    HW233444   1.239   0.974   2.710 -0.4700  2.1987 -0.1320
 7329SOL     OW33445   1.996   1.331   4.903  0.6850  0.7398  0.2088
 7329SOL    HW133446   2.072   1.285   4.869 -0.4758 -0.9944 -0.0653
 7329SOL    HW233447   2.002   1.305   4.996  0.0968  2.6334  0.7702
 7330SOL     OW33448   4.351   3.470   6.099  0.2877  0.6781 -0.0673
 7330SOL    HW133449   4.445   3.477   6.079  0.6016  0.3854  1.3023
 7330SOL    HW233450   4.333   3.564   6.106 -0.1098  0.2994  3.7985
 7331SOL     OW33451   3.857   2.358   3.588  0.7847  0.3234 -0.1281
 7331SOL    HW133452   3.796   2.354   3.662  1.5733 -0.9340  0.4333
 7331SOL    HW233453   3.944   2.332   3.618  0.1024 -1.1220  0.5988
 7332SOL     OW33454   1.984   2.743  13.875 -0.1730 -0.2662 -0.3524
 7332SOL    HW133455   2.071   2.708  13.858 -0.4271 -1.5455  1.0514
 7332SOL    HW233456   1.978   2.799  13.798  0.7463  0.8974  0.4351
 7333SOL     OW33457   3.435   2.771   7.395 -0.4973  0.4114  0.0505
 7333SOL    HW133458   3.485   2.691   7.382 -0.0668  0.8646 -1.0707
 7333SOL    HW233459   3.372   2.765   7.323 -0.5195  2.5437 -0.1039
 7334SOL     OW33460   0.378   2.462  16.734 -0.6155  0.1179 -0.3971
 7334SOL    HW133461   0.331   2.394  16.686 -1.6590  0.6174 -0.0834
 7334SOL    HW233462   0.411   2.524  16.670 -1.6944  0.5739 -0.4984
 7335SOL     OW33463   4.457   3.356  10.449  0.3470  0.5832  0.3763
 7335SOL    HW133464   4.392   3.425  10.452 -0.3546 -0.1463  1.8668
 7335SOL    HW233465   4.420   3.283  10.498  1.8072  0.1727  0.8770
 7336SOL     OW33466   1.742   1.856   4.939  0.5425  0.1753  0.0467
 7336SOL    HW133467   1.769   1.779   4.989  0.1686  0.8907  1.3542
 7336SOL    HW233468   1.780   1.822   4.858 -0.7759 -1.0753 -0.0417
 7337SOL     OW33469   0.983   4.420   9.401 -0.2081  0.1112 -0.0485
 7337SOL    HW133470   0.999   4.513   9.414  0.8862 -0.0848 -0.0043
 7337SOL    HW233471   0.990   4.409   9.306 -1.2775  0.3242 -0.1610
 7338SOL     OW33472   1.902   1.842   5.803  0.4540  0.0792 -0.3026
 7338SOL    HW133473   1.950   1.923   5.786 -0.3507  0.4424 -0.7928
 7338SOL    HW233474   1.939   1.812   5.886 -1.1499  1.8401  1.0396
 7339SOL     OW33475   2.525   3.073   7.584  0.4642  0.0641  0.2992
 7339SOL    HW133476   2.517   2.995   7.639  0.3201 -2.1598 -2.9226
 7339SOL    HW233477   2.619   3.059   7.583  0.2906 -0.9681 -0.9699
 7340SOL     OW33478   3.562   4.098  16.364  0.5045 -0.2703 -0.7905
 7340SOL    HW133479   3.591   4.037  16.432  0.5780  0.9962  0.3283
 7340SOL    HW233480   3.526   4.165  16.422  0.5285 -0.9856  0.0542
 7341SOL     OW33481   4.352   0.907   0.985 -0.6945  0.5423 -0.1088
 7341SOL    HW133482   4.378   0.985   1.034  0.8958  1.4486 -2.4404
 7341SOL    HW233483   4.421   0.849   1.017 -0.9713  0.9380  1.2398
 7342SOL     OW33484   0.094   1.073   4.155  0.4562 -0.0854  0.1515
 7342SOL    HW133485   0.005   1.080   4.191  0.7598  1.4141  0.5959
 7342SOL    HW233486   0.094   0.987   4.113 -0.2983 -0.2313  0.4547
 7343SOL     OW33487   4.625   1.697   5.568  0.5569  0.2059 -0.3014
 7343SOL    HW133488   4.642   1.650   5.486  1.9948 -1.1976  0.8157
 7343SOL    HW233489   4.536   1.669   5.585  0.9361  0.3399  1.8684
 7344SOL     OW33490   0.324   0.371   1.409 -0.3947 -0.5867 -0.2384
 7344SOL    HW133491   0.357   0.395   1.322 -2.2769  0.7579 -0.5754
 7344SOL    HW233492   0.271   0.299   1.375 -0.3307  0.1253 -1.8252
 7345SOL     OW33493   4.296   0.770  13.972  0.4094  0.5439  0.6524
 7345SOL    HW133494   4.295   0.771  14.068  1.2351  1.5404  0.6581
 7345SOL    HW233495   4.279   0.862  13.950  0.4935 -0.0058 -1.6610
 7346SOL     OW33496   1.763   2.785   5.872 -0.1916 -0.0436 -0.1468
 7346SOL    HW133497   1.726   2.815   5.789  1.9531  1.7830 -0.4674
 7346SOL    HW233498   1.699   2.716   5.888 -0.9690 -0.0865 -3.4816
 7347SOL     OW33499   0.560   2.858   6.885  0.3709  0.4380  0.0157
 7347SOL    HW133500   0.615   2.936   6.882 -1.3682  1.6450 -0.6605
 7347SOL    HW233501   0.470   2.892   6.886 -0.3590 -1.4039 -1.4850
 7348SOL     OW33502   1.194   4.640   5.453  0.6942 -0.2904 -0.0708
 7348SOL    HW133503   1.119   4.671   5.402  0.2145 -1.9014 -0.3323
 7348SOL    HW233504   1.274   4.664   5.405  0.1812  0.3535 -0.6058
 7349SOL     OW33505   3.955   4.273   8.927  0.1095 -0.2031 -0.4422
 7349SOL    HW133506   4.041   4.266   8.968  1.2276  0.1649 -2.7442
 7349SOL    HW233507   3.914   4.200   8.973  1.0435  0.8137  1.9908
 7350SOL     OW33508   0.621   4.697  16.673  0.2384  0.1172 -0.5955
 7350SOL    HW133509   0.569   4.713  16.594 -0.5519 -0.1790 -0.1330
 7350SOL    HW233510   0.556   4.646  16.721  0.3584  0.4630 -0.0752
 7351SOL     OW33511   0.541   0.763   1.597 -0.2505 -0.5986  0.0530
 7351SOL    HW133512   0.544   0.770   1.502 -0.5943  1.5774  0.2031
 7351SOL    HW233513   0.600   0.689   1.613  0.9127  0.9885  3.0944
 7352SOL     OW33514   3.494   4.051  12.147  0.1244  0.2051  0.4752
 7352SOL    HW133515   3.562   4.027  12.084 -0.3318  0.0157  0.0542
 7352SOL    HW233516   3.547   4.079  12.222  1.1730 -3.1479  0.9646
 7353SOL     OW33517   2.467   2.820   5.667 -0.4723  0.4254 -0.3423
 7353SOL    HW133518   2.462   2.748   5.729 -0.1315  2.5210  2.1077
 7353SOL    HW233519   2.483   2.770   5.587 -2.2673 -0.7260  0.0260
 7354SOL     OW33520   2.468   1.051  12.257 -0.2553  0.1779 -0.9095
 7354SOL    HW133521   2.534   1.118  12.276  0.4374 -0.9726  0.7311
 7354SOL    HW233522   2.483   0.987  12.326  2.0332  1.1532 -0.5210
 7355SOL     OW33523   4.633   1.268  12.473  0.2671 -0.4038  0.2067
 7355SOL    HW133524   4.621   1.245  12.381 -1.2112  1.3152 -0.0239
 7355SOL    HW233525   4.559   1.327  12.482  0.3815 -0.3376  0.7132
 7356SOL     OW33526   1.471   0.248  12.451  0.0579 -0.1483  0.0408
 7356SOL    HW133527   1.537   0.189  12.488 -0.3487 -1.1487 -0.8436
 7356SOL    HW233528   1.450   0.218  12.363  0.1714  1.1149 -0.4194
 7357SOL     OW33529   0.568   2.520   4.180 -0.0340  0.0865  0.0412
 7357SOL    HW133530   0.587   2.439   4.133  2.6387 -0.1094  1.4307
 7357SOL    HW233531   0.491   2.498   4.233  0.6877  1.3924  1.6572
 7358SOL     OW33532   1.589   3.391   3.333  0.0430 -0.4343  0.1543
 7358SOL    HW133533   1.646   3.332   3.383 -0.8126 -0.5301  1.0059
 7358SOL    HW233534   1.620   3.479   3.357 -0.5743 -0.6814  1.8507
 7359SOL     OW33535   1.308   1.332  16.109  0.1770 -0.9867 -0.3765
 7359SOL    HW133536   1.291   1.422  16.136 -2.9741 -1.5842 -0.4055
 7359SOL    HW233537   1.279   1.325  16.019 -1.6904 -0.9956  0.2229
 7360SOL     OW33538   4.693   0.111   7.949 -0.4544 -0.0177 -0.0679
 7360SOL    HW133539   4.705   0.182   7.886 -0.9865 -1.1402 -1.4571
 7360SOL    HW233540   4.629   0.149   8.009 -0.9709 -1.1223  0.0822
 7361SOL     OW33541   3.800   0.846   4.195  0.5247 -0.3696  0.2394
 7361SOL    HW133542   3.792   0.754   4.169 -2.6530 -0.2670  0.8377
 7361SOL    HW233543   3.892   0.837   4.222 -0.1168  1.2243  2.9784
 7362SOL     OW33544   3.806   1.542   4.074 -0.6898 -0.0282  0.1937
 7362SOL    HW133545   3.761   1.626   4.063  0.4565  0.1657 -2.9608
 7362SOL    HW233546   3.748   1.477   4.035 -0.3001  1.1291 -2.3256
 7363SOL     OW33547   0.514   0.409   7.052  0.2165  0.3587 -0.5809
 7363SOL    HW133548   0.499   0.473   6.983 -0.2768  0.8639 -0.0026
 7363SOL    HW233549   0.517   0.326   7.004  0.2506  0.2163 -0.3316
 7364SOL     OW33550   2.940   1.016   6.739 -0.0874 -0.0256  0.2314
 7364SOL    HW133551   2.973   1.104   6.758 -0.6201  0.2835 -0.2676
 7364SOL    HW233552   2.978   1.013   6.651  0.5077  0.3019  0.4781
 7365SOL     OW33553   3.117   3.017   9.276  0.3550  0.2091 -0.2796
 7365SOL    HW133554   3.100   3.059   9.360 -0.0085 -1.0567  0.2760
 7365SOL    HW233555   3.172   2.941   9.297 -0.4116 -0.1312  0.4943
 7366SOL     OW33556   3.586   4.407  11.292  0.3985 -0.1520  0.3081
 7366SOL    HW133557   3.665   4.431  11.342  0.6740 -0.4636  0.0168
 7366SOL    HW233558   3.532   4.486  11.291  2.6540  1.3676 -0.8605
 7367SOL     OW33559   2.329   0.013   2.379  0.0169 -0.0051  0.6220
 7367SOL    HW133560   2.345   0.105   2.400  1.8304  0.0994 -1.1031
 7367SOL    HW233561   2.415   4.710   2.343 -0.2414 -0.5792  0.3728
 7368SOL     OW33562   2.818   4.523   4.855 -0.2883  0.1562  0.6753
 7368SOL    HW133563   2.797   4.527   4.761 -0.3299 -2.5108  0.5673
 7368SOL    HW233564   2.793   4.611   4.883 -1.8680  0.3601 -1.3146
 7369SOL     OW33565   2.798   2.265   8.947 -0.3138 -0.0203 -0.5475
 7369SOL    HW133566   2.713   2.295   8.980 -0.5249 -2.3344  0.9594
 7369SOL    HW233567   2.805   2.323   8.870  1.7229  0.6706  0.1461
 7370SOL     OW33568   1.737   2.237   3.013 -0.8390  0.7206  0.3660
 7370SOL    HW133569   1.711   2.190   3.092 -0.1068  5.4789  3.4659
 7370SOL    HW233570   1.746   2.162   2.954 -1.8418 -1.3400  2.8490
 7371SOL     OW33571   4.433   0.454   7.889 -0.2649 -0.4748  0.0125
 7371SOL    HW133572   4.426   0.429   7.798  0.1548  0.0401 -0.1670
 7371SOL    HW233573   4.375   0.392   7.932  0.4459 -0.9076  0.3581
 7372SOL     OW33574   0.533   3.676   1.521 -0.1253 -0.4172  0.0302
 7372SOL    HW133575   0.539   3.608   1.589  0.3051 -1.4371 -1.0226
 7372SOL    HW233576   0.526   3.750   1.581 -0.7982  0.0163 -0.5930
 7373SOL     OW33577   1.735   0.472  16.831 -0.4694 -0.3461  0.5757
 7373SOL    HW133578   1.823   0.510  16.836 -0.5656 -0.5030  3.1107
 7373SOL    HW233579   1.742   0.451  16.738 -3.6088 -2.5215  0.8420
 7374SOL     OW33580   2.486   1.814  15.734  0.0561  0.0386 -0.9296
 7374SOL    HW133581   2.501   1.861  15.816  1.1649 -0.6992 -0.7105
 7374SOL    HW233582   2.421   1.872  15.693 -3.1029 -2.8327 -0.0380
 7375SOL     OW33583   1.474   2.826   3.835  0.2494 -0.2277  0.2342
 7375SOL    HW133584   1.551   2.880   3.850  1.2881 -0.8177 -3.0334
 7375SOL    HW233585   1.437   2.829   3.923 -1.0486  0.7632 -0.3422
 7376SOL     OW33586   3.308   4.627   5.665  0.2339  0.0759  0.0731
 7376SOL    HW133587   3.330   4.698   5.606  0.5559 -1.1605 -1.3096
 7376SOL    HW233588   3.253   4.569   5.612  0.7279 -0.3208 -0.0177
 7377SOL     OW33589   4.648   1.325  16.534  0.0746 -0.4197  0.1319
 7377SOL    HW133590   4.556   1.343  16.556  0.3736  2.0829 -0.6129
 7377SOL    HW233591   4.701   1.378  16.594  0.3335  1.6789 -1.9232
 7378SOL     OW33592   4.009   4.284   8.366  0.4373  1.1143  0.0805
 7378SOL    HW133593   3.996   4.200   8.323 -1.0995  0.6487  1.4422
 7378SOL    HW233594   4.098   4.283   8.401 -1.4053 -1.7881  4.6448
 7379SOL     OW33595   3.644   1.508   8.388 -0.3413  0.2917 -0.2861
 7379SOL    HW133596   3.670   1.473   8.473 -1.2908 -1.9398 -0.9085
 7379SOL    HW233597   3.570   1.554   8.426 -0.2917  1.2006 -1.2890
 7380SOL     OW33598   3.537   0.400   6.393 -0.0501  0.4056 -0.9004
 7380SOL    HW133599   3.448   0.387   6.427  0.4071  0.2774  0.2419
 7380SOL    HW233600   3.551   0.487   6.429  0.9447  1.1087 -3.0112
 7381SOL     OW33601   3.786   1.993   0.647 -0.1968  0.3473  0.6910
 7381SOL    HW133602   3.861   1.980   0.704  0.3182  1.8133  0.3487
 7381SOL    HW233603   3.749   1.906   0.632  0.8951 -0.0973  0.5994
 7382SOL     OW33604   4.213   4.368   2.088 -0.1058 -0.4982  0.1733
 7382SOL    HW133605   4.167   4.288   2.062 -0.7034 -1.2537  3.5738
 7382SOL    HW233606   4.143   4.406   2.140 -0.0823  0.5393 -0.5618
 7383SOL     OW33607   1.873   3.764   8.024  0.7962 -0.6486  0.8883
 7383SOL    HW133608   1.858   3.850   8.065 -2.6192  0.3288 -2.3731
 7383SOL    HW233609   1.873   3.779   7.930  1.6826 -0.3165  0.9416
 7384SOL     OW33610   1.686   2.087  13.423 -0.4060 -0.0461  0.0639
 7384SOL    HW133611   1.718   2.139  13.349  2.0850  3.4725  3.5995
 7384SOL    HW233612   1.592   2.080  13.408 -0.5750  1.2027  0.5335
 7385SOL     OW33613   3.100   3.137   9.538 -0.0991 -0.2191  0.2306
 7385SOL    HW133614   3.072   3.228   9.531  1.4119  0.2578  0.3791
 7385SOL    HW233615   3.166   3.145   9.607 -1.2746 -2.3934  1.6448
 7386SOL     OW33616   2.179   4.121  14.598 -0.7159 -0.3697  0.0816
 7386SOL    HW133617   2.104   4.071  14.565 -3.1614  2.3306  1.4842
 7386SOL    HW233618   2.219   4.056  14.654  1.9346  1.3862  0.2196
 7387SOL     OW33619   3.700   1.517  13.125 -0.4687  0.1030 -0.1506
 7387SOL    HW133620   3.742   1.514  13.211  0.3841 -0.3287 -0.5909
 7387SOL    HW233621   3.727   1.437  13.081 -0.4627 -1.3445  2.4494
 7388SOL     OW33622   1.199   1.925   5.602 -0.6743  0.5130  0.2813
 7388SOL    HW133623   1.184   1.955   5.512  0.1062  1.2793  0.4120
 7388SOL    HW233624   1.230   2.011   5.631 -0.0991 -0.6574  3.1403
 7389SOL     OW33625   4.713   0.062   7.471  0.4264  0.1309 -0.2160
 7389SOL    HW133626   0.011   0.077   7.378 -1.6468 -0.1159 -0.6611
 7389SOL    HW233627   4.647   4.715   7.464  1.5666 -1.0871  0.7573
 7390SOL     OW33628   0.934   0.153   3.119  0.4917  0.0750 -0.4799
 7390SOL    HW133629   0.982   0.210   3.059  1.3151  0.9064  0.9693
 7390SOL    HW233630   0.916   0.082   3.057  0.1195  0.1415 -0.4457
 7391SOL     OW33631   2.405   1.576   5.474  0.1098  0.7837 -0.4999
 7391SOL    HW133632   2.340   1.617   5.532 -1.5721 -1.3167 -0.9222
 7391SOL    HW233633   2.401   1.485   5.503  1.6379  1.1869  0.9194
 7392SOL     OW33634   3.315   3.139   2.814 -0.6154  0.0968  0.3674
 7392SOL    HW133635   3.374   3.211   2.791  0.7191 -1.2486 -0.4043
 7392SOL    HW233636   3.376   3.067   2.799 -1.8102 -1.0423  0.9654
 7393SOL     OW33637   1.386   0.382   4.466 -0.5422 -0.3287 -0.3895
 7393SOL    HW133638   1.330   0.410   4.394 -1.4413 -1.4935 -0.1285
 7393SOL    HW233639   1.475   0.398   4.432  0.1814 -0.1455  1.6021
 7394SOL     OW33640   0.227   3.701   1.729  0.3570  0.1644 -0.0730
 7394SOL    HW133641   0.166   3.630   1.712  0.3468 -0.2693  1.6984
 7394SOL    HW233642   0.311   3.657   1.738 -0.1962 -0.9216 -0.1931
 7395SOL     OW33643   2.018   2.429   6.955 -0.3254 -0.4856  0.1645
 7395SOL    HW133644   2.070   2.428   6.875  0.2419 -0.2162  0.5258
 7395SOL    HW233645   1.933   2.465   6.928 -0.6663 -0.4756  1.2337
 7396SOL     OW33646   2.042   3.359   9.700 -0.5002  0.1230  0.1396
 7396SOL    HW133647   2.077   3.271   9.693 -1.4741 -0.0355 -2.7007
 7396SOL    HW233648   1.982   3.363   9.625 -0.4066  0.9417  0.0998
 7397SOL     OW33649   3.677   1.086  12.914 -0.1693 -0.0861  0.1932
 7397SOL    HW133650   3.640   1.074  12.827 -1.4150 -0.8927  0.8337
 7397SOL    HW233651   3.707   0.995  12.927 -0.1737 -0.2260 -0.7831
 7398SOL     OW33652   3.546   3.154   5.151  0.0483 -0.3623  1.0053
 7398SOL    HW133653   3.495   3.090   5.201 -0.3373 -2.0036 -1.4565
 7398SOL    HW233654   3.487   3.228   5.139  0.4414 -0.3397 -0.7114
 7399SOL     OW33655   1.020   2.517   9.498 -0.3655  0.4914 -0.3731
 7399SOL    HW133656   1.085   2.583   9.521 -1.3203  2.0948 -2.3153
 7399SOL    HW233657   1.069   2.444   9.458 -3.1013 -1.1498 -0.7215
 7400SOL     OW33658   4.513   0.722  16.350 -0.2595  0.0230  0.5006
 7400SOL    HW133659   4.567   0.658  16.303  1.7151  3.7440 -2.2796
 7400SOL    HW233660   4.565   0.801  16.336 -1.7367  0.8682 -0.2213
 7401SOL     OW33661   0.358   2.172   4.996 -0.3535  0.3094  0.0162
 7401SOL    HW133662   0.410   2.103   4.955  2.0670  2.0307  0.1518
 7401SOL    HW233663   0.406   2.199   5.074 -0.5433  1.4176 -0.2454
 7402SOL     OW33664   4.590   0.717   2.479  0.0871  0.2589 -0.4284
 7402SOL    HW133665   4.621   0.636   2.439  1.9373 -0.6294  2.8267
 7402SOL    HW233666   4.579   0.693   2.570 -1.1758 -0.1230 -0.6824
 7403SOL     OW33667   1.297   0.289   6.695 -0.1336 -0.6787  0.3624
 7403SOL    HW133668   1.327   0.200   6.713  1.6273  0.0811  1.1897
 7403SOL    HW233669   1.243   0.306   6.771  0.2991  0.7227  0.3478
 7404SOL     OW33670   2.613   3.255   4.846 -0.0520  0.2219  0.3160
 7404SOL    HW133671   2.686   3.198   4.819 -1.5190 -0.9139 -1.2551
 7404SOL    HW233672   2.543   3.195   4.873  0.6911 -0.0222  1.7057
 7405SOL     OW33673   0.927   0.968   9.019 -0.3274 -0.9219 -0.0112
 7405SOL    HW133674   0.979   0.891   8.995 -1.5536 -2.2009  1.5206
 7405SOL    HW233675   0.981   1.009   9.087 -1.8296 -0.0385  0.6371
 7406SOL     OW33676   1.201   1.263   2.752 -0.9541 -0.1891  0.3823
 7406SOL    HW133677   1.168   1.334   2.696 -1.5875 -1.5546 -0.9737
 7406SOL    HW233678   1.172   1.187   2.701  0.5796  0.7864 -1.9610
 7407SOL     OW33679   1.434   0.616  13.034 -0.1799 -0.0256 -0.1373
 7407SOL    HW133680   1.343   0.637  13.016 -0.0183  0.3271 -0.5507
 7407SOL    HW233681   1.462   0.690  13.090 -3.4798  2.7909 -2.2146
 7408SOL     OW33682   3.931   2.719   1.862 -0.3106 -0.4163 -0.3986
 7408SOL    HW133683   4.026   2.721   1.849 -0.0165 -0.9601  1.7238
 7408SOL    HW233684   3.923   2.628   1.892  0.1349 -1.0666 -2.2789
 7409SOL     OW33685   3.516   2.811   4.121  0.1325  0.3967  0.4747
 7409SOL    HW133686   3.550   2.722   4.121  2.3329  1.2292 -0.5756
 7409SOL    HW233687   3.511   2.829   4.027 -1.7897 -0.7544  0.3513
 7410SOL     OW33688   4.622   2.403  16.789 -0.0351 -0.4999  0.5402
 7410SOL    HW133689   4.574   2.332  16.832 -0.6026 -0.0656  0.6318
 7410SOL    HW233690   4.556   2.438  16.729 -1.5605 -1.2772  1.7496
 7411SOL     OW33691   0.426   4.086   4.279  0.1918 -0.0735 -0.5793
 7411SOL    HW133692   0.469   4.031   4.345 -0.4164 -0.2726 -0.3513
 7411SOL    HW233693   0.420   4.168   4.328  1.4086 -2.1198  2.9924
 7412SOL     OW33694   2.589   3.194   3.768  0.0486  0.4275  0.8863
 7412SOL    HW133695   2.509   3.239   3.795 -0.5505 -1.0265  1.5304
 7412SOL    HW233696   2.568   3.101   3.762 -2.6013  0.9609  2.0075
 7413SOL     OW33697   1.064   2.755   6.218 -0.1193 -0.2312  0.4677
 7413SOL    HW133698   1.105   2.782   6.300 -2.0744  1.2664  0.9629
 7413SOL    HW233699   1.039   2.668   6.251  0.0839  0.3285  2.1008
 7414SOL     OW33700   4.718   1.153  14.137  0.0828 -0.4702 -0.1294
 7414SOL    HW133701   4.657   1.226  14.152 -0.4282 -0.8434 -0.3989
 7414SOL    HW233702   0.081   1.200  14.136  0.4591 -1.1766 -1.9622
 7415SOL     OW33703   3.049   1.521  16.423  0.2059  0.0438  0.2488
 7415SOL    HW133704   3.048   1.469  16.343 -1.1487  0.7920 -0.2234
 7415SOL    HW233705   3.035   1.608  16.385 -2.4082 -0.3363  0.3662
 7416SOL     OW33706   1.192   0.541  17.086  0.3854 -0.0041  0.0727
 7416SOL    HW133707   1.135   0.617  17.098 -0.2323 -0.5607  0.6604
 7416SOL    HW233708   1.280   0.580  17.084  0.7937 -1.0069 -1.9900
 7417SOL     OW33709   2.609   0.316  14.052 -0.6433  0.0663 -0.1336
 7417SOL    HW133710   2.692   0.314  14.005 -0.3589 -2.3623  0.4896
 7417SOL    HW233711   2.624   0.368  14.131  1.1822  0.9180 -1.0485
 7418SOL     OW33712   1.188   3.111   8.449  0.3409 -0.1327 -0.2446
 7418SOL    HW133713   1.183   3.078   8.538 -0.0037  0.8919  0.1224
 7418SOL    HW233714   1.176   3.030   8.399  2.0002 -0.0486 -0.7652
 7419SOL     OW33715   2.307   3.394   7.560  0.3144 -0.3031 -0.8872
 7419SOL    HW133716   2.298   3.336   7.484 -0.5106 -1.8549  0.3999
 7419SOL    HW233717   2.242   3.460   7.537 -0.6590 -0.3217  1.8434
 7420SOL     OW33718   4.233   0.152  15.955 -0.2643 -0.3411 -0.1412
 7420SOL    HW133719   4.209   0.171  16.046 -0.2312 -1.4118  0.0916
 7420SOL    HW233720   4.327   0.168  15.963 -0.4645  1.2851 -1.1270
 7421SOL     OW33721   2.706   2.302  11.298  0.2654  0.7149 -0.3623
 7421SOL    HW133722   2.728   2.244  11.225  1.5689 -0.5724  1.0279
 7421SOL    HW233723   2.720   2.390  11.263  0.8722  1.2153  1.1203
 7422SOL     OW33724   4.484   4.407  17.474 -0.7786  0.3173 -0.3608
 7422SOL    HW133725   4.523   4.481  17.428  1.9827 -1.2679 -0.5510
 7422SOL    HW233726   4.499   4.335  17.413 -1.3497  1.4546 -1.8292
 7423SOL     OW33727   4.192   2.541   8.598  0.0595  0.0892 -0.2394
 7423SOL    HW133728   4.266   2.530   8.538  0.9154  2.3559  0.4068
 7423SOL    HW233729   4.134   2.469   8.571 -0.9858  0.4957  0.9530
 7424SOL     OW33730   1.995   0.519   4.674 -0.7398  0.5987  0.1312
 7424SOL    HW133731   2.039   0.446   4.719 -2.4225 -0.0359  0.7336
 7424SOL    HW233732   2.068   0.579   4.663  0.7066 -1.5563 -2.0196
 7425SOL     OW33733   2.699   3.144   3.343  0.4234 -0.0316 -0.8647
 7425SOL    HW133734   2.760   3.175   3.410  1.0206 -0.6705 -1.1195
 7425SOL    HW233735   2.691   3.217   3.281  1.4070  0.7115 -0.1241
 7426SOL     OW33736   1.395   2.223  11.203  0.2448 -0.0793  0.4098
 7426SOL    HW133737   1.487   2.198  11.216  0.6851  1.3477  0.0759
 7426SOL    HW233738   1.358   2.160  11.141 -1.0363  0.8674  0.2162
 7427SOL     OW33739   4.433   2.617   6.687  0.0487  0.2019 -0.2987
 7427SOL    HW133740   4.443   2.580   6.599 -0.4234 -1.4856  0.3565
 7427SOL    HW233741   4.355   2.571   6.719  0.6504 -0.3394  0.3763
 7428SOL     OW33742   4.483   1.686   9.197  0.3004 -0.8148  0.0072
 7428SOL    HW133743   4.482   1.770   9.243 -1.4287 -1.9572  2.0629
 7428SOL    HW233744   4.563   1.706   9.148  1.7518 -0.2162  2.6201
 7429SOL     OW33745   1.074   3.406   4.083  0.3456 -0.3437 -0.0978
 7429SOL    HW133746   1.111   3.430   3.999 -3.0004 -0.9918 -1.7525
 7429SOL    HW233747   1.032   3.323   4.059  0.1761 -0.1972 -0.2990
 7430SOL     OW33748   1.800   0.469   0.639  0.4043  0.1540 -0.4899
 7430SOL    HW133749   1.753   0.425   0.709  1.2733 -1.0325 -0.6661
 7430SOL    HW233750   1.785   0.412   0.563 -0.6910  1.2856 -1.1312
 7431SOL     OW33751   2.306   1.346  10.050 -0.0179  0.0855 -0.1220
 7431SOL    HW133752   2.397   1.346  10.079 -0.3574 -0.2404  0.9466
 7431SOL    HW233753   2.276   1.255  10.045 -0.7888  0.3160  0.2511
 7432SOL     OW33754   4.297   4.034   6.437 -0.4138 -0.1330 -0.1810
 7432SOL    HW133755   4.368   4.081   6.394  0.7094 -1.6278  0.0310
 7432SOL    HW233756   4.218   4.040   6.383  0.7890  3.3907 -1.5203
 7433SOL     OW33757   3.177   1.777  10.008 -0.3858 -0.3553 -0.4452
 7433SOL    HW133758   3.180   1.713   9.937  1.6938  0.2384 -0.8913
 7433SOL    HW233759   3.088   1.813  10.006  0.8340  2.6594  1.0532
 7434SOL     OW33760   1.803   1.581   4.190 -0.0341 -0.1746 -0.3629
 7434SOL    HW133761   1.892   1.596   4.224  0.9729 -3.5500 -1.5323
 7434SOL    HW233762   1.809   1.610   4.099  0.4499 -2.1888 -0.9634
 7435SOL     OW33763   3.350   3.268   3.108  0.1822  0.5372  0.1631
 7435SOL    HW133764   3.425   3.234   3.060  0.8612 -0.0315  1.6094
 7435SOL    HW233765   3.394   3.308   3.183 -0.0002  0.1835  0.4624
 7436SOL     OW33766   0.511   4.354  11.920 -0.1955 -0.5457 -0.0454
 7436SOL    HW133767   0.440   4.418  11.909  2.2900  2.4916  1.5718
 7436SOL    HW233768   0.464   4.275  11.946 -1.1298  0.6888  1.9849
 7437SOL     OW33769   4.185   2.050   6.336  0.6234 -0.5380 -0.3605
 7437SOL    HW133770   4.181   1.987   6.408  1.6430 -2.8244 -2.2812
 7437SOL    HW233771   4.266   2.015   6.298  0.4170  0.2101 -1.4733
 7438SOL     OW33772   1.101   4.575   2.911 -0.1056 -0.4388  0.6800
 7438SOL    HW133773   1.163   4.629   2.961  1.8229 -1.1112 -0.9915
 7438SOL    HW233774   1.064   4.642   2.854  0.4170 -0.1293  0.6964
 7439SOL     OW33775   1.634   0.229  11.730  0.3018 -0.6967 -0.0813
 7439SOL    HW133776   1.625   0.137  11.704  0.1737 -0.0600 -2.3045
 7439SOL    HW233777   1.694   0.266  11.665  0.2847  2.3945  1.6520
 7440SOL     OW33778   1.083   2.123   6.136  0.1689  0.1441  0.0615
 7440SOL    HW133779   1.176   2.108   6.150  0.2695  0.6027 -0.1324
 7440SOL    HW233780   1.082   2.216   6.114  0.9244  0.0764 -0.2623
 7441SOL     OW33781   3.700   4.588   6.501  0.0999  0.3498  0.5397
 7441SOL    HW133782   3.660   4.554   6.581 -0.0446  0.9469  0.7131
 7441SOL    HW233783   3.789   4.605   6.530  0.4996 -1.3901  0.3276
 7442SOL     OW33784   3.798   4.405  11.698 -0.1062  0.1986 -0.1540
 7442SOL    HW133785   3.736   4.335  11.716  0.2739  0.0060  0.3992
 7442SOL    HW233786   3.877   4.388  11.749 -0.5249  1.3780  0.9042
 7443SOL     OW33787   1.876   2.792   7.675 -0.1409  0.5965 -0.1966
 7443SOL    HW133788   1.792   2.834   7.690  0.3273  0.5094  2.7893
 7443SOL    HW233789   1.904   2.830   7.592 -2.2893  1.9821 -0.2863
 7444SOL     OW33790   0.342   0.697   9.395 -0.0042 -0.3663  0.3124
 7444SOL    HW133791   0.364   0.714   9.487  2.3174  2.1527 -0.6984
 7444SOL    HW233792   0.373   0.607   9.390 -0.1126 -0.1663 -3.5248
 7445SOL     OW33793   2.915   4.107   6.983  0.2621  0.2033 -0.1439
 7445SOL    HW133794   2.916   4.192   7.026  0.8481 -0.5925  1.4301
 7445SOL    HW233795   2.919   4.056   7.064  0.3556 -0.6753 -0.6967
 7446SOL     OW33796   3.931   2.285   8.330 -0.2372  0.2558 -0.6424
 7446SOL    HW133797   3.994   2.268   8.400 -0.2459  0.7776 -0.5059
 7446SOL    HW233798   3.916   2.379   8.343 -0.6854 -0.0077  0.7173
 7447SOL     OW33799   3.403   2.170  16.041 -0.2913  0.4172 -0.3992
 7447SOL    HW133800   3.493   2.188  16.014  0.4047 -1.0840  0.9133
 7447SOL    HW233801   3.354   2.230  15.984  0.7567  1.3847 -0.2788
 7448SOL     OW33802   3.847   0.063   1.915  0.5366  0.0162 -0.3710
 7448SOL    HW133803   3.826   4.690   1.907  1.8424 -0.2416 -0.6840
 7448SOL    HW233804   3.809   0.099   1.835  0.9896  2.1377  0.3709
 7449SOL     OW33805   2.837   0.293   5.555  0.1725 -0.3138 -0.9003
 7449SOL    HW133806   2.853   0.324   5.466  1.6313 -0.3724 -0.6537
 7449SOL    HW233807   2.759   0.241   5.536  0.5238 -1.6745  1.4040
 7450SOL     OW33808   4.486   3.984  15.237 -0.1756  0.1334 -0.5459
 7450SOL    HW133809   4.517   3.938  15.315 -1.5199  2.0940  1.1507
 7450SOL    HW233810   4.525   3.940  15.162 -0.3073 -0.0362 -0.5144
 7451SOL     OW33811   1.841   4.383   1.738 -0.8001 -0.3077 -0.0853
 7451SOL    HW133812   1.850   4.336   1.821 -2.5356  2.1540  1.4870
 7451SOL    HW233813   1.781   4.453   1.764 -0.3580  0.2221 -0.4850
 7452SOL     OW33814   2.236   0.856   6.183  0.0028  0.4268 -0.5431
 7452SOL    HW133815   2.212   0.943   6.216  0.6356  1.2830 -2.3533
 7452SOL    HW233816   2.212   0.867   6.092 -1.4363  0.6402 -0.1395
 7453SOL     OW33817   4.556   3.354   4.620 -0.1451 -0.2088  0.3502
 7453SOL    HW133818   4.460   3.353   4.622 -0.1471 -1.1813 -0.1459
 7453SOL    HW233819   4.569   3.265   4.585 -0.4479 -0.2136  0.2537
 7454SOL     OW33820   1.424   2.799   8.016  0.1360 -0.5575  0.8348
 7454SOL    HW133821   1.355   2.763   7.960  0.6107 -0.6778  0.3265
 7454SOL    HW233822   1.461   2.866   7.958  1.2600 -1.3349  0.6431
 7455SOL     OW33823   1.035   3.427   0.819 -0.0573  0.0406 -0.6533
 7455SOL    HW133824   1.127   3.402   0.819  0.3697  1.6677 -2.2813
 7455SOL    HW233825   0.996   3.379   0.747  1.3627 -1.9295 -0.1135
 7456SOL     OW33826   3.196   3.207   1.764  0.3028 -0.2309  0.0373
 7456SOL    HW133827   3.101   3.205   1.777  0.6943 -1.8886  2.6153
 7456SOL    HW233828   3.189   3.202   1.669 -0.2645  1.0488  0.0145
 7457SOL     OW33829   2.763   0.630   6.724  0.4060 -0.0964  0.8175
 7457SOL    HW133830   2.824   0.678   6.781 -0.3859  0.6053  1.0807
 7457SOL    HW233831   2.795   0.540   6.732 -1.2048 -0.9288 -2.3170
 7458SOL     OW33832   4.503   0.420  10.981 -0.4507 -0.2704 -0.6331
 7458SOL    HW133833   4.413   0.391  10.998 -0.6345  1.4108  1.2018
 7458SOL    HW233834   4.557   0.342  10.969  0.3645  0.4719 -1.8504
 7459SOL     OW33835   3.156   0.800   4.109 -0.4872 -0.7091 -0.6899
 7459SOL    HW133836   3.236   0.843   4.139 -0.2642 -1.1835 -0.5984
 7459SOL    HW233837   3.142   0.823   4.017  0.1379 -2.2089 -1.1642
 7460SOL     OW33838   3.113   3.560   7.032 -0.2107  0.0309 -0.3544
 7460SOL    HW133839   3.190   3.604   7.067  1.2614 -2.6507 -0.2375
 7460SOL    HW233840   3.045   3.627   7.043  0.2391  0.4095  0.1397
 7461SOL     OW33841   0.043   4.003   2.841 -0.2667 -0.6621 -0.2362
 7461SOL    HW133842   4.694   4.044   2.894 -0.6435 -1.2948 -0.2420
 7461SOL    HW233843   0.037   4.042   2.753  0.6556  0.2447  0.1105
 7462SOL     OW33844   2.496   3.031   3.492 -0.0369 -0.1581 -0.6095
 7462SOL    HW133845   2.532   3.004   3.576 -0.2473 -1.0841 -0.8187
 7462SOL    HW233846   2.574   3.068   3.451 -1.2532  0.4229 -2.4145
 7463SOL     OW33847   4.691   1.251   7.347 -0.6974  0.0381  0.0323
 7463SOL    HW133848   0.055   1.268   7.305 -2.3456 -0.9544 -3.5899
 7463SOL    HW233849   4.679   1.315   7.418 -1.9625 -1.1222  0.8754
 7464SOL     OW33850   0.955   2.882  11.636 -0.3172 -0.0959  0.2797
 7464SOL    HW133851   0.941   2.969  11.600 -0.2796  1.0058  2.9313
 7464SOL    HW233852   1.037   2.854  11.594 -1.2341 -3.0084  0.4062
 7465SOL     OW33853   4.500   1.937   3.652 -0.3229 -0.6704  0.3036
 7465SOL    HW133854   4.571   1.967   3.710 -0.8996 -0.2850  0.8093
 7465SOL    HW233855   4.499   1.842   3.659  2.6503 -0.7224  0.0278
 7466SOL     OW33856   4.102   1.346   8.241  0.1245  0.5060 -0.4391
 7466SOL    HW133857   4.015   1.308   8.227  0.1733  0.2502 -0.0371
 7466SOL    HW233858   4.118   1.390   8.157  0.8975  0.4797 -0.3076
 7467SOL     OW33859   2.648   0.459   3.536 -0.3195 -0.3078  0.1725
 7467SOL    HW133860   2.699   0.380   3.553  2.5877  1.1771 -1.6335
 7467SOL    HW233861   2.636   0.446   3.442 -1.2554 -0.7958  0.3587
 7468SOL     OW33862   3.077   1.479   8.870 -0.2777  0.0390 -0.0130
 7468SOL    HW133863   3.118   1.480   8.783  2.0191  0.0935  1.0469
 7468SOL    HW233864   3.140   1.540   8.909 -2.3326  2.0599  0.1444
 7469SOL     OW33865   0.169   2.712   5.876 -0.0786 -0.0843 -0.1925
 7469SOL    HW133866   0.141   2.679   5.961 -1.5139 -0.3425 -0.7651
 7469SOL    HW233867   0.106   2.655   5.831  1.2358 -0.8499 -1.0845
 7470SOL     OW33868   0.048   2.006   8.073 -0.0023  0.4918 -0.6402
 7470SOL    HW133869   4.686   1.997   8.120  0.5841  1.0798  0.5302
 7470SOL    HW233870   0.105   1.948   8.125 -0.4330 -0.1095 -0.8376
 7471SOL     OW33871   0.798   1.951   2.221 -0.4059 -0.3648 -0.5560
 7471SOL    HW133872   0.706   1.943   2.194 -1.0086  0.0530  1.3666
 7471SOL    HW233873   0.842   1.947   2.136  0.8767 -0.7700  0.1301
 7472SOL     OW33874   4.601   1.443   6.232 -0.3379  0.0481  0.0937
 7472SOL    HW133875   4.507   1.445   6.248 -0.0823 -0.7439  1.7284
 7472SOL    HW233876   4.628   1.356   6.261 -1.8639  0.2010  1.9796
 7473SOL     OW33877   2.025   2.597   0.400  0.9704  0.5783 -0.2733
 7473SOL    HW133878   1.942   2.595   0.352  1.7614 -0.6947 -1.5913
 7473SOL    HW233879   2.083   2.659   0.355  1.2214  1.1490  0.8505
 7474SOL     OW33880   4.513   2.609   3.485  0.1339 -0.3405 -0.4539
 7474SOL    HW133881   4.564   2.687   3.509  0.6435 -0.6731 -0.4506
 7474SOL    HW233882   4.564   2.595   3.405  1.1110  0.5790  0.0008
 7475SOL     OW33883   2.608   3.478   7.171 -0.1043  0.5101  0.0616
 7475SOL    HW133884   2.684   3.422   7.180 -1.5017 -1.6718 -1.7588
 7475SOL    HW233885   2.585   3.490   7.263 -2.3237  0.0360 -0.4147
 7476SOL     OW33886   4.177   3.094  10.543  0.4138 -0.5374 -0.1809
 7476SOL    HW133887   4.168   3.109  10.449 -1.8524  0.3454  0.1631
 7476SOL    HW233888   4.207   3.003  10.539 -1.6871 -1.3608  2.2494
 7477SOL     OW33889   4.184   3.997   6.887 -0.2887 -0.3095 -0.3895
 7477SOL    HW133890   4.260   3.978   6.832  0.8184  1.3155  0.6185
 7477SOL    HW233891   4.217   4.070   6.938  1.4323 -0.1242 -1.7734
 7478SOL     OW33892   2.933   2.125   2.303 -0.3869  0.5531  0.1166
 7478SOL    HW133893   2.982   2.090   2.229  1.3141 -0.4583  1.7165
 7478SOL    HW233894   2.853   2.075   2.284  0.5177 -1.1192  0.6412
 7479SOL     OW33895   0.028   3.687   2.401 -0.2196  0.0501  0.1538
 7479SOL    HW133896   4.712   3.711   2.486 -1.3556 -0.8850 -0.0640
 7479SOL    HW233897   4.666   3.662   2.358 -2.1329  1.6578  2.8686
 7480SOL     OW33898   1.239   1.646   7.486  0.3821  0.4667 -0.1314
 7480SOL    HW133899   1.272   1.693   7.562  0.4435  0.4613 -0.1552
 7480SOL    HW233900   1.206   1.720   7.436 -1.3280 -0.2795 -0.1206
 7481SOL     OW33901   1.141   0.821  13.184 -0.2290  0.2081  0.1154
 7481SOL    HW133902   1.062   0.870  13.165  1.2477  1.3928 -2.9313
 7481SOL    HW233903   1.163   0.790  13.096 -2.6091  1.3344 -0.8546
 7482SOL     OW33904   3.572   1.030  17.056 -0.1553 -0.6657  0.1515
 7482SOL    HW133905   3.551   1.072  17.140  1.0498  0.3573 -0.0623
 7482SOL    HW233906   3.610   1.106  17.014 -2.1611  0.4200  0.3053
 7483SOL     OW33907   1.981   4.467  16.186  0.0059  0.5122  0.1001
 7483SOL    HW133908   1.908   4.471  16.124  1.3863 -0.3708 -1.6181
 7483SOL    HW233909   1.936   4.451  16.268 -0.1016 -2.0273 -0.4507
 7484SOL     OW33910   1.671   1.268   5.957 -0.2356 -0.4314  0.8851
 7484SOL    HW133911   1.594   1.305   5.999 -0.3053 -0.8739  1.1406
 7484SOL    HW233912   1.661   1.318   5.875  0.9338 -0.2830  0.8295
 7485SOL     OW33913   4.086   3.910  10.156  1.0948 -0.0745  0.0163
 7485SOL    HW133914   4.105   3.995  10.116 -0.0716  0.6307  0.9465
 7485SOL    HW233915   3.991   3.922  10.163  0.9367 -1.6974  0.6772
 7486SOL     OW33916   2.844   2.656   5.804 -0.0569  0.0130  0.4804
 7486SOL    HW133917   2.798   2.738   5.823  0.0133  0.2161 -0.2153
 7486SOL    HW233918   2.875   2.671   5.714 -2.5928 -1.0421 -0.5840
 7487SOL     OW33919   0.099   3.739   5.849 -0.7088  0.7115  0.2921
 7487SOL    HW133920   0.177   3.725   5.797 -0.1138 -1.2921  1.7176
 7487SOL    HW233921   0.038   3.767   5.781 -0.6718 -0.3029 -0.1568
 7488SOL     OW33922   4.364   2.386   5.680 -0.2365 -0.7402  0.1399
 7488SOL    HW133923   4.398   2.346   5.760  0.5881  2.3638  1.3605
 7488SOL    HW233924   4.294   2.324   5.660 -0.5805 -0.3978  0.2824
 7489SOL     OW33925   3.735   4.605  14.755 -0.5852 -0.1755  0.1750
 7489SOL    HW133926   3.805   4.612  14.821  1.2248  0.2821 -1.7979
 7489SOL    HW233927   3.663   4.586  14.815  0.5608 -1.8188  1.0266
 7490SOL     OW33928   1.809   4.211   3.171 -0.0332 -0.2776  0.1444
 7490SOL    HW133929   1.775   4.232   3.258  0.5691 -1.3010  0.6288
 7490SOL    HW233930   1.856   4.292   3.150 -1.6347  0.1478 -1.7711
 7491SOL     OW33931   3.099   2.736  15.919  0.6030 -0.7393 -0.4844
 7491SOL    HW133932   3.082   2.679  15.843  0.5793 -0.4550 -0.6916
 7491SOL    HW233933   3.096   2.824  15.883 -1.8982 -0.4684  0.3671
 7492SOL     OW33934   3.643   2.963  15.060  0.5392 -0.5016 -0.1753
 7492SOL    HW133935   3.562   2.984  15.107  1.1587  3.8098 -1.1270
 7492SOL    HW233936   3.648   2.873  15.094  0.5180 -0.6331 -0.5153
 7493SOL     OW33937   4.656   0.276   0.667 -0.4408 -0.5939  0.4136
 7493SOL    HW133938   4.586   0.301   0.726 -0.2519 -1.8011  1.1585
 7493SOL    HW233939   4.600   0.228   0.605  0.3104 -0.9579  0.0133
 7494SOL     OW33940   3.249   2.338   4.908 -0.1559 -0.0792 -0.2555
 7494SOL    HW133941   3.294   2.344   4.993 -3.1119  0.2239  1.2566
 7494SOL    HW233942   3.256   2.243   4.896  0.9945  0.0997 -1.0382
 7495SOL     OW33943   1.479   0.713  13.491  0.2407  0.4892 -0.2226
 7495SOL    HW133944   1.562   0.668  13.498 -0.2979 -0.5542 -0.6084
 7495SOL    HW233945   1.424   0.667  13.555 -0.1366 -0.5450 -1.3015
 7496SOL     OW33946   1.499   1.514   1.126  0.4197  0.7592 -0.7618
 7496SOL    HW133947   1.491   1.487   1.217  0.1472  1.8091 -0.4727
 7496SOL    HW233948   1.415   1.561   1.126  1.1679  2.0941  0.1804
 7497SOL     OW33949   1.339   1.840   5.069  0.2142  0.0114  0.0308
 7497SOL    HW133950   1.261   1.871   5.023  0.5087 -0.0032 -0.4835
 7497SOL    HW233951   1.343   1.749   5.039 -0.6486 -0.1665  0.4816
 7498SOL     OW33952   1.098   1.032   3.994 -0.0009 -0.4892  0.0806
 7498SOL    HW133953   1.180   1.076   4.017 -0.4544  0.9785 -1.1410
 7498SOL    HW233954   1.093   0.990   4.080 -1.8773 -2.7417 -1.1151
 7499SOL     OW33955   1.368   3.251   4.510  0.5683  0.0100  0.1144
 7499SOL    HW133956   1.402   3.233   4.598  1.0981 -0.4688 -0.1874
 7499SOL    HW233957   1.437   3.310   4.481  0.2408  0.4738  0.2696
 7500SOL     OW33958   4.262   3.679   6.966 -0.0059  0.5558  0.4567
 7500SOL    HW133959   4.252   3.766   6.929 -0.6820  0.9911  1.6831
 7500SOL    HW233960   4.353   3.669   6.993  0.4900  0.7342 -1.1500
 7501SOL     OW33961   1.699   1.584   9.015 -0.0042 -0.0310  0.0234
 7501SOL    HW133962   1.627   1.570   9.076 -0.4371 -1.0491 -0.7177
 7501SOL    HW233963   1.750   1.652   9.058  0.9964 -0.0092 -1.1828
 7502SOL     OW33964   3.060   2.387   0.741  0.0359  0.0290  0.1816
 7502SOL    HW133965   3.118   2.397   0.665 -2.0859 -0.4522 -1.4971
 7502SOL    HW233966   3.105   2.428   0.815  0.3350 -0.0122  0.0227
 7503SOL     OW33967   2.879   4.463   4.215  0.1214 -0.1756  0.0344
 7503SOL    HW133968   2.913   4.421   4.295 -1.9734  1.6014  1.8627
 7503SOL    HW233969   2.895   4.398   4.147 -2.2287 -0.9694  0.2174
 7504SOL     OW33970   0.294   3.512   8.283  0.4332 -0.2425 -0.1241
 7504SOL    HW133971   0.306   3.546   8.371  2.1246  0.2186 -0.5313
 7504SOL    HW233972   0.232   3.574   8.244 -0.7051 -0.9021  0.6487
 7505SOL     OW33973   1.247   2.469   3.907 -0.3870 -0.1191  0.4951
 7505SOL    HW133974   1.281   2.389   3.867 -1.9755 -0.5972  0.1197
 7505SOL    HW233975   1.174   2.432   3.956 -1.0082  1.3298  0.6757
 7506SOL     OW33976   4.527   0.338   3.510  0.0483  0.0132 -0.1240
 7506SOL    HW133977   4.450   0.373   3.556  0.0305 -1.5501  1.0593
 7506SOL    HW233978   4.565   0.287   3.582  1.7788  0.3380 -0.8063
 7507SOL     OW33979   2.428   3.425   2.587  0.2325 -0.3543 -0.2766
 7507SOL    HW133980   2.454   3.360   2.522  1.9214  1.2763 -1.2585
 7507SOL    HW233981   2.360   3.379   2.636  1.6316 -2.1515 -0.0406
 7508SOL     OW33982   3.659   0.840   1.113  0.2214  0.6623  0.0230
 7508SOL    HW133983   3.686   0.893   1.188  0.7522  1.9838 -1.0950
 7508SOL    HW233984   3.662   0.915   1.053 -3.3075  1.4399  0.8276
 7509SOL     OW33985   1.800   4.270   1.977  0.6403 -0.2882  0.1014
 7509SOL    HW133986   1.739   4.197   1.992  0.2524 -0.1992 -1.0835
 7509SOL    HW233987   1.836   4.276   2.066 -0.8987  1.9231  0.5889
 7510SOL     OW33988   2.760   1.985   7.233  0.2110  0.4231  0.5888
 7510SOL    HW133989   2.745   1.973   7.327 -0.4887 -1.2466  0.2616
 7510SOL    HW233990   2.841   2.036   7.237  0.8642 -0.3809 -2.6987
 7511SOL     OW33991   1.023   3.141   5.728 -0.0181  0.1780  0.1133
 7511SOL    HW133992   0.944   3.093   5.755 -1.6929  1.4956 -2.3353
 7511SOL    HW233993   1.001   3.233   5.743  0.2698  0.3404 -0.4468
 7512SOL     OW33994   2.435   1.304   9.584  0.6659  0.2323 -0.1331
 7512SOL    HW133995   2.476   1.223   9.615 -1.3501 -0.7689 -0.1034
 7512SOL    HW233996   2.424   1.283   9.491 -2.0987 -1.8253  0.6666
 7513SOL     OW33997   4.614   1.818   4.230 -0.1497  0.4852 -0.4144
 7513SOL    HW133998   4.541   1.772   4.190 -0.1168 -0.7220  0.9034
 7513SOL    HW233999   4.633   1.749   4.293  0.2296  1.3382  0.4077
 7514SOL     OW34000   2.353   0.648   3.505  0.2942 -0.5585 -0.6576
 7514SOL    HW134001   2.442   0.670   3.531 -0.3718  0.5581  0.6691
 7514SOL    HW234002   2.352   0.553   3.497  0.3576 -0.5416 -0.8646
 7515SOL     OW34003   1.663   3.289   3.789  0.1001 -0.6095  0.3602
 7515SOL    HW134004   1.642   3.198   3.768  1.7069 -0.5194 -1.6267
 7515SOL    HW234005   1.729   3.279   3.858 -0.6764  1.4677  1.4014
 7516SOL     OW34006   1.218   4.512   9.557 -0.1585 -0.4261 -0.2637
 7516SOL    HW134007   1.291   4.525   9.497 -0.0104  1.0943  0.2503
 7516SOL    HW234008   1.170   4.589   9.527 -1.3548 -1.4776 -1.0636
 7517SOL     OW34009   1.670   4.454   0.110  0.1482  0.3840 -0.3603
 7517SOL    HW134010   1.590   4.426   0.066 -0.3649 -0.8688  1.3945
 7517SOL    HW234011   1.700   4.514   0.042  1.5201 -0.3194 -0.3749
 7518SOL     OW34012   4.170   2.277   5.997 -0.5530 -0.2042  0.4747
 7518SOL    HW134013   4.266   2.269   5.995 -0.6078 -0.4395 -0.7698
 7518SOL    HW234014   4.166   2.367   5.966  0.6912  0.8375  3.3008
 7519SOL     OW34015   4.090   1.088   3.708  0.1577  0.1451  0.5990
 7519SOL    HW134016   4.003   1.054   3.732 -1.2070  2.8901 -0.5426
 7519SOL    HW234017   4.096   1.052   3.620 -2.2793  2.1181 -0.3769
 7520SOL     OW34018   4.526   4.618   7.797  0.2267  0.9510 -0.7477
 7520SOL    HW134019   4.520   4.616   7.701 -1.4300 -1.1039 -0.5772
 7520SOL    HW234020   4.460   4.681   7.824 -0.6763 -0.1212 -0.4772
 7521SOL     OW34021   1.829   2.420   1.254  0.1465  0.3632  0.0219
 7521SOL    HW134022   1.901   2.471   1.217  1.4161 -1.5552 -0.1386
 7521SOL    HW234023   1.820   2.436   1.348  1.0901  0.2128  0.1428
 7522SOL     OW34024   3.667   1.938   5.442 -0.0230  0.5415  0.1270
 7522SOL    HW134025   3.707   1.983   5.517  0.7375  0.0467  0.0171
 7522SOL    HW234026   3.742   1.945   5.384  0.0593  0.0960  0.1754
 7523SOL     OW34027   3.208   2.751   6.160 -0.0659  0.1699 -0.2503
 7523SOL    HW134028   3.165   2.835   6.177  0.8185  0.6973 -0.6376
 7523SOL    HW234029   3.192   2.739   6.067 -0.0801 -1.3727 -0.0470
 7524SOL     OW34030   3.724   2.901   6.546 -0.0173 -0.4087  0.3542
 7524SOL    HW134031   3.757   2.980   6.588  0.1202  0.2805 -1.0589
 7524SOL    HW234032   3.810   2.867   6.524 -0.1446 -0.6291  0.1935
 7525SOL     OW34033   0.958   3.386  13.911 -0.0913 -0.1513 -0.4143
 7525SOL    HW134034   0.864   3.371  13.907  0.0704 -0.5404 -2.7843
 7525SOL    HW234035   0.967   3.452  13.842 -0.0319 -2.0884 -2.2549
 7526SOL     OW34036   1.541   3.631   4.236 -0.0045  0.0342 -0.2031
 7526SOL    HW134037   1.479   3.691   4.195  0.4282  0.6356  0.0195
 7526SOL    HW234038   1.621   3.681   4.221  1.1791 -2.1016 -1.0224
 7527SOL     OW34039   1.345   3.227   6.751 -0.2458 -0.2014 -0.0457
 7527SOL    HW134040   1.431   3.194   6.775 -0.6492 -0.9000  0.4542
 7527SOL    HW234041   1.325   3.265   6.836 -0.8935 -0.6269 -0.0030
 7528SOL     OW34042   4.346   0.562   5.103 -0.1969  0.6077  0.3381
 7528SOL    HW134043   4.273   0.519   5.147  1.0936 -0.5231  1.4042
 7528SOL    HW234044   4.317   0.653   5.107  1.8685  1.2900  0.1641
 7529SOL     OW34045   3.802   1.846   2.473 -0.1846 -0.5682 -0.0550
 7529SOL    HW134046   3.748   1.892   2.537  0.2799  0.3765 -0.3366
 7529SOL    HW234047   3.886   1.867   2.514  0.5070 -0.2746 -1.6352
 7530SOL     OW34048   3.267   0.008   5.008  0.5690 -0.1858 -0.0092
 7530SOL    HW134049   3.211   0.019   4.931 -0.7322  0.4618  1.0282
 7530SOL    HW234050   3.252   4.640   5.039 -0.7385 -0.8106 -2.3755
 7531SOL     OW34051   3.710   4.344   7.171  0.1991  0.2314  0.6221
 7531SOL    HW134052   3.678   4.362   7.259  1.0869  1.3050  0.7257
 7531SOL    HW234053   3.712   4.248   7.167  4.2044  0.3995 -1.1146
 7532SOL     OW34054   2.091   1.138   6.854 -0.5516  0.3103 -0.6386
 7532SOL    HW134055   2.131   1.085   6.923 -2.3625  0.8755  0.8663
 7532SOL    HW234056   2.019   1.182   6.901  0.8948  3.7711 -1.6903
 7533SOL     OW34057   3.317   1.551   3.387 -0.4428 -0.4246  0.5251
 7533SOL    HW134058   3.388   1.541   3.450  0.0719  0.1790  0.0457
 7533SOL    HW234059   3.366   1.579   3.309  0.7246 -0.7975  1.1188
 7534SOL     OW34060   1.541   3.509  14.303 -0.2028 -0.4104  0.1845
 7534SOL    HW134061   1.553   3.594  14.260 -0.5239  0.6721  2.2487
 7534SOL    HW234062   1.556   3.537  14.393 -0.0617  0.5231 -0.1341
 7535SOL     OW34063   4.306   2.390   4.325 -0.3686  0.1853 -0.1905
 7535SOL    HW134064   4.358   2.465   4.356  0.8931  1.0008 -4.2628
 7535SOL    HW234065   4.372   2.335   4.283 -0.3121 -1.2809  1.8010
 7536SOL     OW34066   2.221   0.137   3.429 -0.3306 -0.0976  0.2154
 7536SOL    HW134067   2.156   0.129   3.359 -0.0404  1.5118 -0.2532
 7536SOL    HW234068   2.184   0.065   3.480  0.4910 -0.9513 -0.4118
 7537SOL     OW34069   1.102   2.132  11.061 -0.5045 -0.1587 -0.1626
 7537SOL    HW134070   1.076   2.214  11.019 -0.1816  0.3867  0.6998
 7537SOL    HW234071   1.183   2.100  11.022  0.3887 -1.1400  2.5364
 7538SOL     OW34072   3.289   0.080  16.564  0.3435 -0.1398 -0.2034
 7538SOL    HW134073   3.279   0.134  16.643  1.3858  0.9342 -0.7981
 7538SOL    HW234074   3.199   0.082  16.533  0.4457  0.6688 -0.4587
 7539SOL     OW34075   1.199   3.575   4.492 -0.1231  0.7530  0.0278
 7539SOL    HW134076   1.202   3.555   4.399 -0.6256  0.5867  0.0441
 7539SOL    HW234077   1.228   3.666   4.488  0.9906  0.3571 -1.0590
 7540SOL     OW34078   1.355   0.222   7.608 -0.6173  0.6237  0.7884
 7540SOL    HW134079   1.276   0.270   7.634 -0.4856  2.2187 -1.7067
 7540SOL    HW234080   1.341   0.145   7.662  0.5500  1.1262  1.8039
 7541SOL     OW34081   4.005   2.446  14.768  0.0265 -0.9982 -0.0588
 7541SOL    HW134082   3.975   2.429  14.858  0.3394 -1.3287 -0.0146
 7541SOL    HW234083   3.947   2.390  14.717  1.0086 -0.2292 -2.0106
 7542SOL     OW34084   3.992   0.263   0.782 -0.7815  0.0522 -0.1411
 7542SOL    HW134085   4.042   0.284   0.703 -0.4743 -0.0403  0.0311
 7542SOL    HW234086   3.906   0.288   0.748 -0.6667  1.1889  0.4112
 7543SOL     OW34087   3.946   3.193   2.636 -0.4409  0.1606 -0.2936
 7543SOL    HW134088   3.900   3.113   2.661 -1.4395  0.2461 -1.8056
 7543SOL    HW234089   4.018   3.151   2.590  0.2652  0.3750  0.6188
 7544SOL     OW34090   0.412   1.855   5.304  0.0788 -0.3473  0.4442
 7544SOL    HW134091   0.454   1.888   5.383 -1.8259  1.0198  0.9109
 7544SOL    HW234092   0.320   1.864   5.332 -0.7730  0.4984 -2.5818
 7545SOL     OW34093   4.259   3.675   3.345  0.2790 -0.2846 -0.3507
 7545SOL    HW134094   4.222   3.764   3.343 -0.5256 -0.7071 -3.5000
 7545SOL    HW234095   4.179   3.628   3.369 -0.9808  0.6291 -2.8239
 7546SOL     OW34096   0.754   0.823   6.698  0.3742 -0.3624  0.3114
 7546SOL    HW134097   0.683   0.771   6.659 -0.3562  0.5799  0.3769
 7546SOL    HW234098   0.769   0.891   6.633 -1.4461  1.7023  2.0326
 7547SOL     OW34099   3.696   2.122   8.344 -1.0124 -0.2852 -0.3722
 7547SOL    HW134100   3.620   2.166   8.306 -1.3340 -0.4179  0.1112
 7547SOL    HW234101   3.763   2.190   8.356 -2.3137  1.0784 -0.8389
 7548SOL     OW34102   0.408   2.433  12.665  0.3295 -0.5995 -0.5524
 7548SOL    HW134103   0.408   2.497  12.736  1.3317 -1.2397  0.0283
 7548SOL    HW234104   0.497   2.400  12.673  0.2221 -0.4582  1.2669
 7549SOL     OW34105   2.617   1.212   3.532  0.5627  0.2026 -0.5002
 7549SOL    HW134106   2.676   1.236   3.603  0.9510 -1.4191 -0.2743
 7549SOL    HW234107   2.671   1.233   3.456  0.1792 -0.0353 -0.8424
 7550SOL     OW34108   1.601   1.355   0.940 -0.3650  0.3368 -0.1228
 7550SOL    HW134109   1.588   1.427   1.001 -0.3913  0.5441 -0.3711
 7550SOL    HW234110   1.512   1.326   0.920 -0.8264  0.4913  1.6965
 7551SOL     OW34111   4.272   3.424   3.734  0.4068 -0.0644  0.1780
 7551SOL    HW134112   4.293   3.487   3.665 -1.6933  1.6701  1.1014
 7551SOL    HW234113   4.260   3.342   3.687  0.8135  0.3443 -0.6399
 7552SOL     OW34114   4.540   4.687  10.473 -0.8290 -0.2033  0.3201
 7552SOL    HW134115   4.587   0.026  10.530 -0.5562  0.0672 -0.1929
 7552SOL    HW234116   4.596   4.673  10.397  0.1604  2.9275  0.5154
 7553SOL     OW34117   3.451   1.684   5.648  0.7485  0.3164 -0.0108
 7553SOL    HW134118   3.492   1.700   5.563  1.6032  1.1181  0.5553
 7553SOL    HW234119   3.452   1.589   5.641 -1.0781  0.2290  0.9283
 7554SOL     OW34120   0.380   2.295   9.137  0.0594  0.6352  0.3535
 7554SOL    HW134121   0.462   2.316   9.182  1.9518 -0.6275 -2.4841
 7554SOL    HW234122   0.314   2.344   9.185 -1.0663 -1.6894  1.1547
 7555SOL     OW34123   4.392   1.368   1.796  0.3499  0.1039  0.3329
 7555SOL    HW134124   4.339   1.364   1.717  0.7517 -1.9509  0.1714
 7555SOL    HW234125   4.482   1.365   1.762 -0.1917  2.7664 -1.2974
 7556SOL     OW34126   1.490   3.595   7.177  0.1411 -0.2911  0.1634
 7556SOL    HW134127   1.487   3.669   7.237 -0.1268  2.7983 -3.7097
 7556SOL    HW234128   1.548   3.633   7.111  0.4506 -1.1675 -0.0693
 7557SOL     OW34129   3.387   3.367   7.497  0.1361 -0.2094  0.1235
 7557SOL    HW134130   3.454   3.419   7.540  0.8221 -0.5509 -0.5323
 7557SOL    HW234131   3.435   3.333   7.422  1.9727  0.4059  1.0126
 7558SOL     OW34132   1.065   0.450  11.957 -1.1069 -0.0125 -0.4399
 7558SOL    HW134133   1.062   0.361  11.993  1.7979  0.4350  0.9558
 7558SOL    HW234134   1.036   0.507  12.028  0.2935 -0.2736  0.3573
 7559SOL     OW34135   3.760   3.153   6.648 -0.8125  0.2844  0.2389
 7559SOL    HW134136   3.804   3.137   6.731 -2.1635 -1.4166  0.5959
 7559SOL    HW234137   3.837   3.195   6.609  0.3603 -0.2032  2.0262
 7560SOL     OW34138   2.960   2.126   8.470 -0.8255 -0.6467  0.9469
 7560SOL    HW134139   2.891   2.114   8.405  1.3035 -0.6974 -1.3056
 7560SOL    HW234140   2.931   2.193   8.531  2.4209  1.8811 -0.2200
 7561SOL     OW34141   1.109   4.580  13.585  0.2409 -0.7759 -0.5608
 7561SOL    HW134142   1.046   4.609  13.519  1.1341  2.8231  0.1395
 7561SOL    HW234143   1.093   4.642  13.656  0.6434 -1.6432  0.2823
 7562SOL     OW34144   3.432   1.658   6.526  0.2547 -0.1104  0.2802
 7562SOL    HW134145   3.360   1.696   6.578 -0.4966  0.1643 -0.9528
 7562SOL    HW234146   3.508   1.706   6.559  0.1076  0.9938 -0.9675
 7563SOL     OW34147   2.856   3.898   6.468 -0.2390 -0.4490  0.1777
 7563SOL    HW134148   2.857   3.892   6.563  1.1885 -1.4625  0.1014
 7563SOL    HW234149   2.788   3.834   6.446 -1.1977  0.8863 -0.7351
 7564SOL     OW34150   2.667   1.788   4.442  0.3384  0.4446 -0.1240
 7564SOL    HW134151   2.670   1.733   4.520  1.9298 -1.0267 -1.2279
 7564SOL    HW234152   2.633   1.868   4.480  1.0868 -0.9784  3.4993
 7565SOL     OW34153   2.310   1.312   1.619  0.2398 -0.0233 -0.7411
 7565SOL    HW134154   2.236   1.270   1.575 -0.4404  1.2922 -0.8493
 7565SOL    HW234155   2.378   1.248   1.597  1.1865  0.6541  0.1789
 7566SOL     OW34156   1.298   1.243   9.670  0.1030  0.7763 -0.4071
 7566SOL    HW134157   1.283   1.226   9.763  1.3020  0.4453 -0.2766
 7566SOL    HW234158   1.389   1.217   9.658 -0.2234  0.3856 -2.1381
 7567SOL     OW34159   1.465   1.101   7.056  0.3657  0.3696  0.0498
 7567SOL    HW134160   1.403   1.063   6.994  0.5268  2.5505 -1.4681
 7567SOL    HW234161   1.479   1.193   7.034 -0.0515  0.2451 -0.7250
 7568SOL     OW34162   1.959   0.933   9.278 -0.5522 -0.0524 -0.4381
 7568SOL    HW134163   2.048   0.945   9.245 -0.2697  0.1231  0.3945
 7568SOL    HW234164   1.972   0.908   9.369 -2.1842 -0.9609 -0.4694
 7569SOL     OW34165   2.782   1.253   3.026 -0.0552 -0.1747 -0.2063
 7569SOL    HW134166   2.843   1.257   2.952 -0.3243  1.3098 -0.3448
 7569SOL    HW234167   2.737   1.172   3.001  1.0077 -0.6103 -0.7152
 7570SOL     OW34168   4.585   4.020   2.196 -0.2574 -0.4025 -0.0682
 7570SOL    HW134169   4.623   4.038   2.110  0.2849  0.7272  0.4109
 7570SOL    HW234170   4.624   3.939   2.230  0.0497  0.2188  1.0441
 7571SOL     OW34171   1.814   3.021   2.984  0.2655  0.5332  0.1131
 7571SOL    HW134172   1.878   3.083   3.019  0.7115  0.8519 -1.2869
 7571SOL    HW234173   1.826   3.020   2.889  0.7515  2.2191  0.1555
 7572SOL     OW34174   0.345   1.212   8.442  0.1535  0.3377  0.2700
 7572SOL    HW134175   0.267   1.231   8.390  0.2954 -1.5658 -0.6222
 7572SOL    HW234176   0.420   1.226   8.384 -0.2459 -0.4312 -0.4279
 7573SOL     OW34177   4.534   3.145   5.452  0.1800 -0.0452  0.2660
 7573SOL    HW134178   4.440   3.161   5.442  0.4038  1.1434  0.0722
 7573SOL    HW234179   4.557   3.224   5.501 -0.7623  1.6317 -1.9769
 7574SOL     OW34180   2.754   2.179   9.521  0.0107 -0.0402  0.1079
 7574SOL    HW134181   2.727   2.263   9.484  0.6446 -0.5566 -1.5411
 7574SOL    HW234182   2.844   2.208   9.527 -0.0328  0.3798 -1.3103
 7575SOL     OW34183   2.748   4.587   8.814 -0.2782 -0.3324 -0.4054
 7575SOL    HW134184   2.737   4.575   8.719 -0.5225  3.4323 -0.8385
 7575SOL    HW234185   2.671   4.637   8.840  0.9145  0.5002  1.5053
 7576SOL     OW34186   0.339   4.403   3.597 -0.0429 -0.3647 -0.0031
 7576SOL    HW134187   0.294   4.424   3.515 -0.1616  0.3159  0.2430
 7576SOL    HW234188   0.310   4.312   3.600  0.0784 -0.3996  0.1419
 7577SOL     OW34189   4.210   3.264   6.224 -0.5352 -0.4104 -0.0461
 7577SOL    HW134190   4.244   3.332   6.165 -0.9929 -0.7063 -0.6531
 7577SOL    HW234191   4.240   3.295   6.309 -0.3725  0.2975 -0.3535
 7578SOL     OW34192   3.449   2.957   4.868  0.1263 -0.4383 -0.0379
 7578SOL    HW134193   3.442   3.053   4.861  1.7422 -0.3992 -1.1097
 7578SOL    HW234194   3.359   2.925   4.862 -0.0404 -0.1019  0.6368
 7579SOL     OW34195   2.957   0.010   2.748 -0.4278 -0.2938  0.7682
 7579SOL    HW134196   2.980   0.075   2.815  0.1069  0.1918  0.1208
 7579SOL    HW234197   2.866   0.036   2.733 -0.6551 -1.6138 -0.1312
 7580SOL     OW34198   0.832   3.537   5.249 -0.5346  0.5277  0.4323
 7580SOL    HW134199   0.866   3.572   5.167 -0.7134 -0.0950  0.0988
 7580SOL    HW234200   0.755   3.490   5.218  2.3622 -3.0333 -1.2785
 7581SOL     OW34201   0.318   3.753  17.411  0.2186 -0.1580 -0.3067
 7581SOL    HW134202   0.299   3.831  17.464  2.6673  0.6592 -0.6393
 7581SOL    HW234203   0.295   3.686  17.475 -0.0728  0.5981  0.3938
 7582SOL     OW34204   3.313   1.948   4.946 -0.1267 -0.8046 -0.4390
 7582SOL    HW134205   3.393   1.996   4.923  0.4230 -1.6924 -0.3808
 7582SOL    HW234206   3.323   1.869   4.894 -3.1142 -0.1888 -1.8897
 7583SOL     OW34207   4.029   0.529   7.104  0.0730 -0.5997  0.4560
 7583SOL    HW134208   4.026   0.434   7.095 -0.4196 -0.4331 -1.3037
 7583SOL    HW234209   4.038   0.565   7.016 -0.4875  0.3703  0.7906
 7584SOL     OW34210   4.488   0.849   0.579 -0.0520 -0.0616 -0.7382
 7584SOL    HW134211   4.409   0.892   0.610  0.8741 -0.0183  1.5931
 7584SOL    HW234212   4.552   0.916   0.603  0.6777 -0.2224 -2.1948
 7585SOL     OW34213   4.176   1.680   4.621  0.7465 -0.2474 -0.2235
 7585SOL    HW134214   4.226   1.641   4.693 -0.5849  0.4907  1.1141
 7585SOL    HW234215   4.172   1.615   4.551 -1.1898 -1.5490  1.0779
 7586SOL     OW34216   3.594   1.064   0.954 -0.8177  0.4829  0.5750
 7586SOL    HW134217   3.680   1.099   0.978  0.2404 -1.1855 -0.7981
 7586SOL    HW234218   3.546   1.114   1.019 -1.5720  0.2502  0.1915
 7587SOL     OW34219   1.244   0.194   3.144  0.1159 -0.4628 -0.1814
 7587SOL    HW134220   1.163   0.150   3.169  0.4968 -0.2805  1.3885
 7587SOL    HW234221   1.296   0.122   3.109  0.1692  0.9087 -2.9820
 7588SOL     OW34222   4.308   2.865  14.537  0.6422 -0.1667  0.4222
 7588SOL    HW134223   4.295   2.959  14.543  0.8116 -0.2219  1.7416
 7588SOL    HW234224   4.233   2.845  14.481  0.5780 -0.1440  0.5005
 7589SOL     OW34225   4.295   1.498  11.281 -0.4038  0.4907 -0.3209
 7589SOL    HW134226   4.241   1.499  11.202  1.1925  0.6208 -1.4085
 7589SOL    HW234227   4.372   1.460  11.239 -0.3249 -1.6403  1.6992
 7590SOL     OW34228   0.633   0.337   8.345 -0.3847 -0.4720  0.2217
 7590SOL    HW134229   0.558   0.303   8.394  0.5022 -1.6633  0.7477
 7590SOL    HW234230   0.601   0.350   8.256 -2.1484 -1.8879  0.6420
 7591SOL     OW34231   1.444   0.599   8.292 -0.5509  0.0335  0.8409
 7591SOL    HW134232   1.354   0.613   8.320 -0.8165  1.2831 -0.6697
 7591SOL    HW234233   1.464   0.689   8.268  2.7305 -0.6466  0.9954
 7592SOL     OW34234   1.191   3.877   1.552  0.8278 -0.1964  0.2219
 7592SOL    HW134235   1.246   3.908   1.624 -2.8475 -1.3452  3.5321
 7592SOL    HW234236   1.237   3.802   1.514 -1.4413 -2.3271  1.7565
 7593SOL     OW34237   4.575   3.678   8.012  0.1648 -0.3100  0.2604
 7593SOL    HW134238   4.514   3.704   8.082 -0.1272  1.8287 -0.8132
 7593SOL    HW234239   4.517   3.616   7.969  1.0958  1.0137 -2.8720
 7594SOL     OW34240   0.432   1.071   3.265  0.0411 -0.6730  0.1728
 7594SOL    HW134241   0.436   1.129   3.189  0.5163  0.1103  0.7939
 7594SOL    HW234242   0.373   1.123   3.319 -1.9476 -2.2800 -0.4474
 7595SOL     OW34243   0.947   3.839   7.069  0.0309 -0.3088 -0.0170
 7595SOL    HW134244   0.898   3.802   6.996 -0.5311 -0.1837  0.2920
 7595SOL    HW234245   0.936   3.931   7.046  1.5457 -0.0366  0.3542
 7596SOL     OW34246   4.590   2.239   3.059 -0.0540  0.2677 -0.0006
 7596SOL    HW134247   4.613   2.241   3.151  1.9622 -0.4300 -0.4911
 7596SOL    HW234248   4.619   2.327   3.038 -0.6813  0.4587 -0.0716
 7597SOL     OW34249   2.752   0.644  11.287  0.3507 -0.1313  0.8282
 7597SOL    HW134250   2.763   0.580  11.357  2.8554  1.1426  1.5815
 7597SOL    HW234251   2.826   0.615  11.234 -0.2132 -0.3890  0.1680
 7598SOL     OW34252   3.119   2.242   7.019  0.3388 -0.7739  0.0376
 7598SOL    HW134253   3.164   2.252   7.104 -0.5239  0.2051  0.3835
 7598SOL    HW234254   3.085   2.153   7.017  3.1798 -1.8246 -1.6828
 7599SOL     OW34255   2.296   3.959  14.149 -0.2790 -0.1454  0.6065
 7599SOL    HW134256   2.201   3.962  14.165 -0.6516  1.6464 -1.9491
 7599SOL    HW234257   2.326   4.012  14.222  0.3999 -0.3283  0.4600
 7600SOL     OW34258   0.473   0.098   8.452  0.4499 -0.1215  0.3134
 7600SOL    HW134259   0.534   0.126   8.520 -2.2345  0.9075  2.2638
 7600SOL    HW234260   0.486   0.003   8.445 -0.9365 -0.1650 -1.6674
 7601SOL     OW34261   4.244   2.939  13.369  0.2578 -0.0741 -0.1528
 7601SOL    HW134262   4.299   2.961  13.444  2.3408 -1.3068 -1.3171
 7601SOL    HW234263   4.179   3.009  13.362  0.2401 -0.0381  0.3753
 7602SOL     OW34264   1.359   4.365   4.219 -0.4684  0.0252 -0.0664
 7602SOL    HW134265   1.414   4.440   4.197  0.1663 -0.8066 -1.3040
 7602SOL    HW234266   1.278   4.409   4.244  0.1272  1.7496 -1.1801
 7603SOL     OW34267   4.415   1.975   7.173 -0.2417  0.0030 -0.0049
 7603SOL    HW134268   4.404   1.887   7.208  1.3478 -0.0803  0.3051
 7603SOL    HW234269   4.339   2.012   7.217  0.9570  0.6348  1.5259
 7604SOL     OW34270   3.825   1.911   3.357 -0.3932 -0.3484  0.2716
 7604SOL    HW134271   3.885   1.963   3.304 -1.6447 -1.8691 -2.6368
 7604SOL    HW234272   3.748   1.918   3.301 -1.0613 -0.7979  1.1397
 7605SOL     OW34273   1.916   3.370   3.865 -0.0574  0.1610 -0.6710
 7605SOL    HW134274   2.006   3.402   3.868 -0.1226  0.1752  0.8201
 7605SOL    HW234275   1.934   3.309   3.793 -0.5552 -2.1130  1.1524
 7606SOL     OW34276   0.647   1.924   5.935 -0.2251  0.0141 -0.6682
 7606SOL    HW134277   0.631   2.002   5.988  1.4692  0.2656 -0.5061
 7606SOL    HW234278   0.602   1.865   5.996 -0.3019  1.5230  0.7234
 7607SOL     OW34279   3.548   4.503   7.000 -0.3358 -0.1940 -0.0041
 7607SOL    HW134280   3.596   4.475   7.078  0.8593  0.0336 -0.6648
 7607SOL    HW234281   3.500   4.421   6.988 -0.0924 -0.5460  1.4408
 7608SOL     OW34282   0.932   1.226   5.766  0.0086  0.0257 -0.3302
 7608SOL    HW134283   0.850   1.254   5.806 -0.5348 -0.7427 -0.8959
 7608SOL    HW234284   0.957   1.298   5.709  1.2309  0.5987  0.9291
 7609SOL     OW34285   4.194   0.661   6.470  0.5243  0.4314  0.2077
 7609SOL    HW134286   4.142   0.581   6.457 -0.5031  1.8742 -4.5665
 7609SOL    HW234287   4.204   0.662   6.565 -0.3094  0.5603  0.2919
 7610SOL     OW34288   3.194   1.679   6.991  0.7158 -0.2836  0.7896
 7610SOL    HW134289   3.263   1.673   6.925  0.8394 -1.4644  1.0186
 7610SOL    HW234290   3.168   1.770   6.997  2.3091  0.0947  1.9551
 7611SOL     OW34291   1.348   2.590   6.579  0.3390  0.2055  0.1478
 7611SOL    HW134292   1.284   2.525   6.552 -0.0401  1.1861 -1.3442
 7611SOL    HW234293   1.401   2.540   6.640  0.8905 -0.7327 -1.0914
 7612SOL     OW34294   0.269   2.765   4.285 -0.2027  0.1722  0.1147
 7612SOL    HW134295   0.261   2.796   4.194  1.1195  0.8654  0.2423
 7612SOL    HW234296   0.347   2.812   4.313 -0.0790  1.7090 -2.8134
 7613SOL     OW34297   0.215   1.492   3.995  0.2413 -0.0052 -0.3129
 7613SOL    HW134298   0.184   1.402   3.986 -0.5729  0.2055  0.4664
 7613SOL    HW234299   0.244   1.506   3.905 -4.3447  0.9152 -1.6453
 7614SOL     OW34300   0.127   2.841   7.366 -0.3738 -0.4135  0.0193
 7614SOL    HW134301   0.102   2.847   7.274 -0.0463 -0.7585 -0.0933
 7614SOL    HW234302   0.212   2.800   7.350 -0.6568  0.0763 -2.6703
 7615SOL     OW34303   2.585   3.620  14.401 -0.4849  0.2965  0.0510
 7615SOL    HW134304   2.576   3.529  14.375 -0.0652  0.4772 -0.7292
 7615SOL    HW234305   2.542   3.607  14.485  2.0585 -1.4447  1.0629
 7616SOL     OW34306   3.748   0.964   2.868  0.8442  0.6225 -0.5336
 7616SOL    HW134307   3.838   0.995   2.873  1.6782 -1.4680 -2.9078
 7616SOL    HW234308   3.710   1.051   2.855  0.6626  0.4691 -1.0258
 7617SOL     OW34309   2.906   3.135  13.172 -0.2349 -0.2933 -0.2191
 7617SOL    HW134310   3.001   3.135  13.185 -0.4475  1.7127  1.3931
 7617SOL    HW234311   2.893   3.042  13.153 -1.7851 -0.7610  3.0535
 7618SOL     OW34312   2.353   4.530  16.614 -0.1262 -0.0137 -0.0779
 7618SOL    HW134313   2.435   4.574  16.590  1.4872 -0.3171  4.6716
 7618SOL    HW234314   2.393   4.462  16.669  0.4375 -0.2811 -0.8183
 7619SOL     OW34315   0.932   2.340  11.455 -0.2755  0.2122 -0.1167
 7619SOL    HW134316   0.977   2.267  11.414 -0.8756  0.6499 -1.5671
 7619SOL    HW234317   0.983   2.413  11.419  0.0015  0.1465  0.1508
 7620SOL     OW34318   4.395   4.630   0.233 -0.4324 -0.1571 -0.3531
 7620SOL    HW134319   4.413   4.708   0.285 -1.3870 -0.0913 -0.1106
 7620SOL    HW234320   4.314   4.663   0.193 -0.8062  1.1307  1.4820
 7621SOL     OW34321   2.927   3.519   2.827 -0.1645 -0.6627  0.0570
 7621SOL    HW134322   2.884   3.435   2.812  0.9971 -1.0921 -0.8632
 7621SOL    HW234323   2.852   3.558   2.873  1.8458  2.5935  0.5477
 7622SOL     OW34324   4.551   0.482   4.885 -0.1192  0.5511  0.2313
 7622SOL    HW134325   4.494   0.511   4.956 -0.9826  1.8019 -0.9778
 7622SOL    HW234326   4.489   0.493   4.813  0.2295 -0.0883 -0.1619
 7623SOL     OW34327   0.828   0.766   3.265  0.4241  0.1942 -0.0905
 7623SOL    HW134328   0.770   0.724   3.203  0.1988  1.6829 -0.9004
 7623SOL    HW234329   0.795   0.856   3.254 -0.2216  0.0840  0.9224
 7624SOL     OW34330   4.144   4.493   2.850 -0.3448 -0.2405 -0.1109
 7624SOL    HW134331   4.229   4.468   2.813 -0.6241 -0.3982 -0.6419
 7624SOL    HW234332   4.120   4.404   2.877  1.1163  0.7687  4.4397
 7625SOL     OW34333   3.898   3.181  15.074 -0.6082 -0.7996  0.4364
 7625SOL    HW134334   3.946   3.230  15.008 -1.6778 -1.2449 -0.6739
 7625SOL    HW234335   3.962   3.206  15.141  0.1032  2.6405 -1.5318
 7626SOL     OW34336   3.181   0.967   3.866 -0.0613 -0.5759 -0.1081
 7626SOL    HW134337   3.112   1.032   3.856 -0.7663 -1.2315  0.5350
 7626SOL    HW234338   3.249   1.004   3.809 -1.0282  0.0047 -0.8756
 7627SOL     OW34339   1.458   1.312   7.429  0.4259  0.0573  0.3339
 7627SOL    HW134340   1.519   1.327   7.500  1.1270  1.4105 -0.5474
 7627SOL    HW234341   1.392   1.258   7.472  0.8268 -1.2641 -0.7100
 7628SOL     OW34342   3.074   2.594   9.284 -0.7206  0.0926  0.4798
 7628SOL    HW134343   3.037   2.521   9.335 -1.2676 -0.1347 -0.2498
 7628SOL    HW234344   3.009   2.664   9.298 -2.0071 -0.5819 -2.1741
 7629SOL     OW34345   3.152   2.508   4.195  0.1297 -0.7568 -0.2148
 7629SOL    HW134346   3.237   2.485   4.232 -0.2516 -0.1177  1.0791
 7629SOL    HW234347   3.134   2.422   4.156  0.8439 -0.0681 -2.0627
 7630SOL     OW34348   2.336   3.108   4.254  0.2345 -0.6521  0.2621
 7630SOL    HW134349   2.285   3.132   4.331 -1.8846  1.0464 -1.6692
 7630SOL    HW234350   2.349   3.013   4.259  2.5356 -0.1972  2.5103
 7631SOL     OW34351   0.948   4.556   3.682 -0.0814  0.3472 -0.1299
 7631SOL    HW134352   0.959   4.568   3.587  0.3664 -0.3561 -0.1602
 7631SOL    HW234353   1.033   4.524   3.712 -0.9501 -0.3381  1.5535
 7632SOL     OW34354   2.790   2.409  12.775 -0.9236  0.2789  0.0186
 7632SOL    HW134355   2.796   2.368  12.861  1.6098 -0.6292 -0.5601
 7632SOL    HW234356   2.707   2.383  12.735 -1.1694  1.1746 -0.0400
 7633SOL     OW34357   2.671   3.008   5.127  0.2952 -0.6760  0.1549
 7633SOL    HW134358   2.713   3.038   5.207 -0.2175  1.2027 -0.2737
 7633SOL    HW234359   2.741   2.976   5.071 -0.3820 -0.2713 -0.9281
 7634SOL     OW34360   0.073   0.424   1.162 -0.3883  0.6354 -0.0016
 7634SOL    HW134361   0.110   0.342   1.197  0.2172  0.8262 -0.1948
 7634SOL    HW234362   0.151   0.462   1.120  0.0513 -1.0926 -0.7615
 7635SOL     OW34363   1.508   3.174  16.006 -0.5794  0.0985  0.0939
 7635SOL    HW134364   1.532   3.083  16.018 -1.5897 -0.0837  0.7450
 7635SOL    HW234365   1.510   3.174  15.910  0.9523 -1.2722  0.1503
 7636SOL     OW34366   2.160   1.593   8.545 -0.4815 -0.1240 -0.3753
 7636SOL    HW134367   2.172   1.507   8.585  1.0192  1.1871  1.9314
 7636SOL    HW234368   2.213   1.647   8.603 -0.3032 -0.8855  0.1658
 7637SOL     OW34369   0.133   4.214   5.407 -0.0107 -0.6585 -0.1261
 7637SOL    HW134370   0.097   4.140   5.456  2.1314 -1.8049 -0.2340
 7637SOL    HW234371   0.125   4.290   5.463 -0.9404 -0.7455 -0.1411
 7638SOL     OW34372   0.809   1.065   9.554 -0.0243 -0.6677  0.0344
 7638SOL    HW134373   0.810   1.003   9.626 -1.6258  1.3794  1.8426
 7638SOL    HW234374   0.789   1.011   9.478  2.4959  0.4098 -1.3755
 7639SOL     OW34375   1.236   2.243  11.421 -0.2514  0.2279 -0.0680
 7639SOL    HW134376   1.175   2.177  11.389  2.0450 -1.6215 -0.6172
 7639SOL    HW234377   1.302   2.246  11.352 -2.0551  0.8020 -1.7723
 7640SOL     OW34378   3.492   1.255   6.334  0.2081  0.1952 -0.1447
 7640SOL    HW134379   3.543   1.246   6.253  1.1010  1.5068  0.2519
 7640SOL    HW234380   3.502   1.167   6.369 -0.5183 -1.4867 -4.2289
 7641SOL     OW34381   3.469   3.606   2.659 -0.6090  0.1729 -1.2658
 7641SOL    HW134382   3.395   3.619   2.600 -0.5464 -0.5271 -1.5053
 7641SOL    HW234383   3.550   3.634   2.617  0.5177  0.1953  0.9427
 7642SOL     OW34384   3.746   2.873   7.536 -0.0810 -0.0559  0.4062
 7642SOL    HW134385   3.774   2.810   7.602  0.3810 -0.9445 -0.6203
 7642SOL    HW234386   3.756   2.955   7.583  1.7008  0.2342 -0.4566
 7643SOL     OW34387   2.216   2.585   3.767 -0.0933  0.0175  0.0334
 7643SOL    HW134388   2.240   2.576   3.675  0.4571  0.4197  0.1371
 7643SOL    HW234389   2.227   2.493   3.791  0.5985 -0.1953 -1.1098
 7644SOL     OW34390   2.469   0.719  12.862  0.0005  0.1002  0.0061
 7644SOL    HW134391   2.409   0.680  12.926  0.0293  0.7754  0.4481
 7644SOL    HW234392   2.546   0.731  12.917 -1.0887  1.2394  1.2918
 7645SOL     OW34393   4.157   3.586  13.229  0.3106  0.2888  0.2733
 7645SOL    HW134394   4.201   3.664  13.262 -0.7090  1.1285 -0.3387
 7645SOL    HW234395   4.224   3.564  13.165 -0.7030  0.1498 -0.7407
 7646SOL     OW34396   3.984   1.143  17.601  0.5195  0.0929  0.1895
 7646SOL    HW134397   3.930   1.189  17.537 -0.1729  0.2009  0.8474
 7646SOL    HW234398   3.985   1.050  17.579 -1.2704 -0.2034  1.3411
 7647SOL     OW34399   0.575   1.118   3.789  0.5984 -0.0535 -0.1183
 7647SOL    HW134400   0.625   1.090   3.712 -0.3242 -0.7780 -0.4467
 7647SOL    HW234401   0.566   1.043   3.848  0.6826 -0.7204 -0.9642
 7648SOL     OW34402   1.201   1.041  13.748  0.3135  0.0174  0.0457
 7648SOL    HW134403   1.279   1.094  13.730 -1.6551  2.9072  0.0482
 7648SOL    HW234404   1.131   1.089  13.704 -0.6949 -1.0901  0.4285
 7649SOL     OW34405   2.857   4.441   1.015  0.2186 -0.1685  0.0543
 7649SOL    HW134406   2.838   4.487   0.933 -2.9457 -0.5782  0.5639
 7649SOL    HW234407   2.865   4.516   1.075 -2.9416  1.3089 -1.3700
 7650SOL     OW34408   2.155   0.958   5.343  0.4475 -0.4243 -0.3682
 7650SOL    HW134409   2.201   0.964   5.426 -0.6067 -2.4341  0.3767
 7650SOL    HW234410   2.220   0.916   5.285 -0.3172  0.7142 -2.0510
 7651SOL     OW34411   3.720   0.801  12.967 -0.2864 -0.9562 -0.1257
 7651SOL    HW134412   3.800   0.748  12.961 -0.0240 -0.6027  0.1684
 7651SOL    HW234413   3.651   0.738  12.949 -0.4493 -0.2965 -1.7857
 7652SOL     OW34414   0.490   4.166   0.077  0.5134 -0.2866  0.5043
 7652SOL    HW134415   0.546   4.208   0.142 -0.3426 -0.8464  1.5908
 7652SOL    HW234416   0.402   4.168   0.113  0.9467 -0.8667  1.5939
 7653SOL     OW34417   1.841   4.552  16.478  0.0439 -0.2612 -0.1600
 7653SOL    HW134418   1.799   4.486  16.533  0.4023 -0.3335  0.0291
 7653SOL    HW234419   1.935   4.550  16.497 -0.4309 -0.6469  2.1244
 7654SOL     OW34420   1.343   2.030  11.012 -0.0050  1.2164  0.2904
 7654SOL    HW134421   1.329   1.939  11.035 -3.3766  1.8946  0.9483
 7654SOL    HW234422   1.394   2.013  10.933  0.6060  1.0367  0.7271
 7655SOL     OW34423   3.298   2.382  12.621 -0.5185 -0.1052 -0.5109
 7655SOL    HW134424   3.310   2.474  12.644 -0.0199 -0.8787  2.3420
 7655SOL    HW234425   3.207   2.365  12.645 -0.7962  0.7600 -0.9533
 7656SOL     OW34426   0.891   3.243   1.225 -0.4571  0.2393  0.2500
 7656SOL    HW134427   0.826   3.245   1.155  0.1979 -0.6134 -0.3811
 7656SOL    HW234428   0.936   3.326   1.208 -0.4293  0.1558 -0.0744
 7657SOL     OW34429   2.470   2.886   1.416 -0.0209  0.0392  0.1795
 7657SOL    HW134430   2.471   2.892   1.512 -2.0361  1.3607  0.1132
 7657SOL    HW234431   2.535   2.954   1.394 -2.0970  1.3050 -2.0225
 7658SOL     OW34432   3.673   0.082   5.500 -0.5640  0.2862  0.3202
 7658SOL    HW134433   3.653   4.716   5.535 -0.7710  0.0922 -0.2847
 7658SOL    HW234434   3.747   0.054   5.446 -0.0256 -1.1552  1.8050
 7659SOL     OW34435   1.268   3.276   0.819 -0.3792  0.2427 -0.1195
 7659SOL    HW134436   1.349   3.250   0.775  0.6717 -0.2130  2.0827
 7659SOL    HW234437   1.283   3.271   0.914 -1.1314 -0.1730 -0.0253
 7660SOL     OW34438   1.892   1.616   5.584 -0.1505 -0.3709  0.4765
 7660SOL    HW134439   1.932   1.613   5.671  0.1788 -1.1318  0.2964
 7660SOL    HW234440   1.912   1.524   5.566  0.2808  0.0113 -0.9754
 7661SOL     OW34441   4.479   4.380  12.477  0.1494  0.1067 -0.1005
 7661SOL    HW134442   4.499   4.357  12.568 -1.7026 -2.1490 -0.2676
 7661SOL    HW234443   4.384   4.388  12.489 -0.0575 -0.5626 -1.2986
 7662SOL     OW34444   2.909   3.358   7.712  0.3835 -0.3468  0.3122
 7662SOL    HW134445   2.998   3.359   7.677  0.7985 -3.9139  1.3159
 7662SOL    HW234446   2.921   3.351   7.806 -1.0258  0.6153  0.5771
 7663SOL     OW34447   2.001   4.001   3.256 -0.0556  0.5483 -0.4221
 7663SOL    HW134448   2.033   3.924   3.303  0.4599  1.3349  0.5111
 7663SOL    HW234449   1.910   4.013   3.286 -0.9635 -0.1652 -2.8710
 7664SOL     OW34450   4.026   2.101  12.524 -0.0343 -0.2597  0.2773
 7664SOL    HW134451   3.955   2.082  12.463 -0.0619  0.9125 -0.0562
 7664SOL    HW234452   3.983   2.095  12.609 -1.3866  2.1809 -0.2527
 7665SOL     OW34453   2.012   4.397   6.252  0.2191 -0.5205  0.3074
 7665SOL    HW134454   2.018   4.488   6.223  2.4695 -0.5692  0.5802
 7665SOL    HW234455   2.033   4.405   6.345 -1.2002  0.1488  0.5737
 7666SOL     OW34456   1.617   0.466   5.084  0.0252 -0.1048 -0.2511
 7666SOL    HW134457   1.545   0.435   5.140 -0.9261  2.1212 -0.2681
 7666SOL    HW234458   1.576   0.471   4.998  0.3564  1.0725 -0.3410
 7667SOL     OW34459   3.339   3.782   9.848 -0.1948 -0.3220 -0.0717
 7667SOL    HW134460   3.363   3.820   9.764 -1.7688 -1.3710 -1.0151
 7667SOL    HW234461   3.291   3.860   9.875  1.3943  0.5837  0.1360
 7668SOL     OW34462   2.248   0.610   7.576  0.5005  0.0526 -0.2281
 7668SOL    HW134463   2.288   0.654   7.502  2.1565  0.4923  0.9360
 7668SOL    HW234464   2.176   0.558   7.538  0.2595  0.2632 -0.0585
 7669SOL     OW34465   2.829   0.679   7.311  0.1243 -0.3926  0.2555
 7669SOL    HW134466   2.786   0.602   7.348 -0.2133  0.1277  0.9431
 7669SOL    HW234467   2.893   0.638   7.253  0.4187 -0.8332  0.9014
 7670SOL     OW34468   3.497   0.773  17.013 -0.0336 -0.2140 -0.3298
 7670SOL    HW134469   3.560   0.806  16.950  0.1858 -1.2857 -0.6648
 7670SOL    HW234470   3.471   0.859  17.047 -0.7449 -0.2374 -0.7923
 7671SOL     OW34471   3.746   0.550   3.875  0.0329 -0.3636  0.3398
 7671SOL    HW134472   3.682   0.599   3.824  0.5400 -0.3800 -0.3229
 7671SOL    HW234473   3.829   0.594   3.858 -2.0475  2.3514 -2.7174
 7672SOL     OW34474   1.648   2.123  11.935 -0.6455  0.2558  0.1341
 7672SOL    HW134475   1.672   2.207  11.897 -0.8086 -0.0362 -0.6223
 7672SOL    HW234476   1.623   2.155  12.021 -0.2697  2.0559 -0.4323
 7673SOL     OW34477   1.479   2.200  11.647 -0.5926  0.0158  0.2260
 7673SOL    HW134478   1.499   2.123  11.594 -0.8910 -0.1369  0.3374
 7673SOL    HW234479   1.558   2.202  11.701  0.5129  0.8830 -1.4022
 7674SOL     OW34480   2.727   3.525   0.954  0.6970 -0.2322  0.0725
 7674SOL    HW134481   2.793   3.564   1.012  1.7395 -0.6553 -0.8295
 7674SOL    HW234482   2.767   3.566   0.877 -3.9065  1.0183 -1.6505
 7675SOL     OW34483   3.371   0.144   7.479  0.9159 -0.1680  0.2814
 7675SOL    HW134484   3.423   0.086   7.534 -0.8644  0.1169  2.2478
 7675SOL    HW234485   3.286   0.129   7.519  0.5558 -1.8420 -1.1289
 7676SOL     OW34486   3.557   1.121   6.091  0.0810  0.0821 -0.4323
 7676SOL    HW134487   3.639   1.110   6.044 -0.0959  0.1552 -0.7573
 7676SOL    HW234488   3.489   1.144   6.027  0.1798 -0.4937 -0.7450
 7677SOL     OW34489   2.760   3.799  15.701  0.1740 -0.6039 -0.0424
 7677SOL    HW134490   2.815   3.755  15.635 -0.8184 -2.1868  0.1874
 7677SOL    HW234491   2.779   3.892  15.688  2.0378 -1.2126 -1.6413
 7678SOL     OW34492   1.511   3.846  10.964  0.1214  0.3737  0.0137
 7678SOL    HW134493   1.472   3.796  11.036 -1.6114  0.9121 -0.5572
 7678SOL    HW234494   1.593   3.868  11.008  0.0847 -1.1043  0.8429
 7679SOL     OW34495   4.357   1.792   5.204  0.6246  0.3475 -0.2324
 7679SOL    HW134496   4.308   1.875   5.205  0.7703  0.4538 -1.6872
 7679SOL    HW234497   4.442   1.828   5.228  0.7739 -0.0108 -0.2231
 7680SOL     OW34498   0.366   3.082   6.972  0.3341  0.3543 -0.2890
 7680SOL    HW134499   0.407   3.142   6.910  0.4030 -0.3528 -0.9337
 7680SOL    HW234500   0.284   3.065   6.926  0.1502  1.3283 -0.3055
 7681SOL     OW34501   4.000   3.730   2.940  0.1929 -0.4360 -0.3175
 7681SOL    HW134502   3.970   3.644   2.967 -2.6342  0.6726 -0.0051
 7681SOL    HW234503   3.946   3.777   3.003  2.0727  1.3914 -0.0310
 7682SOL     OW34504   4.281   4.490   2.518  0.3434 -0.3942  0.2251
 7682SOL    HW134505   4.348   4.535   2.466 -0.4059  0.8058  0.3062
 7682SOL    HW234506   4.330   4.461   2.595 -1.9997 -0.6975  1.5788
 7683SOL     OW34507   2.463   3.581   3.102 -0.3446  0.5245  0.3567
 7683SOL    HW134508   2.403   3.653   3.086 -3.1182 -2.0890 -0.9663
 7683SOL    HW234509   2.399   3.509   3.100 -0.5610  0.7567 -1.1892
 7684SOL     OW34510   2.296   1.415   8.341 -0.7943 -0.3610  0.1959
 7684SOL    HW134511   2.251   1.497   8.319  1.6859  1.6090  2.5332
 7684SOL    HW234512   2.287   1.393   8.434  0.0052 -1.5636 -0.0125
 7685SOL     OW34513   4.316   3.022   6.145  0.2527 -0.3654  0.3764
 7685SOL    HW134514   4.309   3.000   6.238  1.1240  0.7386  0.7033
 7685SOL    HW234515   4.246   3.084   6.124  0.0596 -0.8875 -0.4788
 7686SOL     OW34516   0.722   1.345   3.801  0.7572 -0.3309  0.2716
 7686SOL    HW134517   0.698   1.252   3.803  0.3015 -0.2781 -2.8175
 7686SOL    HW234518   0.736   1.364   3.894 -0.6866  1.8284  0.0316
 7687SOL     OW34519   1.220   0.714   5.831  0.4631  0.0686  0.0795
 7687SOL    HW134520   1.192   0.800   5.865  2.4239  1.0366 -0.7485
 7687SOL    HW234521   1.138   0.665   5.838  0.2304  0.1843 -1.9319
 7688SOL     OW34522   0.888   4.390   7.703 -0.0452 -0.1006  0.7560
 7688SOL    HW134523   0.944   4.447   7.650  1.8897 -0.2397  2.6729
 7688SOL    HW234524   0.820   4.452   7.731 -1.3816 -1.0131 -0.4469
 7689SOL     OW34525   1.414   3.082   7.572 -0.2459  0.1622 -0.5873
 7689SOL    HW134526   1.414   3.168   7.615  1.7193  0.6686 -1.5980
 7689SOL    HW234527   1.454   3.104   7.488 -0.3347  0.5370 -0.5310
 7690SOL     OW34528   3.188   1.638   0.307 -0.0835  0.0188  0.5119
 7690SOL    HW134529   3.256   1.700   0.279 -0.8550  1.1034  1.0422
 7690SOL    HW234530   3.217   1.623   0.397 -0.4585 -0.4866  0.5448
 7691SOL     OW34531   2.587   1.156   5.103  0.4784  0.4884  0.1715
 7691SOL    HW134532   2.506   1.104   5.106  0.1004  1.1595  1.5086
 7691SOL    HW234533   2.577   1.208   5.183  1.3175 -0.7699  1.0998
 7692SOL     OW34534   4.512   2.013   6.040 -0.4615 -0.4641 -0.2330
 7692SOL    HW134535   4.464   1.955   5.981  1.1206  0.4575 -2.4574
 7692SOL    HW234536   4.480   1.981   6.124  1.2127 -1.6774 -0.0672
 7693SOL     OW34537   0.385   2.163   6.044 -0.2385  0.0108  0.0377
 7693SOL    HW134538   0.294   2.182   6.024 -0.4853  0.9309  2.0365
 7693SOL    HW234539   0.424   2.201   5.965  1.9524  0.1028  1.1735
 7694SOL     OW34540   0.352   0.356  12.607 -0.5895 -0.0860  0.4037
 7694SOL    HW134541   0.347   0.409  12.527 -2.3413 -0.1270  0.4982
 7694SOL    HW234542   0.436   0.383  12.644 -0.7730 -1.4112  1.8016
 7695SOL     OW34543   2.059   4.662   8.859 -0.1166  0.0909 -0.6798
 7695SOL    HW134544   1.999   4.717   8.908  0.7606  0.5545 -0.1184
 7695SOL    HW234545   2.013   4.644   8.777  2.0678 -0.2780 -1.8532
 7696SOL     OW34546   0.289   4.138   3.288  0.2082 -0.2560  0.2658
 7696SOL    HW134547   0.376   4.098   3.285  0.5995  0.8232 -3.0170
 7696SOL    HW234548   0.275   4.158   3.196  0.1525  0.1745  0.3672
 7697SOL     OW34549   0.096   0.577   0.093  0.0661 -0.4157  0.3820
 7697SOL    HW134550   0.131   0.666   0.096 -0.7930 -0.1264  1.6781
 7697SOL    HW234551   0.019   0.585   0.149 -1.0895 -1.3628 -1.0766
 7698SOL     OW34552   2.642   0.567   8.425 -0.2424  0.2955 -0.0165
 7698SOL    HW134553   2.657   0.479   8.459  1.1271  0.3373 -0.5027
 7698SOL    HW234554   2.580   0.549   8.355  0.3739 -0.5648 -0.3397
 7699SOL     OW34555   1.773   1.605   7.413  0.1906  0.2154  0.6061
 7699SOL    HW134556   1.747   1.514   7.425  0.2752  0.4529  2.6767
 7699SOL    HW234557   1.786   1.635   7.503 -2.5736 -1.1356  1.4476
 7700SOL     OW34558   0.080   0.442   8.199  0.7222  0.1848  0.5148
 7700SOL    HW134559   0.026   0.476   8.127  3.0673 -0.2208 -1.4337
 7700SOL    HW234560   0.103   0.529   8.233  0.1587  0.8687 -0.8613
 7701SOL     OW34561   0.988   1.655   3.352 -0.5186  0.1368  0.7379
 7701SOL    HW134562   0.966   1.727   3.293  0.1413  0.4083  0.8151
 7701SOL    HW234563   0.914   1.597   3.334 -0.8150  0.8856 -0.4224
 7702SOL     OW34564   4.597   3.860  12.385  0.0066 -1.0229  0.1562
 7702SOL    HW134565   4.539   3.877  12.310  1.0502  2.1297  0.0760
 7702SOL    HW234566   4.551   3.920  12.443  3.0520  0.6993  0.7581
 7703SOL     OW34567   1.774   3.902   3.469 -0.0508  0.6205 -0.4037
 7703SOL    HW134568   1.849   3.901   3.528 -1.5405 -0.3864  1.4595
 7703SOL    HW234569   1.726   3.838   3.522 -0.1280  0.2068 -0.9655
 7704SOL     OW34570   0.654   0.470   6.343 -0.5629  0.3081  0.7859
 7704SOL    HW134571   0.563   0.443   6.333 -0.3909  0.5794 -1.5543
 7704SOL    HW234572   0.649   0.566   6.343 -0.6029  0.3131 -0.7173
 7705SOL     OW34573   1.782   2.685  11.211  0.8400 -0.1584  0.2702
 7705SOL    HW134574   1.768   2.750  11.143  1.1202 -2.2029 -1.7354
 7705SOL    HW234575   1.731   2.714  11.287  0.0132  1.0381 -0.7492
 7706SOL     OW34576   1.282   1.584   4.968  0.2145  0.0591 -0.3058
 7706SOL    HW134577   1.213   1.523   4.995 -1.4936  1.3813 -1.6487
 7706SOL    HW234578   1.357   1.528   4.947 -0.0999 -0.9738  1.2803
 7707SOL     OW34579   3.615   2.901   3.263 -0.4491 -0.1693  0.1213
 7707SOL    HW134580   3.697   2.905   3.312 -0.8620  0.1526  0.7833
 7707SOL    HW234581   3.639   2.840   3.193 -2.1083 -2.0833  1.2415
 7708SOL     OW34582   1.442   4.604  11.461  0.1242  0.2632 -0.0048
 7708SOL    HW134583   1.361   4.600  11.512  1.5270 -0.1073  2.1744
 7708SOL    HW234584   1.512   4.620  11.524  0.6129  1.0494 -0.7417
 7709SOL     OW34585   4.249   4.659   7.159  0.3824  0.1722  0.1995
 7709SOL    HW134586   4.245   0.002   7.087  0.2581  0.7602  0.7202
 7709SOL    HW234587   4.324   4.605   7.136 -1.1559 -1.0112 -1.9174
 7710SOL     OW34588   1.821   1.155   3.687 -0.1292 -0.4034  0.1160
 7710SOL    HW134589   1.787   1.104   3.614 -0.6810 -0.3127  0.3130
 7710SOL    HW234590   1.777   1.127   3.767  1.7389 -1.0257  0.9321
 7711SOL     OW34591   3.053   3.517  11.209  0.1738  0.1146 -0.4434
 7711SOL    HW134592   2.962   3.530  11.236  0.4888  2.7327 -0.5877
 7711SOL    HW234593   3.094   3.579  11.270  0.9022  0.2539 -1.0781
 7712SOL     OW34594   0.136   2.844  11.572 -0.0526  0.2497 -0.7183
 7712SOL    HW134595   0.212   2.856  11.516  0.5817 -0.3803  0.0156
 7712SOL    HW234596   0.134   2.925  11.623 -0.1851  1.3170 -2.4035
 7713SOL     OW34597   2.837   1.153   1.816 -0.3714 -0.1572 -0.9275
 7713SOL    HW134598   2.856   1.137   1.724  1.9063  0.9861 -0.6531
 7713SOL    HW234599   2.837   1.249   1.811  1.5017 -0.2165 -2.1229
 7714SOL     OW34600   1.992   4.442   3.425 -0.6075 -0.2093 -0.3998
 7714SOL    HW134601   1.988   4.518   3.366  0.8347 -0.0784 -0.3221
 7714SOL    HW234602   1.910   4.456   3.472 -1.5678 -0.4966 -1.9718
 7715SOL     OW34603   0.155   4.709   3.411 -1.1246 -0.1970 -0.2898
 7715SOL    HW134604   0.239   0.018   3.444 -1.5067  0.0294  0.4654
 7715SOL    HW234605   0.111   0.021   3.489 -0.7395 -2.8360  1.0092
 7716SOL     OW34606   0.483   2.601   5.322 -0.4071 -0.2801 -0.3566
 7716SOL    HW134607   0.407   2.599   5.380  0.4368  0.2866  0.7877
 7716SOL    HW234608   0.452   2.551   5.247  0.7171  0.2996 -1.2054
 7717SOL     OW34609   0.960   0.874   8.359  0.2279 -0.1313  0.0384
 7717SOL    HW134610   0.928   0.785   8.346  0.7148 -0.0867 -1.4522
 7717SOL    HW234611   0.927   0.923   8.284  1.0684  0.3175 -0.0386
 7718SOL     OW34612   4.578   1.582   5.877 -0.1386 -0.2071  0.2396
 7718SOL    HW134613   4.528   1.657   5.846 -1.5091 -1.6494 -1.0355
 7718SOL    HW234614   4.588   1.527   5.799  0.2182  0.8804 -0.4951
 7719SOL     OW34615   0.595   1.155   8.888  0.6711  0.3340  0.0354
 7719SOL    HW134616   0.632   1.068   8.903  0.1805  0.0273 -0.5522
 7719SOL    HW234617   0.513   1.159   8.935  0.4330  1.6832 -0.4848
 7720SOL     OW34618   0.053   4.046  13.051  0.0246 -0.2961  0.0743
 7720SOL    HW134619   0.005   4.124  13.077 -0.8341 -0.7583 -0.1139
 7720SOL    HW234620   0.059   4.003  13.136  0.8023 -0.1220  0.1113
 7721SOL     OW34621   1.695   4.618  13.176 -0.2304  0.6236  0.3821
 7721SOL    HW134622   1.697   4.702  13.130 -0.2261 -0.1473 -1.0280
 7721SOL    HW234623   1.605   4.592  13.196 -0.3707  1.7518  1.2433
 7722SOL     OW34624   1.043   4.327   1.560 -0.1662  0.2032 -0.2798
 7722SOL    HW134625   1.035   4.327   1.655  0.5453  0.9495 -0.2210
 7722SOL    HW234626   1.137   4.340   1.552 -0.0910  0.1545  0.5614
 7723SOL     OW34627   3.144   2.613   2.247  0.0373  0.3499 -0.2651
 7723SOL    HW134628   3.117   2.703   2.264 -0.9175  0.3072 -1.5757
 7723SOL    HW234629   3.237   2.620   2.225  0.5704 -2.9110  0.8730
 7724SOL     OW34630   3.808   1.404   3.107  0.1904 -0.3822 -0.2841
 7724SOL    HW134631   3.850   1.475   3.156  0.2631  0.5823 -1.7419
 7724SOL    HW234632   3.782   1.452   3.029  0.2390  1.0292  0.5773
 7725SOL     OW34633   0.035   4.228   5.162 -0.3053 -0.2621  0.7420
 7725SOL    HW134634   0.054   4.223   5.256  2.4829  1.4442  0.2481
 7725SOL    HW234635   0.062   4.319   5.149  1.0936 -0.6830  0.7684
 7726SOL     OW34636   2.157   2.290  17.119 -0.3940 -0.1584  0.0117
 7726SOL    HW134637   2.168   2.263  17.210  3.2288  1.5920  0.1159
 7726SOL    HW234638   2.064   2.312  17.112  0.1927  2.8489  1.4498
 7727SOL     OW34639   2.881   4.304   7.188  1.1183 -0.0140 -0.6530
 7727SOL    HW134640   2.854   4.372   7.125 -0.0437 -1.3349 -1.5882
 7727SOL    HW234641   2.800   4.261   7.216 -0.1628  0.9891 -2.7764
 7728SOL     OW34642   2.993   0.559  12.112 -0.3247  0.3973 -0.4340
 7728SOL    HW134643   2.978   0.468  12.087 -0.9226  0.5880 -0.7556
 7728SOL    HW234644   3.044   0.543  12.192 -0.7101  0.9331 -0.0732
 7729SOL     OW34645   4.470   4.015   5.529  0.4297  0.2813 -0.2308
 7729SOL    HW134646   4.525   4.086   5.562  1.4724 -0.9677  0.7259
 7729SOL    HW234647   4.468   3.965   5.611 -1.3192 -0.3917 -0.6803
 7730SOL     OW34648   3.123   0.433   5.118 -0.4969  0.4555 -0.2339
 7730SOL    HW134649   3.174   0.366   5.074  0.3202  1.4235 -0.7438
 7730SOL    HW234650   3.058   0.456   5.051 -0.5279 -0.6092 -0.5691
 7731SOL     OW34651   2.136   3.211   3.540 -0.3634 -0.2620  0.2441
 7731SOL    HW134652   2.102   3.184   3.625 -0.3418  1.1912  0.7142
 7731SOL    HW234653   2.162   3.303   3.551  1.5069 -0.7055 -0.4941
 7732SOL     OW34654   0.718   2.520  13.704  0.3116 -0.6491  0.1387
 7732SOL    HW134655   0.661   2.589  13.671  0.5737 -0.5778 -0.1657
 7732SOL    HW234656   0.780   2.579  13.746  0.3237  0.6047 -1.6788
 7733SOL     OW34657   2.467   3.457   4.984  0.5990 -0.1697  0.2802
 7733SOL    HW134658   2.495   3.472   5.074  1.7734 -1.1428  0.0849
 7733SOL    HW234659   2.504   3.372   4.961 -1.0896 -0.6630 -0.5746
 7734SOL     OW34660   2.956   1.667   3.867 -0.8569  0.1651 -0.1406
 7734SOL    HW134661   2.937   1.759   3.887  1.4926  0.6175 -0.0608
 7734SOL    HW234662   3.026   1.690   3.806 -0.1140  1.2716  1.1483
 7735SOL     OW34663   3.074   3.921   3.240 -0.1504  0.6683 -0.1180
 7735SOL    HW134664   3.039   3.840   3.278 -2.8827  1.2140 -1.5168
 7735SOL    HW234665   3.125   3.883   3.168  1.3881  1.0620  0.7637
 7736SOL     OW34666   0.695   1.572  16.083 -0.0527  0.2927 -0.4866
 7736SOL    HW134667   0.660   1.627  16.013  3.3885  2.1015 -0.7668
 7736SOL    HW234668   0.764   1.622  16.125  0.6390 -0.1511 -1.0827
 7737SOL     OW34669   1.464   2.778  17.090  0.0829  0.1168 -0.5193
 7737SOL    HW134670   1.440   2.839  17.160 -0.2261 -0.2207 -0.3303
 7737SOL    HW234671   1.390   2.719  17.082 -0.3933  0.9826 -2.5587
 7738SOL     OW34672   2.319   4.153  14.339  0.3478 -0.6999  0.3804
 7738SOL    HW134673   2.273   4.124  14.418  0.1590 -0.8430  0.2197
 7738SOL    HW234674   2.309   4.245  14.363  1.5073 -0.4398 -0.1362
 7739SOL     OW34675   0.663   0.669   0.050 -0.3240 -0.2013  0.0819
 7739SOL    HW134676   0.623   0.684   0.136 -2.2914 -1.1242 -0.6740
 7739SOL    HW234677   0.752   0.698   0.072 -0.6805 -0.1019  1.4049
 7740SOL     OW34678   1.483   4.574   4.084 -0.6401 -0.4836 -0.9971
 7740SOL    HW134679   1.423   4.579   4.010 -2.0927 -1.3927  0.1230
 7740SOL    HW234680   1.542   4.643   4.054  0.7166 -0.3035  2.1471
 7741SOL     OW34681   2.777   0.811  12.821  0.1334 -0.3925  0.0531
 7741SOL    HW134682   2.810   0.722  12.835 -0.3280 -1.0344 -2.9633
 7741SOL    HW234683   2.839   0.836  12.753  1.7183  0.9181  1.9906
 7742SOL     OW34684   2.265   2.004   2.536 -0.2353 -0.7071  0.3380
 7742SOL    HW134685   2.250   1.933   2.473 -0.9783 -0.8482  0.6859
 7742SOL    HW234686   2.359   2.023   2.531 -0.3172 -0.1324  1.0220
 7743SOL     OW34687   1.711   0.867   9.386 -0.5525  0.2369 -0.6185
 7743SOL    HW134688   1.773   0.907   9.326  0.8734  0.8594  1.2909
 7743SOL    HW234689   1.703   0.780   9.345 -1.8751 -0.1123  0.3508
 7744SOL     OW34690   1.725   4.676  12.851  0.0407  0.5750  0.0754
 7744SOL    HW134691   1.653   4.613  12.846 -0.3267  0.8622  1.8627
 7744SOL    HW234692   1.707   4.716  12.936  2.6928 -0.3740  1.0733
 7745SOL     OW34693   0.689   3.306   6.332 -0.4579  0.9114  1.1233
 7745SOL    HW134694   0.730   3.350   6.257  0.8709 -0.3028  1.1334
 7745SOL    HW234695   0.596   3.317   6.313 -0.1786 -3.2027 -2.5190
 7746SOL     OW34696   3.016   2.963   1.192 -0.4246 -0.2256 -0.3229
 7746SOL    HW134697   3.066   2.980   1.271 -0.1835  0.3303 -0.5966
 7746SOL    HW234698   2.969   3.047   1.194 -2.0013 -1.0640 -1.2008
 7747SOL     OW34699   0.777   4.421   2.490 -0.2434  0.2618  0.0142
 7747SOL    HW134700   0.832   4.343   2.485 -0.2574  0.2693 -0.2406
 7747SOL    HW234701   0.743   4.434   2.401 -0.2584 -2.0750 -0.3271
 7748SOL     OW34702   1.933   1.260   9.443  0.3138 -0.0307 -0.1941
 7748SOL    HW134703   1.900   1.176   9.476  0.4986  0.4818  1.2986
 7748SOL    HW234704   1.858   1.320   9.442  1.7718  1.8148  0.9173
 7749SOL     OW34705   4.483   3.455   7.848  0.6051  0.4537 -0.2141
 7749SOL    HW134706   4.411   3.413   7.801 -2.1789  3.1396  1.6468
 7749SOL    HW234707   4.562   3.413   7.816  1.4917  2.0987 -0.1811
 7750SOL     OW34708   1.305   0.210   9.394  0.0648 -0.1126 -0.0508
 7750SOL    HW134709   1.298   0.166   9.309 -1.4441  1.3439 -0.6653
 7750SOL    HW234710   1.359   0.285   9.367  0.8470  0.1310  2.2454
 7751SOL     OW34711   3.379   3.692   2.057  0.4879 -0.2654 -0.4204
 7751SOL    HW134712   3.361   3.665   2.147  2.6132 -2.2401 -0.5878
 7751SOL    HW234713   3.449   3.631   2.033 -0.9959 -2.6924  1.4324
 7752SOL     OW34714   3.251   1.037  13.345 -0.3026  0.0570  0.5706
 7752SOL    HW134715   3.246   1.115  13.290 -2.9321 -0.1816  0.4856
 7752SOL    HW234716   3.346   1.035  13.351 -0.2821  2.2814  1.0915
 7753SOL     OW34717   4.274   0.889   3.829  0.1468  0.1133 -0.0737
 7753SOL    HW134718   4.217   0.953   3.872  0.6637 -0.8171  2.0289
 7753SOL    HW234719   4.241   0.804   3.860 -1.0284 -0.2542 -2.3161
 7754SOL     OW34720   1.935   0.141   3.314 -0.1612  0.0082 -0.0023
 7754SOL    HW134721   1.891   0.225   3.299 -0.2884 -0.0150  0.2354
 7754SOL    HW234722   1.887   0.114   3.393 -2.0209  0.7596 -0.8748
 7755SOL     OW34723   2.328   4.517   8.254  0.7790 -0.2648  0.1297
 7755SOL    HW134724   2.376   4.594   8.285 -1.1437  1.3153 -0.7726
 7755SOL    HW234725   2.386   4.451   8.292  1.0655 -0.9675 -1.5225
 7756SOL     OW34726   2.561   4.080   3.423  0.0010  0.5524 -0.3467
 7756SOL    HW134727   2.556   4.162   3.374  2.6169  2.0450  1.8671
 7756SOL    HW234728   2.623   4.030   3.370  0.2189  1.1292 -0.6347
 7757SOL     OW34729   4.042   2.122   4.525 -0.4482  0.0938  0.0731
 7757SOL    HW134730   4.069   2.037   4.559  0.6296  0.5175  0.2718
 7757SOL    HW234731   4.116   2.176   4.555  1.5840 -2.5332 -0.1960
 7758SOL     OW34732   3.006   2.987   7.439  0.1712 -0.0706 -0.2313
 7758SOL    HW134733   3.076   3.052   7.449  0.1763  0.3412 -3.0636
 7758SOL    HW234734   3.007   2.971   7.345  2.7294 -0.4926 -0.1209
 7759SOL     OW34735   3.625   4.517   8.129 -0.2526  0.0477  0.4855
 7759SOL    HW134736   3.642   4.485   8.217 -2.2602 -0.0682  0.8329
 7759SOL    HW234737   3.610   4.609   8.152 -3.4076 -0.1136 -0.9080
 7760SOL     OW34738   0.632   3.360   3.865  0.8290  0.1739 -0.2216
 7760SOL    HW134739   0.663   3.299   3.932  1.6383 -0.8818 -1.5433
 7760SOL    HW234740   0.715   3.363   3.817  0.7264 -1.2628 -0.4934
 7761SOL     OW34741   1.146   4.588  10.225  0.4320 -0.8561 -0.2428
 7761SOL    HW134742   1.234   4.574  10.260  0.6165  0.2287 -0.2568
 7761SOL    HW234743   1.158   4.568  10.132  3.5463 -0.0187 -0.0296
 7762SOL     OW34744   0.195   4.366  12.513 -0.1841 -0.1486 -0.4908
 7762SOL    HW134745   0.164   4.414  12.436 -0.2356 -0.8130 -0.8789
 7762SOL    HW234746   0.144   4.407  12.583 -1.0692 -1.3488 -0.4567
 7763SOL     OW34747   0.323   0.305   5.753  0.0493  0.2171 -0.0678
 7763SOL    HW134748   0.250   0.328   5.696  0.2122  0.7601 -0.0570
 7763SOL    HW234749   0.387   0.275   5.688  0.0382  1.2977 -0.5767
 7764SOL     OW34750   0.066   1.938   0.167 -0.0824 -0.1541  0.5921
 7764SOL    HW134751   0.057   1.997   0.242  0.5661  1.0686 -0.3123
 7764SOL    HW234752   0.036   1.992   0.095  0.2596 -1.1073 -0.2669
 7765SOL     OW34753   1.574   0.445   4.826  0.1369  0.3877 -0.1543
 7765SOL    HW134754   1.628   0.434   4.748  0.5445 -0.2377  0.2129
 7765SOL    HW234755   1.498   0.476   4.778 -0.9107  0.1277  1.3478
 7766SOL     OW34756   4.082   0.439  16.069 -0.3057  0.1740 -0.4478
 7766SOL    HW134757   4.133   0.368  16.109  1.3469  1.9668  0.6587
 7766SOL    HW234758   4.012   0.392  16.024  1.2920 -1.7562 -0.9037
 7767SOL     OW34759   1.860   0.253   9.251 -0.0418  0.4647 -0.3771
 7767SOL    HW134760   1.895   0.284   9.335  0.3161  3.3103 -1.5641
 7767SOL    HW234761   1.891   0.326   9.197 -0.5293  0.2528 -0.9433
 7768SOL     OW34762   3.998   2.363   7.506  0.1939  0.0422  0.2733
 7768SOL    HW134763   4.088   2.396   7.506 -0.0958  0.8243 -0.6792
 7768SOL    HW234764   4.009   2.290   7.445 -3.9522  0.9058 -1.4554
 7769SOL     OW34765   3.513   2.688   1.675 -0.2887 -0.0982  0.1603
 7769SOL    HW134766   3.539   2.672   1.766  0.5828 -1.8691 -0.4065
 7769SOL    HW234767   3.487   2.598   1.655  0.1007 -0.0092 -0.7718
 7770SOL     OW34768   3.267   0.187   8.758 -0.2969 -0.2549  0.0875
 7770SOL    HW134769   3.249   0.264   8.811 -1.7385  0.3000 -1.2119
 7770SOL    HW234770   3.342   0.155   8.809 -0.1372  2.1584  1.3489
 7771SOL     OW34771   0.390   3.701  12.615  0.5337  0.0271 -0.4711
 7771SOL    HW134772   0.481   3.676  12.596  0.3474 -0.6140 -0.4933
 7771SOL    HW234773   0.348   3.616  12.607  0.3667  0.1234 -0.6184
 7772SOL     OW34774   4.291   2.747   9.130  0.1281 -0.0937  0.4643
 7772SOL    HW134775   4.373   2.790   9.153 -0.1393  0.1143  1.0372
 7772SOL    HW234776   4.273   2.785   9.043 -0.8881  0.3517  0.8634
 7773SOL     OW34777   2.474   0.174  11.136 -0.0526 -0.4014 -0.2219
 7773SOL    HW134778   2.451   0.266  11.124 -0.6220 -0.4007  0.8349
 7773SOL    HW234779   2.416   0.159  11.211  0.4037 -0.4422  0.1277
 7774SOL     OW34780   0.583   0.634   0.327  0.6464  0.0395 -0.3040
 7774SOL    HW134781   0.538   0.678   0.399 -0.3674 -1.7474  0.1531
 7774SOL    HW234782   0.533   0.552   0.332 -1.8384  1.5542 -0.4888
 7775SOL     OW34783   1.613   0.731  16.952  0.1030 -0.2297 -0.3804
 7775SOL    HW134784   1.700   0.768  16.966  0.3939 -1.3881  0.8736
 7775SOL    HW234785   1.641   0.661  16.894  1.3047  0.5938 -0.7722
 7776SOL     OW34786   0.639   1.678   6.871 -0.0095  0.6566  0.6371
 7776SOL    HW134787   0.565   1.617   6.867  2.2275 -1.7393 -3.6304
 7776SOL    HW234788   0.663   1.650   6.960  0.1446  0.4241  0.5223
 7777SOL     OW34789   2.036   1.325   8.773 -0.2245 -0.0261 -0.0201
 7777SOL    HW134790   2.114   1.294   8.819  0.4665  1.2069 -0.3525
 7777SOL    HW234791   1.993   1.383   8.837  0.7373  0.7163 -0.0555
 7778SOL     OW34792   3.820   3.188  10.046 -0.1689 -0.0624  0.2266
 7778SOL    HW134793   3.815   3.206  10.139 -0.3701  1.1573 -0.0262
 7778SOL    HW234794   3.773   3.104  10.049  0.9396 -0.7624 -1.9214
 7779SOL     OW34795   1.570   2.853   2.761  0.3640 -0.1447  0.3394
 7779SOL    HW134796   1.528   2.886   2.840 -0.4932  1.1895 -0.6730
 7779SOL    HW234797   1.613   2.929   2.720  2.0291 -1.3606 -0.1968
 7780SOL     OW34798   2.218   4.661   2.628  0.0965 -0.2356  0.2720
 7780SOL    HW134799   2.253   0.006   2.688 -3.0785  0.5841  1.2164
 7780SOL    HW234800   2.233   4.704   2.543  1.5156  2.0729  1.7008
 7781SOL     OW34801   2.707   4.329   1.248 -0.2877 -0.7631 -0.1819
 7781SOL    HW134802   2.760   4.365   1.177 -0.9051  1.3363  0.4499
 7781SOL    HW234803   2.630   4.295   1.202 -0.6973  1.6419 -1.2604
 7782SOL     OW34804   4.420   1.880  10.572 -0.5813 -0.3100  0.5504
 7782SOL    HW134805   4.480   1.877  10.646  0.4653  3.1378 -0.1707
 7782SOL    HW234806   4.376   1.794  10.574  0.5521 -0.8978  0.0748
 7783SOL     OW34807   1.821   0.007  13.830 -0.7570 -0.5923 -0.4004
 7783SOL    HW134808   1.732   4.704  13.806 -0.4467 -1.1084 -1.0472
 7783SOL    HW234809   1.842   4.637  13.851 -0.7781  0.1534  2.8548
 7784SOL     OW34810   0.191   1.052  15.125  0.1193  0.0087 -0.0678
 7784SOL    HW134811   0.162   1.128  15.175  1.6621  0.6120 -0.1008
 7784SOL    HW234812   0.255   1.083  15.061  1.9016 -1.4219  0.9927
 7785SOL     OW34813   0.141   3.539  14.849  0.1720 -0.2660 -0.2349
 7785SOL    HW134814   0.209   3.600  14.878  0.0356 -0.9605  1.5292
 7785SOL    HW234815   0.190   3.459  14.867  0.1452 -0.5231 -1.2647
 7786SOL     OW34816   0.832   3.515  13.271  0.4026 -0.4066  0.0072
 7786SOL    HW134817   0.869   3.476  13.191  0.9251  1.3528 -0.6018
 7786SOL    HW234818   0.900   3.566  13.315 -0.2909 -2.2495  3.1906
 7787SOL     OW34819   2.392   2.651   2.345  0.5204  0.0020 -0.0947
 7787SOL    HW134820   2.342   2.570   2.334 -0.9242  0.8456  0.1211
 7787SOL    HW234821   2.320   2.707   2.376 -0.0622  0.7576 -2.7852
 7788SOL     OW34822   3.878   1.105   6.381  0.6025 -0.3034 -0.4865
 7788SOL    HW134823   3.831   1.043   6.437 -1.7038  1.5491 -0.3957
 7788SOL    HW234824   3.960   1.116   6.429  0.6007 -0.2338 -0.4996
 7789SOL     OW34825   3.827   2.702   6.861 -0.0889 -0.0654  0.3852
 7789SOL    HW134826   3.840   2.609   6.877 -0.2705 -0.1233  0.2014
 7789SOL    HW234827   3.731   2.696   6.868  0.0231 -1.5449  0.5367
 7790SOL     OW34828   3.607   3.847   7.272 -0.4906 -0.2107  0.0882
 7790SOL    HW134829   3.624   3.774   7.214 -2.7595 -0.7638  0.1542
 7790SOL    HW234830   3.542   3.809   7.331 -1.6351 -1.3438 -1.9346
 7791SOL     OW34831   4.367   1.692   4.136 -0.4184  0.0642  0.4114
 7791SOL    HW134832   4.350   1.599   4.153 -1.1462 -0.2789 -2.2210
 7791SOL    HW234833   4.419   1.690   4.056 -1.6855  0.7179 -0.4342
 7792SOL     OW34834   3.420   0.385  10.743 -0.1754  0.1248 -0.1684
 7792SOL    HW134835   3.356   0.421  10.682 -0.5999 -1.8937 -0.9422
 7792SOL    HW234836   3.359   0.378  10.816 -0.9833  3.3535 -0.5413
 7793SOL     OW34837   0.197   4.247   0.189  0.0159 -0.1986  0.0369
 7793SOL    HW134838   0.210   4.172   0.246  1.7658  1.0786  1.3331
 7793SOL    HW234839   0.209   4.332   0.233  0.4901 -1.0026  1.4560
 7794SOL     OW34840   1.549   1.528   6.503 -0.0036 -0.7618 -1.0684
 7794SOL    HW134841   1.555   1.543   6.409 -1.2769 -0.4998 -1.1024
 7794SOL    HW234842   1.551   1.617   6.537 -0.3665 -1.7554  1.5834
 7795SOL     OW34843   0.323   4.413  14.264  0.4294  0.2920  0.6157
 7795SOL    HW134844   0.246   4.469  14.267  0.1202  0.0129 -1.8850
 7795SOL    HW234845   0.294   4.322  14.251  1.4571 -0.0306  0.5519
 7796SOL     OW34846   1.697   4.596   8.873  0.0927 -0.1183 -0.3581
 7796SOL    HW134847   1.612   4.582   8.831 -0.3536 -1.0088  0.8163
 7796SOL    HW234848   1.757   4.610   8.800  0.7241 -1.9760 -0.2043
 7797SOL     OW34849   1.706   2.098   4.588  0.0036 -0.3163 -0.4614
 7797SOL    HW134850   1.679   2.025   4.644 -1.1615 -0.9250 -1.8314
 7797SOL    HW234851   1.744   2.161   4.649 -2.4667  0.7183  0.0244
 7798SOL     OW34852   0.433   0.372   8.139  0.5748  0.1898  0.3019
 7798SOL    HW134853   0.462   0.319   8.064 -1.4768  0.3710 -0.6097
 7798SOL    HW234854   0.433   0.461   8.104 -1.5132  1.5663  3.9153
 7799SOL     OW34855   1.281   0.031   6.810 -0.2657 -0.1052  0.1234
 7799SOL    HW134856   1.376   0.018   6.808 -0.2456 -0.1643  1.5051
 7799SOL    HW234857   1.261   0.022   6.903 -1.8027  1.8918 -0.0143
 7800SOL     OW34858   4.061   1.794   2.031 -0.0489 -0.2183 -0.3617
 7800SOL    HW134859   4.148   1.755   2.021 -0.7647 -1.6387 -1.0613
 7800SOL    HW234860   4.066   1.827   2.121  2.4159 -1.8471  0.1199
 7801SOL     OW34861   3.959   1.703  16.831 -0.2757  0.1270  0.1213
 7801SOL    HW134862   3.905   1.692  16.753  1.3279  0.7011 -1.0900
 7801SOL    HW234863   4.028   1.646  16.795  1.4440  1.3290  1.5103
 7802SOL     OW34864   0.431   3.552  15.971 -0.2634 -0.4986 -0.1227
 7802SOL    HW134865   0.410   3.596  16.054 -0.7053 -0.8492 -0.0485
 7802SOL    HW234866   0.368   3.588  15.910 -0.9772  1.3173  1.7046
 7803SOL     OW34867   4.017   4.265   1.574 -0.2562  0.2173  0.2988
 7803SOL    HW134868   3.952   4.323   1.615 -1.3197 -0.0899 -0.9880
 7803SOL    HW234869   4.028   4.316   1.493  0.8713 -0.9816 -0.2981
 7804SOL     OW34870   2.229   2.877   5.913 -0.4239 -0.0583  0.0716
 7804SOL    HW134871   2.180   2.842   5.838  0.9422 -0.7638 -0.4832
 7804SOL    HW234872   2.311   2.887   5.864  0.5606 -4.4195  0.8171
 7805SOL     OW34873   1.805   3.112  16.229 -0.8804  0.3655 -0.5696
 7805SOL    HW134874   1.827   3.147  16.142 -1.1379  2.4892  0.2098
 7805SOL    HW234875   1.733   3.055  16.203  0.2587 -1.9083  1.2770
 7806SOL     OW34876   4.042   4.562   5.843  0.1052  0.2467 -0.6939
 7806SOL    HW134877   3.960   4.575   5.889  0.8838  0.0793  0.7434
 7806SOL    HW234878   4.100   4.521   5.907  2.0669  0.4784 -2.3098
 7807SOL     OW34879   1.386   1.497   2.624 -0.1520 -0.5377 -0.2369
 7807SOL    HW134880   1.429   1.575   2.659  2.1066 -2.2722  0.8182
 7807SOL    HW234881   1.295   1.504   2.653  0.0709 -0.4644  0.4382
 7808SOL     OW34882   2.190   2.977   8.172  0.0251 -0.2652 -0.6570
 7808SOL    HW134883   2.240   3.050   8.209 -0.1929 -0.8190  0.7327
 7808SOL    HW234884   2.097   2.997   8.182  0.0192  0.3227 -1.8298
 7809SOL     OW34885   4.453   0.424   9.549  0.0702  0.4454 -0.6341
 7809SOL    HW134886   4.437   0.341   9.504  2.7044  0.7524 -2.1615
 7809SOL    HW234887   4.458   0.398   9.641 -3.5325  0.1452 -0.5277
 7810SOL     OW34888   2.034   3.512   0.030  0.1208  0.6566  0.5305
 7810SOL    HW134889   1.956   3.536   0.079  0.3867  0.6977  0.9321
 7810SOL    HW234890   1.986   3.483  17.637  1.7258  0.1403 -0.2664
 7811SOL     OW34891   0.900   1.152   2.612 -0.5714  0.0915  0.1586
 7811SOL    HW134892   0.875   1.178   2.700 -2.2658 -0.9483 -0.0057
 7811SOL    HW234893   0.813   1.138   2.573  1.2964 -2.4511 -3.0680
 7812SOL     OW34894   3.413   1.230   8.345 -0.4001  0.3344  0.0296
 7812SOL    HW134895   3.414   1.218   8.440 -1.5066 -0.7584 -0.0959
 7812SOL    HW234896   3.359   1.155   8.321 -0.0199 -0.0068  0.2433
 7813SOL     OW34897   0.484   2.719   7.144 -0.0666 -0.2782  0.2271
 7813SOL    HW134898   0.492   2.744   7.053  0.0340 -0.5163  0.1698
 7813SOL    HW234899   0.550   2.649   7.147 -1.4119 -1.5809 -0.3264
 7814SOL     OW34900   0.988   1.008  15.247  0.1713  0.1972 -0.3561
 7814SOL    HW134901   0.948   0.921  15.245  0.1461  0.2578 -2.7646
 7814SOL    HW234902   1.078   0.980  15.232  0.0432 -0.3987 -0.0214
 7815SOL     OW34903   4.614   1.117  13.496 -0.5334  0.7214 -0.3256
 7815SOL    HW134904   4.678   1.187  13.509  1.9498 -1.4827 -0.6359
 7815SOL    HW234905   4.655   1.056  13.557 -0.0176  1.0952 -0.2944
 7816SOL     OW34906   1.713   3.354   5.135 -0.3122 -0.0461  0.2318
 7816SOL    HW134907   1.756   3.303   5.067 -0.2148 -1.8383  1.6409
 7816SOL    HW234908   1.692   3.437   5.092  0.7628  0.2973  0.3792
 7817SOL     OW34909   0.305   0.277   8.779 -0.1901 -0.1044 -0.7018
 7817SOL    HW134910   0.351   0.304   8.858  2.3713 -1.6181 -1.6718
 7817SOL    HW234911   0.297   0.182   8.769  2.4908 -0.4581  0.5619
 7818SOL     OW34912   3.641   2.398   2.182 -0.4541 -0.6421  0.1407
 7818SOL    HW134913   3.708   2.465   2.190 -1.8459  0.6920  0.7512
 7818SOL    HW234914   3.694   2.340   2.127  0.5243 -1.2549  1.7323
 7819SOL     OW34915   0.730   1.428   8.861 -0.3054  0.1381 -0.4176
 7819SOL    HW134916   0.677   1.351   8.881  1.4198 -1.3472 -1.5977
 7819SOL    HW234917   0.724   1.481   8.940  4.3626  0.1799 -0.1010
 7820SOL     OW34918   3.339   0.172   6.737  0.1799  0.5420 -0.3870
 7820SOL    HW134919   3.398   0.154   6.810 -0.3311 -1.3172 -0.4351
 7820SOL    HW234920   3.407   0.173   6.669 -0.0018  1.4296 -0.5592
 7821SOL     OW34921   4.324   3.607  14.096  0.2528  0.7052 -0.2619
 7821SOL    HW134922   4.382   3.535  14.120  0.8961  0.8145 -1.4622
 7821SOL    HW234923   4.243   3.580  14.137 -0.1512  2.3243  0.0317
 7822SOL     OW34924   3.526   1.312   2.312  0.6344  0.4674  0.1889
 7822SOL    HW134925   3.616   1.309   2.280  0.9368 -0.8338  1.1660
 7822SOL    HW234926   3.504   1.404   2.327  0.5344  0.3670  0.6855
 7823SOL     OW34927   2.518   4.197   9.187  0.2835  0.1386 -0.2129
 7823SOL    HW134928   2.435   4.237   9.212  1.4191  1.6069  1.1566
 7823SOL    HW234929   2.488   4.121   9.136 -1.6603 -1.2964  3.0665
 7824SOL     OW34930   2.532   2.564   7.275 -0.0305  0.2085  0.8254
 7824SOL    HW134931   2.600   2.631   7.278 -0.2700  0.5692 -1.4533
 7824SOL    HW234932   2.479   2.606   7.207 -0.5248  1.8444  2.2245
 7825SOL     OW34933   3.721   3.169  13.773 -0.1681 -0.3047  0.5949
 7825SOL    HW134934   3.635   3.135  13.750 -0.2116 -0.5038  1.0602
 7825SOL    HW234935   3.708   3.258  13.807  2.0374  1.2207 -2.5799
 7826SOL     OW34936   1.170   3.380   6.151 -0.1102  0.4158 -0.3017
 7826SOL    HW134937   1.251   3.352   6.194 -1.0219 -2.3695 -0.3742
 7826SOL    HW234938   1.139   3.298   6.112  2.7773 -0.2290 -1.2031
 7827SOL     OW34939   0.226   2.214   7.144 -0.4986 -0.4298 -0.1283
 7827SOL    HW134940   0.147   2.225   7.197 -0.2641  0.4739  0.0275
 7827SOL    HW234941   0.198   2.245   7.058  1.9251  0.7601 -0.4935
 7828SOL     OW34942   2.186   0.236   3.716 -0.5031  0.6942  0.3205
 7828SOL    HW134943   2.281   0.250   3.706 -0.0805 -0.8643  2.1613
 7828SOL    HW234944   2.178   0.142   3.700 -2.0761  1.1069 -1.3678
 7829SOL     OW34945   1.736   0.988   3.000  0.3077 -0.5874 -0.4201
 7829SOL    HW134946   1.826   0.975   2.970  0.9215 -1.9556  1.9967
 7829SOL    HW234947   1.729   1.075   2.963 -1.6572 -0.9373 -0.8584
 7830SOL     OW34948   3.737   1.404   5.358 -0.1642 -0.1121 -0.3021
 7830SOL    HW134949   3.749   1.328   5.301  0.5300 -0.2101 -0.0178
 7830SOL    HW234950   3.650   1.437   5.335 -0.5136 -0.8901 -0.0722
 7831SOL     OW34951   3.784   3.715   6.832 -0.0207  0.3095 -0.5246
 7831SOL    HW134952   3.853   3.764   6.877  1.6626 -1.1109 -1.5150
 7831SOL    HW234953   3.829   3.684   6.752  2.6122  0.6070  0.8295
 7832SOL     OW34954   2.007   4.031   4.558  0.2654  0.6111 -0.0217
 7832SOL    HW134955   2.024   3.941   4.587 -0.0144  0.7490  0.5831
 7832SOL    HW234956   2.053   4.091   4.618  1.2332  1.6762 -1.8127
 7833SOL     OW34957   1.185   0.947   5.952 -0.5381 -0.0023 -0.2370
 7833SOL    HW134958   1.102   0.977   5.915 -0.2538  1.2824  0.1569
 7833SOL    HW234959   1.244   0.995   5.894 -1.1434 -0.6780 -1.4087
 7834SOL     OW34960   4.317   1.114  16.525  0.4926 -0.2877  0.4236
 7834SOL    HW134961   4.334   1.125  16.619 -1.0452 -2.3318  0.9672
 7834SOL    HW234962   4.305   1.206  16.503 -0.0272 -0.0803  1.5733
 7835SOL     OW34963   1.204   4.007  17.111  0.2557 -0.7932  0.1033
 7835SOL    HW134964   1.264   4.075  17.143  0.1469 -1.6425  2.0792
 7835SOL    HW234965   1.148   3.992  17.187 -0.0502 -3.4448 -0.6561
 7836SOL     OW34966   2.083   1.087   6.075  0.0144  0.1407 -1.0745
 7836SOL    HW134967   2.075   1.005   6.026 -0.4413  0.0623 -0.8638
 7836SOL    HW234968   1.995   1.106   6.108  0.6215  1.3098 -0.1223
 7837SOL     OW34969   4.720   0.621   3.398  0.0407  0.6889  0.1560
 7837SOL    HW134970   4.625   0.622   3.390 -0.0887 -0.0992  1.5768
 7837SOL    HW234971   0.008   0.532   3.364 -0.6273  1.3508 -1.7814
 7838SOL     OW34972   4.494   0.435   8.748 -0.1361  0.3884  0.6562
 7838SOL    HW134973   4.573   0.456   8.699 -0.4214 -1.1994 -0.4782
 7838SOL    HW234974   4.523   0.429   8.839  0.6730 -1.5083  0.2733
 7839SOL     OW34975   4.415   3.309   7.442 -0.3307  0.2092 -0.1082
 7839SOL    HW134976   4.406   3.391   7.394 -3.4495  0.9811  1.8294
 7839SOL    HW234977   4.446   3.251   7.372  0.6227 -1.3472  1.5994
 7840SOL     OW34978   3.885   3.649   2.467 -0.1335 -0.8394  0.1642
 7840SOL    HW134979   3.859   3.622   2.379 -0.1276  3.0359 -1.0199
 7840SOL    HW234980   3.878   3.570   2.521 -3.0117 -0.1793  0.7543
 7841SOL     OW34981   3.713   1.877  17.647 -0.1405 -0.1429 -0.5500
 7841SOL    HW134982   3.659   1.803  17.674 -0.7655  0.0661 -1.2289
 7841SOL    HW234983   3.798   1.860   0.004 -0.4083 -1.1689 -0.4069
 7842SOL     OW34984   4.679   0.551   7.976 -0.0846 -0.1689  0.1669
 7842SOL    HW134985   4.667   0.640   7.944  0.1185 -0.7295 -1.4962
 7842SOL    HW234986   4.590   0.521   7.959 -0.2662  0.1934  0.5027
 7843SOL     OW34987   3.941   2.699   3.712  0.5696  0.2527  0.2668
 7843SOL    HW134988   4.019   2.645   3.704  0.4727 -0.1170  1.8239
 7843SOL    HW234989   3.977   2.785   3.689  3.2681 -0.4417  1.9006
 7844SOL     OW34990   1.431   1.369   5.697  0.5171  0.5700 -0.5930
 7844SOL    HW134991   1.410   1.437   5.633  0.1829  1.3341  0.3182
 7844SOL    HW234992   1.504   1.420   5.730 -0.3126  2.2040 -1.2950
 7845SOL     OW34993   1.355   3.152   5.879 -0.0884  0.0668 -0.2810
 7845SOL    HW134994   1.366   3.218   5.948 -0.1174  0.0652 -0.2746
 7845SOL    HW234995   1.445   3.146   5.849 -0.1707 -3.8665  0.2456
 7846SOL     OW34996   2.023   4.409   6.541 -0.2129 -0.3585  0.2866
 7846SOL    HW134997   1.949   4.354   6.567 -1.1872 -0.1769 -2.1347
 7846SOL    HW234998   2.106   4.362   6.545 -0.3967 -0.6862  0.1839
 7847SOL     OW34999   2.464   2.923   6.687  0.8209  0.3880 -0.2590
 7847SOL    HW135000   2.483   2.931   6.594 -1.9656 -0.3950 -0.8963
 7847SOL    HW235001   2.423   3.003   6.720  0.8811 -0.3358  1.6023
 7848SOL     OW35002   3.478   1.922   8.918  0.9222  0.4731 -0.1919
 7848SOL    HW135003   3.501   1.907   9.009 -0.3677 -2.7550 -0.3719
 7848SOL    HW235004   3.553   1.880   8.876  0.0624 -0.8428 -0.4065
 7849SOL     OW35005   2.313   3.690   9.835  0.7100 -0.1925 -0.1084
 7849SOL    HW135006   2.321   3.773   9.881  0.2641 -0.6805  0.8571
 7849SOL    HW235007   2.369   3.640   9.893  0.3497 -0.7448 -0.2342
 7850SOL     OW35008   1.936   1.484  10.046 -0.2260 -0.1332  0.0724
 7850SOL    HW135009   1.984   1.565  10.057 -2.1526  0.7778  1.7346
 7850SOL    HW235010   1.978   1.453   9.966 -1.0909  0.2191 -0.5241
 7851SOL     OW35011   0.684   0.999  13.044  0.4432  0.1559  0.4339
 7851SOL    HW135012   0.672   1.073  12.984  0.1347 -0.4953 -0.3086
 7851SOL    HW235013   0.690   0.930  12.978 -0.4017  1.5564 -1.1076
 7852SOL     OW35014   3.690   4.712   2.845  0.0860 -0.2426  0.3767
 7852SOL    HW135015   3.748   0.020   2.775 -2.7175  0.9320 -1.4827
 7852SOL    HW235016   3.730   0.037   2.919 -0.3931  1.4644 -0.4189
 7853SOL     OW35017   1.138   4.458   5.762  0.2379 -0.0660 -0.0425
 7853SOL    HW135018   1.226   4.443   5.727  0.3962  0.4673  0.1299
 7853SOL    HW235019   1.150   4.545   5.799  1.8267 -0.5243  0.5042
 7854SOL     OW35020   2.854   0.304   2.565 -0.2103 -0.0842  0.0704
 7854SOL    HW135021   2.949   0.288   2.566 -0.6983 -2.7858  2.4540
 7854SOL    HW235022   2.817   0.224   2.602  1.2140  0.1305  1.9828
 7855SOL     OW35023   0.533   2.127   7.910  0.2982  0.1412  0.0181
 7855SOL    HW135024   0.485   2.205   7.939 -1.5336 -0.9750 -0.0442
 7855SOL    HW235025   0.616   2.167   7.934  0.5714 -2.0797  2.7741
 7856SOL     OW35026   2.094   0.778   2.335  0.1806  0.2931 -0.4094
 7856SOL    HW135027   2.094   0.801   2.427  2.6663 -0.2098 -0.2776
 7856SOL    HW235028   2.171   0.826   2.305 -0.0284 -0.0808 -1.5420
 7857SOL     OW35029   4.250   4.399   1.725 -0.3382  0.2033 -0.0544
 7857SOL    HW135030   4.211   4.378   1.641  2.6283 -1.5811 -0.9686
 7857SOL    HW235031   4.277   4.310   1.747 -1.9988 -0.3246 -0.1488
 7858SOL     OW35032   3.336   0.333   2.869 -0.9518 -0.0172  0.3126
 7858SOL    HW135033   3.397   0.389   2.916  0.1327 -0.0722 -1.0503
 7858SOL    HW235034   3.394   0.294   2.805 -1.6657 -0.1534 -0.2515
 7859SOL     OW35035   1.638   2.386   9.977  0.3596  0.3804  0.0574
 7859SOL    HW135036   1.675   2.465  10.018  0.2366 -0.7701  2.3702
 7859SOL    HW235037   1.574   2.425   9.918 -0.9256 -0.2448  1.0356
 7860SOL     OW35038   2.850   4.041   4.394 -0.2059  0.4444 -0.4383
 7860SOL    HW135039   2.802   3.971   4.350 -0.3391 -0.3413  0.9562
 7860SOL    HW235040   2.845   4.013   4.485 -0.7091  2.5705  0.1763
 7861SOL     OW35041   3.085   2.930  17.029 -0.7697  0.1334 -0.3599
 7861SOL    HW135042   3.010   2.901  17.080  1.9710  1.1325  4.2394
 7861SOL    HW235043   3.043   2.982  16.960  1.0727  1.8441 -0.2033
 7862SOL     OW35044   4.365   0.133   5.284  0.2907  0.2890 -0.4052
 7862SOL    HW135045   4.366   0.166   5.195  0.0083  0.3381 -0.3894
 7862SOL    HW235046   4.359   0.039   5.269  3.2056 -0.1727  1.3260
 7863SOL     OW35047   0.633   0.167   4.138 -0.3978 -0.2369  0.0269
 7863SOL    HW135048   0.680   0.084   4.144  2.1826  1.1787 -0.5728
 7863SOL    HW235049   0.580   0.161   4.218  1.6208 -1.3334  1.3031
 7864SOL     OW35050   2.117   4.671   3.564 -0.0390  0.2571  0.2036
 7864SOL    HW135051   2.040   4.614   3.569 -0.7397  1.1171 -0.7285
 7864SOL    HW235052   2.146   4.665   3.654  0.0809  0.0435  0.1506
 7865SOL     OW35053   3.022   4.248   3.084 -0.3013  0.2893 -0.5338
 7865SOL    HW135054   2.994   4.158   3.101  0.7009  0.3939  1.6460
 7865SOL    HW235055   2.970   4.285   3.155 -0.1041  0.3866 -0.4405
 7866SOL     OW35056   2.449   1.474   4.198 -0.0103  0.1591 -0.2507
 7866SOL    HW135057   2.416   1.458   4.109  0.7939 -2.6681 -0.0279
 7866SOL    HW235058   2.492   1.559   4.188 -2.0951  1.2462 -0.0873
 7867SOL     OW35059   2.508   2.979   8.968 -1.0484  0.2660  0.0473
 7867SOL    HW135060   2.458   2.959   9.047 -0.0909 -0.3468  0.5014
 7867SOL    HW235061   2.596   3.002   8.997 -0.5216  1.1811 -2.2459
 7868SOL     OW35062   1.714   0.571  13.555  0.0573  0.2914 -0.4995
 7868SOL    HW135063   1.701   0.503  13.622 -0.5729  1.1748  0.2750
 7868SOL    HW235064   1.780   0.619  13.606 -0.9151 -0.1806  1.2336
 7869SOL     OW35065   3.390   2.294   1.874 -0.0653  0.4733  0.4917
 7869SOL    HW135066   3.311   2.247   1.845  0.9067 -1.3826  0.8574
 7869SOL    HW235067   3.356   2.326   1.957  1.7787  0.5611  1.2024
 7870SOL     OW35068   4.675   1.070   7.980  0.0003 -0.0076 -0.3203
 7870SOL    HW135069   4.622   1.038   8.053 -0.3707 -2.1030 -1.4925
 7870SOL    HW235070   0.044   1.069   8.015 -0.3882  2.9433  0.7442
 7871SOL     OW35071   1.854   3.027   3.591  0.1558  0.5938 -0.3136
 7871SOL    HW135072   1.867   3.022   3.686 -1.5315 -1.2189 -0.1476
 7871SOL    HW235073   1.892   2.941   3.573 -0.7075  0.1688 -0.1311
 7872SOL     OW35074   4.508   4.535   5.903 -0.1645  0.6771  0.1976
 7872SOL    HW135075   4.472   4.462   5.954 -0.0948  1.1453  0.9048
 7872SOL    HW235076   4.460   4.518   5.822 -0.2671  0.4712  0.3005
 7873SOL     OW35077   0.007   3.728  13.614 -0.2804  0.7019  0.0917
 7873SOL    HW135078   0.040   3.805  13.659  0.4759  0.5697 -0.2349
 7873SOL    HW235079   4.634   3.734  13.631 -0.6255  1.0826 -1.9688
 7874SOL     OW35080   0.336   3.874   5.399 -0.1193  0.6389 -0.2576
 7874SOL    HW135081   0.409   3.820   5.369 -1.9960 -1.5748 -0.8930
 7874SOL    HW235082   0.298   3.908   5.318 -3.1625 -3.1902 -0.4820
 7875SOL     OW35083   3.104   0.237   5.637 -0.2200  0.0798  0.2106
 7875SOL    HW135084   3.140   0.246   5.549  1.5590 -2.6922  0.6469
 7875SOL    HW235085   3.009   0.238   5.631 -0.2219 -1.2542 -0.1603
 7876SOL     OW35086   4.003   0.834  15.316 -0.8667  0.6315  0.7573
 7876SOL    HW135087   4.064   0.789  15.258 -1.4947  2.5449 -1.3690
 7876SOL    HW235088   4.037   0.816  15.404  0.9184  2.5313  0.4588
 7877SOL     OW35089   1.502   3.214   8.854  0.0217  0.4619 -0.5038
 7877SOL    HW135090   1.544   3.285   8.904  2.1948 -0.5153 -0.9528
 7877SOL    HW235091   1.444   3.265   8.798 -1.3031 -0.0234  0.4254
 7878SOL     OW35092   1.073   3.269  13.620 -0.3976  0.1442 -0.2346
 7878SOL    HW135093   1.040   3.358  13.626  0.9387  0.6211 -0.1055
 7878SOL    HW235094   1.103   3.244  13.707 -0.4723 -2.7165 -1.0076
 7879SOL     OW35095   1.478   1.654  16.368  0.5640 -0.1369  0.1185
 7879SOL    HW135096   1.504   1.730  16.315  1.0769  1.8016  3.1100
 7879SOL    HW235097   1.549   1.652  16.433 -0.1491  1.3069  0.9541
 7880SOL     OW35098   4.322   0.708   4.152 -0.4772 -0.3549 -0.2590
 7880SOL    HW135099   4.302   0.632   4.097 -0.5487  0.4677 -1.3858
 7880SOL    HW235100   4.403   0.669   4.185 -0.7909  0.3642  1.3484
 7881SOL     OW35101   1.781   3.506   4.038 -0.0029 -0.4218  0.0625
 7881SOL    HW135102   1.816   3.586   3.999 -0.0829 -0.6774 -0.5438
 7881SOL    HW235103   1.828   3.448   3.979 -0.5393 -1.4432  0.6402
 7882SOL     OW35104   1.199   4.126   5.081  0.3709 -0.2718 -0.3169
 7882SOL    HW135105   1.112   4.086   5.069  0.7964 -0.5229 -2.4138
 7882SOL    HW235106   1.213   4.105   5.174 -0.1066  0.9494  0.0362
 7883SOL     OW35107   1.204   0.808   7.575  0.0714  0.1227 -0.0322
 7883SOL    HW135108   1.271   0.748   7.607 -1.8907 -1.4675  1.0867
 7883SOL    HW235109   1.223   0.804   7.481 -1.0155 -1.3324 -0.1919
 7884SOL     OW35110   1.368   0.710   4.179 -0.0227  0.0241  0.0731
 7884SOL    HW135111   1.360   0.704   4.274 -1.3658  1.8202  0.0582
 7884SOL    HW235112   1.438   0.648   4.159  2.8831  2.4833  2.7191
 7885SOL     OW35113   1.907   3.269  13.429  0.2405  0.3073 -0.2595
 7885SOL    HW135114   1.834   3.284  13.370  0.6242 -1.0187 -1.0698
 7885SOL    HW235115   1.901   3.352  13.478 -3.2357 -0.2732  0.2859
 7886SOL     OW35116   3.646   4.316  11.023  0.3246 -0.0790  0.1879
 7886SOL    HW135117   3.644   4.222  11.045 -0.4433  0.0399  0.6526
 7886SOL    HW235118   3.615   4.346  11.108 -1.5689  0.1446 -0.5718
 7887SOL     OW35119   0.139   3.045   6.817 -0.1091  0.2861 -0.4310
 7887SOL    HW135120   0.149   3.031   6.723 -0.0860 -0.2696 -0.3461
 7887SOL    HW235121   0.046   3.062   6.825  0.1564  2.4277 -1.8505
 7888SOL     OW35122   2.226   0.842   3.858 -0.0959  0.8156 -0.1118
 7888SOL    HW135123   2.231   0.826   3.764 -2.0315  1.4322 -0.3240
 7888SOL    HW235124   2.271   0.766   3.893  0.8989  1.3526 -0.2219
 7889SOL     OW35125   2.171   1.035   2.061 -0.0445  0.1912  0.2027
 7889SOL    HW135126   2.133   1.072   2.140 -0.9838  0.2113 -0.2560
 7889SOL    HW235127   2.254   1.080   2.046 -0.4328  0.2152 -1.9673
 7890SOL     OW35128   0.531   0.755   5.836  0.0684 -0.2801  0.0667
 7890SOL    HW135129   0.522   0.756   5.741  0.7936 -1.8480 -0.0168
 7890SOL    HW235130   0.586   0.833   5.838  0.0479 -0.1975 -2.4185
 7891SOL     OW35131   1.736   2.171   1.151 -0.0438  0.1552  0.3783
 7891SOL    HW135132   1.792   2.235   1.194  1.2014  0.8400 -2.2575
 7891SOL    HW235133   1.785   2.089   1.160 -0.6419 -0.3177 -0.6389
 7892SOL     OW35134   1.710   1.362   8.334  0.5651 -0.1163 -0.1786
 7892SOL    HW135135   1.780   1.426   8.337  0.9910 -0.6848  1.9616
 7892SOL    HW235136   1.656   1.405   8.400  1.6864 -0.9545  1.2728
 7893SOL     OW35137   3.976   4.549   7.608 -0.1887 -0.4021 -0.0346
 7893SOL    HW135138   3.896   4.601   7.599 -0.4503 -0.2329  3.1112
 7893SOL    HW235139   4.042   4.604   7.565  0.0999 -0.1034  0.7850
 7894SOL     OW35140   2.776   0.273  14.963  0.3164  0.1139  0.1761
 7894SOL    HW135141   2.833   0.204  14.929  0.8531  0.0861  1.1222
 7894SOL    HW235142   2.788   0.260  15.058 -0.4479 -0.6026  0.1816
 7895SOL     OW35143   3.377   4.228  11.228 -0.0732 -0.7416  0.1570
 7895SOL    HW135144   3.463   4.270  11.235 -0.3284  0.1357 -2.1491
 7895SOL    HW235145   3.351   4.250  11.139  0.1095 -0.8375  0.0804
 7896SOL     OW35146   3.247   2.228   2.700  0.4779 -0.4083  0.2464
 7896SOL    HW135147   3.230   2.207   2.609  0.8878 -0.4918  0.1864
 7896SOL    HW235148   3.338   2.198   2.709 -0.2900 -3.4871 -2.6269
 7897SOL     OW35149   1.529   0.864   9.594 -0.2735 -0.5372  0.5276
 7897SOL    HW135150   1.583   0.876   9.516 -1.0495 -0.2353  0.0341
 7897SOL    HW235151   1.594   0.874   9.663  0.6608 -1.0083 -0.2879
 7898SOL     OW35152   0.193   3.358   7.007  0.5472 -0.3518  0.2368
 7898SOL    HW135153   0.167   3.419   7.076  0.9925  1.0998 -0.8706
 7898SOL    HW235154   0.188   3.419   6.933  1.8200 -0.0045  0.4334
 7899SOL     OW35155   1.506   2.169   8.551  0.4460  0.4095  0.3340
 7899SOL    HW135156   1.593   2.131   8.535 -0.6475 -1.7902 -0.4009
 7899SOL    HW235157   1.502   2.228   8.476  0.5789 -0.3308 -0.2532
 7900SOL     OW35158   4.440   3.435   8.824  0.7990 -0.1708 -0.4472
 7900SOL    HW135159   4.394   3.388   8.755  0.5243 -1.4276  0.5877
 7900SOL    HW235160   4.370   3.477   8.874  1.3401  0.8389 -0.5254
 7901SOL     OW35161   4.434   3.321   0.798  0.5128  0.3977  0.5620
 7901SOL    HW135162   4.475   3.317   0.711  0.4522  0.0225  0.5478
 7901SOL    HW235163   4.498   3.286   0.860 -1.0408 -0.3174  1.7487
 7902SOL     OW35164   1.342   3.690   2.269  0.1293  0.3556  0.5491
 7902SOL    HW135165   1.304   3.667   2.184  0.0120  0.9654  0.4350
 7902SOL    HW235166   1.260   3.690   2.318 -0.1931  0.4819  0.0130
 7903SOL     OW35167   4.453   1.413   8.689 -0.1056  0.5916  0.2950
 7903SOL    HW135168   4.463   1.499   8.649 -1.3796  1.9161  2.7815
 7903SOL    HW235169   4.513   1.413   8.764 -0.5883 -0.4597  0.6941
 7904SOL     OW35170   0.860   0.940   7.589  0.4121 -0.0622  0.3634
 7904SOL    HW135171   0.817   0.877   7.531  0.4072  0.7338 -0.5016
 7904SOL    HW235172   0.839   0.901   7.674  1.4330 -0.7150  0.3159
 7905SOL     OW35173   0.653   2.248   6.485 -0.1506 -0.2313  0.2986
 7905SOL    HW135174   0.599   2.286   6.415 -0.7590  1.3562  1.6154
 7905SOL    HW235175   0.720   2.316   6.485  0.1215 -0.5009  0.0865
 7906SOL     OW35176   0.282   3.147   1.416 -0.7011 -0.1058 -0.0498
 7906SOL    HW135177   0.223   3.157   1.491 -0.7986 -0.3345 -0.0947
 7906SOL    HW235178   0.309   3.238   1.401 -0.0797  0.0500  2.0584
 7907SOL     OW35179   1.326   3.838  15.981 -0.0698  0.1261 -0.3013
 7907SOL    HW135180   1.364   3.841  16.068  1.1735 -2.1469 -0.7839
 7907SOL    HW235181   1.308   3.931  15.967  1.2766  0.6029  1.2444
 7908SOL     OW35182   1.891   4.678  14.279 -0.3849  0.4752 -0.0946
 7908SOL    HW135183   1.941   0.040  14.276 -1.6090  1.1868 -0.7664
 7908SOL    HW235184   1.959   4.631  14.327 -2.1204 -1.3014  0.6140
 7909SOL     OW35185   2.376   4.510   6.239  0.0381  0.0861 -0.8693
 7909SOL    HW135186   2.365   4.602   6.264 -0.6510 -0.2032 -0.0997
 7909SOL    HW235187   2.435   4.480   6.309 -0.2385 -0.5935 -0.9288
 7910SOL     OW35188   3.853   3.792   1.244 -0.4072  0.0738  0.5587
 7910SOL    HW135189   3.890   3.713   1.285 -1.2171 -0.9305 -0.6461
 7910SOL    HW235190   3.840   3.845   1.323  0.5758 -0.1286  0.8583
 7911SOL     OW35191   3.950   0.687   2.846 -0.0798  0.0023  0.2905
 7911SOL    HW135192   3.941   0.672   2.940 -1.6018 -0.2454  0.0982
 7911SOL    HW235193   3.873   0.740   2.824 -1.0289 -0.3480  2.7745
 7912SOL     OW35194   3.651   3.887   6.342 -0.2001  0.0881  0.4361
 7912SOL    HW135195   3.741   3.906   6.371 -0.6782  1.6724  0.8870
 7912SOL    HW235196   3.653   3.792   6.348 -1.1092 -0.2093 -4.0493
 7913SOL     OW35197   4.374   4.223   0.669  0.3413  0.5178 -0.5775
 7913SOL    HW135198   4.333   4.301   0.633 -1.3340  0.2391  0.7261
 7913SOL    HW235199   4.392   4.251   0.759 -0.2757 -0.0297 -0.2861
 7914SOL     OW35200   1.928   2.290   6.522 -0.2783  0.5927  0.7924
 7914SOL    HW135201   2.020   2.319   6.523 -0.4286  1.0843  0.7014
 7914SOL    HW235202   1.887   2.371   6.553  0.0100  1.8067 -1.9629
 7915SOL     OW35203   3.669   4.292   0.253 -0.1656  0.0157 -0.1543
 7915SOL    HW135204   3.595   4.289   0.314 -0.2500  0.3177 -0.2395
 7915SOL    HW235205   3.670   4.385   0.229  1.5443 -0.2318 -1.0392
 7916SOL     OW35206   3.684   0.255  12.282 -0.2213  0.0776 -0.1702
 7916SOL    HW135207   3.719   0.196  12.215  2.2083  1.8177 -0.4308
 7916SOL    HW235208   3.757   0.266  12.343 -1.3099 -1.3963  1.3884
 7917SOL     OW35209   0.658   0.937   3.130 -0.0380  0.2900  0.0243
 7917SOL    HW135210   0.723   0.980   3.075  0.2322  0.7164  0.6762
 7917SOL    HW235211   0.615   0.997   3.191  0.3510 -0.8845  1.4806
 7918SOL     OW35212   1.229   2.871   1.866 -0.4491  0.4198  0.1525
 7918SOL    HW135213   1.285   2.813   1.814  0.5666  0.0496  1.6502
 7918SOL    HW235214   1.149   2.874   1.814  0.1806  1.1825 -0.7731
 7919SOL     OW35215   4.687   0.143   5.789  0.2199  0.3457  0.2133
 7919SOL    HW135216   4.599   0.181   5.790 -0.6205 -1.5805  0.3002
 7919SOL    HW235217   4.715   0.156   5.698 -2.3367 -0.7058 -0.7228
 7920SOL     OW35218   1.309   4.175   7.316  0.6300 -0.1060  0.3852
 7920SOL    HW135219   1.281   4.087   7.291  1.9632 -0.2082 -0.7614
 7920SOL    HW235220   1.355   4.163   7.398  0.5658  0.7202  0.5440
 7921SOL     OW35221   1.378   1.262  13.702  0.1447  0.2272 -0.0036
 7921SOL    HW135222   1.396   1.343  13.750 -2.0717  0.6627  0.0981
 7921SOL    HW235223   1.410   1.269  13.612 -1.4914 -0.9257 -0.6706
 7922SOL     OW35224   2.691   1.807   2.700 -0.5179  0.7196  0.0655
 7922SOL    HW135225   2.630   1.879   2.715 -0.7076  0.1074  2.1497
 7922SOL    HW235226   2.653   1.761   2.625 -0.8150  2.1793 -0.6668
 7923SOL     OW35227   3.165   3.448   3.925  0.6952 -0.1419  0.1530
 7923SOL    HW135228   3.176   3.467   3.832 -0.0869 -1.2469 -0.1727
 7923SOL    HW235229   3.224   3.373   3.930 -0.8302 -1.3916 -0.6827
 7924SOL     OW35230   1.209   1.549   4.679 -0.2779 -0.4333 -0.3190
 7924SOL    HW135231   1.290   1.582   4.718 -0.0800 -0.5215 -0.6574
 7924SOL    HW235232   1.208   1.458   4.707  3.0434 -0.0074  1.2056
 7925SOL     OW35233   1.140   3.990   6.853 -0.5627 -0.0508 -0.3342
 7925SOL    HW135234   1.075   3.924   6.831 -0.6079  1.1313 -3.7652
 7925SOL    HW235235   1.081   4.041   6.908 -0.5881  0.8394 -1.1779
 7926SOL     OW35236   1.094   1.736   6.188 -0.1605  0.4324  0.4900
 7926SOL    HW135237   1.099   1.774   6.276  0.9329 -0.5978  0.8706
 7926SOL    HW235238   1.184   1.742   6.157 -0.1436  0.4125  0.5342
 7927SOL     OW35239   1.731   2.318  12.509 -0.8751 -0.1523 -0.4186
 7927SOL    HW135240   1.789   2.308  12.434  0.3446  1.6133  0.2885
 7927SOL    HW235241   1.732   2.412  12.529  0.5255 -0.4968  1.0868
 7928SOL     OW35242   2.250   3.144  12.680 -0.2246  0.1060 -0.0380
 7928SOL    HW135243   2.218   3.178  12.597  1.4115  0.0701 -0.6736
 7928SOL    HW235244   2.296   3.221  12.713  1.9599 -1.7284  1.1865
 7929SOL     OW35245   1.144   2.961  13.748  0.3330  0.1257  0.2584
 7929SOL    HW135246   1.062   3.010  13.742  0.1301 -0.3944 -1.2489
 7929SOL    HW235247   1.204   2.994  13.680  0.3477  1.3339  0.8567
 7930SOL     OW35248   1.727   1.262   2.556  1.0765  0.0111 -0.0676
 7930SOL    HW135249   1.753   1.172   2.575 -0.0958 -1.0029 -3.2779
 7930SOL    HW235250   1.634   1.254   2.536  1.1608  1.2014 -0.9149
 7931SOL     OW35251   4.310   1.152   5.065  0.0582 -0.1925 -0.5048
 7931SOL    HW135252   4.386   1.142   5.008  0.5805 -0.0804  0.1675
 7931SOL    HW235253   4.344   1.221   5.123  0.8669 -0.3905 -0.7453
 7932SOL     OW35254   0.064   4.023  13.612  0.5146  0.3211  0.1639
 7932SOL    HW135255   0.024   4.060  13.532 -2.0107 -1.1529  0.7294
 7932SOL    HW235256   0.117   4.089  13.656  0.4813 -0.3881  1.2666
 7933SOL     OW35257   2.593   2.007   3.356  0.0511 -0.2157  0.1739
 7933SOL    HW135258   2.540   1.942   3.402  0.3207 -0.1583  0.5638
 7933SOL    HW235259   2.672   2.015   3.409  1.0061 -0.2489 -1.2429
 7934SOL     OW35260   1.181   2.042  16.576  0.5645 -0.8017  0.3393
 7934SOL    HW135261   1.150   2.125  16.539  2.2007 -0.8147 -1.0371
 7934SOL    HW235262   1.233   2.077  16.648  0.2595 -0.9995  0.6527
 7935SOL     OW35263   3.366   2.743   7.655 -0.1389  0.2083  0.0920
 7935SOL    HW135264   3.273   2.764   7.646 -0.4511 -0.8538  0.8776
 7935SOL    HW235265   3.387   2.767   7.564  1.8434  1.2741  0.8413
 7936SOL     OW35266   1.830   0.216   2.429  0.3172 -0.3996  0.6676
 7936SOL    HW135267   1.897   0.165   2.475 -0.4028 -0.7862  1.2952
 7936SOL    HW235268   1.757   0.156   2.445 -0.5746  0.5479  0.1226
 7937SOL     OW35269   4.131   2.470  10.191  0.2524  0.1932  0.3227
 7937SOL    HW135270   4.159   2.547  10.240  1.4170  0.5729 -0.9256
 7937SOL    HW235271   4.082   2.515  10.123  0.6626 -2.0211 -1.4540
 7938SOL     OW35272   0.073   3.840  17.497 -0.1458 -0.2297 -0.5358
 7938SOL    HW135273   0.100   3.748  17.491 -2.8725 -0.9103 -2.3608
 7938SOL    HW235274   4.712   3.835  17.446 -1.0224  1.1434  0.7210
 7939SOL     OW35275   4.415   0.303   0.785  0.3193 -0.0553 -0.1033
 7939SOL    HW135276   4.372   0.336   0.706  1.5036 -0.7902 -1.0372
 7939SOL    HW235277   4.369   0.348   0.856 -0.4963 -0.1872 -0.5458
 7940SOL     OW35278   1.823   4.676   8.638 -1.2596 -0.6003 -0.3519
 7940SOL    HW135279   1.790   4.600   8.590  1.0938 -2.3582  0.8173
 7940SOL    HW235280   1.913   4.684   8.607 -1.5156 -2.1386 -1.5194
 7941SOL     OW35281   2.379   1.544  13.626 -0.6965 -0.4857 -0.0665
 7941SOL    HW135282   2.462   1.576  13.589 -0.2795 -0.8453  0.5645
 7941SOL    HW235283   2.357   1.614  13.687 -0.5042  0.2379 -0.8358
 7942SOL     OW35284   2.166   1.501   6.977  0.1759  0.2546  0.2404
 7942SOL    HW135285   2.177   1.433   6.911 -2.1860 -2.0680  2.2275
 7942SOL    HW235286   2.245   1.552   6.959 -0.6001  1.7861  1.1775
 7943SOL     OW35287   2.108   4.661   5.818 -0.0695  0.2618  0.1620
 7943SOL    HW135288   2.144   4.584   5.862 -1.0815 -0.8556 -0.9832
 7943SOL    HW235289   2.123   0.008   5.885  0.0312 -2.6400  3.0279
 7944SOL     OW35290   3.690   4.537   0.502  0.3496 -0.1033  0.0990
 7944SOL    HW135291   3.636   4.546   0.423  1.6869 -2.0003 -1.0205
 7944SOL    HW235292   3.635   4.588   0.561 -0.2307 -0.4890 -0.1036
 7945SOL     OW35293   0.035   3.361  11.864 -0.4427 -0.4173 -0.2271
 7945SOL    HW135294   0.027   3.434  11.926 -2.8600 -0.7889 -0.0991
 7945SOL    HW235295   0.057   3.291  11.925 -1.8372  1.3771  2.3433
 7946SOL     OW35296   0.178   2.708   5.190  0.9489 -0.0097 -0.4369
 7946SOL    HW135297   0.235   2.671   5.123  1.9388  2.0763 -0.7510
 7946SOL    HW235298   0.101   2.740   5.144  0.3176 -3.0513 -1.5084
 7947SOL     OW35299   1.135   3.731   1.024  0.1335  0.2089  0.3100
 7947SOL    HW135300   1.195   3.664   1.056 -0.0183 -1.6237 -3.2561
 7947SOL    HW235301   1.170   3.813   1.060  0.4416  0.6087 -0.8998
 7948SOL     OW35302   0.839   2.466  16.066  0.2009  0.3893  0.1636
 7948SOL    HW135303   0.934   2.462  16.061  0.2554 -1.4632  2.3435
 7948SOL    HW235304   0.821   2.550  16.109  1.4490 -0.6754  2.7885
 7949SOL     OW35305   3.283   3.636   4.928 -0.9366 -0.2549  0.5130
 7949SOL    HW135306   3.281   3.594   4.842 -0.8077 -3.2102  1.9416
 7949SOL    HW235307   3.190   3.654   4.937 -1.4535 -0.7545 -4.1222
 7950SOL     OW35308   2.590   1.378  16.656  0.5175  0.3344 -0.2308
 7950SOL    HW135309   2.586   1.472  16.668 -0.0129  0.3980 -0.9266
 7950SOL    HW235310   2.674   1.366  16.612  1.6201  2.5240  1.3194
 7951SOL     OW35311   1.957   2.174   3.456  0.0435  0.5451  0.4568
 7951SOL    HW135312   2.009   2.134   3.387  0.1612 -0.6852  1.2590
 7951SOL    HW235313   2.036   2.185   3.510  2.3194 -0.2498 -2.7502
 7952SOL     OW35314   0.699   0.420   7.273  0.2889  0.1957  0.4576
 7952SOL    HW135315   0.740   0.340   7.307 -1.1353 -0.7974 -0.1696
 7952SOL    HW235316   0.639   0.394   7.203 -0.6491  0.5184  1.1417
 7953SOL     OW35317   2.717   3.201   4.024 -0.7525 -0.2733 -0.1036
 7953SOL    HW135318   2.679   3.204   3.936 -2.1938  1.4195  0.5709
 7953SOL    HW235319   2.787   3.266   4.024  0.2465 -1.3632  0.4990
 7954SOL     OW35320   2.010   1.037  11.851  0.3943 -0.6351  0.2157
 7954SOL    HW135321   1.978   0.966  11.906  0.1505  0.4342  1.4470
 7954SOL    HW235322   1.973   1.015  11.765 -0.7352 -1.8542  1.0110
 7955SOL     OW35323   4.706   2.032  12.169  0.1608  0.7546 -0.3446
 7955SOL    HW135324   0.046   2.069  12.233  0.2443  0.8563 -0.4800
 7955SOL    HW235325   4.620   2.050  12.207 -0.3733 -0.4356 -0.9781
 7956SOL     OW35326   0.967   4.072   0.845 -0.3050  0.0683 -0.1445
 7956SOL    HW135327   1.027   4.000   0.864  0.3344  1.0766  1.6577
 7956SOL    HW235328   1.008   4.145   0.890 -0.4857 -0.4660  0.8833
 7957SOL     OW35329   1.633   2.601   9.738 -0.0999 -0.4368  0.2144
 7957SOL    HW135330   1.703   2.589   9.803  1.3285 -1.0546 -1.4385
 7957SOL    HW235331   1.618   2.694   9.754 -3.8897 -1.1628  0.8860
 7958SOL     OW35332   4.503   0.712   1.368 -0.1882  0.5069  0.2965
 7958SOL    HW135333   4.484   0.701   1.275 -0.6072 -1.5355  0.6281
 7958SOL    HW235334   4.550   0.631   1.388 -0.9207  0.0279  0.0673
 7959SOL     OW35335   4.382   0.327   4.470  0.3540  0.1199  0.5831
 7959SOL    HW135336   4.390   0.304   4.377 -0.4391 -0.3295  0.6238
 7959SOL    HW235337   4.450   0.276   4.513 -0.3893  0.8122  2.5749
 7960SOL     OW35338   0.321   1.625   4.967 -0.2737 -0.1940 -0.1357
 7960SOL    HW135339   0.226   1.622   4.956 -0.0840 -0.7265 -1.7236
 7960SOL    HW235340   0.356   1.648   4.881 -1.1890 -0.1631 -0.4998
 7961SOL     OW35341   2.128   0.427   6.813 -0.0771 -0.0389  0.3045
 7961SOL    HW135342   2.166   0.368   6.748 -1.8092 -0.3842 -0.3706
 7961SOL    HW235343   2.127   0.520   6.791 -0.2780  0.0742  0.7830
 7962SOL     OW35344   1.133   0.765  17.484 -0.3607  0.4522 -0.1462
 7962SOL    HW135345   1.204   0.812  17.441 -0.2665 -1.8485 -2.4172
 7962SOL    HW235346   1.066   0.747  17.418 -0.1210  1.5172 -0.6867
 7963SOL     OW35347   3.976   2.481   7.155  0.3247  0.4687  0.7993
 7963SOL    HW135348   4.051   2.540   7.148  1.9727 -1.7433 -0.3641
 7963SOL    HW235349   4.012   2.402   7.197  0.7716  0.8719  1.1861
 7964SOL     OW35350   1.963   0.846   3.749  0.3686  0.2124 -0.1404
 7964SOL    HW135351   1.990   0.845   3.841 -0.0208 -0.6199 -0.0350
 7964SOL    HW235352   2.035   0.891   3.705 -1.3680  0.0613 -3.1709
 7965SOL     OW35353   0.379   4.347   5.814  0.2514  0.1969 -0.5780
 7965SOL    HW135354   0.460   4.382   5.851  0.0867  1.2895 -1.2550
 7965SOL    HW235355   0.388   4.254   5.832 -1.6400 -0.1165 -1.1996
 7966SOL     OW35356   2.724   3.129  10.028  0.0329  0.0986  0.6538
 7966SOL    HW135357   2.817   3.126  10.006 -0.6013  0.3723 -2.0965
 7966SOL    HW235358   2.717   3.046  10.075 -0.9562 -0.2143 -0.0400
 7967SOL     OW35359   4.412   3.100   7.929  0.3645 -0.0679 -0.6888
 7967SOL    HW135360   4.392   3.051   7.849 -1.3827  1.8659 -1.4260
 7967SOL    HW235361   4.501   3.129   7.908  0.7625  0.2852  1.5228
 7968SOL     OW35362   0.704   3.004  11.516  0.0984  0.4249  0.1830
 7968SOL    HW135363   0.780   3.049  11.478  0.4070 -0.3488 -0.1157
 7968SOL    HW235364   0.740   2.922  11.549 -0.8133  0.3122  0.8906
 7969SOL     OW35365   1.745   0.361  13.757 -0.2082  0.7505 -0.5048
 7969SOL    HW135366   1.840   0.368  13.754 -0.2016  0.0891 -2.2265
 7969SOL    HW235367   1.740   0.313  13.840  0.4221  2.0727  0.2959
 7970SOL     OW35368   2.327   0.156   3.963 -0.3548 -0.0425  0.4379
 7970SOL    HW135369   2.307   0.095   3.892  0.7548 -0.8918  0.8427
 7970SOL    HW235370   2.396   0.105   4.006  1.7049  1.5844 -0.9187
 7971SOL     OW35371   1.483   1.476  13.829 -0.5573 -0.0989  0.4696
 7971SOL    HW135372   1.457   1.440  13.914 -0.0055  1.5698  1.3474
 7971SOL    HW235373   1.574   1.502  13.841 -1.0526  1.8015  0.1329
 7972SOL     OW35374   0.603   2.888   6.454  0.6857  0.5236  0.0202
 7972SOL    HW135375   0.633   2.833   6.526 -0.9105  1.4694  1.4310
 7972SOL    HW235376   0.650   2.970   6.467  0.0272  0.5236  2.5038
 7973SOL     OW35377   1.508   4.307   5.936 -0.2414  0.7247  0.1852
 7973SOL    HW135378   1.423   4.265   5.951 -0.6175  1.5154  0.2619
 7973SOL    HW235379   1.496   4.348   5.851  0.3458 -2.2191 -1.3194
 7974SOL     OW35380   2.996   4.715   4.116 -0.4844  0.3539 -0.5225
 7974SOL    HW135381   2.953   4.630   4.131  1.2387 -0.4903 -0.3782
 7974SOL    HW235382   2.969   0.007   4.025 -2.2392  0.6828  0.0334
 7975SOL     OW35383   2.476   1.503   5.204 -0.1569  0.7329 -0.0366
 7975SOL    HW135384   2.488   1.512   5.299  2.3464  0.1683 -0.2870
 7975SOL    HW235385   2.458   1.595   5.184 -0.5293  0.3204 -1.5703
 7976SOL     OW35386   0.543   4.501   4.917  0.5748  0.0648  0.4534
 7976SOL    HW135387   0.594   4.562   4.970  1.0437  2.1975 -2.4546
 7976SOL    HW235388   0.497   4.451   4.984  0.5308 -1.4290 -0.6775
 7977SOL     OW35389   4.034   3.669   1.977 -0.5837  0.0329  0.5048
 7977SOL    HW135390   4.040   3.617   1.897  2.1021 -1.3164  1.5883
 7977SOL    HW235391   4.062   3.600   2.037 -0.5629  0.8411  1.4351
 7978SOL     OW35392   4.156   1.039  14.089 -0.0837 -0.0229  0.4715
 7978SOL    HW135393   4.130   1.116  14.139 -0.0069 -0.9224  1.8987
 7978SOL    HW235394   4.077   0.990  14.069  0.8322 -1.9645  1.5295
 7979SOL     OW35395   4.089   3.134   2.346 -0.0218 -0.7103  0.3328
 7979SOL    HW135396   4.021   3.201   2.361  0.8562  0.0484  0.9573
 7979SOL    HW235397   4.151   3.135   2.419  0.2761  1.6479  0.0611
 7980SOL     OW35398   2.237   2.821   7.153 -0.9043  0.4372  0.3791
 7980SOL    HW135399   2.264   2.819   7.245 -2.7507  0.7463  0.9287
 7980SOL    HW235400   2.145   2.799   7.171 -1.1283  0.3282 -0.9058
 7981SOL     OW35401   4.364   0.411   6.590 -0.3449  0.2248  0.2300
 7981SOL    HW135402   4.429   0.441   6.527 -0.7804  1.5421  0.4157
 7981SOL    HW235403   4.398   0.434   6.676 -0.5882  1.2001  0.0578
 7982SOL     OW35404   2.638   1.595   1.628 -0.1649 -0.5215  0.2339
 7982SOL    HW135405   2.636   1.660   1.698 -0.6241 -0.8412  0.5215
 7982SOL    HW235406   2.550   1.605   1.592  1.3059  1.0024 -2.9759
 7983SOL     OW35407   3.892   1.016  16.612 -0.3395  0.0768  0.2061
 7983SOL    HW135408   3.939   1.058  16.685  2.4125 -1.9157 -0.4181
 7983SOL    HW235409   3.962   0.965  16.572  1.0157  1.5114  0.7350
 7984SOL     OW35410   1.672   0.361   0.876  0.1281  0.4370  0.2116
 7984SOL    HW135411   1.673   0.268   0.853  1.0900  1.1537 -2.5975
 7984SOL    HW235412   1.593   0.368   0.930 -0.4712 -1.2773 -0.4471
 7985SOL     OW35413   4.239   3.102  11.117  0.5757 -0.1385 -0.2543
 7985SOL    HW135414   4.184   3.042  11.066 -1.1154  1.0897  0.1511
 7985SOL    HW235415   4.284   3.039  11.173  0.1563  2.3209  2.8039
 7986SOL     OW35416   2.155   2.269   7.938  0.0556  0.2453 -0.2645
 7986SOL    HW135417   2.182   2.332   8.005  1.8429  1.3548 -2.0623
 7986SOL    HW235418   2.062   2.287   7.952  0.0652  1.4290 -1.7782
 7987SOL     OW35419   3.175   2.787   3.018 -0.1635 -0.4362 -0.2806
 7987SOL    HW135420   3.260   2.775   2.976  0.6017 -0.6548  1.3314
 7987SOL    HW235421   3.208   2.834   3.095 -2.1314  2.6709 -1.3180
 7988SOL     OW35422   2.912   3.840  13.638 -0.0041  0.1029 -0.0234
 7988SOL    HW135423   2.965   3.768  13.672 -0.0159 -1.9280 -4.2811
 7988SOL    HW235424   2.831   3.790  13.623 -0.2184  0.5637 -0.3981
 7989SOL     OW35425   1.098   3.051   1.243  0.1995  0.6966 -0.3029
 7989SOL    HW135426   1.035   3.122   1.226  0.0882  0.7400  0.2756
 7989SOL    HW235427   1.080   3.025   1.334 -0.6183  3.1395  0.2409
 7990SOL     OW35428   1.229   2.539  14.856  0.0358 -0.1314  0.4734
 7990SOL    HW135429   1.240   2.467  14.794  1.9614  1.5267 -1.1074
 7990SOL    HW235430   1.205   2.610  14.797 -0.5623 -0.6908  0.0394
 7991SOL     OW35431   3.773   1.565   0.156 -0.8427 -0.1879 -0.2306
 7991SOL    HW135432   3.769   1.479   0.198 -1.6220 -0.3890 -0.7238
 7991SOL    HW235433   3.847   1.545   0.099 -1.4761  0.0558 -1.1305
 7992SOL     OW35434   2.740   1.882   3.129  0.4989 -0.3400 -0.1816
 7992SOL    HW135435   2.725   1.794   3.164 -2.0942 -0.0914 -0.7040
 7992SOL    HW235436   2.816   1.903   3.183 -0.2897 -0.1275  0.8426
 7993SOL     OW35437   1.769   1.059  11.107 -0.2810 -0.7802  0.3807
 7993SOL    HW135438   1.861   1.069  11.081  0.5229 -0.0643  3.5467
 7993SOL    HW235439   1.726   1.123  11.050  0.1043 -0.2669  0.6593
 7994SOL     OW35440   0.540   2.677  13.574  0.3397  0.6915 -0.1879
 7994SOL    HW135441   0.507   2.747  13.631  0.9350 -0.0709  1.0828
 7994SOL    HW235442   0.570   2.735  13.505 -1.5668 -0.2504 -1.8275
 7995SOL     OW35443   1.108   2.533  11.378 -0.0959 -0.4162 -0.1222
 7995SOL    HW135444   1.146   2.489  11.301  0.7663 -1.5820  0.9667
 7995SOL    HW235445   1.083   2.617  11.341  0.8378 -0.9967 -2.0928
 7996SOL     OW35446   4.312   4.555   5.240 -0.4130 -0.0898 -0.2882
 7996SOL    HW135447   4.266   4.486   5.192  1.0371 -2.1259  1.2406
 7996SOL    HW235448   4.285   4.548   5.332 -0.6454  1.4250 -0.2475
 7997SOL     OW35449   1.924   0.598   6.279 -0.9272  0.7711  0.1456
 7997SOL    HW135450   1.935   0.532   6.348 -1.4948  0.7126  0.1749
 7997SOL    HW235451   1.867   0.655   6.330  0.9703  3.1634 -0.3924
 7998SOL     OW35452   4.315   4.578   1.087 -0.3464 -0.4415 -0.1468
 7998SOL    HW135453   4.312   4.652   1.148 -0.6820  0.5020 -1.3076
 7998SOL    HW235454   4.313   4.620   1.001 -1.3661  0.9084  0.5218
 7999SOL     OW35455   1.880   1.301   0.269  0.0880 -0.2132  0.7157
 7999SOL    HW135456   1.798   1.292   0.317 -0.4386  1.7547  0.1559
 7999SOL    HW235457   1.871   1.215   0.227  4.1114 -0.7715  1.0003
 8000SOL     OW35458   3.400   0.365   5.476 -0.0084  0.4961  0.0191
 8000SOL    HW135459   3.353   0.384   5.557 -1.6816 -1.6159 -0.4679
 8000SOL    HW235460   3.326   0.352   5.417  1.2545  1.6288 -1.8250
 8001SOL     OW35461   3.259   4.097   5.244  0.3655 -0.1268 -0.0281
 8001SOL    HW135462   3.282   4.047   5.166  0.1181  0.5181 -0.5097
 8001SOL    HW235463   3.277   4.030   5.310 -0.8901  1.5258  2.0158
 8002SOL     OW35464   2.166   3.141  14.129  0.0720 -0.3769  0.4032
 8002SOL    HW135465   2.086   3.097  14.158  0.2074  0.3412  1.8353
 8002SOL    HW235466   2.118   3.198  14.068 -0.8382 -0.1516  1.3313
 8003SOL     OW35467   2.501   0.553   7.669  0.1019 -0.9304 -0.3428
 8003SOL    HW135468   2.507   0.591   7.757  1.7528 -0.9784 -0.4357
 8003SOL    HW235469   2.407   0.565   7.656  0.2909  0.7213 -0.2271
 8004SOL     OW35470   3.173   3.253   1.508 -0.2054  0.6535 -0.5860
 8004SOL    HW135471   3.124   3.326   1.469  1.0982  2.1260  0.5250
 8004SOL    HW235472   3.244   3.305   1.545 -0.7980  1.3639 -0.4331
 8005SOL     OW35473   3.230   1.153   6.007 -0.1930  0.3798  0.4966
 8005SOL    HW135474   3.271   1.203   5.937  1.7577  0.0704  1.4191
 8005SOL    HW235475   3.167   1.104   5.954  0.0417 -0.2746  0.8238
 8006SOL     OW35476   0.194   3.889  12.531  0.2762  0.0691 -0.0897
 8006SOL    HW135477   0.131   3.869  12.600  0.7445 -2.6396 -0.4597
 8006SOL    HW235478   0.268   3.833  12.552  0.1090  1.1761  3.4022
 8007SOL     OW35479   0.680   2.151   0.300  0.3202 -0.5726  0.6004
 8007SOL    HW135480   0.656   2.224   0.356 -1.4211 -0.4376 -0.3047
 8007SOL    HW235481   0.592   2.123   0.273  0.0820  1.7624 -1.0571
 8008SOL     OW35482   4.316   0.127   1.199 -0.1883  0.1227 -0.0803
 8008SOL    HW135483   4.386   0.151   1.138 -1.7944  2.2228 -1.1103
 8008SOL    HW235484   4.251   0.138   1.130  1.9774 -1.3227 -2.3588
 8009SOL     OW35485   2.854   2.516   2.185  0.2518  0.3538 -0.3647
 8009SOL    HW135486   2.939   2.479   2.207  0.3436 -0.6948 -2.5430
 8009SOL    HW235487   2.800   2.466   2.246 -0.2748  1.1689 -0.1553
 8010SOL     OW35488   0.554   1.162   8.076  0.2206 -0.4259 -0.2560
 8010SOL    HW135489   0.540   1.240   8.022 -0.1147  0.0758  0.5556
 8010SOL    HW235490   0.568   1.190   8.166 -0.3493 -0.5111 -0.1425
 8011SOL     OW35491   3.897   1.177   7.232 -0.0321 -0.6897  0.5322
 8011SOL    HW135492   3.809   1.173   7.269 -0.0582 -1.7564  0.3524
 8011SOL    HW235493   3.874   1.161   7.141 -0.6024 -0.6174  0.6655
 8012SOL     OW35494   1.284   1.156   7.566  0.4311 -0.4342 -0.0805
 8012SOL    HW135495   1.310   1.063   7.566  4.4471  0.6768  0.6146
 8012SOL    HW235496   1.206   1.152   7.511  0.3449 -2.5299  0.1840
 8013SOL     OW35497   4.540   4.435  14.077 -0.0544  0.6016 -0.0923
 8013SOL    HW135498   4.456   4.441  14.031  0.5374 -1.4211 -1.3969
 8013SOL    HW235499   4.531   4.498  14.149 -0.0895 -0.0563  0.4847
 8014SOL     OW35500   3.931   2.599   7.629  0.1437  0.4053 -0.1110
 8014SOL    HW135501   3.871   2.578   7.700 -0.1958 -1.8053 -1.0399
 8014SOL    HW235502   3.923   2.521   7.575 -0.3312 -2.5623  4.2434
 8015SOL     OW35503   3.801   0.458   3.458  0.2806 -0.3321 -0.6065
 8015SOL    HW135504   3.778   0.380   3.509 -0.4903 -0.8117 -1.6827
 8015SOL    HW235505   3.787   0.521   3.530  1.2378 -2.6157  1.5784
 8016SOL     OW35506   0.826   3.900   8.412  0.5062  0.1660  0.3414
 8016SOL    HW135507   0.797   3.920   8.323 -2.4170 -1.0302  1.0267
 8016SOL    HW235508   0.751   3.924   8.466  0.0676 -0.5268  0.0388
 8017SOL     OW35509   3.578   2.171   9.921  0.3566  0.2280  0.3944
 8017SOL    HW135510   3.510   2.233   9.892 -1.2785 -0.5104  2.7035
 8017SOL    HW235511   3.590   2.191  10.013  1.6879  1.9381 -0.1410
 8018SOL     OW35512   2.308   0.392   3.411  0.3397 -0.0451 -0.1600
 8018SOL    HW135513   2.249   0.405   3.336 -1.0867 -1.8329  0.6478
 8018SOL    HW235514   2.309   0.296   3.416  1.6712 -0.0178  0.0432
 8019SOL     OW35515   3.836   1.788   6.022 -0.3029  0.3048 -0.5478
 8019SOL    HW135516   3.848   1.697   5.996 -2.7516 -0.9734  2.8491
 8019SOL    HW235517   3.783   1.785   6.102 -0.8548  0.4423 -0.9063
 8020SOL     OW35518   1.345   0.527   5.523  0.2654  0.0638  0.1530
 8020SOL    HW135519   1.342   0.620   5.545 -1.0995 -0.0984  0.6494
 8020SOL    HW235520   1.263   0.494   5.560  0.6475 -0.1624  0.7940
 8021SOL     OW35521   2.272   0.156  10.249 -0.4104 -0.4255 -0.1785
 8021SOL    HW135522   2.223   0.232  10.216 -2.1539 -0.5848  2.0167
 8021SOL    HW235523   2.287   0.186  10.339 -2.1544  1.6589 -0.5789
 8022SOL     OW35524   3.617   1.273   1.404 -0.1409  0.3280 -0.0619
 8022SOL    HW135525   3.588   1.278   1.495 -2.4030 -0.1065 -0.7826
 8022SOL    HW235526   3.703   1.316   1.398 -0.6430  1.1506 -1.1842
 8023SOL     OW35527   2.660   0.920   8.550  0.1826 -0.4370  0.1949
 8023SOL    HW135528   2.615   0.868   8.616 -0.7953 -2.4458 -2.0703
 8023SOL    HW235529   2.634   1.007   8.580  3.6845 -0.0005  2.0215
 8024SOL     OW35530   4.631   2.837  10.083  0.1670  0.4447 -0.1070
 8024SOL    HW135531   4.636   2.847   9.988 -0.0491 -1.9198 -0.3693
 8024SOL    HW235532   0.001   2.810  10.097  0.1311  0.2911 -0.1661
 8025SOL     OW35533   0.913   0.527   1.290 -0.1812 -0.3411 -0.0047
 8025SOL    HW135534   0.920   0.465   1.363  2.1862  0.0257  0.0955
 8025SOL    HW235535   0.994   0.516   1.241 -0.9832 -1.8679 -0.9871
 8026SOL     OW35536   3.919   2.903  16.144  0.2590  0.3196  0.1000
 8026SOL    HW135537   3.962   2.900  16.229 -0.2749  1.9598  0.4286
 8026SOL    HW235538   3.871   2.985  16.151 -0.5779 -0.3103  1.4924
 8027SOL     OW35539   1.336   0.687   9.537  0.0121  0.0894 -0.4177
 8027SOL    HW135540   1.422   0.723   9.559 -0.3257 -0.3071  1.5896
 8027SOL    HW235541   1.277   0.761   9.550 -0.0490  0.2420 -1.6611
 8028SOL     OW35542   4.420   2.313   6.583 -0.3781  0.0451  0.5146
 8028SOL    HW135543   4.464   2.363   6.515  0.8628 -0.4129  0.9791
 8028SOL    HW235544   4.491   2.254   6.608 -0.4419 -0.6621 -1.0380
 8029SOL     OW35545   4.245   1.337   2.288 -0.5280 -0.2947 -0.3120
 8029SOL    HW135546   4.230   1.265   2.349 -1.1462 -1.4194 -1.7968
 8029SOL    HW235547   4.309   1.309   2.223  1.3909 -2.0918  2.3704
 8030SOL     OW35548   2.660   2.926   2.034  0.1015 -0.0885  0.3688
 8030SOL    HW135549   2.591   2.967   1.982 -0.4053 -0.2761  0.8916
 8030SOL    HW235550   2.715   2.893   1.963 -0.2570 -0.9580  0.4914
 8031SOL     OW35551   2.875   4.308   3.964  0.4582  0.9478  0.0779
 8031SOL    HW135552   2.837   4.221   3.967  0.8955  0.7086 -1.1178
 8031SOL    HW235553   2.914   4.312   3.877  0.1780 -1.0829 -0.1421
 8032SOL     OW35554   3.247   3.083   3.475 -0.2835 -0.4404 -0.0509
 8032SOL    HW135555   3.263   3.017   3.543  0.1292  2.3205  2.5348
 8032SOL    HW235556   3.161   3.109   3.509  0.0270 -0.4310  0.7262
 8033SOL     OW35557   2.202   0.297   2.233  0.0834 -0.1895  0.1298
 8033SOL    HW135558   2.248   0.293   2.149 -0.7080 -1.8144 -0.2193
 8033SOL    HW235559   2.153   0.379   2.235  1.5466  0.6943 -0.6048
 8034SOL     OW35560   3.982   3.082  13.891 -0.5365 -0.0544 -0.6482
 8034SOL    HW135561   3.906   3.135  13.864 -2.3721 -3.7394 -2.7407
 8034SOL    HW235562   4.034   3.081  13.812  0.4850 -0.4578  0.0320
 8035SOL     OW35563   1.156   4.166   4.562  0.0893  0.2450 -0.0560
 8035SOL    HW135564   1.087   4.231   4.578 -0.5724 -1.1363  2.7119
 8035SOL    HW235565   1.127   4.140   4.475 -0.0951  1.6582 -0.4096
 8036SOL     OW35566   2.766   4.428   0.551 -0.1667  0.3311 -0.0156
 8036SOL    HW135567   2.819   4.356   0.518  2.0012  2.1547 -0.4746
 8036SOL    HW235568   2.747   4.465   0.465 -2.0017 -2.3490 -0.7474
 8037SOL     OW35569   2.618   2.233   2.905 -0.1769  0.5487 -0.5339
 8037SOL    HW135570   2.530   2.241   2.941  0.6599 -0.6254  1.7640
 8037SOL    HW235571   2.666   2.238   2.987  0.1288 -0.1569 -0.6698
 8038SOL     OW35572   1.084   1.163  16.586 -0.1109 -0.2286  0.1989
 8038SOL    HW135573   1.088   1.255  16.558 -0.0602 -0.6650 -1.2532
 8038SOL    HW235574   1.177   1.142  16.584 -0.1522 -0.3581 -0.2980
 8039SOL     OW35575   0.484   3.926  15.747  0.4468 -0.4275  0.1248
 8039SOL    HW135576   0.572   3.900  15.719  0.0341 -0.8500 -0.8000
 8039SOL    HW235577   0.483   4.016  15.715  4.1331 -1.3207 -2.4978
 8040SOL     OW35578   3.792   1.532   4.426  0.6408 -0.5223  0.2216
 8040SOL    HW135579   3.719   1.578   4.385  1.5864  1.0970  0.3611
 8040SOL    HW235580   3.855   1.602   4.408  2.0308 -1.1510  2.5655
 8041SOL     OW35581   0.748   3.082   5.787  0.5393  0.2312 -0.0222
 8041SOL    HW135582   0.660   3.104   5.759  0.2083 -0.6354  0.3499
 8041SOL    HW235583   0.777   3.041   5.706 -1.0634 -1.1610  0.1344
 8042SOL     OW35584   1.825   2.094  14.268 -0.7381  0.3151  0.5737
 8042SOL    HW135585   1.735   2.074  14.292 -0.7542  0.1360  0.3643
 8042SOL    HW235586   1.862   2.108  14.355  2.4115 -1.7605 -0.4246
 8043SOL     OW35587   0.560   1.532   5.571 -0.3659  0.0342 -0.0422
 8043SOL    HW135588   0.554   1.517   5.666 -0.8742  1.1542  0.1014
 8043SOL    HW235589   0.612   1.457   5.542 -2.6481 -2.2896  1.8292
 8044SOL     OW35590   2.664   0.007  12.995  0.0700  0.5934  0.8910
 8044SOL    HW135591   2.616   0.039  12.919 -1.5358  0.4043  1.8187
 8044SOL    HW235592   2.637   4.636  13.001  3.0326 -0.2968  0.8262
 8045SOL     OW35593   1.946   4.651  10.994 -0.1590  0.0649  0.4283
 8045SOL    HW135594   1.976   4.699  10.916 -0.6250 -0.3642 -0.0142
 8045SOL    HW235595   1.879   4.703  11.038 -0.5339 -0.2527  0.2333
 8046SOL     OW35596   1.251   1.333  15.831  0.0354 -0.6681  0.4087
 8046SOL    HW135597   1.245   1.371  15.743  0.4034 -0.2655  0.5584
 8046SOL    HW235598   1.326   1.273  15.825 -0.5413 -1.3222 -0.1735
 8047SOL     OW35599   3.347   1.843   7.941  0.0508  0.0201  0.1654
 8047SOL    HW135600   3.316   1.772   7.996 -0.0422  0.5886  0.8471
 8047SOL    HW235601   3.423   1.877   7.988  0.0120 -1.3501  1.1887
 8048SOL     OW35602   2.295   2.463  12.654 -0.2770  0.3455 -0.0501
 8048SOL    HW135603   2.242   2.481  12.732  3.0789 -2.5787  2.8911
 8048SOL    HW235604   2.251   2.385  12.620  0.4860  0.3105 -0.9542
 8049SOL     OW35605   0.804   2.045  13.509 -0.3948 -0.1691  0.3360
 8049SOL    HW135606   0.885   2.050  13.458  0.1173 -0.9949  1.0590
 8049SOL    HW235607   0.756   2.119  13.471 -0.6897 -0.1182  0.8114
 8050SOL     OW35608   4.160   0.008  13.344  0.4397 -0.0289 -0.2542
 8050SOL    HW135609   4.220   4.692  13.409 -0.3329  0.2903  0.6413
 8050SOL    HW235610   4.075   4.713  13.385 -0.1306  4.0419  0.1707
 8051SOL     OW35611   3.213   2.064   3.606  0.0575  0.1709  0.3564
 8051SOL    HW135612   3.292   2.116   3.588 -0.1860  0.1124 -0.8867
 8051SOL    HW235613   3.181   2.067   3.515 -1.6019 -3.1716  0.8376
 8052SOL     OW35614   2.925   3.700   7.215  0.1992  0.1646  0.1653
 8052SOL    HW135615   2.841   3.741   7.237  0.7905  2.0496 -1.0778
 8052SOL    HW235616   2.909   3.607   7.232  1.2177  0.1264  0.9195
 8053SOL     OW35617   4.060   4.211  12.562  0.2615 -0.3706  0.5097
 8053SOL    HW135618   4.075   4.179  12.651 -2.4294 -1.9558  0.4031
 8053SOL    HW235619   4.145   4.201  12.520 -0.2868 -1.3408 -0.3863
 8054SOL     OW35620   4.668   2.398  13.547 -0.3970  0.4997  0.0547
 8054SOL    HW135621   4.636   2.423  13.460 -1.4887  0.2118  0.3698
 8054SOL    HW235622   4.682   2.479  13.596  1.8627  0.0384  0.1679
 8055SOL     OW35623   1.588   3.745  10.521  0.3565  0.2668  0.2047
 8055SOL    HW135624   1.531   3.680  10.479  0.6157  0.7959 -0.9533
 8055SOL    HW235625   1.668   3.712  10.480 -1.1038 -1.0305 -1.5741
 8056SOL     OW35626   4.170   1.243   3.929  0.0954 -0.4287  0.9806
 8056SOL    HW135627   4.136   1.198   3.852  1.9893  1.9819 -1.2928
 8056SOL    HW235628   4.091   1.240   3.983 -0.7783 -1.2136 -0.3356
 8057SOL     OW35629   0.351   3.052   7.494  0.5285  0.0593 -0.2138
 8057SOL    HW135630   0.381   3.079   7.407 -0.6123 -2.2300 -1.3170
 8057SOL    HW235631   0.375   2.959   7.488  1.1974  0.2656 -0.6975
 8058SOL     OW35632   0.874   1.360   3.072 -0.5648  0.3253  0.3222
 8058SOL    HW135633   0.919   1.292   3.122  1.6297 -0.1072 -2.2347
 8058SOL    HW235634   0.949   1.411   3.041 -0.8589  0.0941 -0.7566
 8059SOL     OW35635   2.282   4.040   8.307 -0.5228  0.4078  0.0975
 8059SOL    HW135636   2.219   3.982   8.265 -1.4436  0.5654  1.2557
 8059SOL    HW235637   2.249   4.041   8.397  1.7887  3.0668  0.9390
 8060SOL     OW35638   0.054   0.614  17.339  0.3781 -0.2797 -0.1561
 8060SOL    HW135639   0.092   0.548  17.396  0.7666  0.9731  1.0293
 8060SOL    HW235640   0.067   0.568  17.256 -1.3523 -0.7154 -0.1748
 8061SOL     OW35641   4.038   3.173  17.271  0.2605  0.0318 -0.2385
 8061SOL    HW135642   3.945   3.184  17.293  1.4418 -0.1410  4.9823
 8061SOL    HW235643   4.072   3.114  17.339 -0.5832  2.2352  2.1028
 8062SOL     OW35644   3.780   4.702   5.929  0.3940  0.3651 -0.5516
 8062SOL    HW135645   3.685   4.710   5.923  0.2680 -0.1179  0.8925
 8062SOL    HW235646   3.810   0.046   5.864 -0.3385  0.2473 -1.0050
 8063SOL     OW35647   3.778   1.881  12.671  0.1751 -0.0276  0.1708
 8063SOL    HW135648   3.692   1.888  12.629  1.0440  0.5346 -1.5150
 8063SOL    HW235649   3.788   1.972  12.699  1.1415 -0.8361  2.4249
 8064SOL     OW35650   3.791   2.369  14.624 -0.0957  0.1268 -0.4081
 8064SOL    HW135651   3.743   2.303  14.675  1.2927 -1.4830 -1.1720
 8064SOL    HW235652   3.725   2.438  14.621  0.7386  0.8408 -2.0369
 8065SOL     OW35653   4.237   1.113   4.232 -0.1920 -0.0757 -0.5354
 8065SOL    HW135654   4.149   1.145   4.252 -0.4459 -1.3123  0.3261
 8065SOL    HW235655   4.282   1.196   4.214  2.2009 -0.4987  3.4488
 8066SOL     OW35656   0.084   3.194   1.623  0.0154  0.3073  0.5798
 8066SOL    HW135657   4.713   3.207   1.597  0.5767  0.9238 -1.0980
 8066SOL    HW235658   0.070   3.193   1.718 -1.1156 -2.1787  0.3725
 8067SOL     OW35659   1.731   4.518   2.236 -0.1637 -0.7521 -0.1668
 8067SOL    HW135660   1.805   4.567   2.199  0.4900 -3.3701 -2.3028
 8067SOL    HW235661   1.660   4.543   2.177  0.1196 -0.0332 -0.2039
 8068SOL     OW35662   2.173   4.100   9.428  0.1726  0.3186 -0.0939
 8068SOL    HW135663   2.219   4.175   9.390  0.3046  0.3816  0.1899
 8068SOL    HW235664   2.115   4.067   9.360 -0.2613 -0.3899  0.6163
 8069SOL     OW35665   2.313   0.800  15.784 -0.1237  0.0838 -0.5020
 8069SOL    HW135666   2.388   0.810  15.725  1.3108  0.4039  1.3759
 8069SOL    HW235667   2.261   0.863  15.734  1.3640  2.8377  1.3418
 8070SOL     OW35668   2.596   2.794   9.362  0.7978 -0.8613  0.4281
 8070SOL    HW135669   2.523   2.785   9.301  0.7179  0.1110  0.3842
 8070SOL    HW235670   2.542   2.820   9.437 -0.9076  2.2880 -1.8774
 8071SOL     OW35671   2.749   0.287  10.576  0.2816  1.0079  0.1000
 8071SOL    HW135672   2.814   0.345  10.535  0.5093  0.1833 -0.7047
 8071SOL    HW235673   2.728   0.334  10.656 -0.8990 -0.4170  0.6193
 8072SOL     OW35674   0.219   4.154   7.072 -0.3912  0.6743 -0.4782
 8072SOL    HW135675   0.264   4.214   7.132  0.0202 -0.4559  0.3572
 8072SOL    HW235676   0.223   4.075   7.126 -2.7777  1.9264  1.5445
 8073SOL     OW35677   0.303   1.525  14.934 -0.6508 -0.2194  0.1384
 8073SOL    HW135678   0.216   1.519  14.974 -1.1725 -0.7938 -1.0744
 8073SOL    HW235679   0.288   1.573  14.852  0.0879  0.6698  0.5293
 8074SOL     OW35680   2.654   1.008   4.542 -0.1727 -0.2006  0.4702
 8074SOL    HW135681   2.737   0.959   4.542  0.4049  0.7498 -1.8587
 8074SOL    HW235682   2.598   0.961   4.480 -1.7270  0.4950  1.3551
 8075SOL     OW35683   4.706   0.208   4.886  0.1076  0.1558 -0.0410
 8075SOL    HW135684   4.663   0.292   4.899  0.4348 -0.0676  2.4636
 8075SOL    HW235685   4.699   0.197   4.791  1.3235  1.2944 -0.2566
 8076SOL     OW35686   1.619   3.613  13.551 -0.1746 -0.3270 -0.0776
 8076SOL    HW135687   1.689   3.563  13.593  1.3171  2.0241  0.2456
 8076SOL    HW235688   1.660   3.696  13.526  1.9998 -0.9793  1.3011
 8077SOL     OW35689   4.593   2.558  15.248 -0.2043 -0.1362 -0.6174
 8077SOL    HW135690   4.539   2.490  15.289  1.0688 -0.4503  0.5571
 8077SOL    HW235691   4.530   2.609  15.198 -0.0161  0.7336  0.0183
 8078SOL     OW35692   3.118   3.620   9.906  0.4521  0.8883  0.5184
 8078SOL    HW135693   3.054   3.669   9.855 -0.5656 -1.5944 -0.5584
 8078SOL    HW235694   3.193   3.679   9.895  1.7393 -0.6411  0.9490
 8079SOL     OW35695   4.032   0.812   5.580 -0.1664 -0.4262 -0.5458
 8079SOL    HW135696   4.059   0.758   5.506  0.3705 -0.7186 -0.1388
 8079SOL    HW235697   3.939   0.789   5.579 -0.5731  1.0760  1.3820
 8080SOL     OW35698   4.617   2.888   6.168  0.3411  0.0068 -0.5140
 8080SOL    HW135699   4.592   2.981   6.165  3.6882  0.9720  0.8890
 8080SOL    HW235700   4.619   2.874   6.074 -0.9148 -2.0323 -0.2374
 8081SOL     OW35701   1.185   0.118  13.802 -0.2871 -0.0412  0.4521
 8081SOL    HW135702   1.092   0.092  13.801 -0.7232  1.5794 -1.9955
 8081SOL    HW235703   1.231   0.043  13.839 -0.6066 -0.2308  0.4685
 8082SOL     OW35704   2.430   1.992   4.931  0.1966 -0.3928 -0.4501
 8082SOL    HW135705   2.444   2.083   4.904 -0.4571  0.6909  2.9393
 8082SOL    HW235706   2.435   1.942   4.849 -0.4469  1.2870 -1.5291
 8083SOL     OW35707   1.881   2.871   5.489  0.5465  0.5388 -0.3971
 8083SOL    HW135708   1.842   2.953   5.519  1.8034  1.3913 -1.1222
 8083SOL    HW235709   1.800   2.819   5.490 -1.0347  2.9731 -1.0901
 8084SOL     OW35710   0.570   2.234   5.551 -0.4963  0.6311 -0.4312
 8084SOL    HW135711   0.623   2.202   5.478  1.6869  1.0009  0.9997
 8084SOL    HW235712   0.511   2.162   5.572  3.4508 -2.0869  1.3325
 8085SOL     OW35713   0.690   0.988   5.772  0.2398 -0.1680 -0.3163
 8085SOL    HW135714   0.629   1.061   5.778  1.7460  0.9282  1.7171
 8085SOL    HW235715   0.679   0.975   5.678 -1.0664  2.5059 -0.5381
 8086SOL     OW35716   1.862   4.367   4.751 -0.3509  0.1734  0.3445
 8086SOL    HW135717   1.917   4.290   4.757 -1.8632 -0.7913  1.8802
 8086SOL    HW235718   1.786   4.324   4.712  0.3859  1.0472 -2.0750
 8087SOL     OW35719   4.652   2.767  17.224 -0.3073 -0.0514  0.0440
 8087SOL    HW135720   4.590   2.737  17.291 -0.8698  1.1986  0.0897
 8087SOL    HW235721   4.625   2.722  17.144  1.4870  1.4013 -1.3538
 8088SOL     OW35722   1.410   1.312  10.228  0.4496 -0.1965  0.2892
 8088SOL    HW135723   1.412   1.217  10.219  0.2887 -0.0173 -1.5750
 8088SOL    HW235724   1.484   1.323  10.288 -0.9619  0.3909  1.9020
 8089SOL     OW35725   1.828   2.593   8.576 -0.1184  0.2504 -0.2601
 8089SOL    HW135726   1.859   2.652   8.645 -1.0404 -0.6136  0.9012
 8089SOL    HW235727   1.794   2.653   8.510  0.8079  0.1639 -0.8209
 8090SOL     OW35728   1.879   0.092   8.989  0.1291 -0.2625  0.6661
 8090SOL    HW135729   1.849   0.183   8.985  1.0349 -0.0611 -1.4766
 8090SOL    HW235730   1.801   0.038   8.979  1.5265 -1.7917 -1.9822
 8091SOL     OW35731   1.488   3.511   4.483  0.2091  0.3732  0.5819
 8091SOL    HW135732   1.395   3.527   4.499 -0.4769 -1.8004 -1.2041
 8091SOL    HW235733   1.491   3.536   4.390 -0.3781  0.7582  0.6630
 8092SOL     OW35734   2.630   1.373  14.484 -0.0586 -0.1180  0.1828
 8092SOL    HW135735   2.720   1.403  14.492 -0.3046  0.1648  2.0349
 8092SOL    HW235736   2.626   1.290  14.437 -0.7031  2.3177 -3.9777
 8093SOL     OW35737   1.271   4.598  13.865  0.5994 -0.9356  0.5496
 8093SOL    HW135738   1.247   4.563  13.951  0.4261 -0.7761  0.5645
 8093SOL    HW235739   1.292   4.516  13.821 -2.5344 -0.4512 -1.8379
 8094SOL     OW35740   2.297   3.222   9.136 -0.4904  0.1211  0.0861
 8094SOL    HW135741   2.304   3.295   9.197 -1.8488  0.6643 -0.3914
 8094SOL    HW235742   2.258   3.255   9.054  0.5553  1.2176  0.0335
 8095SOL     OW35743   2.862   1.805   8.582 -0.0532 -0.6880  0.5931
 8095SOL    HW135744   2.788   1.859   8.610 -1.0461 -2.6312  1.6477
 8095SOL    HW235745   2.839   1.716   8.607  0.8075 -0.8845  0.7037
 8096SOL     OW35746   0.541   4.228   2.583 -0.3415 -0.1893  0.2266
 8096SOL    HW135747   0.495   4.301   2.625  1.2183 -0.8296  3.0356
 8096SOL    HW235748   0.509   4.251   2.495  3.1937  1.3838 -0.6201
 8097SOL     OW35749   0.137   3.095   4.136 -0.5601 -0.1548  0.8055
 8097SOL    HW135750   0.071   3.120   4.072  1.5059  0.5178 -1.0780
 8097SOL    HW235751   0.137   2.999   4.134 -0.0586 -0.1435  0.1803
 8098SOL     OW35752   2.978   2.459   6.951 -0.2365 -0.0220 -0.2592
 8098SOL    HW135753   2.992   2.460   6.856 -0.0174 -2.9722 -0.2683
 8098SOL    HW235754   3.026   2.380   6.975 -0.3955  0.0631  0.3412
 8099SOL     OW35755   4.628   1.597   2.559 -0.4509 -0.0757 -0.4713
 8099SOL    HW135756   4.583   1.642   2.487  2.0867 -0.1664 -2.1006
 8099SOL    HW235757   4.567   1.598   2.632 -1.1766 -1.7649 -1.0492
 8100SOL     OW35758   0.220   0.530  15.180 -0.9388 -0.4998 -0.2877
 8100SOL    HW135759   0.193   0.500  15.093  0.3408  0.8234 -1.1290
 8100SOL    HW235760   0.146   0.588  15.200  0.7978  1.7231 -0.4109
 8101SOL     OW35761   0.853   0.411   2.412 -0.0153 -0.0259  0.5174
 8101SOL    HW135762   0.894   0.381   2.331  1.0254  2.2385  0.2101
 8101SOL    HW235763   0.884   0.501   2.414  2.2706 -0.8415  1.8301
 8102SOL     OW35764   4.001   3.139  15.939  0.3473  0.3083  0.3871
 8102SOL    HW135765   3.934   3.186  15.988 -0.2735  0.6925 -0.8194
 8102SOL    HW235766   4.068   3.124  16.006  0.4780  0.3451  0.2654
 8103SOL     OW35767   1.221   4.560  12.181  0.2084  0.0234 -0.1371
 8103SOL    HW135768   1.230   4.466  12.165 -0.5058 -0.1229  0.3244
 8103SOL    HW235769   1.159   4.553  12.254  2.0570 -1.9654  1.2272
 8104SOL     OW35770   3.880   3.068  15.688 -0.5989  0.6906 -0.2134
 8104SOL    HW135771   3.857   3.160  15.678 -1.4229  0.5790  0.6022
 8104SOL    HW235772   3.924   3.068  15.773  1.5394 -0.4836 -1.3380
 8105SOL     OW35773   1.868   0.836  15.656  0.6498  0.5521  1.2925
 8105SOL    HW135774   1.915   0.768  15.704 -1.3292 -2.0522 -0.4890
 8105SOL    HW235775   1.832   0.884  15.731  0.2655  1.4397  0.5326
 8106SOL     OW35776   2.345   2.440   1.925  0.5192 -0.2409  0.4518
 8106SOL    HW135777   2.312   2.494   1.997 -0.8073 -0.2917 -0.1304
 8106SOL    HW235778   2.291   2.458   1.849  0.6573  1.3735  0.7292
 8107SOL     OW35779   0.168   0.213   7.049 -0.3832  0.7420  0.1185
 8107SOL    HW135780   0.194   0.276   6.981  1.8582 -1.0294 -0.6584
 8107SOL    HW235781   0.229   0.229   7.121  0.5121 -0.1557 -0.4519
 8108SOL     OW35782   4.605   4.056   5.016 -0.0408  0.6219  0.0696
 8108SOL    HW135783   4.531   4.116   5.008 -0.2581  0.3772  0.2189
 8108SOL    HW235784   4.661   4.113   5.068  0.3001  1.1770 -0.9183
 8109SOL     OW35785   1.199   3.023   9.421  0.0611 -0.0569 -0.2358
 8109SOL    HW135786   1.242   3.103   9.390  2.6369 -1.5053 -0.4197
 8109SOL    HW235787   1.264   2.988   9.482  1.6124  2.4238 -0.4513
 8110SOL     OW35788   3.397   4.270   3.348  0.2735  0.2921 -0.1866
 8110SOL    HW135789   3.413   4.364   3.335  0.6758  0.1139 -1.0210
 8110SOL    HW235790   3.360   4.252   3.261  1.1813 -0.5921 -0.3901
 8111SOL     OW35791   3.486   0.923   2.423 -0.0820  0.5944 -0.2919
 8111SOL    HW135792   3.531   0.881   2.497 -1.8894 -0.0261  0.4406
 8111SOL    HW235793   3.398   0.937   2.456 -0.3945 -0.8722 -0.5040
 8112SOL     OW35794   0.736   1.529   2.897  0.5242 -0.3294  0.7622
 8112SOL    HW135795   0.812   1.586   2.905  0.5842 -0.0155 -2.3114
 8112SOL    HW235796   0.748   1.465   2.968  2.5947 -0.0005  0.7150
 8113SOL     OW35797   0.487   0.033   9.479  0.3415  0.4677  0.5420
 8113SOL    HW135798   0.495   0.060   9.571 -0.0380 -0.0620  0.7341
 8113SOL    HW235799   0.473   4.660   9.489  2.2183 -0.0184 -1.5121
 8114SOL     OW35800   4.254   0.396  14.740 -0.2001 -0.2505 -0.2664
 8114SOL    HW135801   4.243   0.354  14.826 -0.3453 -1.2751 -0.7890
 8114SOL    HW235802   4.183   0.460  14.739 -1.1161 -1.3062 -3.1774
 8115SOL     OW35803   0.321   0.966   8.908 -0.2239 -0.1783  0.3045
 8115SOL    HW135804   0.273   0.933   8.984 -0.3157 -2.8748 -0.9491
 8115SOL    HW235805   0.408   0.929   8.926 -1.2488 -2.6400  0.0983
 8116SOL     OW35806   2.273   3.048   3.358  0.0079 -0.0262  0.0335
 8116SOL    HW135807   2.354   3.061   3.407  0.0710  0.0021 -0.0777
 8116SOL    HW235808   2.207   3.097   3.406 -1.6514 -1.5637 -0.6907
 8117SOL     OW35809   0.059   0.918   3.931 -0.1420 -0.2346 -0.5111
 8117SOL    HW135810   0.072   0.823   3.925  0.4500 -0.0597 -1.9294
 8117SOL    HW235811   0.082   0.957   3.847 -1.4376  1.4119 -0.1046
 8118SOL     OW35812   1.455   3.100   8.249  0.6195 -0.2555  0.4277
 8118SOL    HW135813   1.444   3.158   8.174 -1.1012 -0.0700  0.8184
 8118SOL    HW235814   1.447   3.159   8.324 -0.8976 -0.1208  0.1459
 8119SOL     OW35815   2.891   1.116   7.106  0.2466 -0.3021  0.2429
 8119SOL    HW135816   2.866   1.152   7.021 -0.8725 -1.6241  0.0129
 8119SOL    HW235817   2.806   1.112   7.150  0.5602 -1.0397  0.7853
 8120SOL     OW35818   0.134   0.604   3.058 -0.5581 -0.6193 -0.2604
 8120SOL    HW135819   0.210   0.661   3.044 -0.4347 -0.4515  1.1384
 8120SOL    HW235820   0.071   0.654   3.109 -1.1410 -0.5508 -1.0558
 8121SOL     OW35821   2.529   3.111   1.086  0.7419  0.3163 -0.3655
 8121SOL    HW135822   2.590   3.125   1.158  1.7823  3.6101 -1.8749
 8121SOL    HW235823   2.582   3.079   1.013  0.5268  0.3523 -0.5395
 8122SOL     OW35824   1.960   2.900   1.047 -0.0183  0.3785  0.3660
 8122SOL    HW135825   2.001   2.959   0.983  1.1325 -0.7931  0.0276
 8122SOL    HW235826   1.874   2.903   1.006 -0.4001 -1.2766  1.0743
 8123SOL     OW35827   1.178   2.467  15.111  0.3424  0.2525 -0.0488
 8123SOL    HW135828   1.106   2.405  15.107  1.2071 -0.7303 -0.1938
 8123SOL    HW235829   1.190   2.487  15.018  0.4309  0.1251 -0.0639
 8124SOL     OW35830   3.812   3.134   7.643  0.1730  0.1903 -0.1782
 8124SOL    HW135831   3.753   3.175   7.579  1.2191 -1.6635 -2.2942
 8124SOL    HW235832   3.897   3.166   7.613 -2.2629  3.7687 -3.3610
 8125SOL     OW35833   0.136   0.196   4.521 -0.8614 -0.5087  0.1909
 8125SOL    HW135834   0.193   0.198   4.444 -0.6726 -2.1631  0.3018
 8125SOL    HW235835   0.130   0.103   4.541 -1.5490 -0.2698  1.0816
 8126SOL     OW35836   4.069   2.997   4.704  0.2672  0.1218  0.4020
 8126SOL    HW135837   4.030   3.084   4.698  1.4600  0.4685 -2.0646
 8126SOL    HW235838   4.002   2.959   4.648 -0.4049  0.9863  0.6345
 8127SOL     OW35839   4.646   1.427   6.624  0.5343  0.7203  0.6068
 8127SOL    HW135840   4.558   1.464   6.621  1.5533  3.0957 -0.3603
 8127SOL    HW235841   4.699   1.496   6.583 -0.4034  2.0255  1.5610
 8128SOL     OW35842   3.635   2.549   4.072 -0.4196 -1.3054  0.1191
 8128SOL    HW135843   3.661   2.546   4.164 -1.7387 -1.4655  0.4853
 8128SOL    HW235844   3.716   2.571   4.026 -0.3191 -0.0393  0.8944
 8129SOL     OW35845   2.409   3.623  15.744  0.1763  0.3643  0.1764
 8129SOL    HW135846   2.336   3.594  15.799 -0.2804  3.0988  1.0121
 8129SOL    HW235847   2.486   3.611  15.801  0.7468  1.5594 -0.3501
 8130SOL     OW35848   1.090   3.405  16.239  1.2736  0.4909  0.3563
 8130SOL    HW135849   1.095   3.452  16.156  0.9261  0.0027  0.0570
 8130SOL    HW235850   1.155   3.444  16.298  2.5107 -1.9722  0.6157
 8131SOL     OW35851   1.343   3.757  17.126  0.4826 -0.4545  0.0781
 8131SOL    HW135852   1.373   3.794  17.043 -0.7272 -1.6062 -0.8720
 8131SOL    HW235853   1.291   3.823  17.172 -0.1953 -0.6345 -0.4370
 8132SOL     OW35854   0.271   3.000   5.247  0.1523 -0.0578 -0.0941
 8132SOL    HW135855   0.186   2.969   5.276 -0.2365  0.1402 -1.0413
 8132SOL    HW235856   0.321   2.919   5.238 -0.1978 -0.6237  3.0738
 8133SOL     OW35857   2.615   2.788   6.023 -0.1598  0.1556  0.4904
 8133SOL    HW135858   2.543   2.790   6.086 -0.9296  0.6568 -0.4131
 8133SOL    HW235859   2.595   2.712   5.967 -3.3624 -0.9267  3.1306
 8134SOL     OW35860   0.423   0.677  15.265 -0.8610  0.0771 -0.5516
 8134SOL    HW135861   0.358   0.617  15.228 -1.7016  0.5144  0.2311
 8134SOL    HW235862   0.481   0.681  15.189  0.2233 -1.4588  0.2136
 8135SOL     OW35863   0.498   1.031   7.692 -0.2324 -0.1410 -0.2201
 8135SOL    HW135864   0.535   0.947   7.720  2.0591  0.3130 -1.8378
 8135SOL    HW235865   0.542   1.093   7.750 -0.2399 -0.1513 -0.2034
 8136SOL     OW35866   4.613   2.749   3.022 -0.0402  0.6847 -0.2062
 8136SOL    HW135867   4.638   2.829   2.977 -0.8340  0.4105 -1.1535
 8136SOL    HW235868   4.565   2.708   2.950 -0.2995  0.9928 -0.2065
 8137SOL     OW35869   0.177   0.441  12.139 -0.1748 -0.1503 -0.5549
 8137SOL    HW135870   0.257   0.394  12.114 -0.4293 -2.0233  2.1223
 8137SOL    HW235871   0.186   0.529  12.103  0.6315 -0.0789 -0.1856
 8138SOL     OW35872   0.241   0.257  17.315 -0.6204 -0.0064  0.1878
 8138SOL    HW135873   0.185   0.235  17.240 -1.1916  1.9038  0.0610
 8138SOL    HW235874   0.307   0.188  17.308  0.2108  0.8482 -0.3143
 8139SOL     OW35875   2.231   3.203   4.490 -0.3971  0.3982 -0.3647
 8139SOL    HW135876   2.300   3.250   4.536  1.3686  0.4448 -3.0617
 8139SOL    HW235877   2.151   3.225   4.538 -1.2551 -0.3989 -1.4272
 8140SOL     OW35878   2.952   3.815   6.909 -0.4155 -0.1668 -0.2445
 8140SOL    HW135879   2.979   3.866   6.985  1.9071 -2.4262  0.4437
 8140SOL    HW235880   3.013   3.846   6.842 -0.6989 -2.2169 -1.4755
 8141SOL     OW35881   3.449   4.618   8.834  0.1391  0.1684  0.3494
 8141SOL    HW135882   3.442   4.703   8.878  0.3463 -0.5211  1.7221
 8141SOL    HW235883   3.537   4.622   8.797  0.6543  1.5159  1.7088
 8142SOL     OW35884   2.073   2.630   1.958  0.1245  0.1192  0.2872
 8142SOL    HW135885   2.024   2.646   2.038 -1.8075 -1.7711 -0.5020
 8142SOL    HW235886   2.020   2.558   1.923  0.6350 -0.7499  1.3107
 8143SOL     OW35887   2.858   1.358   2.593  0.5614 -0.1620 -0.1921
 8143SOL    HW135888   2.933   1.386   2.540  1.1442 -2.8827 -0.8195
 8143SOL    HW235889   2.847   1.432   2.653 -1.6769 -0.7629  0.1284
 8144SOL     OW35890   2.803   3.880   7.650 -0.0505 -0.6858  0.6233
 8144SOL    HW135891   2.874   3.815   7.652  0.2639 -0.3302  0.8888
 8144SOL    HW235892   2.823   3.950   7.712 -0.4090 -0.8332  0.9093
 8145SOL     OW35893   3.595   2.963   7.331  0.0721 -0.3247 -0.1502
 8145SOL    HW135894   3.518   2.912   7.359  0.6967 -1.0527  0.2496
 8145SOL    HW235895   3.665   2.928   7.386  0.5120 -3.2998 -2.6237
 8146SOL     OW35896   0.445   2.367  13.102 -0.3357  0.5419  0.2299
 8146SOL    HW135897   0.513   2.413  13.053 -0.9540  0.6704 -0.5131
 8146SOL    HW235898   0.453   2.400  13.191  0.6522 -2.1320  1.1587
 8147SOL     OW35899   1.505   3.202   0.667  0.1717 -0.1420 -0.0210
 8147SOL    HW135900   1.591   3.189   0.629  1.0644 -3.9847  3.3360
 8147SOL    HW235901   1.447   3.137   0.627 -3.2124  3.1826 -0.5331
 8148SOL     OW35902   1.883   1.189   7.657  0.3819  0.0837 -0.7459
 8148SOL    HW135903   1.888   1.096   7.681 -1.0082  0.0916 -0.4552
 8148SOL    HW235904   1.948   1.234   7.711  0.0026  0.5173 -0.6544
 8149SOL     OW35905   2.491   1.858   3.589  0.3245  0.2090  0.0651
 8149SOL    HW135906   2.508   1.764   3.591  1.2059  0.3492 -0.6426
 8149SOL    HW235907   2.402   1.862   3.555  1.0039  0.8115 -1.6478
 8150SOL     OW35908   4.219   3.169   0.917 -0.7366  0.2166 -0.0096
 8150SOL    HW135909   4.311   3.197   0.913 -0.6475 -0.1761 -0.6878
 8150SOL    HW235910   4.183   3.256   0.896 -1.2114  0.2999  1.1520
 8151SOL     OW35911   2.824   1.394   8.915  0.4297 -0.4403  0.2369
 8151SOL    HW135912   2.918   1.400   8.899  0.4034  2.8274  1.3110
 8151SOL    HW235913   2.811   1.304   8.947  0.2329 -0.9991 -1.3904
 8152SOL     OW35914   2.363   1.490   2.580 -0.0321  0.0917  0.1885
 8152SOL    HW135915   2.435   1.453   2.530 -1.8598 -1.7983 -1.0818
 8152SOL    HW235916   2.321   1.408   2.606  0.2607  0.0700  0.5882
 8153SOL     OW35917   3.689   0.681   7.628 -0.9940 -0.2697  0.1414
 8153SOL    HW135918   3.708   0.690   7.721 -1.8184  0.4202  0.2367
 8153SOL    HW235919   3.771   0.688   7.579 -1.2595  0.3734 -0.2060
 8154SOL     OW35920   0.521   1.389   6.264  0.8381  0.0748 -0.4383
 8154SOL    HW135921   0.482   1.366   6.180 -1.0155  0.4462  0.3266
 8154SOL    HW235922   0.495   1.481   6.264 -1.8472 -0.6810  0.9652
 8155SOL     OW35923   0.227   0.245  11.707  0.1782  0.1556 -0.5974
 8155SOL    HW135924   0.145   0.292  11.721 -0.8267 -2.4419  2.4024
 8155SOL    HW235925   0.195   0.155  11.705  1.3640 -0.2680 -0.1753
 8156SOL     OW35926   4.035   4.081  17.663  0.0418 -0.6874 -0.0864
 8156SOL    HW135927   4.026   4.007  17.604  0.6998  1.0783 -2.3854
 8156SOL    HW235928   4.064   4.137  17.591 -0.2428 -2.0620 -1.2679
 8157SOL     OW35929   1.007   4.225   6.432  0.4276  0.1217  0.1175
 8157SOL    HW135930   0.930   4.235   6.375 -0.1938 -0.1405  0.9150
 8157SOL    HW235931   0.994   4.301   6.489 -0.4072 -0.3080  0.4938
 8158SOL     OW35932   0.993   3.625   5.976  0.1967 -0.0248 -0.3202
 8158SOL    HW135933   0.965   3.667   6.057  0.4800  1.9019 -1.2160
 8158SOL    HW235934   1.089   3.626   5.979  0.1533  2.2519  0.4056
 8159SOL     OW35935   1.552   0.672   3.244  0.1597 -0.1046 -0.0681
 8159SOL    HW135936   1.634   0.655   3.289 -0.1559  1.4747  1.1196
 8159SOL    HW235937   1.582   0.691   3.155 -2.1163  2.5285 -0.2902
 8160SOL     OW35938   4.474   0.664   0.129 -0.5343  0.3956  0.0604
 8160SOL    HW135939   4.393   0.708   0.154 -2.1180 -1.8853 -1.1090
 8160SOL    HW235940   4.505   0.619   0.207  1.6584  1.7483 -0.0097
 8161SOL     OW35941   0.004   0.752   6.793 -0.0646 -0.3634 -0.4279
 8161SOL    HW135942   4.675   0.830   6.819 -1.0702 -0.4812 -2.0397
 8161SOL    HW235943   0.048   0.733   6.876 -1.6274 -0.6357  0.3407
 8162SOL     OW35944   1.001   2.620  10.754  0.5776  0.1265  0.1359
 8162SOL    HW135945   0.967   2.703  10.786  1.1769  0.9696 -1.4472
 8162SOL    HW235946   0.963   2.616  10.666  0.1969  3.8853  0.1356
 8163SOL     OW35947   1.724   1.026   3.476  0.3712 -0.6543  0.4344
 8163SOL    HW135948   1.786   1.022   3.404 -1.0263 -0.5874 -0.7531
 8163SOL    HW235949   1.717   0.932   3.495  2.2504 -1.2127 -1.6847
 8164SOL     OW35950   2.592   2.534   6.541 -0.6139 -0.0396 -0.3930
 8164SOL    HW135951   2.630   2.603   6.486  0.7179  0.0312  0.6089
 8164SOL    HW235952   2.640   2.457   6.510 -2.3679 -0.6676 -1.5406
 8165SOL     OW35953   2.562   3.715   4.961 -0.1207 -0.4028 -0.5704
 8165SOL    HW135954   2.562   3.724   5.056  2.9460 -1.7508 -0.4205
 8165SOL    HW235955   2.495   3.647   4.956 -1.5454  0.9395  0.2135
 8166SOL     OW35956   0.467   3.641  14.425  0.6449  0.4966  0.3629
 8166SOL    HW135957   0.524   3.583  14.376  0.2575 -1.5012  2.3020
 8166SOL    HW235958   0.482   3.608  14.514  0.5623 -2.7964 -0.8582
 8167SOL     OW35959   3.741   1.990   2.728 -0.4357 -0.7756  0.1832
 8167SOL    HW135960   3.758   1.998   2.821  3.9616  1.5813 -0.8140
 8167SOL    HW235961   3.777   2.071   2.692 -1.6487 -0.7312 -0.9352
 8168SOL     OW35962   1.482   4.368  11.982  0.2991  0.0801  0.4274
 8168SOL    HW135963   1.444   4.399  11.899 -2.9341 -0.8312  1.5557
 8168SOL    HW235964   1.402   4.345  12.030  0.8355  0.2535  1.3887
 8169SOL     OW35965   0.583   2.112  16.220 -0.8246  0.1137 -0.2972
 8169SOL    HW135966   0.588   2.203  16.191 -2.2063  0.3474  0.2021
 8169SOL    HW235967   0.654   2.081  16.163 -1.9259  0.0304 -1.6056
 8170SOL     OW35968   4.525   2.453   7.453 -0.5906 -0.0673 -0.3766
 8170SOL    HW135969   4.559   2.386   7.512  0.5362 -0.1545 -1.1236
 8170SOL    HW235970   4.611   2.484   7.425 -0.0457 -0.2903  1.0368
 8171SOL     OW35971   0.502   4.520   6.226 -0.1146  0.0491 -0.0009
 8171SOL    HW135972   0.498   4.506   6.132 -1.2569 -0.8692  0.1763
 8171SOL    HW235973   0.587   4.562   6.238  1.0005 -2.1696 -0.1159
 8172SOL     OW35974   0.050   0.238   0.903 -0.2021 -0.5777  0.6605
 8172SOL    HW135975   0.021   0.250   0.812 -0.1349  0.3303  0.7595
 8172SOL    HW235976   0.143   0.220   0.890 -0.0479  1.0532 -0.5861
 8173SOL     OW35977   4.079   1.100   5.371  0.5593  0.3865 -0.0500
 8173SOL    HW135978   4.164   1.083   5.411  0.7053  0.4476 -0.3398
 8173SOL    HW235979   4.053   1.181   5.413 -1.5070 -0.1620 -0.2452
 8174SOL     OW35980   1.745   2.285  12.920 -0.3252 -0.0862  0.0174
 8174SOL    HW135981   1.771   2.198  12.891  1.0325  0.4093 -0.2493
 8174SOL    HW235982   1.818   2.337  12.888  0.0081 -0.2848  0.4657
 8175SOL     OW35983   2.247   1.171   1.075 -0.0947 -0.5357 -0.0745
 8175SOL    HW135984   2.236   1.255   1.029  0.3571 -2.0390 -2.8776
 8175SOL    HW235985   2.157   1.140   1.061  0.5260 -2.2706 -0.0766
 8176SOL     OW35986   2.383   4.242   7.349  0.5723 -0.3439 -0.5943
 8176SOL    HW135987   2.346   4.281   7.270  1.0021 -0.0398 -0.6494
 8176SOL    HW235988   2.316   4.183   7.383  0.0274  0.8462  0.4113
 8177SOL     OW35989   0.629   2.242   3.224 -0.1203 -0.4344  1.5125
 8177SOL    HW135990   0.697   2.197   3.175 -1.7472  1.2349 -2.3044
 8177SOL    HW235991   0.555   2.181   3.226  1.1783 -2.0663 -0.4415
 8178SOL     OW35992   3.684   3.156  15.308  1.3264 -1.4218 -0.2192
 8178SOL    HW135993   3.605   3.103  15.293  0.9041 -0.6528 -0.6999
 8178SOL    HW235994   3.734   3.146  15.228 -2.0694 -2.0033 -2.2989
 8179SOL     OW35995   2.112   3.395   5.150 -0.4753  0.3802  0.6300
 8179SOL    HW135996   2.109   3.347   5.232 -0.3094 -0.8229 -0.0584
 8179SOL    HW235997   2.169   3.468   5.173 -1.3354  0.1149  3.5053
 8180SOL     OW35998   0.603   1.546   5.168  0.0086 -0.1728  0.0941
 8180SOL    HW135999   0.558   1.472   5.210  0.0788  1.0325  2.2857
 8180SOL    HW236000   0.528   1.604   5.157  0.0043  0.0709  1.3793
 8181SOL     OW36001   0.125   2.338   5.182 -0.4725  0.2382 -0.2326
 8181SOL    HW136002   0.064   2.283   5.132  0.1273 -1.7730  1.2463
 8181SOL    HW236003   0.166   2.379   5.106 -0.7511  0.9079 -0.0186
 8182SOL     OW36004   4.139   1.512   6.242  0.0415 -0.0900 -0.2225
 8182SOL    HW136005   4.093   1.449   6.187 -1.3989  1.0914 -0.3627
 8182SOL    HW236006   4.066   1.549   6.290 -0.8050  0.2177 -1.7409
 8183SOL     OW36007   3.277   2.038   6.623  0.1098  0.0362 -0.0422
 8183SOL    HW136008   3.269   2.082   6.538  1.9387  0.5391  0.0657
 8183SOL    HW236009   3.324   2.100   6.679 -0.1941 -0.5395  0.8444
 8184SOL     OW36010   0.700   0.584  12.260  0.5504  0.2015  0.1831
 8184SOL    HW136011   0.678   0.518  12.194 -2.5871  2.7724 -1.3311
 8184SOL    HW236012   0.735   0.645  12.196 -1.2709  0.2221 -0.8039
 8185SOL     OW36013   0.239   3.235   3.557 -0.6140 -0.2421  0.2340
 8185SOL    HW136014   0.248   3.322   3.517 -0.2418  0.0162  0.8716
 8185SOL    HW236015   0.144   3.227   3.553 -0.8999  3.0308  0.3964
 8186SOL     OW36016   3.842   1.962   4.059  0.7250  0.0895 -0.0316
 8186SOL    HW136017   3.902   2.016   4.110  0.5364 -0.1816  0.4788
 8186SOL    HW236018   3.797   1.937   4.139 -1.0921  2.6470 -0.2400
 8187SOL     OW36019   3.543   0.195   7.199 -0.3509 -0.0357  0.6614
 8187SOL    HW136020   3.533   0.282   7.161 -0.6189 -1.3653 -2.2526
 8187SOL    HW236021   3.454   0.181   7.229 -0.7123  1.7107  0.3989
 8188SOL     OW36022   1.155   2.425   6.849 -0.2745  0.5084  0.3645
 8188SOL    HW136023   1.225   2.370   6.883  0.2676  1.7172  1.2289
 8188SOL    HW236024   1.182   2.511   6.882  3.0848  0.3434 -1.9635
 8189SOL     OW36025   2.858   2.618  13.830 -0.5033 -0.3938  0.2190
 8189SOL    HW136026   2.829   2.645  13.743 -0.9600  2.3313  1.2012
 8189SOL    HW236027   2.788   2.559  13.858 -2.0658  1.8057  0.9873
 8190SOL     OW36028   1.878   3.499   5.688 -0.2819  0.4478  0.3501
 8190SOL    HW136029   1.861   3.413   5.724  0.8077 -0.1348 -0.5282
 8190SOL    HW236030   1.789   3.532   5.692  0.0443  1.6885 -3.1518
 8191SOL     OW36031   3.502   2.959  11.422  0.2475  0.3760  0.2855
 8191SOL    HW136032   3.496   2.994  11.333  0.6210 -1.1788 -0.3472
 8191SOL    HW236033   3.450   2.878  11.427  0.7553  0.0934  0.9396
 8192SOL     OW36034   4.611   1.533   4.096  0.1847  0.0647 -0.2403
 8192SOL    HW136035   4.600   1.604   4.033 -0.3186  0.2400  0.0462
 8192SOL    HW236036   4.694   1.549   4.140 -0.9616  0.2982  1.8511
 8193SOL     OW36037   2.943   1.102   9.216 -0.5925 -0.3787 -0.5641
 8193SOL    HW136038   2.900   1.036   9.270  0.3017  0.9784  1.8214
 8193SOL    HW236039   2.871   1.136   9.164 -0.2530  1.8037  0.3829
 8194SOL     OW36040   3.977   3.744   6.618  0.2539 -0.4286 -0.6126
 8194SOL    HW136041   3.933   3.778   6.539  1.0931 -2.0478 -1.7778
 8194SOL    HW236042   3.993   3.828   6.660 -1.2484 -1.0946  1.2698
 8195SOL     OW36043   2.903   0.585  12.691  0.0724 -0.1025 -0.8825
 8195SOL    HW136044   2.983   0.587  12.638  0.1982 -0.0243 -0.6880
 8195SOL    HW236045   2.905   0.498  12.731  0.4767 -0.9331 -2.7128
 8196SOL     OW36046   2.387   3.281   1.408  0.2922  0.1285  0.4307
 8196SOL    HW136047   2.400   3.343   1.337 -0.6536 -2.3417 -1.8727
 8196SOL    HW236048   2.339   3.215   1.357 -0.3499  0.8301  0.1277
 8197SOL     OW36049   2.957   2.858   8.536  0.0287  0.2539  0.7853
 8197SOL    HW136050   2.906   2.934   8.565  0.2969  1.0328 -0.7485
 8197SOL    HW236051   3.004   2.837   8.616 -1.1013  2.2858  1.9786
 8198SOL     OW36052   2.630   3.243  13.540 -0.6252  0.2420  0.5016
 8198SOL    HW136053   2.723   3.245  13.566 -0.7107  0.2943  0.8072
 8198SOL    HW236054   2.626   3.226  13.446  0.1575 -0.6505  0.6310
 8199SOL     OW36055   4.684   3.347   3.605 -0.4331 -0.1320  0.8642
 8199SOL    HW136056   4.621   3.315   3.669  0.5244 -0.3044  1.7235
 8199SOL    HW236057   4.623   3.336   3.532  1.2196  1.0428 -0.7217
 8200SOL     OW36058   3.584   3.923   3.101  0.0994 -0.0088  0.1401
 8200SOL    HW136059   3.574   3.991   3.035 -1.7191 -0.1901  0.2152
 8200SOL    HW236060   3.523   3.853   3.075 -1.9122  1.6591  0.3937
 8201SOL     OW36061   1.031   2.223  15.174 -0.0790 -0.1166  0.2110
 8201SOL    HW136062   0.936   2.226  15.191  0.0403 -0.1703  0.8625
 8201SOL    HW236063   1.035   2.137  15.132  1.0235 -0.4798  1.0918
 8202SOL     OW36064   4.080   2.710   9.336 -0.2335  0.1457  0.0918
 8202SOL    HW136065   4.157   2.705   9.279 -0.5414  0.3823 -0.3401
 8202SOL    HW236066   4.100   2.771   9.407 -0.5249 -1.5140  1.6039
 8203SOL     OW36067   3.336   2.301   9.837  0.2063 -0.1026  0.2941
 8203SOL    HW136068   3.269   2.317   9.771  1.6037 -1.1258 -1.3834
 8203SOL    HW236069   3.299   2.239   9.900 -1.7179  1.1399  0.3693
 8204SOL     OW36070   2.297   0.819  12.647  0.2087 -0.5703 -0.0829
 8204SOL    HW136071   2.357   0.780  12.711  0.6803 -0.3306 -0.3757
 8204SOL    HW236072   2.291   0.760  12.572  0.4326 -1.5419  0.6663
 8205SOL     OW36073   3.239   2.570   8.326  0.3955 -0.5923 -0.6614
 8205SOL    HW136074   3.307   2.537   8.386 -0.8817 -1.2896  0.4070
 8205SOL    HW236075   3.231   2.490   8.275 -1.4897 -1.1311  0.4785
 8206SOL     OW36076   0.190   2.704   8.710 -0.0230  0.1419 -0.6563
 8206SOL    HW136077   0.283   2.719   8.725 -0.1040  0.1100 -0.1170
 8206SOL    HW236078   0.148   2.736   8.790  1.5068  2.9550 -0.9683
 8207SOL     OW36079   0.541   2.968   3.503 -0.7606  0.4328 -0.2804
 8207SOL    HW136080   0.532   3.057   3.536  0.1837  0.6494 -0.6148
 8207SOL    HW236081   0.487   2.980   3.424 -1.8694 -1.7486  0.1143
 8208SOL     OW36082   2.715   2.229   6.269 -0.2271 -0.1975 -0.4002
 8208SOL    HW136083   2.769   2.150   6.280  0.0223 -0.4182 -3.1853
 8208SOL    HW236084   2.654   2.202   6.201 -0.7905  1.3108 -0.4842
 8209SOL     OW36085   1.209   2.316   3.075 -0.5141  0.5538 -0.1062
 8209SOL    HW136086   1.206   2.406   3.044  1.7524  0.7897  0.3019
 8209SOL    HW236087   1.289   2.315   3.128 -0.2607  0.5511 -0.4890
 8210SOL     OW36088   0.876   0.286  10.759 -0.0006  0.4534 -0.6406
 8210SOL    HW136089   0.893   0.213  10.818 -0.9856  1.3043  0.7036
 8210SOL    HW236090   0.919   0.345  10.822 -0.2908 -0.6195  0.5636
 8211SOL     OW36091   4.469   0.355   2.177  0.4632  0.2121  0.8836
 8211SOL    HW136092   4.455   0.264   2.152  1.5035  0.8797 -2.1428
 8211SOL    HW236093   4.519   0.375   2.098 -0.4251  1.3566  0.5930
 8212SOL     OW36094   2.354   1.425   6.492  0.2397  0.2358  0.8377
 8212SOL    HW136095   2.406   1.457   6.566  0.4916  1.9484 -0.0782
 8212SOL    HW236096   2.397   1.342   6.476  2.2340  1.3259  0.6061
 8213SOL     OW36097   2.503   3.358   4.226  0.1061  0.2898  0.2277
 8213SOL    HW136098   2.505   3.301   4.149  1.3862  0.3785  0.2110
 8213SOL    HW236099   2.411   3.341   4.249 -0.2924 -0.7698 -2.0860
 8214SOL     OW36100   1.332   3.739  10.173  0.0069  0.4232  0.1507
 8214SOL    HW136101   1.264   3.681  10.139  1.5425 -1.3042 -0.0106
 8214SOL    HW236102   1.281   3.820  10.171  0.5550  0.7707  0.2985
 8215SOL     OW36103   0.224   1.474   2.048  0.1407  0.0812 -0.3845
 8215SOL    HW136104   0.146   1.437   2.090 -0.3907  3.0632  1.2589
 8215SOL    HW236105   0.295   1.440   2.102 -1.2726 -0.6115  1.0257
 8216SOL     OW36106   4.041   0.437   8.028  0.1915  0.3036 -0.6056
 8216SOL    HW136107   4.046   0.516   8.082 -0.3991 -0.4138  0.5113
 8216SOL    HW236108   3.995   0.461   7.948 -0.4103  0.3818 -0.2300
 8217SOL     OW36109   1.352   4.705  13.598 -0.0769 -0.3035 -0.5335
 8217SOL    HW136110   1.303   0.051  13.646 -0.2766 -0.2599 -0.8006
 8217SOL    HW236111   1.289   4.634  13.608 -1.2895  0.6841 -1.2702
 8218SOL     OW36112   1.392   1.678   1.403  0.3360 -0.0617  0.0769
 8218SOL    HW136113   1.339   1.716   1.473 -0.2926 -2.8206  1.1242
 8218SOL    HW236114   1.457   1.630   1.455  0.4398  1.2787  1.1794
 8219SOL     OW36115   1.585   1.552   1.562  0.1369  0.0077  0.0931
 8219SOL    HW136116   1.659   1.575   1.619 -0.8112  1.5557  0.6861
 8219SOL    HW236117   1.589   1.456   1.566  0.5844 -0.0725 -2.2134
 8220SOL     OW36118   1.806   1.146   4.802 -0.0081  1.1423 -0.8996
 8220SOL    HW136119   1.777   1.237   4.810 -0.1936  0.9100  1.0791
 8220SOL    HW236120   1.853   1.132   4.884 -0.9946 -0.1031 -0.5351
 8221SOL     OW36121   3.005   1.482   0.160  0.6090  0.2510 -0.4665
 8221SOL    HW136122   2.927   1.526   0.193  0.5520  0.5379 -0.9872
 8221SOL    HW236123   3.075   1.529   0.206 -0.7752  3.4666 -1.6915
 8222SOL     OW36124   1.163   4.511   3.975  0.2027 -0.6638 -0.2142
 8222SOL    HW136125   1.138   4.430   3.932 -0.1298 -0.8883  0.4123
 8222SOL    HW236126   1.114   4.503   4.057 -1.8221  0.5323 -1.3219
 8223SOL     OW36127   1.780   4.242   8.361  0.1270  0.2865 -0.1732
 8223SOL    HW136128   1.843   4.228   8.431 -0.5344  0.3007  0.4220
 8223SOL    HW236129   1.697   4.246   8.409  0.2730  2.0450 -0.0729
 8224SOL     OW36130   0.524   0.336   5.324 -0.0119 -0.4153  0.0588
 8224SOL    HW136131   0.541   0.356   5.416 -2.6291 -0.5431  0.5874
 8224SOL    HW236132   0.615   0.322   5.300  0.7616  1.7474  1.7080
 8225SOL     OW36133   4.296   0.104   3.168  0.2133 -0.0174  1.0088
 8225SOL    HW136134   4.357   0.037   3.138  0.8595  0.9737  0.0860
 8225SOL    HW236135   4.222   0.091   3.108  1.6562 -1.6218 -0.4201
 8226SOL     OW36136   0.645   3.388   5.726 -0.8779  0.0035 -0.5196
 8226SOL    HW136137   0.607   3.425   5.806  1.7399 -0.9724  1.1311
 8226SOL    HW236138   0.734   3.423   5.725 -1.3785  1.2836 -0.3336
 8227SOL     OW36139   2.823   1.107   5.431 -0.0795 -0.3814 -0.5894
 8227SOL    HW136140   2.781   1.027   5.461 -2.1734  0.2692 -1.7639
 8227SOL    HW236141   2.906   1.106   5.478  0.7699  1.9547 -1.9961
 8228SOL     OW36142   1.099   4.084   1.398 -0.1323  0.4720  0.0344
 8228SOL    HW136143   1.087   4.154   1.463  0.8355  1.9006 -1.3173
 8228SOL    HW236144   1.128   4.013   1.454 -0.6276 -0.6513 -1.1286
 8229SOL     OW36145   1.931   2.885  12.919  0.1713 -1.0364  0.2768
 8229SOL    HW136146   1.867   2.951  12.893  2.1561  0.4148 -1.0084
 8229SOL    HW236147   1.900   2.873  13.009  1.3264 -1.2238  0.6541
 8230SOL     OW36148   2.635   1.681   7.601  0.4177  0.0809  0.0571
 8230SOL    HW136149   2.626   1.669   7.696 -1.5161  1.1449  0.0169
 8230SOL    HW236150   2.659   1.595   7.566 -0.0188  0.4737 -1.2078
 8231SOL     OW36151   3.591   2.821   5.092  0.0558 -0.3534 -0.1932
 8231SOL    HW136152   3.526   2.871   5.043 -0.3656 -0.2493  0.4686
 8231SOL    HW236153   3.673   2.864   5.067  0.1859  0.4496  1.6264
 8232SOL     OW36154   1.255   2.796   8.893  0.7146 -0.4399 -0.2985
 8232SOL    HW136155   1.326   2.746   8.854  0.8867 -0.1639 -0.3392
 8232SOL    HW236156   1.297   2.864   8.946  1.6113 -1.5622  0.4332
 8233SOL     OW36157   2.664   4.567  16.873  0.4286  0.0345 -0.0286
 8233SOL    HW136158   2.756   4.576  16.900  0.6230 -1.4103 -0.2241
 8233SOL    HW236159   2.627   4.641  16.922  2.7823  0.2497  1.4410
 8234SOL     OW36160   3.721   0.429  11.817 -0.2444 -0.1121  0.8065
 8234SOL    HW136161   3.817   0.432  11.808 -0.4438  0.8607 -1.1036
 8234SOL    HW236162   3.698   0.378  11.739 -0.0580  0.3160  0.4674
 8235SOL     OW36163   4.525   1.218   0.884  0.2991  0.0706 -0.4175
 8235SOL    HW136164   4.518   1.185   0.973 -2.0843 -1.5997 -1.2487
 8235SOL    HW236165   4.614   1.253   0.891 -0.3804  1.4797  1.3248
 8236SOL     OW36166   0.407   3.082   8.472  0.4429 -0.0216  0.0706
 8236SOL    HW136167   0.396   3.105   8.564 -0.9414 -0.5490  0.0374
 8236SOL    HW236168   0.458   3.001   8.483 -0.2485 -0.6221 -1.0343
 8237SOL     OW36169   4.458   2.294  15.182 -0.1279  0.6389  0.7219
 8237SOL    HW136170   4.377   2.338  15.207 -0.1050  1.9046 -1.4094
 8237SOL    HW236171   4.487   2.347  15.108  1.1639 -0.8827  0.1392
 8238SOL     OW36172   2.262   3.861  16.480 -0.7641  0.3362 -0.3526
 8238SOL    HW136173   2.176   3.833  16.510 -1.2505 -0.0023 -2.0782
 8238SOL    HW236174   2.239   3.928  16.415  1.2478 -0.0438 -1.4503
 8239SOL     OW36175   1.545   4.530   0.625  0.6373 -0.1275  0.9012
 8239SOL    HW136176   1.561   4.468   0.554 -1.8395  2.7327 -2.1619
 8239SOL    HW236177   1.635   4.518   0.657  0.0575 -0.5782  2.3370
 8240SOL     OW36178   2.813   3.368  14.439 -0.7406 -0.5808 -0.6979
 8240SOL    HW136179   2.883   3.345  14.501  0.2774 -0.8412 -1.9471
 8240SOL    HW236180   2.846   3.447  14.396  2.5901 -0.9828  1.0741
 8241SOL     OW36181   1.861   3.412   3.573 -0.2314 -0.2686  0.0768
 8241SOL    HW136182   1.900   3.349   3.513 -2.2617 -0.9693 -0.4904
 8241SOL    HW236183   1.784   3.364   3.603  0.7887 -1.4351  0.8221
 8242SOL     OW36184   1.820   1.058   9.575  0.3459  0.5269 -0.2500
 8242SOL    HW136185   1.817   1.045   9.670  1.4975  0.3340 -0.2309
 8242SOL    HW236186   1.819   0.971   9.535  0.3479  0.4758 -0.1412
 8243SOL     OW36187   2.446   0.155   7.580 -1.1410  0.5396  0.1548
 8243SOL    HW136188   2.499   0.228   7.613  0.8203 -0.0121 -1.7296
 8243SOL    HW236189   2.399   0.119   7.655  1.2235 -1.2479  0.7990
 8244SOL     OW36190   4.698   4.220  12.269  0.3369  0.2040 -0.2229
 8244SOL    HW136191   0.013   4.134  12.291 -2.5359 -1.0034 -0.3089
 8244SOL    HW236192   4.671   4.253  12.354  0.5475 -2.3020  0.8206
 8245SOL     OW36193   3.638   3.132   6.278  0.0440  0.4482 -0.3188
 8245SOL    HW136194   3.705   3.089   6.226 -0.0010  0.1672 -0.1455
 8245SOL    HW236195   3.595   3.054   6.313 -0.6325  0.4453 -1.1523
 8246SOL     OW36196   4.250   3.854   9.905 -0.3933 -0.5236  0.0451
 8246SOL    HW136197   4.313   3.912   9.947 -1.1361  0.2578  0.0912
 8246SOL    HW236198   4.191   3.833   9.978 -0.6386  0.6086  0.1765
 8247SOL     OW36199   3.007   0.713  17.160 -0.0974 -0.6420 -0.5060
 8247SOL    HW136200   3.074   0.706  17.093 -1.7433  2.0081 -2.4168
 8247SOL    HW236201   2.947   0.643  17.134 -0.6257 -0.1002 -0.7472
 8248SOL     OW36202   4.581   4.209   5.669 -0.0009  0.2271 -0.5467
 8248SOL    HW136203   4.586   4.301   5.642  1.0961  0.3685  0.1154
 8248SOL    HW236204   4.510   4.211   5.733  1.7437  1.1510  1.3695
 8249SOL     OW36205   2.499   3.059   5.539 -0.0821  0.6724 -0.1590
 8249SOL    HW136206   2.482   2.985   5.597  0.2378 -0.1803 -1.1567
 8249SOL    HW236207   2.586   3.080   5.574  0.3972 -1.6254 -0.0086
 8250SOL     OW36208   3.929   0.905   3.874 -0.4633  0.1497 -0.1996
 8250SOL    HW136209   3.861   0.968   3.897 -0.4096  1.1845 -2.7737
 8250SOL    HW236210   3.986   0.919   3.949 -0.2771 -1.1486 -0.0985
 8251SOL     OW36211   4.666   1.553  13.227 -0.6663 -0.2508 -0.0889
 8251SOL    HW136212   4.676   1.637  13.271  0.4092  0.0191 -0.8396
 8251SOL    HW236213   4.641   1.580  13.138  0.7020  0.2086 -0.3520
 8252SOL     OW36214   3.333   2.646   0.782 -0.0946  0.0884 -0.0297
 8252SOL    HW136215   3.344   2.570   0.839  0.8015 -2.1246 -3.1250
 8252SOL    HW236216   3.341   2.613   0.692 -1.4379 -1.2074  0.3370
 8253SOL     OW36217   4.295   0.856   3.229 -0.0641  0.3922 -0.2862
 8253SOL    HW136218   4.327   0.945   3.222 -1.8567  0.8681 -2.5372
 8253SOL    HW236219   4.257   0.836   3.143 -1.3532  0.6357  0.2291
 8254SOL     OW36220   3.657   0.521   0.467 -0.7214 -0.1521 -0.0222
 8254SOL    HW136221   3.626   0.587   0.404 -1.2169 -0.0888  0.2894
 8254SOL    HW236222   3.722   0.478   0.412  0.3960  1.8346 -0.2911
 8255SOL     OW36223   4.556   1.077  10.948  0.1160 -0.6864  0.3295
 8255SOL    HW136224   4.489   1.022  10.907  0.9427 -0.9215 -0.7047
 8255SOL    HW236225   4.529   1.076  11.040  1.7264 -0.4994  0.7931
 8256SOL     OW36226   1.492   0.451   6.551 -0.5186 -0.2086  0.0603
 8256SOL    HW136227   1.443   0.372   6.573 -0.2070  0.2522  2.3523
 8256SOL    HW236228   1.446   0.518   6.601  0.6267 -0.2564  1.1684
 8257SOL     OW36229   0.714   0.554   1.673  0.1593 -0.2899 -0.0219
 8257SOL    HW136230   0.706   0.531   1.766  1.2968  1.1295  0.4166
 8257SOL    HW236231   0.772   0.488   1.635  1.2196  0.7854 -0.2494
 8258SOL     OW36232   1.488   1.260   4.290 -0.2816  0.1717 -0.0717
 8258SOL    HW136233   1.543   1.276   4.213  0.7696  0.1762  0.6800
 8258SOL    HW236234   1.520   1.173   4.314  1.7035  0.9347  0.0550
 8259SOL     OW36235   1.505   0.192   6.075 -0.1362  0.0848  0.3775
 8259SOL    HW136236   1.578   0.246   6.106 -0.2952  1.6913 -2.0486
 8259SOL    HW236237   1.432   0.217   6.131 -0.2172  0.5547  0.0665
 8260SOL     OW36238   0.411   0.396   7.466 -0.5285  0.3882 -0.2330
 8260SOL    HW136239   0.492   0.346   7.459 -0.4495  0.2725  1.4263
 8260SOL    HW236240   0.369   0.350   7.538  1.5394 -0.1247  0.6322
 8261SOL     OW36241   4.343   1.126   8.039 -0.0241  0.3088  0.7307
 8261SOL    HW136242   4.334   1.082   8.123  1.0989  0.7967  1.1019
 8261SOL    HW236243   4.320   1.065   7.968  0.1835 -0.1664  1.0700
 8262SOL     OW36244   4.378   0.177  17.306  0.0649  0.2781 -0.1617
 8262SOL    HW136245   4.416   0.260  17.337 -0.6239  0.9234 -1.0643
 8262SOL    HW236246   4.444   0.108  17.310 -0.1273  0.1655  1.1418
 8263SOL     OW36247   4.652   2.668   7.731 -0.3623 -0.2186  0.0915
 8263SOL    HW136248   4.593   2.725   7.781 -1.4168 -1.5596  0.3732
 8263SOL    HW236249   4.641   2.580   7.767 -0.1159 -0.7527 -1.1633
 8264SOL     OW36250   1.799   4.035   4.023 -0.3982  0.3182 -0.1712
 8264SOL    HW136251   1.857   4.051   3.949 -1.1825  1.2424 -0.5789
 8264SOL    HW236252   1.716   4.063   3.984 -0.8908 -1.3528 -0.3406
 8265SOL     OW36253   2.610   2.304   0.753  0.1791  0.1035 -0.1925
 8265SOL    HW136254   2.636   2.281   0.842  0.7659  3.0468  0.4227
 8265SOL    HW236255   2.682   2.364   0.732 -1.4609  1.9630 -0.5290
 8266SOL     OW36256   2.704   3.737   8.857  0.5667  0.1442 -0.5864
 8266SOL    HW136257   2.708   3.758   8.763  0.5220 -2.5323 -1.1915
 8266SOL    HW236258   2.770   3.797   8.892  0.5328 -1.0485  1.4675
 8267SOL     OW36259   3.156   3.652  11.441 -0.8456 -0.7232  0.4305
 8267SOL    HW136260   3.140   3.563  11.473 -0.7419  0.3662  3.5120
 8267SOL    HW236261   3.250   3.662  11.454 -0.7647 -1.7784  0.6497
 8268SOL     OW36262   0.782   0.399  16.331  0.0412 -0.2124 -0.2265
 8268SOL    HW136263   0.714   0.392  16.398  0.3009  2.2439  0.2748
 8268SOL    HW236264   0.764   0.315  16.288  1.2802 -1.0381  0.8743
 8269SOL     OW36265   2.311   0.338  10.499 -0.0259  0.0981  0.0710
 8269SOL    HW136266   2.385   0.278  10.487  1.5751  2.3813 -1.3762
 8269SOL    HW236267   2.330   0.356  10.591 -0.1173  1.3464 -0.1569
 8270SOL     OW36268   2.726   1.269  16.326 -0.3181  0.4418 -0.4466
 8270SOL    HW136269   2.746   1.284  16.234 -0.4721  1.4551 -0.3185
 8270SOL    HW236270   2.633   1.290  16.314  0.3589  1.4615 -3.6775
 8271SOL     OW36271   3.047   0.227   6.448  0.0897  0.8553 -0.4778
 8271SOL    HW136272   3.001   0.152   6.409  0.8663  0.4005 -0.5208
 8271SOL    HW236273   2.994   0.245   6.526  0.9962 -0.0603  0.3640
 8272SOL     OW36274   1.424   3.866  13.232 -0.2771 -0.2824  0.1864
 8272SOL    HW136275   1.416   3.817  13.314  0.8249  0.3481  0.6609
 8272SOL    HW236276   1.471   3.801  13.179 -0.3795  0.1402 -0.4239
 8273SOL     OW36277   1.158   2.327  15.398  0.7139  0.0083 -0.1757
 8273SOL    HW136278   1.127   2.285  15.317  1.6876 -0.7970 -0.1381
 8273SOL    HW236279   1.246   2.290  15.404 -0.2011 -2.1636  0.2781
 8274SOL     OW36280   4.603   1.902   7.833 -0.1545 -0.2948 -0.1949
 8274SOL    HW136281   4.629   1.823   7.879 -1.4927 -1.0841 -0.7953
 8274SOL    HW236282   4.648   1.962   7.893 -2.0295  0.2820  0.6501
 8275SOL     OW36283   0.390   2.102   4.543  0.0409  0.3823 -0.2671
 8275SOL    HW136284   0.417   2.011   4.551 -0.6494  0.0693 -1.5380
 8275SOL    HW236285   0.474   2.132   4.508 -1.1091  1.0719 -2.4814
 8276SOL     OW36286   2.920   0.721   3.614 -0.2857  0.2246 -0.2629
 8276SOL    HW136287   2.944   0.696   3.703 -0.8500 -1.5662 -0.5918
 8276SOL    HW236288   3.008   0.749   3.588  0.3986 -1.1802  0.5172
 8277SOL     OW36289   3.977   4.244   5.980 -0.1173  0.2345 -0.5186
 8277SOL    HW136290   3.884   4.265   5.987  0.1251  1.1173  0.1461
 8277SOL    HW236291   3.966   4.167   5.925 -2.3374  0.3893 -0.2665
 8278SOL     OW36292   3.275   2.507  11.761 -0.3201 -0.4900 -0.3636
 8278SOL    HW136293   3.367   2.515  11.735 -0.5710  0.8684 -0.8275
 8278SOL    HW236294   3.276   2.525  11.855 -1.1619  1.6397 -0.7614
 8279SOL     OW36295   0.512   2.810  16.380 -0.3961 -0.1419  0.5762
 8279SOL    HW136296   0.549   2.896  16.359 -2.1940  1.1161  2.4834
 8279SOL    HW236297   0.424   2.844  16.398 -0.2128  1.1007 -0.8685
 8280SOL     OW36298   3.669   1.656  17.156  0.1714 -0.5836 -0.6415
 8280SOL    HW136299   3.632   1.701  17.232 -0.5996 -1.3110 -0.5865
 8280SOL    HW236300   3.607   1.684  17.089 -0.2834  1.6180  0.6872
 8281SOL     OW36301   0.244   1.139   6.906 -0.1997 -0.1536  0.1406
 8281SOL    HW136302   0.231   1.176   6.819  0.4918 -1.1970 -0.4096
 8281SOL    HW236303   0.329   1.095   6.903  0.1822  0.4274  2.2075
 8282SOL     OW36304   0.100   2.014   9.016 -0.5949  0.4454  0.4500
 8282SOL    HW136305   0.154   2.001   9.094  0.4017  0.5979 -0.2082
 8282SOL    HW236306   0.021   2.047   9.059  0.8037  1.9869  1.8572
 8283SOL     OW36307   2.663   2.993   8.292  0.0786 -0.3017  0.5569
 8283SOL    HW136308   2.675   2.906   8.254  0.9558 -0.4793  1.2426
 8283SOL    HW236309   2.735   3.012   8.352  0.8864  0.0785 -0.5271
 8284SOL     OW36310   4.380   2.790   7.568 -0.0921  0.1794  0.1007
 8284SOL    HW136311   4.463   2.815   7.610  1.5387 -1.9192 -1.8844
 8284SOL    HW236312   4.424   2.776   7.484 -0.9677 -2.5785  0.1063
 8285SOL     OW36313   4.021   2.052   4.220  0.1484 -0.4166  0.3223
 8285SOL    HW136314   4.102   2.075   4.266  0.4283  0.7221 -0.7411
 8285SOL    HW236315   4.062   1.979   4.175 -1.3135 -0.0889 -1.5397
 8286SOL     OW36316   4.053   4.029  12.253 -0.3728 -0.0368  0.2972
 8286SOL    HW136317   3.979   3.974  12.227 -0.1921  0.6994 -1.7383
 8286SOL    HW236318   4.085   4.044  12.164 -0.6733 -0.2866  0.1453
 8287SOL     OW36319   2.671   4.280   8.966 -0.3273  0.5120 -0.1303
 8287SOL    HW136320   2.603   4.266   9.032 -1.0274  1.2769 -0.6892
 8287SOL    HW236321   2.718   4.196   8.962  0.6598  0.9029  3.2053
 8288SOL     OW36322   2.270   3.087   1.710 -0.0464  0.0872  0.4241
 8288SOL    HW136323   2.341   3.081   1.647 -3.5721 -1.2645 -3.4158
 8288SOL    HW236324   2.218   3.010   1.687  1.0563 -0.8007  0.9135
 8289SOL     OW36325   1.806   1.816   2.643 -0.3869  0.4440 -0.6310
 8289SOL    HW136326   1.877   1.783   2.589 -0.0701 -1.4491  0.9419
 8289SOL    HW236327   1.793   1.736   2.695 -0.0389  0.7014 -0.1449
 8290SOL     OW36328   0.740   2.868   3.142 -0.2089 -0.4841  0.1917
 8290SOL    HW136329   0.724   2.959   3.117  0.5886 -0.0635  1.2063
 8290SOL    HW236330   0.658   2.829   3.112  0.4115 -0.5008 -1.4702
 8291SOL     OW36331   1.235   2.563   3.295 -0.0587 -0.6256  0.4058
 8291SOL    HW136332   1.315   2.613   3.310 -0.2147  0.0965 -1.1561
 8291SOL    HW236333   1.176   2.618   3.345 -1.1997  0.0959 -1.7603
 8292SOL     OW36334   2.050   4.656   8.486  0.3920  0.2062 -0.2619
 8292SOL    HW136335   2.119   4.711   8.450  0.0160  0.4258 -0.6386
 8292SOL    HW236336   2.069   4.568   8.455  0.6923 -0.1558  0.9384
 8293SOL     OW36337   2.230   2.363  13.383 -0.6696 -0.1248 -0.4166
 8293SOL    HW136338   2.272   2.440  13.345  1.6039 -0.0513  2.2121
 8293SOL    HW236339   2.308   2.327  13.425  1.4622  3.8590 -0.9457
 8294SOL     OW36340   4.274   0.347  10.191  0.6215  0.3376  0.1010
 8294SOL    HW136341   4.230   0.280  10.243  0.0148  0.4407 -0.2793
 8294SOL    HW236342   4.362   0.335  10.228  0.2765  0.2275  0.8944
 8295SOL     OW36343   1.033   3.241  17.677  0.3199  0.0728  0.1366
 8295SOL    HW136344   1.020   3.335  17.666  0.2809 -0.0420 -0.8145
 8295SOL    HW236345   1.074   3.233   0.079  1.0814 -0.8863 -0.3145
 8296SOL     OW36346   0.966   4.451   6.598  0.4390  0.1008 -0.4409
 8296SOL    HW136347   1.049   4.484   6.633  0.7849  0.2191 -1.3771
 8296SOL    HW236348   0.935   4.531   6.556 -1.9765 -1.6380 -1.9561
 8297SOL     OW36349   0.584   1.071   7.248  0.2523 -1.0155 -0.7228
 8297SOL    HW136350   0.567   1.148   7.303  3.7739 -0.7881  0.0172
 8297SOL    HW236351   0.616   1.008   7.313  0.3596 -1.5443 -1.2929
 8298SOL     OW36352   2.366   4.545   7.413  0.6981  0.2095  0.3045
 8298SOL    HW136353   2.375   4.450   7.405  0.6499  0.1859  0.5377
 8298SOL    HW236354   2.379   4.571   7.322 -1.1964  3.0156  0.8603
 8299SOL     OW36355   2.522   0.749  12.275 -0.2673 -0.4833  0.3737
 8299SOL    HW136356   2.521   0.810  12.348  1.4586  0.0891 -0.0812
 8299SOL    HW236357   2.614   0.760  12.252 -0.5470  0.8028 -0.1116
 8300SOL     OW36358   4.121   2.295   6.919 -0.3737  0.2204 -0.8064
 8300SOL    HW136359   4.096   2.244   6.995  0.8824 -2.6415 -2.3136
 8300SOL    HW236360   4.066   2.373   6.930  0.4275  0.3010  2.4457
 8301SOL     OW36361   2.502   1.709   5.928  0.1030  0.4889  0.4882
 8301SOL    HW136362   2.510   1.623   5.886  1.0293  2.0181 -2.4675
 8301SOL    HW236363   2.428   1.706   5.989 -2.4120 -1.7576 -2.6764
 8302SOL     OW36364   2.228   3.020   1.363  0.3166 -0.5877 -0.0098
 8302SOL    HW136365   2.314   2.984   1.386  0.7538  0.2319 -0.3497
 8302SOL    HW236366   2.175   2.942   1.373 -0.5394  0.0223  0.2563
 8303SOL     OW36367   3.908   0.718   4.652  0.1227  0.7597  0.1540
 8303SOL    HW136368   3.821   0.698   4.616  1.2975 -2.6099 -0.7931
 8303SOL    HW236369   3.903   0.814   4.657  0.4208  0.9410 -3.2899
 8304SOL     OW36370   0.629   3.974   1.459 -0.0951  0.2088  0.6625
 8304SOL    HW136371   0.720   3.949   1.473  1.0038  3.7064 -0.3369
 8304SOL    HW236372   0.588   3.948   1.542  3.7738 -0.2407  2.4349
 8305SOL     OW36373   0.016   4.370  15.046 -0.7256  0.5469  0.2545
 8305SOL    HW136374   0.022   4.456  15.087  2.2123  0.7157 -0.5587
 8305SOL    HW236375   0.044   4.392  14.957  1.2936  4.5814  1.8718
 8306SOL     OW36376   3.414   3.315  11.425  0.7202  0.2554 -0.2395
 8306SOL    HW136377   3.494   3.308  11.372  0.5598  0.1857 -0.4733
 8306SOL    HW236378   3.348   3.342  11.361  0.1021  1.2560  0.8228
 8307SOL     OW36379   1.603   3.579  14.549  0.3787  0.4862 -0.0152
 8307SOL    HW136380   1.622   3.516  14.618  1.0365 -2.7150 -3.1592
 8307SOL    HW236381   1.626   3.663  14.589 -1.0444  0.2453  1.3457
 8308SOL     OW36382   3.128   3.716   3.038  0.0850 -0.0824  0.5949
 8308SOL    HW136383   3.163   3.653   3.101 -1.0787 -0.0577  1.2813
 8308SOL    HW236384   3.045   3.682   3.005 -0.0214  1.3016 -0.5729
 8309SOL     OW36385   4.299   1.215   7.117 -0.6496  0.0743 -0.4616
 8309SOL    HW136386   4.357   1.161   7.170  0.9852  2.5588  0.2827
 8309SOL    HW236387   4.293   1.170   7.032 -2.1104 -0.0535 -0.3025
 8310SOL     OW36388   0.090   0.081   2.290  0.0212 -0.3663 -0.7296
 8310SOL    HW136389   0.115   0.171   2.270  1.6609 -0.4694  0.8998
 8310SOL    HW236390   0.014   0.098   2.347  1.2336  0.2338  0.6949
 8311SOL     OW36391   1.849   2.905   6.330 -0.2956  0.1314 -0.2566
 8311SOL    HW136392   1.898   2.987   6.340 -1.2988  0.5101  1.5933
 8311SOL    HW236393   1.770   2.936   6.285 -1.0569  0.3548  1.2256
 8312SOL     OW36394   1.960   4.210   0.594 -0.0031  0.1494  0.1836
 8312SOL    HW136395   1.872   4.237   0.571  0.3222  0.6943 -0.4023
 8312SOL    HW236396   2.012   4.217   0.514  0.2312  0.7829  0.3943
 8313SOL     OW36397   3.429   1.098  15.739 -0.5768 -0.5378  0.2287
 8313SOL    HW136398   3.471   1.048  15.809 -0.5891  1.5219  1.7314
 8313SOL    HW236399   3.447   1.190  15.757 -0.1061 -0.4160 -0.9143
 8314SOL     OW36400   0.243   2.619  14.844  0.5134 -0.1557  0.3381
 8314SOL    HW136401   0.214   2.573  14.923 -1.2307 -1.5392 -1.1003
 8314SOL    HW236402   0.187   2.586  14.774 -0.3964 -0.0163  1.0014
 8315SOL     OW36403   3.423   0.562   3.074 -0.2086  0.2170  0.3451
 8315SOL    HW136404   3.440   0.625   3.143  0.4870 -0.0923  0.4512
 8315SOL    HW236405   3.478   0.491   3.107  4.0584  2.3736 -2.0375
 8316SOL     OW36406   1.915   4.095   4.898  0.1093 -0.5030 -0.5543
 8316SOL    HW136407   1.906   4.070   4.990  0.5950 -2.9782 -1.1820
 8316SOL    HW236408   1.863   4.026   4.857 -0.0219  0.0216 -1.2653
 8317SOL     OW36409   0.448   2.875   6.206 -0.1531  0.1894 -0.3814
 8317SOL    HW136410   0.452   2.960   6.162 -2.1202  0.3083 -0.3010
 8317SOL    HW236411   0.491   2.908   6.285 -0.4270 -1.2625  0.3696
 8318SOL     OW36412   0.470   3.841   6.048 -0.0060  0.4112 -0.0517
 8318SOL    HW136413   0.382   3.879   6.048  0.2335  0.9600 -0.0979
 8318SOL    HW236414   0.462   3.767   6.109  2.2326  1.3547  1.3901
 8319SOL     OW36415   2.588   4.628   9.924  0.8450 -0.2909  0.4912
 8319SOL    HW136416   2.519   4.694   9.928  0.0598 -1.2506  2.6659
 8319SOL    HW236417   2.626   4.665   9.844 -1.6532 -1.2979 -1.1601
 8320SOL     OW36418   3.834   4.463  16.711  0.0233  0.5436  0.4598
 8320SOL    HW136419   3.808   4.458  16.619  4.7681  2.4610 -0.9657
 8320SOL    HW236420   3.878   4.546  16.723 -2.0298  1.5529  1.0881
 8321SOL     OW36421   3.317   3.772   3.527  0.3270 -0.1068 -0.2262
 8321SOL    HW136422   3.266   3.853   3.520 -0.9410 -1.1196 -2.7112
 8321SOL    HW236423   3.334   3.769   3.622 -2.3535 -1.2696  0.2011
 8322SOL     OW36424   1.069   0.073   4.129  0.0358 -0.0496 -0.1514
 8322SOL    HW136425   0.994   0.014   4.118 -0.4770  0.6406 -0.3266
 8322SOL    HW236426   1.039   0.149   4.079  0.1185  0.6920  0.9265
 8323SOL     OW36427   1.167   1.399  10.326  0.4351 -0.3883 -0.2322
 8323SOL    HW136428   1.228   1.329  10.304  1.6266  1.1025 -1.7133
 8323SOL    HW236429   1.172   1.456  10.249 -0.6472 -0.3176 -0.2528
 8324SOL     OW36430   4.345   0.091   1.790 -0.2168  0.1754  0.7086
 8324SOL    HW136431   4.298   0.098   1.707 -0.2727 -1.3621  0.5976
 8324SOL    HW236432   4.432   0.126   1.770 -0.7124  1.6572  1.1557
 8325SOL     OW36433   4.231   0.961   7.300  0.2844  0.1921 -0.9752
 8325SOL    HW136434   4.293   1.014   7.351 -0.5295  1.3708 -1.1967
 8325SOL    HW236435   4.272   0.979   7.216 -0.7710 -1.1055 -1.7601
 8326SOL     OW36436   1.140   3.016   7.256 -0.0340 -0.6307 -0.0063
 8326SOL    HW136437   1.045   3.021   7.253  0.0794  1.1900 -0.3114
 8326SOL    HW236438   1.144   2.951   7.327 -2.9032  0.5958  1.2716
 8327SOL     OW36439   0.195   1.169   9.569  0.4846 -0.0423 -0.0546
 8327SOL    HW136440   0.139   1.118   9.510  0.0958 -0.1754  0.4372
 8327SOL    HW236441   0.131   1.211   9.627 -1.1561 -0.3510 -1.6330
 8328SOL     OW36442   4.649   3.635   8.952  0.1801  0.3139 -0.2897
 8328SOL    HW136443   4.593   3.576   9.003  0.2734  0.3809 -0.1083
 8328SOL    HW236444   4.656   3.584   8.872  0.5968 -2.3694  1.4616
 8329SOL     OW36445   3.611   2.968   2.126 -0.5757 -0.1132  0.1071
 8329SOL    HW136446   3.677   3.027   2.163  2.3206 -1.9686 -2.0287
 8329SOL    HW236447   3.532   3.021   2.124  0.0099  0.8902  3.1119
 8330SOL     OW36448   3.878   2.885   4.562 -0.0741  0.0257  0.3577
 8330SOL    HW136449   3.843   2.863   4.476  3.1279  1.5374 -1.3480
 8330SOL    HW236450   3.807   2.948   4.578 -1.5132 -1.1212 -1.6446
 8331SOL     OW36451   1.700   4.292   0.486  0.2251  0.1771 -0.4181
 8331SOL    HW136452   1.635   4.324   0.424 -0.3149  2.6049  1.3799
 8331SOL    HW236453   1.651   4.215   0.517 -0.0913 -0.5563 -2.7873
 8332SOL     OW36454   0.991   3.616   7.267 -0.1464 -0.1276 -0.1925
 8332SOL    HW136455   0.999   3.528   7.230 -0.8831 -0.1937 -0.2022
 8332SOL    HW236456   0.989   3.683   7.200  2.0031  1.4116  1.2804
 8333SOL     OW36457   0.902   3.995   3.795 -0.1373  0.2147  0.1697
 8333SOL    HW136458   0.839   3.978   3.725 -0.3997 -2.6022  1.1102
 8333SOL    HW236459   0.981   4.005   3.742  0.0210 -0.1680  0.3345
 8334SOL     OW36460   3.056   3.162   6.482 -0.6029  0.5539 -0.1847
 8334SOL    HW136461   2.965   3.161   6.450 -0.1318 -0.1852 -1.5096
 8334SOL    HW236462   3.038   3.202   6.566 -1.1675  0.3573 -0.2100
 8335SOL     OW36463   3.256   0.362   6.037 -0.2828 -0.0900  0.2624
 8335SOL    HW136464   3.348   0.388   6.044 -0.6398  1.7912 -2.0553
 8335SOL    HW236465   3.264   0.269   6.056  0.5972  0.2696  1.6616
 8336SOL     OW36466   0.352   1.454   7.614  0.6406  0.1170 -0.1301
 8336SOL    HW136467   0.384   1.508   7.542  2.4383  0.1197  0.6463
 8336SOL    HW236468   0.360   1.505   7.695 -1.1015 -1.3420  0.9766
 8337SOL     OW36469   2.923   4.210   2.529  0.3773 -0.2151 -0.0633
 8337SOL    HW136470   2.959   4.209   2.617 -0.3039 -3.2504  0.1550
 8337SOL    HW236471   2.910   4.305   2.518  1.4325 -0.1785 -1.0357
 8338SOL     OW36472   0.151   0.440   7.829 -0.3392  0.0599  0.0102
 8338SOL    HW136473   0.093   0.447   7.753 -0.0804  2.1110  0.0140
 8338SOL    HW236474   0.092   0.485   7.889 -0.2845 -1.0629  0.9096
 8339SOL     OW36475   1.551   1.234   5.057  0.1958  0.0256 -0.1679
 8339SOL    HW136476   1.504   1.308   5.095  2.8257  1.5033  0.2258
 8339SOL    HW236477   1.618   1.204   5.117 -1.2061 -1.4072  0.6610
 8340SOL     OW36478   4.226   3.333   5.548 -0.1561  0.1485 -0.0758
 8340SOL    HW136479   4.232   3.401   5.615  0.4266 -1.2980  1.3418
 8340SOL    HW236480   4.235   3.381   5.466  1.8021 -0.1909 -0.0456
 8341SOL     OW36481   4.587   0.499   6.481 -0.7698  0.1150  0.3545
 8341SOL    HW136482   4.568   0.567   6.417  0.6947  2.1740  2.1012
 8341SOL    HW236483   4.676   0.527   6.503 -0.8217  0.8323 -0.3631
 8342SOL     OW36484   4.420   2.694   6.229 -0.5248 -0.1280 -0.0859
 8342SOL    HW136485   4.503   2.741   6.238 -2.6179  3.5573 -0.2560
 8342SOL    HW236486   4.399   2.701   6.136 -2.0285 -3.0706  0.0230
 8343SOL     OW36487   3.775   2.852   8.525 -0.2010  0.5278 -0.7331
 8343SOL    HW136488   3.803   2.920   8.464  1.0617 -0.1524 -0.9052
 8343SOL    HW236489   3.857   2.805   8.539 -1.1665  0.2926  4.1639
 8344SOL     OW36490   3.900   4.579   3.360  0.1246 -0.4286  0.1396
 8344SOL    HW136491   3.944   4.494   3.363  0.8747 -0.0216  0.5196
 8344SOL    HW236492   3.892   4.580   3.265 -1.6573 -1.9668  0.2700
 8345SOL     OW36493   3.582   2.993  11.065  0.2409 -0.4070  0.0573
 8345SOL    HW136494   3.490   3.001  11.090  0.9105  0.8695  2.0653
 8345SOL    HW236495   3.577   2.987  10.969 -2.1793  1.1463  0.0813
 8346SOL     OW36496   4.609   4.580   6.433 -0.9334 -0.6375 -0.1498
 8346SOL    HW136497   4.605   4.618   6.520  0.5198 -2.0124  0.5075
 8346SOL    HW236498   4.539   4.632   6.394  2.0520  3.0452 -0.5500
 8347SOL     OW36499   1.303   0.892  17.256 -0.1361 -0.1283  0.0535
 8347SOL    HW136500   1.314   0.844  17.174 -0.1981  1.8945 -1.1238
 8347SOL    HW236501   1.393   0.906  17.284  0.1639 -1.6356 -0.1459
 8348SOL     OW36502   0.226   2.019   9.261  0.5318 -0.3999 -0.0430
 8348SOL    HW136503   0.280   2.094   9.286 -1.3771  0.7447  0.6625
 8348SOL    HW236504   0.238   1.969   9.341  2.2227 -1.3594 -0.8888
 8349SOL     OW36505   1.971   1.950   7.801  0.3621  0.2044  0.0880
 8349SOL    HW136506   1.948   2.040   7.776 -1.3048  0.1515  1.3768
 8349SOL    HW236507   1.921   1.939   7.882  2.0741 -4.1387  0.5403
 8350SOL     OW36508   3.357   3.869   5.074  0.5707 -0.5825 -0.1451
 8350SOL    HW136509   3.326   3.823   4.996 -1.1334 -1.8594  1.3297
 8350SOL    HW236510   3.365   3.801   5.140  0.4175  0.1090  0.5858
 8351SOL     OW36511   4.433   0.521   4.648 -0.3769 -0.8296  0.1569
 8351SOL    HW136512   4.484   0.453   4.604  0.0144  0.2280 -1.0128
 8351SOL    HW236513   4.372   0.548   4.580  1.0008  1.1260 -0.2840
 8352SOL     OW36514   2.377   2.591  13.363  0.1526 -0.1723  0.0052
 8352SOL    HW136515   2.341   2.680  13.361  2.2335  0.6107 -2.2747
 8352SOL    HW236516   2.469   2.617  13.367  0.2382 -0.3507 -0.9179
 8353SOL     OW36517   3.469   4.359  13.622  0.3477 -0.0458  0.5775
 8353SOL    HW136518   3.380   4.373  13.655  0.5252  1.4278  0.4364
 8353SOL    HW236519   3.479   4.274  13.665  0.4193 -0.0343  0.5827
 8354SOL     OW36520   0.770   2.044   9.269 -0.0893 -0.2394 -0.0431
 8354SOL    HW136521   0.837   2.110   9.251  1.1305 -1.9933 -1.9190
 8354SOL    HW236522   0.695   2.103   9.282 -0.0310 -0.2023  0.1169
 8355SOL     OW36523   3.457   1.669   6.863  0.3546 -0.0092 -0.5349
 8355SOL    HW136524   3.547   1.639   6.857  0.7181  0.7333  1.4248
 8355SOL    HW236525   3.465   1.762   6.885 -0.6471 -0.0423  0.0045
 8356SOL     OW36526   0.411   1.417   8.612 -0.7216 -0.5213  0.4005
 8356SOL    HW136527   0.438   1.337   8.567  3.7578  2.0551 -1.5081
 8356SOL    HW236528   0.317   1.413   8.593 -0.2828 -0.7427 -1.7450
 8357SOL     OW36529   4.326   4.015   1.449 -0.6043  0.5069  0.0656
 8357SOL    HW136530   4.291   3.927   1.434 -1.5751  0.7637  0.7383
 8357SOL    HW236531   4.388   4.022   1.377  0.2395  3.2604  1.0585
 8358SOL     OW36532   3.137   3.093   5.605 -0.0215  0.2255  0.1070
 8358SOL    HW136533   3.122   3.135   5.690  1.3639  0.4499  0.2432
 8358SOL    HW236534   3.213   3.038   5.622 -0.1773 -0.2424 -0.7037
 8359SOL     OW36535   2.504   3.540   5.744  0.7232 -0.3846 -0.1162
 8359SOL    HW136536   2.443   3.534   5.818 -0.1474  1.2954 -0.6845
 8359SOL    HW236537   2.541   3.453   5.753  0.4310 -0.4808  0.1544
 8360SOL     OW36538   0.705   4.536  15.636 -0.4154 -0.1065  0.2886
 8360SOL    HW136539   0.700   4.546  15.731  4.4736  0.0388  0.5081
 8360SOL    HW236540   0.634   4.473  15.625  0.5116 -0.4929 -3.3624
 8361SOL     OW36541   1.070   1.319  13.480 -0.3180 -0.1427 -0.1131
 8361SOL    HW136542   1.068   1.280  13.393  0.4733  1.2949 -0.7866
 8361SOL    HW236543   1.156   1.295  13.516 -0.0392 -0.0698 -0.7228
 8362SOL     OW36544   2.430   0.510  12.155 -0.0292  0.3940  0.3780
 8362SOL    HW136545   2.478   0.591  12.172  0.2546 -0.1150  1.9689
 8362SOL    HW236546   2.355   0.544  12.106  0.9317  0.1301 -1.2624
 8363SOL     OW36547   2.436   2.608  10.242  0.6333  0.2286 -0.2057
 8363SOL    HW136548   2.370   2.631  10.308  1.0616  1.9736 -0.3684
 8363SOL    HW236549   2.511   2.663  10.262 -0.5628  2.2770 -1.3243
 8364SOL     OW36550   1.719   3.380  16.047  0.3228 -0.5086  0.0136
 8364SOL    HW136551   1.655   3.313  16.072 -0.8982  2.0864  3.9972
 8364SOL    HW236552   1.781   3.327  15.998  1.0575 -0.3045  0.7157
 8365SOL     OW36553   0.676   1.000   6.097 -0.0465  0.1320  0.5682
 8365SOL    HW136554   0.724   1.080   6.076 -1.2269  0.8617  0.6389
 8365SOL    HW236555   0.591   1.013   6.055  0.4313  0.3971 -0.3136
 8366SOL     OW36556   1.955   0.663   7.982 -0.1730 -0.7228 -0.4044
 8366SOL    HW136557   1.893   0.594   8.006  1.6221 -2.3049 -0.3294
 8366SOL    HW236558   1.961   0.653   7.887 -2.7089  0.6180 -0.7138
 8367SOL     OW36559   2.681   3.552   8.287 -0.1773 -0.0977 -0.3566
 8367SOL    HW136560   2.762   3.599   8.304  0.1818 -0.8998  0.1367
 8367SOL    HW236561   2.643   3.590   8.208 -0.4917  2.9426  1.2712
 8368SOL     OW36562   1.634   4.163   1.154 -0.0596  0.0052  0.0971
 8368SOL    HW136563   1.673   4.250   1.159  0.1359  0.0219 -1.6881
 8368SOL    HW236564   1.572   4.180   1.083  1.0998  1.2416 -0.6167
 8369SOL     OW36565   0.998   2.309   0.611 -0.3288  0.5123  0.0347
 8369SOL    HW136566   0.992   2.273   0.699  3.4940  0.2130  0.1777
 8369SOL    HW236567   0.952   2.242   0.562  0.1595  1.1038 -1.2358
 8370SOL     OW36568   1.569   2.600   5.996 -0.0991 -0.5530  0.4062
 8370SOL    HW136569   1.474   2.607   5.988 -0.0777  0.8687  1.3085
 8370SOL    HW236570   1.572   2.595   6.091  0.1964  2.4929  0.5778
 8371SOL     OW36571   4.720   2.349   9.026  0.1742  0.7527 -0.6193
 8371SOL    HW136572   0.044   2.323   8.945 -1.5521  0.0516 -1.3400
 8371SOL    HW236573   4.688   2.264   9.058 -0.8397  0.9021 -1.2384
 8372SOL     OW36574   1.860   4.485   5.789 -0.3608  0.0447 -0.3017
 8372SOL    HW136575   1.893   4.424   5.855  0.1386 -2.1977 -2.5635
 8372SOL    HW236576   1.937   4.491   5.732  0.1457  1.9150  0.5843
 8373SOL     OW36577   4.410   4.553  14.516 -0.4914 -0.5057 -0.3117
 8373SOL    HW136578   4.497   4.534  14.550 -1.3029 -0.6326  1.6808
 8373SOL    HW236579   4.365   4.469  14.514 -0.1125 -0.6604 -3.3479
 8374SOL     OW36580   4.440   1.721  17.024  0.6453  0.4790  0.4093
 8374SOL    HW136581   4.520   1.715  17.076  1.1552  0.2142 -0.4033
 8374SOL    HW236582   4.371   1.701  17.087 -0.2850 -1.1255 -1.1042
 8375SOL     OW36583   4.649   0.792   1.597  0.0044 -0.1841  0.1912
 8375SOL    HW136584   4.568   0.764   1.556  0.5334 -3.0706  1.1539
 8375SOL    HW236585   4.679   0.710   1.636 -0.6540 -0.5772 -0.1396
 8376SOL     OW36586   2.999   2.099   7.343  0.0922 -0.2182  0.5402
 8376SOL    HW136587   3.056   2.083   7.419  0.2172  0.5562  0.6037
 8376SOL    HW236588   3.002   2.193   7.326  2.5409 -0.5063 -0.6510
 8377SOL     OW36589   2.918   0.475  10.478 -0.5040 -0.0211  0.3448
 8377SOL    HW136590   2.943   0.551  10.531  0.2884 -0.8740  1.1869
 8377SOL    HW236591   2.866   0.515  10.408  2.0557  1.8385 -0.4633
 8378SOL     OW36592   1.209   4.716   5.731 -0.0463 -0.2981  0.3888
 8378SOL    HW136593   1.303   0.014   5.733  0.3122 -1.8677 -1.9781
 8378SOL    HW236594   1.202   4.702   5.636 -3.0846 -0.2401  0.6281
 8379SOL     OW36595   0.154   2.669   3.162 -0.4593  0.1078 -0.3573
 8379SOL    HW136596   0.223   2.621   3.116  0.9097  1.7908 -0.0351
 8379SOL    HW236597   0.078   2.642   3.111 -0.4652 -0.0781 -0.2531
 8380SOL     OW36598   4.713   1.914   2.171 -0.0031 -0.2973 -0.2273
 8380SOL    HW136599   4.683   1.988   2.118  2.5645  0.9957  0.1322
 8380SOL    HW236600   0.039   1.859   2.108  0.2185 -1.1535  0.6820
 8381SOL     OW36601   2.727   2.714   4.440  0.3279 -0.0173 -0.4261
 8381SOL    HW136602   2.677   2.642   4.402 -0.1582  0.4913 -0.7499
 8381SOL    HW236603   2.813   2.690   4.406  0.2882 -3.2727  1.7229
 8382SOL     OW36604   3.603   2.522   5.471  0.0026 -0.3142 -0.0901
 8382SOL    HW136605   3.602   2.427   5.483 -1.5752 -0.1120  1.3345
 8382SOL    HW236606   3.530   2.551   5.526  1.3750  0.0350  1.5316
 8383SOL     OW36607   3.474   4.252   5.072  0.2281  0.4607 -0.1536
 8383SOL    HW136608   3.411   4.291   5.012  1.7705  2.0040 -0.7458
 8383SOL    HW236609   3.441   4.275   5.159  1.1596 -1.7650  0.7902
 8384SOL     OW36610   3.240   0.669   7.824  0.2648 -0.5328 -0.0703
 8384SOL    HW136611   3.149   0.692   7.841 -0.3025 -2.4908 -0.4159
 8384SOL    HW236612   3.247   0.708   7.737 -0.4403 -1.4987 -0.5515
 8385SOL     OW36613   0.005   1.810  11.931 -0.2088 -0.1321 -0.0846
 8385SOL    HW136614   4.695   1.895  11.963  0.5895  0.1420 -0.0549
 8385SOL    HW236615   0.096   1.813  11.961  0.0081  0.2769 -0.7699
 8386SOL     OW36616   4.490   4.671   2.409 -0.7775  0.3000  0.2116
 8386SOL    HW136617   4.569   4.617   2.412  0.4484  1.9953 -1.6602
 8386SOL    HW236618   4.448   4.653   2.325 -1.6138  0.4820  0.5910
 8387SOL     OW36619   2.985   1.774   2.973 -0.2167 -0.2383 -0.2174
 8387SOL    HW136620   2.906   1.729   2.943  0.3577 -1.3027 -0.1273
 8387SOL    HW236621   2.985   1.855   2.922  0.1364  0.4207  0.8316
 8388SOL     OW36622   1.986   2.566   7.443 -0.1201  0.0166 -0.3607
 8388SOL    HW136623   2.023   2.561   7.355 -0.6220  2.5828 -0.7125
 8388SOL    HW236624   2.053   2.518   7.491  0.8120  1.3564 -0.3265
 8389SOL     OW36625   2.063   3.899  14.515  0.6757 -0.1537  0.1335
 8389SOL    HW136626   2.068   3.912  14.420  1.3566  0.8622  0.3111
 8389SOL    HW236627   1.971   3.879  14.528  0.2228  0.7616 -1.6345
 8390SOL     OW36628   1.736   1.093  15.574 -0.3693 -0.1776 -0.1110
 8390SOL    HW136629   1.760   1.079  15.666  0.5583  1.3050 -0.1369
 8390SOL    HW236630   1.760   1.010  15.533  3.5083  1.9065 -1.9872
 8391SOL     OW36631   2.336   4.506   3.922 -0.0379  0.1878 -0.4151
 8391SOL    HW136632   2.429   4.513   3.940 -0.3923 -0.1438  1.5205
 8391SOL    HW236633   2.336   4.430   3.864  1.4078 -0.3137  0.2438
 8392SOL     OW36634   2.828   0.344   5.276  0.2275  0.1458  0.4116
 8392SOL    HW136635   2.872   0.301   5.203  1.3787 -2.2661  2.5378
 8392SOL    HW236636   2.818   0.427   5.230 -0.7281 -0.1546  0.0750
 8393SOL     OW36637   2.087   4.052  11.025 -0.2002  0.7409 -0.2420
 8393SOL    HW136638   2.111   4.096  11.107  0.2496  2.2592 -1.2050
 8393SOL    HW236639   2.141   3.974  11.044  1.7148  1.4432 -2.9196
 8394SOL     OW36640   0.430   0.507  14.323  0.5078  0.2775  0.7871
 8394SOL    HW136641   0.520   0.527  14.299  0.6617 -0.4207  0.7749
 8394SOL    HW236642   0.391   0.506  14.236 -0.7346 -1.7428  1.3567
 8395SOL     OW36643   2.660   0.332   3.006  0.6554  0.4109 -0.3740
 8395SOL    HW136644   2.730   0.354   2.945  0.8969 -1.6202 -0.8521
 8395SOL    HW236645   2.641   0.418   3.042  1.0094  0.6885 -0.8377
 8396SOL     OW36646   3.262   2.231   3.119  0.4818  0.4328 -0.0580
 8396SOL    HW136647   3.186   2.267   3.074  1.4811  0.9740 -1.3185
 8396SOL    HW236648   3.297   2.315   3.148 -1.1022  0.5432  1.5500
 8397SOL     OW36649   4.564   2.110  11.919  0.4983  0.2020  0.1427
 8397SOL    HW136650   4.584   2.071  12.004  0.0660 -0.4702 -0.0579
 8397SOL    HW236651   4.651   2.107  11.881  1.3665  0.2145  2.1275
 8398SOL     OW36652   0.069   2.756  12.449  0.4194 -0.2271  0.2901
 8398SOL    HW136653   0.153   2.711  12.458  0.7631  0.2413 -0.6625
 8398SOL    HW236654   0.020   2.718  12.523  0.2321 -1.8324 -0.6628
 8399SOL     OW36655   3.497   1.376   3.097 -0.2791  0.1052  0.3452
 8399SOL    HW136656   3.542   1.382   3.013  1.0688 -2.5937  0.8768
 8399SOL    HW236657   3.477   1.470   3.101 -2.5100 -0.3999  0.8273
 8400SOL     OW36658   0.164   1.352   4.722  0.0604  0.6422  0.0851
 8400SOL    HW136659   0.085   1.299   4.715  0.4069  0.2525 -0.8348
 8400SOL    HW236660   0.226   1.282   4.744 -0.6971 -0.2747 -0.7336
 8401SOL     OW36661   1.640   4.682  17.394 -0.3040  0.3578  0.6526
 8401SOL    HW136662   1.672   0.038  17.441  2.9369  0.5318 -1.8269
 8401SOL    HW236663   1.588   0.014  17.334 -1.1531 -0.8821  0.2857
 8402SOL     OW36664   3.553   0.005  16.516  0.5746 -0.3494 -0.0310
 8402SOL    HW136665   3.467   0.043  16.532  0.1176 -0.3362 -2.6421
 8402SOL    HW236666   3.583   0.043  16.434 -2.0199 -0.6970 -1.1337
 8403SOL     OW36667   4.659   4.101   2.575  0.2739  0.7108 -0.0310
 8403SOL    HW136668   4.593   4.170   2.580  0.9978  1.2642  1.8528
 8403SOL    HW236669   4.612   4.020   2.555  2.1373 -0.8161  1.7673
 8404SOL     OW36670   3.166   2.536  17.405 -0.3248  0.3504 -0.3792
 8404SOL    HW136671   3.236   2.601  17.415  0.9613 -0.9198 -1.1353
 8404SOL    HW236672   3.189   2.489  17.486  3.0194 -1.0328 -2.1171
 8405SOL     OW36673   2.423   1.791   6.448 -0.0132 -0.3179 -0.1204
 8405SOL    HW136674   2.443   1.751   6.533  1.2732  1.1927  0.2765
 8405SOL    HW236675   2.372   1.870   6.470  0.9368 -0.1883  1.6051
 8406SOL     OW36676   3.136   2.453  14.130  0.0720 -0.5345 -0.2205
 8406SOL    HW136677   3.199   2.466  14.201 -0.1140  1.2107 -0.3549
 8406SOL    HW236678   3.076   2.526  14.147  1.8016  1.0543 -0.8843
 8407SOL     OW36679   3.046   4.222  16.808  0.4044  0.1483  0.2176
 8407SOL    HW136680   3.124   4.183  16.847  0.8403  1.2523  0.4625
 8407SOL    HW236681   3.060   4.316  16.824 -1.0105  0.1897  1.2331
 8408SOL     OW36682   3.106   2.806   7.607  0.3636 -0.6624 -0.5275
 8408SOL    HW136683   3.057   2.808   7.690  3.7077 -0.9479  1.4287
 8408SOL    HW236684   3.046   2.855   7.551  0.6240  1.1436  0.7879
 8409SOL     OW36685   0.497   3.885   1.671  0.7460  0.3617 -0.2839
 8409SOL    HW136686   0.418   3.919   1.713  2.5259  3.2907  0.7153
 8409SOL    HW236687   0.558   3.912   1.739  2.4576 -1.6263 -1.0177
 8410SOL     OW36688   1.084   3.261   5.338  0.2001  0.0524 -0.0130
 8410SOL    HW136689   1.021   3.323   5.375 -0.4109 -0.3445 -0.3885
 8410SOL    HW236690   1.116   3.204   5.408 -0.3040  1.0803  1.0737
 8411SOL     OW36691   1.031   0.353   2.898 -0.3908 -0.4216  0.8206
 8411SOL    HW136692   0.957   0.327   2.843 -0.4698 -0.8710  1.1400
 8411SOL    HW236693   1.036   0.446   2.876  1.4115 -0.4809  0.9562
 8412SOL     OW36694   3.619   1.595  13.627 -0.0154  0.2934 -0.7613
 8412SOL    HW136695   3.591   1.516  13.582 -0.3469 -0.7249  1.2520
 8412SOL    HW236696   3.553   1.607  13.695 -0.4285 -1.3818 -0.8754
 8413SOL     OW36697   1.971   2.271   5.859  0.3746  0.2076 -0.0944
 8413SOL    HW136698   1.886   2.228   5.870  1.3386 -1.3786  1.1858
 8413SOL    HW236699   1.938   2.339   5.800 -0.7332  0.8380  1.2430
 8414SOL     OW36700   4.064   0.717   3.239  0.0446  0.0612  0.5652
 8414SOL    HW136701   4.143   0.769   3.257 -0.4016  0.4304  1.4451
 8414SOL    HW236702   3.994   0.762   3.287 -0.1808  0.4326 -0.1229
 8415SOL     OW36703   0.726   4.621  11.531  0.2383  0.3639  0.3222
 8415SOL    HW136704   0.678   4.689  11.579 -0.7442  0.8102 -1.2838
 8415SOL    HW236705   0.718   4.558  11.603 -1.4159 -0.0008 -0.1877
 8416SOL     OW36706   1.732   1.426   0.070  0.1718 -0.1334 -0.2996
 8416SOL    HW136707   1.792   1.470   0.010 -0.8884  1.2618 -0.3549
 8416SOL    HW236708   1.793   1.394   0.137  1.2282 -1.1939 -1.7907
 8417SOL     OW36709   0.551   0.489  13.544  0.5810 -0.3901 -0.0496
 8417SOL    HW136710   0.564   0.569  13.595  0.1762 -0.9473  0.9332
 8417SOL    HW236711   0.484   0.504  13.478 -0.8613 -1.1922  1.2481
 8418SOL     OW36712   3.577   3.314   6.488  0.4644 -0.5176  0.1817
 8418SOL    HW136713   3.645   3.273   6.541  0.3851  0.7301  1.2422
 8418SOL    HW236714   3.599   3.273   6.404  0.6128  0.4203 -0.2336
 8419SOL     OW36715   3.686   2.233   3.318  0.0892 -0.3653  0.5797
 8419SOL    HW136716   3.634   2.309   3.291 -0.3636 -1.3838 -1.3847
 8419SOL    HW236717   3.720   2.255   3.405  0.1884  0.3417  0.3592
 8420SOL     OW36718   1.321   2.026   8.017  0.1656  0.0876  0.6137
 8420SOL    HW136719   1.265   1.970   7.963 -0.1258 -0.8955  1.9440
 8420SOL    HW236720   1.352   2.087   7.950 -2.2325  1.1378  0.4615
 8421SOL     OW36721   2.483   1.163   1.369  0.1412 -0.0715 -0.5157
 8421SOL    HW136722   2.571   1.160   1.406 -0.0382  0.2501 -0.0646
 8421SOL    HW236723   2.447   1.080   1.398  1.5024 -1.2696 -2.2013
 8422SOL     OW36724   2.540   2.689   2.955 -0.6208  0.5213  0.4065
 8422SOL    HW136725   2.612   2.640   2.916 -0.3192 -0.4952  2.2669
 8422SOL    HW236726   2.579   2.723   3.035 -1.5598  2.7571 -0.0947
 8423SOL     OW36727   1.453   0.872   9.246 -0.1809  0.3110 -0.0941
 8423SOL    HW136728   1.526   0.934   9.243  0.7089 -0.7931 -1.7707
 8423SOL    HW236729   1.407   0.913   9.319 -2.3614 -2.2077 -0.0891
 8424SOL     OW36730   2.771   2.244  13.098 -0.1517  0.2508 -0.5880
 8424SOL    HW136731   2.724   2.306  13.153  0.7021  0.1754  0.2405
 8424SOL    HW236732   2.706   2.198  13.046  0.0526  0.2920 -0.8820
 8425SOL     OW36733   0.761   3.498   4.574 -0.0070  0.0150 -0.8475
 8425SOL    HW136734   0.694   3.430   4.581 -0.6847  0.8258  0.5221
 8425SOL    HW236735   0.722   3.560   4.635  3.4367  0.5438  0.8194
 8426SOL     OW36736   4.618   4.636   4.930  0.3597  0.2048 -0.1051
 8426SOL    HW136737   4.636   0.010   4.921 -0.3494  0.3112 -0.3627
 8426SOL    HW236738   4.573   4.634   5.014 -0.2978 -0.5715 -0.4751
 8427SOL     OW36739   1.862   1.065   5.072  0.0379 -0.1559  0.1419
 8427SOL    HW136740   1.801   1.004   5.113 -2.9132  0.5929 -3.0461
 8427SOL    HW236741   1.896   1.103   5.152 -1.2191 -0.1695  0.6828
 8428SOL     OW36742   0.263   3.063   5.647 -0.4641  0.3299  0.6726
 8428SOL    HW136743   0.177   3.063   5.687 -1.6692 -0.9683 -1.9278
 8428SOL    HW236744   0.257   3.145   5.597 -1.1226 -0.8604 -1.1946
 8429SOL     OW36745   2.806   3.081   7.668  0.5161 -0.3754 -0.3428
 8429SOL    HW136746   2.830   3.140   7.740 -0.0591 -0.1981 -0.2954
 8429SOL    HW236747   2.890   3.051   7.635  0.8049 -0.7194  0.6885
 8430SOL     OW36748   0.544   4.593   8.596 -0.2302  0.4981  0.2813
 8430SOL    HW136749   0.607   4.649   8.641 -0.9173  1.4248  0.1110
 8430SOL    HW236750   0.459   4.614   8.635 -0.0632  3.1901 -0.7601
 8431SOL     OW36751   1.553   1.993  11.434  0.6478 -0.0555  0.3705
 8431SOL    HW136752   1.602   2.071  11.407  1.7715 -1.8631 -2.8026
 8431SOL    HW236753   1.622   1.932  11.461  1.4002  0.3565 -0.6129
 8432SOL     OW36754   1.580   4.079   3.370 -0.1336  0.7728 -0.4299
 8432SOL    HW136755   1.657   4.044   3.413 -1.0992 -0.2541  0.4704
 8432SOL    HW236756   1.544   3.997   3.336  0.5904 -0.5955  2.1150
 8433SOL     OW36757   0.162   2.272   4.180  0.6478 -0.3070  0.4294
 8433SOL    HW136758   0.244   2.224   4.172  0.2458 -0.9362  0.0936
 8433SOL    HW236759   0.092   2.209   4.161 -0.2351  0.6976  0.3442
 8434SOL     OW36760   2.015   1.703   7.738  0.0298 -0.4584  0.2691
 8434SOL    HW136761   2.024   1.794   7.768  0.1039  0.3047 -2.0833
 8434SOL    HW236762   2.089   1.652   7.769  0.9869  0.6920 -0.1033
 8435SOL     OW36763   1.847   3.446   8.029  0.2064 -0.0002  0.4481
 8435SOL    HW136764   1.843   3.539   8.054 -0.4739  0.2554 -0.6177
 8435SOL    HW236765   1.812   3.457   7.940  1.0639  4.6184  0.6506
 8436SOL     OW36766   2.475   0.774   4.463  0.5393  0.1353  0.4347
 8436SOL    HW136767   2.408   0.730   4.515  1.6357 -0.1254  1.6229
 8436SOL    HW236768   2.528   0.704   4.425  0.7639 -0.1841  1.3376
 8437SOL     OW36769   3.490   3.622   0.797  0.0060  0.1367  0.2861
 8437SOL    HW136770   3.572   3.630   0.749  0.3953  0.3824  0.9887
 8437SOL    HW236771   3.450   3.544   0.758 -0.1210  1.2016 -1.7223
 8438SOL     OW36772   3.321   2.985  11.119 -0.0647 -0.1976  0.0597
 8438SOL    HW136773   3.266   2.910  11.142  0.6284 -1.0462 -1.0323
 8438SOL    HW236774   3.274   3.017  11.043  0.5839  3.6305  1.2530
 8439SOL     OW36775   4.454   2.244   5.915 -0.2207  0.3845  0.1664
 8439SOL    HW136776   4.538   2.275   5.880  0.0120  0.4014  0.7333
 8439SOL    HW236777   4.470   2.158   5.953 -0.5901 -0.5313 -1.7218
 8440SOL     OW36778   3.807   0.522   8.394 -0.4614 -0.1027 -0.6537
 8440SOL    HW136779   3.714   0.514   8.413 -0.5675  0.2866 -1.0349
 8440SOL    HW236780   3.848   0.502   8.479 -0.9614 -0.8012 -0.5794
 8441SOL     OW36781   0.528   4.019   6.976 -0.0220  0.4783 -0.2028
 8441SOL    HW136782   0.563   3.945   7.025  0.4130  1.0654  0.3807
 8441SOL    HW236783   0.444   3.977   6.956 -0.1228  0.1100  0.9718
 8442SOL     OW36784   2.584   0.662  12.605  0.6726 -0.3661 -0.0497
 8442SOL    HW136785   2.536   0.651  12.686 -0.5133 -1.1752 -0.8745
 8442SOL    HW236786   2.667   0.705  12.628  0.0930 -0.2343  1.7522
 8443SOL     OW36787   3.154   1.994  15.552  0.1046 -0.0794  0.0573
 8443SOL    HW136788   3.112   2.036  15.477  1.4468  0.4888 -0.3869
 8443SOL    HW236789   3.235   2.044  15.544 -1.0013  1.6343 -0.2857
 8444SOL     OW36790   4.284   4.335  13.668 -0.7476  0.3424  1.1085
 8444SOL    HW136791   4.310   4.401  13.604 -0.9907 -0.4870  0.1503
 8444SOL    HW236792   4.279   4.388  13.747  1.1520 -0.0785  1.5258
 8445SOL     OW36793   0.978   1.730   5.284  0.2379  0.2884 -0.0756
 8445SOL    HW136794   0.937   1.700   5.203  0.0830  1.2821 -0.3649
 8445SOL    HW236795   0.900   1.750   5.336  0.2626 -2.3659  0.9903
 8446SOL     OW36796   0.890   1.007  13.205 -0.2715 -0.6372 -0.2069
 8446SOL    HW136797   0.841   0.988  13.286 -3.7124 -0.7677 -2.3083
 8446SOL    HW236798   0.819   1.015  13.141 -1.2815 -1.8669  0.7370
 8447SOL     OW36799   2.473   3.914  16.624 -0.0235  0.0890 -0.2578
 8447SOL    HW136800   2.460   3.993  16.677  0.2839  1.1828 -1.8072
 8447SOL    HW236801   2.393   3.927  16.574  0.4524 -2.3673 -1.6384
 8448SOL     OW36802   3.581   0.559  13.962  0.8164 -0.5021  0.5609
 8448SOL    HW136803   3.630   0.555  13.880 -0.5552 -0.3852 -0.2634
 8448SOL    HW236804   3.617   0.639  14.000  0.9987  1.5923 -3.9881
 8449SOL     OW36805   3.365   2.464   3.200 -0.1642  0.4961  0.5542
 8449SOL    HW136806   3.457   2.466   3.172 -0.7016  1.0000 -1.1746
 8449SOL    HW236807   3.354   2.553   3.233  0.5938  0.1819  1.6744
 8450SOL     OW36808   4.455   2.894   3.180  0.2961 -0.3875 -0.0976
 8450SOL    HW136809   4.512   2.835   3.132  0.0181 -0.3374 -0.4930
 8450SOL    HW236810   4.485   2.897   3.271 -2.3018 -0.4794  0.7562
 8451SOL     OW36811   0.760   0.125   7.022  0.9460  0.1083  0.0380
 8451SOL    HW136812   0.681   0.156   6.977 -0.2245  0.3506  2.2509
 8451SOL    HW236813   0.752   0.030   7.008  0.9549 -0.0587  1.1334
 8452SOL     OW36814   0.389   3.911   2.519 -0.5203  0.1081 -0.1166
 8452SOL    HW136815   0.419   3.889   2.431 -1.9944 -0.6421 -0.4389
 8452SOL    HW236816   0.400   3.834   2.575  1.0799  0.7028  0.3922
 8453SOL     OW36817   4.122   1.096  15.899  0.0680 -0.1694 -0.2266
 8453SOL    HW136818   4.102   1.010  15.861  0.1772 -0.2316 -0.1437
 8453SOL    HW236819   4.160   1.068  15.982  0.6830  0.8993 -0.1508
 8454SOL     OW36820   1.059   1.226  10.094  0.4233  0.2885 -0.4952
 8454SOL    HW136821   0.985   1.277  10.127 -0.3933 -0.5767 -0.9744
 8454SOL    HW236822   1.050   1.147  10.147 -1.0548  0.1078 -1.0032
 8455SOL     OW36823   0.402   1.599   9.242 -0.3490  0.1215 -0.0247
 8455SOL    HW136824   0.473   1.648   9.200  1.1729 -0.8121  1.4903
 8455SOL    HW236825   0.320   1.640   9.214  0.0095  1.7742  1.3345
 8456SOL     OW36826   3.698   0.335  11.165  0.2718  0.0621  0.0266
 8456SOL    HW136827   3.609   0.312  11.191 -0.4421  0.5441 -1.9994
 8456SOL    HW236828   3.749   0.346  11.245 -0.0796  0.6470  0.1721
 8457SOL     OW36829   4.326   1.867   5.562 -0.6763 -0.1694 -0.8326
 8457SOL    HW136830   4.322   1.914   5.479 -0.7857  0.8250 -0.2600
 8457SOL    HW236831   4.272   1.790   5.545  0.6677 -0.9093 -1.7241
 8458SOL     OW36832   1.048   0.954  10.201  0.1220  0.1481  0.1870
 8458SOL    HW136833   1.082   0.872  10.237 -0.7162 -0.6488 -0.8438
 8458SOL    HW236834   1.042   0.999  10.285  0.9953 -1.2865  1.0382
 8459SOL     OW36835   2.218   0.938   8.980  0.2930  0.1348  0.0691
 8459SOL    HW136836   2.221   1.022   8.933  3.2913 -0.9328 -1.6190
 8459SOL    HW236837   2.246   0.966   9.068 -0.5632 -3.3159  1.4400
 8460SOL     OW36838   3.758   2.639  13.536 -0.2698 -0.4386 -0.2323
 8460SOL    HW136839   3.808   2.716  13.563 -0.1227  0.2565 -2.5062
 8460SOL    HW236840   3.790   2.570  13.593 -1.1712 -0.4826  0.2162
 8461SOL     OW36841   4.650   2.854   3.561  0.1307  0.5599  0.1279
 8461SOL    HW136842   4.715   2.861   3.491  0.2708  0.1621  0.2209
 8461SOL    HW236843   4.601   2.930   3.528  0.2405  0.2118 -0.8237
 8462SOL     OW36844   2.876   4.212   8.044  0.6072 -0.2578 -0.6593
 8462SOL    HW136845   2.841   4.157   8.113 -0.5493  1.6784  0.2875
 8462SOL    HW236846   2.860   4.154   7.970 -0.0909  1.1700 -1.6385
 8463SOL     OW36847   0.167   0.087  15.579 -0.5433 -0.6367  0.1092
 8463SOL    HW136848   0.196   0.178  15.583 -2.1028 -0.0961 -1.0505
 8463SOL    HW236849   0.157   0.071  15.673  0.5598 -0.6019  0.2388
 8464SOL     OW36850   3.005   1.365  15.648 -0.1401  0.3560  0.1555
 8464SOL    HW136851   3.024   1.303  15.718 -0.8018  1.0390  0.9445
 8464SOL    HW236852   2.911   1.373  15.667 -1.0619 -0.1050 -4.1678
 8465SOL     OW36853   3.822   2.343   4.092 -0.5711  0.2215  0.0277
 8465SOL    HW136854   3.794   2.418   4.040  0.7515  1.0623  0.5295
 8465SOL    HW236855   3.879   2.303   4.026 -1.3380 -1.6373  0.4756
 8466SOL     OW36856   4.111   1.982   8.220  0.8371 -0.1479 -0.2501
 8466SOL    HW136857   4.185   1.935   8.258  0.3236  0.3453  1.4013
 8466SOL    HW236858   4.156   2.058   8.183  1.2933  1.4296  3.4697
 8467SOL     OW36859   0.009   3.243  16.723  1.0441 -0.0760 -0.0467
 8467SOL    HW136860   4.708   3.306  16.654 -1.1906 -2.3172 -1.4080
 8467SOL    HW236861   0.090   3.283  16.756  0.2059  0.3220  1.4998
 8468SOL     OW36862   0.616   2.495   2.376 -0.0195 -0.2001  0.1757
 8468SOL    HW136863   0.664   2.484   2.458 -0.1732 -0.8116  0.1882
 8468SOL    HW236864   0.597   2.588   2.388  0.7358  0.2386 -2.0496
 8469SOL     OW36865   2.610   1.702   8.540 -0.5786 -0.1563  0.6233
 8469SOL    HW136866   2.668   1.662   8.475  0.2497  1.5312  0.3319
 8469SOL    HW236867   2.540   1.735   8.484  0.3994  0.4573 -0.2361
 8470SOL     OW36868   3.917   3.922   6.408  0.3070  0.4650  0.5990
 8470SOL    HW136869   3.959   3.985   6.467  1.5338 -0.2873  0.5317
 8470SOL    HW236870   3.988   3.907   6.347  1.0938 -0.1503  1.6576
 8471SOL     OW36871   2.289   2.245   5.512 -0.5304 -0.0875 -0.7762
 8471SOL    HW136872   2.362   2.186   5.531 -0.4886  0.7757  1.8379
 8471SOL    HW236873   2.327   2.319   5.558 -2.0065 -1.9788  3.5408
 8472SOL     OW36874   3.272   3.012   2.185 -0.2191  0.3135  0.2463
 8472SOL    HW136875   3.279   2.967   2.101  1.3072  0.2416  0.4110
 8472SOL    HW236876   3.209   2.956   2.231 -0.0035  0.7794  1.0959
 8473SOL     OW36877   0.137   2.341   1.026  0.0318  0.1322  0.1131
 8473SOL    HW136878   0.167   2.417   1.077  0.2882 -0.8746  1.4505
 8473SOL    HW236879   0.116   2.280   1.097  0.2498 -1.0393 -0.8480
 8474SOL     OW36880   2.172   3.197   0.741 -0.1885  0.2777 -0.4146
 8474SOL    HW136881   2.132   3.256   0.805 -0.0857  1.7365 -1.6989
 8474SOL    HW236882   2.118   3.202   0.663  0.6579  0.3985 -0.9905
 8475SOL     OW36883   0.498   1.881   2.451  0.3219  0.0072  0.2879
 8475SOL    HW136884   0.436   1.885   2.378  0.8925 -3.8436 -0.4148
 8475SOL    HW236885   0.477   1.945   2.519 -0.7705  1.0631 -1.0456
 8476SOL     OW36886   3.834   3.885   5.035  0.1221  0.2732  0.6138
 8476SOL    HW136887   3.745   3.916   5.020  0.3609  1.3096  1.3502
 8476SOL    HW236888   3.833   3.811   4.974  1.0716 -0.2044  1.1772
 8477SOL     OW36889   0.258   4.366   0.472  0.4006 -0.4668  0.6180
 8477SOL    HW136890   0.228   4.427   0.405 -1.5169  0.4658  2.3255
 8477SOL    HW236891   0.190   4.376   0.539  0.2113  1.0384  0.1870
 8478SOL     OW36892   3.540   1.781   4.861 -0.5189  0.3236 -0.7611
 8478SOL    HW136893   3.617   1.834   4.885 -1.8713  1.6666  0.6210
 8478SOL    HW236894   3.547   1.707   4.921 -1.4877  1.5275  0.8167
 8479SOL     OW36895   4.556   1.660   8.593 -0.0089 -0.9001 -0.0909
 8479SOL    HW136896   4.642   1.694   8.565 -0.0696 -1.0804 -0.4928
 8479SOL    HW236897   4.563   1.707   8.676  0.0681 -0.4053 -0.3755
 8480SOL     OW36898   3.314   3.617  11.005 -0.0198 -0.3933 -0.5220
 8480SOL    HW136899   3.265   3.687  10.962 -2.4225 -0.1680  2.6571
 8480SOL    HW236900   3.381   3.670  11.048 -0.1424 -0.9986  0.4165
 8481SOL     OW36901   4.685   3.680   7.349 -0.0432  0.5873  0.1424
 8481SOL    HW136902   4.653   3.691   7.439  1.7382 -1.2226  0.9979
 8481SOL    HW236903   0.045   3.733   7.346  1.1413 -1.2720 -1.2684
 8482SOL     OW36904   3.401   2.873   7.926  0.2231 -0.4393  0.1329
 8482SOL    HW136905   3.404   2.850   7.833 -0.6030  2.4475 -0.6264
 8482SOL    HW236906   3.348   2.799   7.958  0.2255  0.4346  2.1332
 8483SOL     OW36907   0.558   2.900  14.450  0.6005  0.0747  0.6516
 8483SOL    HW136908   0.464   2.878  14.450  0.3704  1.0853  2.8524
 8483SOL    HW236909   0.595   2.812  14.460 -0.8453 -0.4655  1.3646
 8484SOL     OW36910   4.087   2.890  11.001  0.4075  0.1546 -0.2305
 8484SOL    HW136911   4.003   2.852  11.027  1.1677 -1.5602 -0.2351
 8484SOL    HW236912   4.084   2.869  10.907 -0.5909 -1.0022  0.0660
 8485SOL     OW36913   1.673   3.632  15.932  0.4019  0.5216  0.2405
 8485SOL    HW136914   1.617   3.604  15.859  0.1894  0.3621  0.4632
 8485SOL    HW236915   1.696   3.544  15.962 -1.5988  0.6408  2.1558
 8486SOL     OW36916   2.016   2.848   3.260 -0.0335  0.3011  0.4916
 8486SOL    HW136917   2.044   2.895   3.338 -1.9036  0.5699  1.0073
 8486SOL    HW236918   2.078   2.884   3.196 -1.8065  1.0317 -0.8324
 8487SOL     OW36919   2.183   2.855   1.853 -0.0110 -0.5935  0.0078
 8487SOL    HW136920   2.158   2.775   1.899  0.1074  0.2912  1.6064
 8487SOL    HW236921   2.108   2.906   1.886  0.9602  0.4044  0.6884
 8488SOL     OW36922   2.891   4.227   9.698  0.3297  0.3242 -0.5327
 8488SOL    HW136923   2.840   4.291   9.747  0.6830 -0.9170  1.4491
 8488SOL    HW236924   2.897   4.271   9.613  0.3279  0.4720 -0.4560
 8489SOL     OW36925   2.988   3.467   4.936 -0.5559 -0.1784  0.2551
 8489SOL    HW136926   3.001   3.429   5.023  1.4962  0.2092  0.1106
 8489SOL    HW236927   2.931   3.540   4.961  2.3274  2.3934 -0.6265
 8490SOL     OW36928   0.671   4.435   4.199  0.2592  0.1858  0.2231
 8490SOL    HW136929   0.590   4.385   4.194  0.2089  0.3732 -0.7086
 8490SOL    HW236930   0.736   4.374   4.163  0.1967  0.7444 -0.8286
 8491SOL     OW36931   2.436   3.457   3.748  0.7620  0.5959 -0.4034
 8491SOL    HW136932   2.487   3.482   3.671 -0.8355 -1.0953 -2.0079
 8491SOL    HW236933   2.448   3.540   3.793 -0.2213 -0.2658  1.4358
 8492SOL     OW36934   3.480   1.554  13.291  0.5640  0.6586 -0.0130
 8492SOL    HW136935   3.415   1.484  13.282 -0.9168  1.9467  0.5955
 8492SOL    HW236936   3.533   1.536  13.214 -0.7954  0.2552 -0.8496
 8493SOL     OW36937   2.041   0.356  13.766 -0.4917 -0.0440 -0.0485
 8493SOL    HW136938   2.012   0.310  13.846 -0.1953 -1.4994 -0.7708
 8493SOL    HW236939   2.061   0.282  13.708 -0.7100  0.3758 -0.6555
 8494SOL     OW36940   1.119   4.580   8.498 -0.0435  0.4263 -0.3147
 8494SOL    HW136941   1.208   4.613   8.507 -1.1556  3.3602 -0.1803
 8494SOL    HW236942   1.088   4.633   8.424  0.9803  0.1702 -0.9190
 8495SOL     OW36943   3.714   0.909   8.856  0.1295  0.1960 -0.0050
 8495SOL    HW136944   3.696   0.977   8.921 -2.3462  1.8378 -2.4104
 8495SOL    HW236945   3.805   0.932   8.840 -0.0827  0.3501 -0.9865
 8496SOL     OW36946   4.489   3.882   1.895 -0.1004 -0.4887 -0.0935
 8496SOL    HW136947   4.503   3.976   1.909 -0.9035 -0.5982  1.5833
 8496SOL    HW236948   4.556   3.839   1.949  2.5229  3.4583 -0.2374
 8497SOL     OW36949   4.267   2.224  12.477  0.4373  0.1258 -0.2300
 8497SOL    HW136950   4.237   2.272  12.400 -3.7466 -1.4793  0.3901
 8497SOL    HW236951   4.184   2.178  12.492  2.6390 -4.4764 -2.6738
 8498SOL     OW36952   3.109   1.442   2.822 -0.1155  0.2764 -0.3204
 8498SOL    HW136953   3.062   1.362   2.799  0.8602 -0.5170  0.4289
 8498SOL    HW236954   3.035   1.500   2.840 -0.0970 -0.3626  1.8388
 8499SOL     OW36955   0.865   4.604   1.642  1.1109 -0.5535 -0.5189
 8499SOL    HW136956   0.806   4.542   1.685  1.6753 -0.8069 -0.1079
 8499SOL    HW236957   0.826   4.612   1.555 -1.7664 -1.9435  0.6525
 8500SOL     OW36958   3.856   3.675   6.005 -0.3892 -0.1651 -0.0636
 8500SOL    HW136959   3.897   3.663   5.920 -1.3394  3.9435 -1.1181
 8500SOL    HW236960   3.794   3.748   5.992  0.6764  1.0329  1.5539
 8501SOL     OW36961   4.565   1.175   1.664  0.2403 -0.2511 -0.7325
 8501SOL    HW136962   4.625   1.189   1.737 -0.0584  0.8506 -0.6889
 8501SOL    HW236963   4.481   1.162   1.708  0.1956  1.3023 -0.3506
 8502SOL     OW36964   0.621   4.437   5.381  0.1922  0.1946 -0.0001
 8502SOL    HW136965   0.631   4.448   5.475  1.2553  2.1610 -0.3449
 8502SOL    HW236966   0.677   4.361   5.364 -0.0549  0.0430 -0.1462
 8503SOL     OW36967   2.413   4.315   3.737 -0.5178  0.4410 -0.1996
 8503SOL    HW136968   2.492   4.345   3.693  1.3472 -2.1874  1.4005
 8503SOL    HW236969   2.356   4.309   3.660 -0.3285  1.4847 -0.4242
 8504SOL     OW36970   4.715   0.519   3.729  0.3456 -0.1623 -0.0019
 8504SOL    HW136971   4.686   0.565   3.650 -1.0774 -2.0430 -0.5671
 8504SOL    HW236972   0.084   0.493   3.707  0.9473  0.3533  1.8070
 8505SOL     OW36973   0.707   3.991   4.677  0.5650 -0.2225  0.5846
 8505SOL    HW136974   0.723   4.042   4.756 -3.7997  0.5638  0.9619
 8505SOL    HW236975   0.785   3.936   4.666  0.6774  0.4541 -2.2485
 8506SOL     OW36976   4.110   0.727   5.343  0.4483  0.3970  0.5460
 8506SOL    HW136977   4.186   0.766   5.299 -0.5732  0.2954 -1.3332
 8506SOL    HW236978   4.041   0.764   5.287  0.5011 -0.8532 -0.3569
 8507SOL     OW36979   2.298   2.805  13.614  0.1649  0.0945  0.0770
 8507SOL    HW136980   2.231   2.770  13.555  0.8096  0.2305 -0.7335
 8507SOL    HW236981   2.278   2.758  13.695 -0.2779 -1.4026 -0.8827
 8508SOL     OW36982   2.939   1.550  16.741 -0.2069 -0.2933 -0.0364
 8508SOL    HW136983   2.856   1.582  16.774  0.1969  1.6202 -0.8832
 8508SOL    HW236984   2.915   1.498  16.664  0.7270  1.3300 -1.4493
 8509SOL     OW36985   3.739   0.518  17.659 -0.0270 -0.1532  0.4539
 8509SOL    HW136986   3.785   0.580   0.031 -1.8300 -0.6963  2.5501
 8509SOL    HW236987   3.759   0.553  17.572 -2.6308  0.7704  0.2271
 8510SOL     OW36988   1.048   4.541   2.238 -0.4213 -0.1217 -0.0860
 8510SOL    HW136989   1.005   4.456   2.236 -0.4016 -0.1486  1.0537
 8510SOL    HW236990   1.040   4.560   2.144  0.7071  0.1992 -0.1198
 8511SOL     OW36991   1.507   0.445   7.536 -0.3333 -0.2164  0.8937
 8511SOL    HW136992   1.450   0.469   7.463 -0.3150 -0.3571  0.8340
 8511SOL    HW236993   1.455   0.374   7.574  0.5209 -1.5548 -0.4564
 8512SOL     OW36994   1.944   3.618  16.244  0.4418  0.1167 -0.0004
 8512SOL    HW136995   1.906   3.536  16.276  2.1298 -0.7260 -0.1528
 8512SOL    HW236996   2.026   3.591  16.203 -0.9025 -1.3255 -1.7380
 8513SOL     OW36997   3.007   4.175   0.041 -0.0375 -0.6142  0.1084
 8513SOL    HW136998   3.072   4.130   0.095  1.2639  1.5762  0.3891
 8513SOL    HW236999   2.975   4.239   0.105  2.7412 -1.0439  1.9248
 8514SOL     OW37000   0.085   1.648  15.282 -0.4737 -0.8855  0.5628
 8514SOL    HW137001   0.028   1.724  15.295 -2.1406 -1.8342 -1.2391
 8514SOL    HW237002   0.168   1.691  15.303 -1.6836  0.5590  2.4470
 8515SOL     OW37003   2.278   0.308  14.402 -0.1512 -0.0954 -0.1252
 8515SOL    HW137004   2.235   0.375  14.348  0.8306  0.7870  0.1831
 8515SOL    HW237005   2.291   0.343  14.490 -0.8052 -1.8432  0.6587
 8516SOL     OW37006   3.438   4.155   1.378  0.2996  0.0592 -0.1351
 8516SOL    HW137007   3.440   4.073   1.427 -2.5065 -0.3394 -0.6624
 8516SOL    HW237008   3.486   4.117   1.304  1.1071 -0.9587  0.9096
 8517SOL     OW37009   0.397   0.851  10.451  0.4679  0.0726 -0.2872
 8517SOL    HW137010   0.306   0.876  10.434  0.5863  2.3991  2.5587
 8517SOL    HW237011   0.415   0.810  10.366 -1.5009 -0.2708 -0.5276
 8518SOL     OW37012   4.184   1.068   4.733  0.0794 -0.5587  0.0629
 8518SOL    HW137013   4.226   1.011   4.669  0.8865  0.7238 -0.5387
 8518SOL    HW237014   4.236   1.148   4.734 -1.6871  0.5617  2.1607
 8519SOL     OW37015   4.693   2.926   6.453  0.1580 -0.4854 -0.7201
 8519SOL    HW137016   4.622   2.914   6.515 -1.2995  0.1785 -2.2307
 8519SOL    HW237017   4.662   2.891   6.369  0.7904  1.2217 -1.6738
 8520SOL     OW37018   2.193   3.590   4.194 -0.2686 -0.5864  0.7863
 8520SOL    HW137019   2.138   3.545   4.259  0.0477 -0.5870  1.0565
 8520SOL    HW237020   2.242   3.650   4.250 -1.6738  1.7552 -0.5258
 8521SOL     OW37021   2.643   2.016  10.723  0.1024  0.1670 -0.1270
 8521SOL    HW137022   2.612   2.045  10.809  2.0008  2.8823 -0.3709
 8521SOL    HW237023   2.666   2.096  10.677 -0.6852 -0.3282 -1.3906
 8522SOL     OW37024   2.191   2.424   5.859  0.6001  0.1322 -0.2612
 8522SOL    HW137025   2.124   2.356   5.871  0.4621 -0.1231 -2.6179
 8522SOL    HW237026   2.207   2.440   5.952 -0.4375 -1.5341  0.2030
 8523SOL     OW37027   4.619   4.248  13.545 -0.2279 -0.4247 -0.1728
 8523SOL    HW137028   4.543   4.296  13.512  0.9772  1.7971  0.3230
 8523SOL    HW237029   4.683   4.279  13.481 -1.1291  1.5445 -0.1264
 8524SOL     OW37030   3.422   4.218   0.079  0.1630  0.3227  0.1128
 8524SOL    HW137031   3.470   4.212   0.161 -0.0412 -0.3295  0.1857
 8524SOL    HW237032   3.357   4.151   0.099 -0.3266  1.8058  3.5897
 8525SOL     OW37033   4.610   4.297   8.244  0.2605 -0.3977 -0.2949
 8525SOL    HW137034   4.641   4.206   8.237 -0.4043 -0.6542  0.1127
 8525SOL    HW237035   4.533   4.288   8.300 -1.2797  0.1562 -2.3099
 8526SOL     OW37036   0.033   4.346   7.852  0.0645 -0.3402  0.4876
 8526SOL    HW137037   4.719   4.313   7.769  1.6627 -1.6142  0.3242
 8526SOL    HW237038   0.096   4.279   7.879  0.3907  0.5501  1.9075
 8527SOL     OW37039   0.874   1.291   7.009 -0.4153 -0.5271 -0.9179
 8527SOL    HW137040   0.867   1.196   6.995  2.9658 -0.6533 -1.7086
 8527SOL    HW237041   0.908   1.314   6.923  0.5024 -3.0373 -1.2414
 8528SOL     OW37042   2.384   2.234   8.300 -0.5178 -0.8887 -0.0053
 8528SOL    HW137043   2.327   2.172   8.346 -1.7661  0.3445  0.1089
 8528SOL    HW237044   2.331   2.310   8.324 -1.4387 -1.2581 -0.8703
 8529SOL     OW37045   1.879   2.975   6.028  0.2372 -0.3347  0.1298
 8529SOL    HW137046   1.854   2.893   5.985 -1.0189 -0.4514  1.0725
 8529SOL    HW237047   1.805   2.987   6.087 -0.7347 -3.3134 -0.5051
 8530SOL     OW37048   0.394   3.217  11.692 -0.6439 -0.2022  0.0145
 8530SOL    HW137049   0.381   3.295  11.747 -0.5573  0.1177 -0.4249
 8530SOL    HW237050   0.364   3.258  11.611  0.3518  1.5186  0.5109
 8531SOL     OW37051   3.830   3.639   5.500  0.2655  0.2792 -0.3391
 8531SOL    HW137052   3.794   3.631   5.412 -2.3583  0.4900  0.6961
 8531SOL    HW237053   3.764   3.597   5.555  0.2369 -0.2071 -0.7473
 8532SOL     OW37054   1.581   0.930   1.323  0.1072 -0.4188 -0.0787
 8532SOL    HW137055   1.586   1.005   1.264 -0.8556 -0.0724  0.2801
 8532SOL    HW237056   1.667   0.892   1.306 -0.0899  0.4059 -2.8895
 8533SOL     OW37057   4.134   0.955   3.468  0.5071  0.1324  0.3657
 8533SOL    HW137058   4.184   0.957   3.386  1.7845  1.2895  1.1762
 8533SOL    HW237059   4.051   0.986   3.433  0.3753  0.9321  1.4001
 8534SOL     OW37060   3.322   3.653   1.786 -0.2677  0.1524 -0.4426
 8534SOL    HW137061   3.407   3.698   1.780  0.3531 -0.7379  1.9555
 8534SOL    HW237062   3.303   3.648   1.879  2.3461 -0.7554  0.0422
 8535SOL     OW37063   4.626   0.970   1.353 -0.4116 -0.0173 -0.5436
 8535SOL    HW137064   4.579   1.040   1.397  0.0274 -0.0991  0.0712
 8535SOL    HW237065   4.567   0.898   1.373  0.8498 -1.0402 -0.4579
 8536SOL     OW37066   2.988   2.805   8.207  0.3437 -0.4830 -0.0124
 8536SOL    HW137067   3.066   2.813   8.262 -1.0855 -0.7179  2.0529
 8536SOL    HW237068   2.958   2.892   8.231 -0.8276 -0.6858 -0.7715
 8537SOL     OW37069   1.720   0.056   8.114  0.6253  0.4225 -0.1819
 8537SOL    HW137070   1.723   0.073   8.208  0.3832 -3.6843  0.5683
 8537SOL    HW237071   1.728   4.681   8.122  2.3609  0.5237 -0.7164
 8538SOL     OW37072   3.571   1.348   7.116  0.3476 -0.0953  0.6407
 8538SOL    HW137073   3.491   1.401   7.119  0.1869 -0.1555 -2.5701
 8538SOL    HW237074   3.534   1.269   7.078  0.8990 -1.5846  3.1491
 8539SOL     OW37075   1.989   4.416   2.788  0.7739  0.0396  0.3423
 8539SOL    HW137076   1.946   4.485   2.737 -0.2588 -0.2268  0.8482
 8539SOL    HW237077   1.977   4.341   2.730 -0.8629  0.6571 -0.1045
 8540SOL     OW37078   0.039   2.847   9.482 -0.5124 -0.6443 -0.6624
 8540SOL    HW137079   0.127   2.809   9.483 -0.5846 -0.8091 -0.5959
 8540SOL    HW237080   0.045   2.942   9.482 -0.3617 -0.6447 -1.8381
 8541SOL     OW37081   0.902   3.800   2.248  0.2680  0.8166  0.1495
 8541SOL    HW137082   0.834   3.862   2.220 -0.1833  1.4069  2.5261
 8541SOL    HW237083   0.897   3.735   2.178 -0.6734  0.9511  0.0825
 8542SOL     OW37084   0.786   1.374  11.559  0.3841 -0.6971  0.1152
 8542SOL    HW137085   0.879   1.390  11.544  0.0895  2.3994  1.5309
 8542SOL    HW237086   0.778   1.397  11.652  1.2729 -1.1457  0.2956
 8543SOL     OW37087   2.509   2.437  12.841  0.7227  0.3485  0.0505
 8543SOL    HW137088   2.520   2.357  12.892  0.3057  1.0661  1.2693
 8543SOL    HW237089   2.488   2.497  12.912  1.0488 -0.1499  0.5615
 8544SOL     OW37090   3.315   1.707   8.792 -0.0817 -0.2355 -0.4094
 8544SOL    HW137091   3.338   1.615   8.806 -1.3531 -0.5353 -0.2898
 8544SOL    HW237092   3.309   1.728   8.885 -1.0909  0.3809 -0.6078
 8545SOL     OW37093   0.991   2.184   1.237  0.0045 -0.7062  0.1844
 8545SOL    HW137094   0.907   2.137   1.236  0.1658 -0.9869 -0.1756
 8545SOL    HW237095   1.003   2.212   1.328  1.0032 -2.1347  0.4940
 8546SOL     OW37096   3.329   3.215   8.279  0.2656  0.0570  0.6142
 8546SOL    HW137097   3.342   3.187   8.188 -1.1355  0.0884  0.4108
 8546SOL    HW237098   3.277   3.148   8.323  0.8631 -1.8524 -1.5595
 8547SOL     OW37099   3.167   0.275  15.395  0.1916  0.0305  0.2584
 8547SOL    HW137100   3.159   0.364  15.429  3.2279  0.8156 -1.0459
 8547SOL    HW237101   3.220   0.290  15.316 -0.7488 -0.9307 -0.5629
 8548SOL     OW37102   2.118   0.936  15.657  0.1422 -0.5722 -0.9285
 8548SOL    HW137103   2.095   1.022  15.622  2.5650  0.0826 -0.8739
 8548SOL    HW237104   2.034   0.890  15.668 -0.0800 -0.3599 -1.7415
 8549SOL     OW37105   3.591   3.394   4.943 -0.2216 -0.4404 -0.1955
 8549SOL    HW137106   3.572   3.422   5.033 -1.7455  3.4057 -1.7206
 8549SOL    HW237107   3.659   3.460   4.928  0.1825 -1.1277 -1.3996
 8550SOL     OW37108   1.848   1.658   1.699  0.4853 -0.3886 -0.7272
 8550SOL    HW137109   1.917   1.598   1.671  1.2852  1.0945 -1.9375
 8550SOL    HW237110   1.903   1.730   1.730  0.9552 -0.8268 -0.5457
 8551SOL     OW37111   3.891   0.688   8.193 -0.5533 -0.2939 -0.4205
 8551SOL    HW137112   3.860   0.609   8.238 -1.1016  0.2973  0.2369
 8551SOL    HW237113   3.810   0.737   8.206 -0.3773  1.1080 -4.4970
 8552SOL     OW37114   4.341   2.695   5.914 -0.1234  0.7114  0.0728
 8552SOL    HW137115   4.274   2.691   5.982 -0.3151  2.3723 -0.0104
 8552SOL    HW237116   4.332   2.602   5.893 -1.4422  0.8311  0.0935
 8553SOL     OW37117   2.248   1.321  13.693 -0.1305  0.0634 -0.2773
 8553SOL    HW137118   2.288   1.405  13.670 -1.0176  0.0592 -1.8247
 8553SOL    HW237119   2.328   1.274  13.716  0.0532 -0.7291 -2.6171
 8554SOL     OW37120   3.928   1.948   6.716  0.2228 -0.1886 -0.1521
 8554SOL    HW137121   3.971   1.864   6.700 -2.6160 -2.0629  2.0944
 8554SOL    HW237122   3.993   2.008   6.680  0.9855 -0.4017  0.8608
 8555SOL     OW37123   4.464   3.765  13.636  0.0038 -0.4761 -0.4243
 8555SOL    HW137124   4.455   3.861  13.637  0.8908 -0.4112  0.6580
 8555SOL    HW237125   4.464   3.749  13.730  0.0678 -0.8044 -0.4820
 8556SOL     OW37126   3.285   2.854   4.366 -0.1440  0.2287 -0.1203
 8556SOL    HW137127   3.321   2.849   4.277 -0.8630  0.7843 -0.4457
 8556SOL    HW237128   3.319   2.776   4.409  0.7554 -0.9530 -2.9823
 8557SOL     OW37129   4.645   1.996   5.674  0.3216  0.0971  0.5493
 8557SOL    HW137130   4.620   2.006   5.582 -1.2687 -0.4937  0.9065
 8557SOL    HW237131   4.599   1.914   5.695  2.0452 -0.9242  0.3069
 8558SOL     OW37132   4.421   0.727   8.730 -0.1883  0.9574 -0.1653
 8558SOL    HW137133   4.445   0.640   8.697 -0.2995  1.4011 -1.4293
 8558SOL    HW237134   4.507   0.770   8.723  0.5602 -0.4910  0.0324
 8559SOL     OW37135   2.205   1.644   3.765 -0.1358 -0.3002 -0.2653
 8559SOL    HW137136   2.114   1.646   3.796  0.5197 -2.0622  1.7941
 8559SOL    HW237137   2.247   1.705   3.826  1.1858 -2.2082  0.7428
 8560SOL     OW37138   0.757   3.638   1.107  0.5154  0.4253  0.5862
 8560SOL    HW137139   0.675   3.671   1.069  0.7408 -0.1306 -0.3892
 8560SOL    HW237140   0.716   3.597   1.183  3.0159  1.0663  2.2815
 8561SOL     OW37141   2.826   0.860   6.232 -0.2036  0.0240  1.1793
 8561SOL    HW137142   2.782   0.915   6.297  0.9875  0.7762  1.3297
 8561SOL    HW237143   2.911   0.845   6.273 -0.5934  0.0760  2.0109
 8562SOL     OW37144   1.685   4.173  11.991  0.2943  0.5131 -0.3320
 8562SOL    HW137145   1.638   4.257  11.993 -1.6361 -0.5789  0.7484
 8562SOL    HW237146   1.643   4.117  12.056  1.4250  2.7248  2.3120
 8563SOL     OW37147   2.008   0.793   9.521  1.1650  0.1129 -0.3305
 8563SOL    HW137148   2.061   0.859   9.567 -1.0123  1.4719  0.2125
 8563SOL    HW237149   1.929   0.798   9.575  1.6158 -0.3298  0.3845
 8564SOL     OW37150   3.251   0.918  15.673  0.4219 -0.2078 -0.5987
 8564SOL    HW137151   3.307   0.984  15.713 -0.8819  0.1027  0.7103
 8564SOL    HW237152   3.203   0.895  15.753  0.5521  1.7600  0.0476
 8565SOL     OW37153   2.819   0.932   9.392  0.3989 -0.4881 -0.0273
 8565SOL    HW137154   2.847   0.908   9.480  0.4692 -0.4205 -0.0313
 8565SOL    HW237155   2.817   0.847   9.347 -4.3040 -0.0519 -0.5870
 8566SOL     OW37156   3.591   4.561   2.513 -0.4240 -0.5861 -0.0962
 8566SOL    HW137157   3.662   4.598   2.565  0.0730 -0.9519 -0.5148
 8566SOL    HW237158   3.593   4.627   2.444  0.7877 -1.0616 -0.5241
 8567SOL     OW37159   3.341   1.784   1.957  0.2793  0.5916 -0.1691
 8567SOL    HW137160   3.302   1.771   2.043  0.0692  0.4476 -0.2849
 8567SOL    HW237161   3.386   1.864   1.980  1.2816 -0.6650  2.1713
 8568SOL     OW37162   4.209   4.179   0.158  0.3541  0.2383  0.0386
 8568SOL    HW137163   4.176   4.226   0.235  0.1643  1.7343 -0.9737
 8568SOL    HW237164   4.137   4.153   0.101  1.8955  2.3126 -2.8235
 8569SOL     OW37165   3.985   0.296   3.830  0.4602  0.0886 -0.1556
 8569SOL    HW137166   3.907   0.264   3.785  0.2630 -0.5572  0.6275
 8569SOL    HW237167   4.042   0.317   3.756 -2.4527 -2.2011 -3.0649
 8570SOL     OW37168   0.274   2.487  10.598  0.2704  0.1841  0.1001
 8570SOL    HW137169   0.327   2.560  10.631  3.2359 -1.0932 -1.7962
 8570SOL    HW237170   0.236   2.532  10.523 -0.3195  1.9153  1.4466
 8571SOL     OW37171   3.085   4.528   6.370  0.9199 -0.7149 -0.3251
 8571SOL    HW137172   3.165   4.489   6.334  0.6798 -0.1396 -1.4714
 8571SOL    HW237173   3.098   4.500   6.461  0.5708  0.5967  0.1245
 8572SOL     OW37174   4.653   0.337   4.225  0.5750 -0.0102 -0.3780
 8572SOL    HW137175   4.717   0.309   4.159 -0.6221  1.2414 -2.0693
 8572SOL    HW237176   4.611   0.252   4.239 -0.7959  1.0878  2.1240
 8573SOL     OW37177   1.437   3.679   6.260  0.6753  0.7112  0.1096
 8573SOL    HW137178   1.435   3.765   6.220 -1.1025  0.4855 -0.2730
 8573SOL    HW237179   1.392   3.687   6.344 -0.9467  1.2403 -0.8299
 8574SOL     OW37180   3.568   1.218  14.104 -0.6332  0.0448  1.0195
 8574SOL    HW137181   3.582   1.312  14.111  1.3021 -0.3716  2.5676
 8574SOL    HW237182   3.640   1.188  14.158 -0.4238  0.2321  0.8431
 8575SOL     OW37183   2.147   1.506  12.984 -0.4463  0.3209  0.5900
 8575SOL    HW137184   2.135   1.430  12.928  0.4599 -0.8976  2.0749
 8575SOL    HW237185   2.240   1.521  12.969 -0.8272  1.2106 -0.9221
 8576SOL     OW37186   0.094   2.260   6.307  0.2018  0.2558  0.1865
 8576SOL    HW137187   0.104   2.273   6.401 -2.7645 -0.8500  0.6816
 8576SOL    HW237188   0.126   2.343   6.273 -0.8457  0.8032  0.5267
 8577SOL     OW37189   1.414   0.931  15.556  0.1693 -0.3632  0.3698
 8577SOL    HW137190   1.376   0.982  15.484 -0.9041 -1.2424  0.3222
 8577SOL    HW237191   1.502   0.912  15.522  0.7511  3.3012 -0.2482
 8578SOL     OW37192   1.815   1.283   1.558  0.0693  0.0285 -0.3316
 8578SOL    HW137193   1.801   1.218   1.627 -0.6380 -1.4397 -1.8573
 8578SOL    HW237194   1.883   1.341   1.592 -0.3905  1.0203 -1.1055
 8579SOL     OW37195   0.432   4.493   8.866  0.4464  0.1577  0.0966
 8579SOL    HW137196   0.518   4.513   8.903  1.0185 -1.2105 -0.5215
 8579SOL    HW237197   0.420   4.405   8.901  0.4903  0.7393  1.5958
 8580SOL     OW37198   1.667   1.765   6.637 -0.3807  0.0443  0.0069
 8580SOL    HW137199   1.744   1.717   6.607  0.1599  2.1769 -2.0771
 8580SOL    HW237200   1.685   1.852   6.600 -0.8152 -0.3011 -0.9992
 8581SOL     OW37201   1.379   3.831   8.390 -0.4668  0.6181 -0.7825
 8581SOL    HW137202   1.392   3.821   8.296 -1.7712 -1.1727 -0.7634
 8581SOL    HW237203   1.284   3.840   8.391 -0.4701  0.5294 -0.0002
 8582SOL     OW37204   0.499   2.858   3.019  0.5761  0.1905 -0.0627
 8582SOL    HW137205   0.507   2.931   2.958 -0.3782 -0.1341 -0.5746
 8582SOL    HW237206   0.523   2.780   2.969  3.7857 -0.4778  2.5150
 8583SOL     OW37207   2.900   2.271  10.966  0.3660 -0.2140 -0.2035
 8583SOL    HW137208   2.863   2.215  11.035  2.2563 -2.2530 -0.8189
 8583SOL    HW237209   2.987   2.238  10.943  0.0607 -1.5886  0.5828
 8584SOL     OW37210   0.387   1.309   3.860  0.2639 -0.2194 -0.0508
 8584SOL    HW137211   0.329   1.269   3.795  0.2189 -0.9211  0.4132
 8584SOL    HW237212   0.466   1.265   3.829  0.5283 -0.4755  0.9746
 8585SOL     OW37213   1.944   2.082  13.563 -0.4958  0.8319  0.1731
 8585SOL    HW137214   1.890   2.090  13.484 -0.0008  1.0033 -0.1443
 8585SOL    HW237215   1.876   2.059  13.627 -0.7350 -0.3838 -0.5076
 8586SOL     OW37216   2.901   2.359   3.496  0.4879  0.7744 -0.0862
 8586SOL    HW137217   2.981   2.394   3.456 -1.1090  3.3663 -0.9997
 8586SOL    HW237218   2.847   2.347   3.418 -2.3718  2.1019  1.6774
 8587SOL     OW37219   1.192   2.517   4.262  0.1601 -0.0959 -0.4220
 8587SOL    HW137220   1.139   2.447   4.225 -1.2037  0.6358  0.1504
 8587SOL    HW237221   1.137   2.577   4.312  1.6392 -0.9892  2.3007
 8588SOL     OW37222   2.784   4.333   1.600  0.0577 -0.0598 -0.3890
 8588SOL    HW137223   2.746   4.410   1.642  2.2365  0.6193  0.3627
 8588SOL    HW237224   2.848   4.310   1.667 -1.4451  1.7302  1.6578
 8589SOL     OW37225   3.779   3.575   0.712  0.1133 -0.1848  0.4884
 8589SOL    HW137226   3.807   3.635   0.782  1.4831 -0.3439  0.0679
 8589SOL    HW237227   3.851   3.584   0.649 -1.1996 -3.4678 -1.4806
 8590SOL     OW37228   2.102   0.854   5.941  0.2585 -0.0287 -0.0155
 8590SOL    HW137229   2.065   0.849   5.853 -1.9539  0.7953  0.8539
 8590SOL    HW237230   2.059   0.780   5.983 -1.1269  0.3281 -0.8090
 8591SOL     OW37231   2.054   2.986   9.071  0.7782 -0.1979 -0.3577
 8591SOL    HW137232   2.090   2.985   8.982 -1.7805 -2.2490 -1.4088
 8591SOL    HW237233   2.047   3.080   9.086  0.9320 -0.3314  0.5111
 8592SOL     OW37234   2.582   1.239   4.276  0.1768 -0.0437  0.5190
 8592SOL    HW137235   2.554   1.187   4.201 -0.1765 -1.1909  1.4324
 8592SOL    HW237236   2.551   1.326   4.253  1.8131  0.6137  0.7608
 8593SOL     OW37237   1.442   2.471   5.162 -0.1943  0.0270 -0.0237
 8593SOL    HW137238   1.479   2.400   5.109  0.1890 -0.0720  0.3780
 8593SOL    HW237239   1.426   2.540   5.098 -0.1004  0.3081  0.2596
 8594SOL     OW37240   0.062   4.077   8.437  0.1394 -0.0379  0.2754
 8594SOL    HW137241   0.072   3.982   8.431  0.3966  0.0930 -1.3198
 8594SOL    HW237242   4.708   4.081   8.497  0.4689  0.0420  0.6768
 8595SOL     OW37243   4.195   3.868   2.075  0.3522 -0.0546 -0.4432
 8595SOL    HW137244   4.234   3.909   1.998  1.6900  1.2401  0.9254
 8595SOL    HW237245   4.134   3.805   2.035 -0.3096  1.6408 -2.1145
 8596SOL     OW37246   2.628   1.209   2.694  0.1692 -0.2064  0.6322
 8596SOL    HW137247   2.651   1.124   2.656 -2.5455 -0.3165 -0.7819
 8596SOL    HW237248   2.711   1.256   2.695 -0.6988  1.3731 -1.4742
 8597SOL     OW37249   4.056   4.088  11.375 -0.5902 -0.9329  0.5121
 8597SOL    HW137250   4.074   4.120  11.463 -1.6493  1.9348 -0.3163
 8597SOL    HW237251   4.031   4.170  11.333  1.7668 -2.1276 -3.2002
 8598SOL     OW37252   4.309   3.384   4.004  0.3973  0.3693  0.0549
 8598SOL    HW137253   4.296   3.397   3.910  0.2862 -0.8166 -0.0963
 8598SOL    HW237254   4.220   3.384   4.038 -0.6174  0.2877 -2.5655
 8599SOL     OW37255   4.405   1.515   5.109  0.1589 -0.0845  0.8532
 8599SOL    HW137256   4.419   1.606   5.137 -0.8604  0.3607 -0.1046
 8599SOL    HW237257   4.491   1.477   5.094  0.6568  1.1895  0.5081
 8600SOL     OW37258   3.105   1.230   7.838 -0.2211  0.7164 -0.4485
 8600SOL    HW137259   3.095   1.170   7.912 -1.2587 -0.6465 -1.7084
 8600SOL    HW237260   3.085   1.170   7.767  1.6873  1.2401 -1.4227
 8601SOL     OW37261   4.203   3.516   3.135  0.8998  0.0535  0.3248
 8601SOL    HW137262   4.164   3.451   3.193 -2.2705  0.4764 -1.3390
 8601SOL    HW237263   4.203   3.586   3.200 -1.7081  0.2837  0.0482
 8602SOL     OW37264   0.323   4.320   7.271 -0.6728 -0.4489  0.6949
 8602SOL    HW137265   0.374   4.308   7.351  0.4661 -1.4998 -0.1911
 8602SOL    HW237266   0.363   4.400   7.235 -0.2468 -1.5932 -1.4102
 8603SOL     OW37267   2.997   3.637   9.010  0.6138  0.0403  0.2452
 8603SOL    HW137268   2.929   3.632   9.077 -0.0537 -1.3952 -0.5511
 8603SOL    HW237269   2.987   3.728   8.982  1.7893 -0.4500 -1.7337
 8604SOL     OW37270   3.506   1.484  14.094 -0.1729 -0.0922 -0.2817
 8604SOL    HW137271   3.553   1.527  14.165  0.9139 -0.2839 -0.8906
 8604SOL    HW237272   3.423   1.489  14.142 -1.1494 -4.1063 -1.4738
 8605SOL     OW37273   1.389   1.192   6.044 -0.0734  0.8445 -0.2792
 8605SOL    HW137274   1.298   1.220   6.039 -0.2262  0.5061  0.5810
 8605SOL    HW237275   1.403   1.195   6.139 -0.7347  0.0483 -0.1583
 8606SOL     OW37276   2.655   1.406   5.014 -0.3360 -0.3551 -0.6137
 8606SOL    HW137277   2.645   1.316   5.045  3.2411 -0.5811 -0.0904
 8606SOL    HW237278   2.591   1.445   5.073  0.1233  0.2607 -0.5201
 8607SOL     OW37279   3.788   2.715  15.948 -0.1012  0.1381 -0.5717
 8607SOL    HW137280   3.800   2.798  15.995 -2.3683  0.6876 -0.9512
 8607SOL    HW237281   3.754   2.662  16.020 -0.4347  0.0520 -0.7962
 8608SOL     OW37282   2.216   2.049   8.458 -0.5206  0.0330  0.1968
 8608SOL    HW137283   2.189   1.960   8.482 -0.5930 -0.2341 -0.9036
 8608SOL    HW237284   2.135   2.101   8.463 -0.7476 -0.3343  0.3390
 8609SOL     OW37285   1.851   2.779   9.179  0.3128 -0.1271 -0.3990
 8609SOL    HW137286   1.830   2.713   9.114  2.1831 -0.6633 -0.4498
 8609SOL    HW237287   1.925   2.825   9.140 -1.2831  3.4314  0.6782
 8610SOL     OW37288   3.252   2.141   2.336  0.2619  0.0403  0.3505
 8610SOL    HW137289   3.329   2.196   2.320 -0.2322  0.2482 -1.3598
 8610SOL    HW237290   3.223   2.121   2.247  0.2740  0.5702  0.2219
 8611SOL     OW37291   3.976   2.857   6.608  0.1199  0.4328  0.0315
 8611SOL    HW137292   3.997   2.839   6.700  0.8144  1.1840  0.0231
 8611SOL    HW237293   4.021   2.785   6.563 -0.1976  0.6439 -0.6267
 8612SOL     OW37294   2.681   4.281   4.398 -0.0730 -0.4235  0.4349
 8612SOL    HW137295   2.754   4.220   4.387 -0.7358 -1.0065 -0.8165
 8612SOL    HW237296   2.631   4.287   4.316 -0.6372  0.3860  0.8286
 8613SOL     OW37297   2.055   4.391   7.131 -0.3114  0.0380 -0.8046
 8613SOL    HW137298   2.051   4.483   7.104  1.0071 -0.1594 -1.6523
 8613SOL    HW237299   2.021   4.346   7.054 -0.7133 -0.9662 -0.0364
 8614SOL     OW37300   3.547   1.773   2.892  0.0306 -0.1529 -0.2295
 8614SOL    HW137301   3.462   1.812   2.873  0.2073  0.6863  0.6881
 8614SOL    HW237302   3.603   1.840   2.854  0.9061 -0.6746  0.1363
 8615SOL     OW37303   2.692   1.319  10.530  0.4092  0.2096 -0.1913
 8615SOL    HW137304   2.780   1.295  10.500  0.9306 -0.5012  1.9131
 8615SOL    HW237305   2.707   1.411  10.551 -0.6252  0.2100  0.5281
 8616SOL     OW37306   0.529   1.227   9.491  0.0715 -0.0871 -0.5919
 8616SOL    HW137307   0.543   1.264   9.578 -0.3859  2.0064 -1.4105
 8616SOL    HW237308   0.466   1.155   9.501  1.1279 -0.9153  0.0959
 8617SOL     OW37309   3.831   1.441  13.375  0.4554  0.2287 -0.1020
 8617SOL    HW137310   3.745   1.453  13.416  0.0929 -0.8074 -0.5552
 8617SOL    HW237311   3.889   1.503  13.419  0.4393 -0.4886  0.9300
 8618SOL     OW37312   0.330   4.047   8.290 -0.3297 -0.1192 -0.0845
 8618SOL    HW137313   0.265   4.059   8.359  1.7781  1.2655  1.6814
 8618SOL    HW237314   0.408   4.011   8.332  0.2594  2.8973  1.4585
 8619SOL     OW37315   4.101   2.475   6.216  0.7751 -0.1105  0.2468
 8619SOL    HW137316   4.122   2.397   6.164  3.1415  0.4173  0.4148
 8619SOL    HW237317   4.068   2.434   6.295 -1.7672 -1.9766 -1.7788
 8620SOL     OW37318   3.736   2.868   4.311  0.0745 -0.3079  0.1091
 8620SOL    HW137319   3.660   2.870   4.253  0.3618 -1.8803 -0.3310
 8620SOL    HW237320   3.745   2.773   4.323  0.0485 -0.5192 -1.5136
 8621SOL     OW37321   3.578   0.471   7.044  0.0609 -0.4463 -0.4715
 8621SOL    HW137322   3.586   0.522   6.964  1.5528 -0.1793 -0.1476
 8621SOL    HW237323   3.610   0.389   7.007  3.2613  0.5548  0.0496
 8622SOL     OW37324   1.338   2.096   6.222  0.7000 -0.0291 -0.0975
 8622SOL    HW137325   1.376   2.166   6.275  2.4462 -0.9052 -0.2148
 8622SOL    HW237326   1.413   2.093   6.163 -0.8951 -0.7544 -2.0916
 8623SOL     OW37327   4.572   2.628   8.707  0.4865  0.2690  0.3764
 8623SOL    HW137328   4.539   2.696   8.766  0.6285  0.0254  0.7419
 8623SOL    HW237329   4.580   2.554   8.768  0.5247 -1.7910 -2.1366
 8624SOL     OW37330   0.767   1.324   4.844  0.0650 -0.1849  0.3128
 8624SOL    HW137331   0.780   1.395   4.781 -1.6598 -0.8345 -0.7816
 8624SOL    HW237332   0.671   1.325   4.846  0.0380  0.5908 -1.5663
 8625SOL     OW37333   2.972   4.074   7.812 -0.0689 -0.6553  0.3139
 8625SOL    HW137334   3.025   4.000   7.842 -0.0077 -0.7304  0.0264
 8625SOL    HW237335   3.042   4.139   7.799 -0.4421  0.0653  1.9905
 8626SOL     OW37336   1.470   0.716   6.341 -0.2536 -0.3882 -0.9999
 8626SOL    HW137337   1.533   0.681   6.278  1.2021  1.2601 -0.4615
 8626SOL    HW237338   1.396   0.705   6.281 -1.6763 -0.9501  0.8624
 8627SOL     OW37339   4.398   2.464   2.867 -0.0659  0.0026 -0.2287
 8627SOL    HW137340   4.466   2.524   2.836 -0.6399  0.4207 -0.6788
 8627SOL    HW237341   4.395   2.395   2.801  1.4572  2.0091 -2.4174
 8628SOL     OW37342   0.689   0.171   5.549 -0.0901 -0.4740  0.0916
 8628SOL    HW137343   0.750   0.150   5.620  0.7159  2.2352  0.1928
 8628SOL    HW237344   0.683   0.086   5.505 -1.1374  1.0846 -2.8396
 8629SOL     OW37345   1.855   4.220   7.303 -0.0907  0.6133 -0.5254
 8629SOL    HW137346   1.861   4.299   7.248 -1.0545  1.4125  0.5132
 8629SOL    HW237347   1.836   4.263   7.386  0.2975 -0.2507  0.0041
 8630SOL     OW37348   2.995   3.470   2.566 -0.0300 -0.0730 -0.3054
 8630SOL    HW137349   3.012   3.442   2.656 -0.0264  0.8393 -0.0211
 8630SOL    HW237350   2.935   3.545   2.572  0.0406 -0.1167  0.8627
 8631SOL     OW37351   4.121   2.206   9.577 -0.1920  0.2054 -0.3660
 8631SOL    HW137352   4.068   2.283   9.553  0.2141  0.6025  0.0180
 8631SOL    HW237353   4.077   2.133   9.534 -1.3138  1.2810 -1.0856
 8632SOL     OW37354   3.916   4.102  11.872 -0.1226  0.2508 -0.1796
 8632SOL    HW137355   3.999   4.065  11.904 -0.1254 -0.7064 -1.2813
 8632SOL    HW237356   3.951   4.190  11.856  0.3526  0.2575  0.8438
 8633SOL     OW37357   3.455   1.655   4.625 -0.5026 -0.5723 -0.5561
 8633SOL    HW137358   3.493   1.698   4.702  1.4280 -0.8147 -1.3663
 8633SOL    HW237359   3.375   1.702   4.604 -1.6631 -1.8124  1.0892
 8634SOL     OW37360   1.817   4.202   6.736 -0.4463 -0.2779  0.3492
 8634SOL    HW137361   1.809   4.120   6.686  0.0006 -0.8182  1.1614
 8634SOL    HW237362   1.725   4.221   6.753  0.7084  2.6374  3.3951
 8635SOL     OW37363   1.120   2.253   7.688 -0.0702  0.7067  0.0539
 8635SOL    HW137364   1.147   2.216   7.604 -0.9143  0.6314 -0.1905
 8635SOL    HW237365   1.047   2.193   7.705  1.9786 -1.8718 -0.2538
 8636SOL     OW37366   2.126   1.869   8.204 -0.1730 -0.5401 -0.2921
 8636SOL    HW137367   2.183   1.938   8.170 -0.0279 -1.7848 -2.5522
 8636SOL    HW237368   2.050   1.922   8.228 -1.3667 -3.1064  1.4768
 8637SOL     OW37369   2.669   1.915   7.482 -0.3571  0.1678 -0.1021
 8637SOL    HW137370   2.609   1.978   7.521  0.9324  1.2504  0.1435
 8637SOL    HW237371   2.651   1.827   7.515 -0.5282  0.1186 -0.3238
 8638SOL     OW37372   2.032   1.484   3.989 -0.5339  0.0440 -0.1901
 8638SOL    HW137373   1.958   1.437   4.028  0.5193 -0.6578  0.9346
 8638SOL    HW237374   2.033   1.457   3.898  1.5649 -2.2028  0.5169
 8639SOL     OW37375   3.781   1.537   5.898  0.2794 -0.0489  0.1040
 8639SOL    HW137376   3.690   1.509   5.899  0.0988  0.5948  2.0307
 8639SOL    HW237377   3.827   1.454   5.909 -0.5211 -0.5606 -0.3980
 8640SOL     OW37378   4.505   2.941  10.665  0.1801 -0.0968 -0.4774
 8640SOL    HW137379   4.560   2.997  10.609 -0.2375 -0.0654 -0.8585
 8640SOL    HW237380   4.572   2.905  10.723 -1.0606  0.7006  1.4438
 8641SOL     OW37381   1.888   4.009   6.091  0.4117 -0.3265  0.2927
 8641SOL    HW137382   1.938   4.040   6.167 -1.0030 -1.4796  1.6850
 8641SOL    HW237383   1.831   4.085   6.099  0.1505 -0.5465  0.5013
 8642SOL     OW37384   2.636   2.476  10.973 -0.0932  0.6035  0.1868
 8642SOL    HW137385   2.606   2.565  10.956  0.3383  0.8033  0.4771
 8642SOL    HW237386   2.673   2.494  11.059  1.7871 -0.9507 -0.2866
 8643SOL     OW37387   4.062   2.372   4.928 -0.3715 -0.7351 -0.0611
 8643SOL    HW137388   4.110   2.317   4.866  1.0434  0.1149  0.2726
 8643SOL    HW237389   4.014   2.420   4.861 -0.6727  1.1004  1.4906
 8644SOL     OW37390   3.786   1.281   2.181 -0.3616  0.1020 -0.2653
 8644SOL    HW137391   3.784   1.202   2.127  2.1680  0.1613 -0.4580
 8644SOL    HW237392   3.854   1.256   2.244 -2.7274 -4.6761  0.4079
 8645SOL     OW37393   2.280   3.866   5.138 -0.4956  0.1263  0.7104
 8645SOL    HW137394   2.372   3.847   5.160 -0.5899  0.5548  1.4407
 8645SOL    HW237395   2.254   3.881   5.228 -2.7584  2.4211 -0.3494
 8646SOL     OW37396   2.665   3.728   3.405  0.1763  0.6722  0.3015
 8646SOL    HW137397   2.700   3.680   3.330 -0.4584  1.9060 -0.7840
 8646SOL    HW237398   2.686   3.818   3.381  1.4159 -0.1947 -1.9142
 8647SOL     OW37399   0.482   1.722   3.391 -0.4626  0.1832 -0.2305
 8647SOL    HW137400   0.400   1.749   3.432 -0.4997 -0.4822  0.1390
 8647SOL    HW237401   0.535   1.796   3.418 -0.1115 -0.7993  1.7720
 8648SOL     OW37402   3.625   3.664   7.042 -0.0997  0.2152  0.2950
 8648SOL    HW137403   3.660   3.714   6.969  0.7696 -2.6942 -1.2605
 8648SOL    HW237404   3.589   3.593   6.990  1.5213 -1.8285  1.9731
 8649SOL     OW37405   4.712   4.072  11.904 -0.6050  0.3731  0.1872
 8649SOL    HW137406   4.663   4.110  11.977  1.1022  0.2454  1.4052
 8649SOL    HW237407   4.716   4.152  11.852 -0.6270  0.9638  1.0887
 8650SOL     OW37408   1.006   4.127   8.667  0.3033  0.0333 -0.0850
 8650SOL    HW137409   0.929   4.072   8.659  0.2126 -0.0251  1.1505
 8650SOL    HW237410   0.964   4.213   8.660  1.1161  0.2528 -2.1831
 8651SOL     OW37411   2.999   3.322   8.989 -0.2129 -0.6540  0.3179
 8651SOL    HW137412   2.928   3.317   9.054 -0.2274 -0.4041  0.3228
 8651SOL    HW237413   3.021   3.230   8.979 -0.8910 -0.9741  1.7384
 8652SOL     OW37414   2.067   2.988   5.012 -0.1544 -0.5587 -0.5082
 8652SOL    HW137415   2.003   2.975   5.082 -0.7845  1.6232 -0.6935
 8652SOL    HW237416   2.139   3.028   5.062 -0.6450  0.0327 -0.2815
 8653SOL     OW37417   0.442   1.016  10.203 -0.1676  0.9230  0.2405
 8653SOL    HW137418   0.454   1.055  10.289  1.4265 -0.2621  0.5631
 8653SOL    HW237419   0.350   0.993  10.196  0.3287 -1.1923  0.4114
 8654SOL     OW37420   2.553   0.973   7.481  0.5334 -0.7891  0.0621
 8654SOL    HW137421   2.597   1.058   7.481 -1.5627  0.2965  0.2201
 8654SOL    HW237422   2.559   0.933   7.568  1.6112 -1.1647 -0.1837
 8655SOL     OW37423   4.265   3.319   6.490 -0.2044  0.1431  0.3167
 8655SOL    HW137424   4.195   3.370   6.531  0.4089 -0.2135  1.7946
 8655SOL    HW237425   4.346   3.350   6.531  0.1651 -1.3130  0.6814
 8656SOL     OW37426   3.880   1.399   5.111  0.3053  0.3604  0.5151
 8656SOL    HW137427   3.950   1.402   5.176 -1.1394  0.5596  2.0766
 8656SOL    HW237428   3.877   1.305   5.091 -0.6414  0.4263  0.3277
 8657SOL     OW37429   0.011   2.897   3.291 -0.6763  0.0234  0.1997
 8657SOL    HW137430   0.034   2.824   3.233  0.0869  0.1595  0.3387
 8657SOL    HW237431   0.043   2.976   3.248 -0.6999  0.0435  0.2189
 8658SOL     OW37432   0.760   0.053   9.280  0.3296  0.2631 -0.4498
 8658SOL    HW137433   0.688   0.014   9.329  0.2330 -0.4467 -1.1491
 8658SOL    HW237434   0.768   0.133   9.332  0.3450  0.9535 -1.5094
 8659SOL     OW37435   2.060   1.363  17.521  0.4763  0.0974  0.6529
 8659SOL    HW137436   2.027   1.452  17.529  0.1274  0.4253 -4.0964
 8659SOL    HW237437   2.145   1.372  17.564  1.2311 -0.6881 -0.6733
 8660SOL     OW37438   1.624   2.586   3.541 -0.1019 -0.4289 -0.0622
 8660SOL    HW137439   1.644   2.507   3.491 -0.1988 -1.1818  1.0919
 8660SOL    HW237440   1.619   2.658   3.478 -0.0039 -2.6661 -2.6158
 8661SOL     OW37441   3.276   3.107   6.303 -0.5757 -0.2318 -0.2734
 8661SOL    HW137442   3.343   3.070   6.359 -2.1968  0.5034  2.1279
 8661SOL    HW237443   3.212   3.140   6.366 -1.7793 -0.1269 -1.5391
 8662SOL     OW37444   3.218   1.083   4.719  0.6682 -0.6635 -0.1646
 8662SOL    HW137445   3.155   1.012   4.731  1.7586 -1.5892  0.0341
 8662SOL    HW237446   3.262   1.048   4.641  1.4172  1.7574 -0.8416
 8663SOL     OW37447   3.863   1.029   4.643  0.0691 -0.3399 -0.0483
 8663SOL    HW137448   3.879   1.070   4.728  1.1085  0.4070 -0.6009
 8663SOL    HW237449   3.777   1.056   4.610  0.8756  0.1654 -1.7675
 8664SOL     OW37450   0.517   0.374   1.165 -0.4346 -0.4290 -0.4897
 8664SOL    HW137451   0.592   0.326   1.200 -1.4371 -0.4555  1.6622
 8664SOL    HW237452   0.506   0.328   1.082 -1.7754 -0.3439 -0.3687
 8665SOL     OW37453   0.113   0.387   5.578 -0.3579  0.1816  0.0845
 8665SOL    HW137454   0.113   0.359   5.486 -3.4755 -1.7489  0.6784
 8665SOL    HW237455   0.029   0.433   5.575 -0.4479 -0.1283 -2.2146
 8666SOL     OW37456   3.775   4.109   0.089 -0.2766 -0.0686  0.6343
 8666SOL    HW137457   3.762   4.193   0.133 -1.4458 -0.9492  1.9980
 8666SOL    HW237458   3.865   4.101   0.057 -0.3887 -0.8205  0.5022
 8667SOL     OW37459   0.662   2.769   9.696  0.1224  0.6936  0.5528
 8667SOL    HW137460   0.583   2.716   9.696 -1.6818  3.4294 -0.9646
 8667SOL    HW237461   0.716   2.727   9.629  0.6436  0.5732  1.0426
 8668SOL     OW37462   1.677   0.594  17.252 -0.1759  0.0794  0.2830
 8668SOL    HW137463   1.689   0.506  17.216  2.3053 -0.6940  3.0653
 8668SOL    HW237464   1.759   0.592  17.301  0.2310  2.5143 -0.2880
 8669SOL     OW37465   3.250   0.952   5.458 -0.0358 -0.2365  0.0234
 8669SOL    HW137466   3.243   0.986   5.369  0.3060 -1.0459 -0.3115
 8669SOL    HW237467   3.303   0.873   5.449  2.5415  1.7352 -2.0844
 8670SOL     OW37468   4.582   2.829   4.419  0.1032 -0.1784  0.5560
 8670SOL    HW137469   4.625   2.804   4.501  1.3851 -2.1368 -0.7162
 8670SOL    HW237470   4.667   2.821   4.375 -0.4328  0.2338 -0.5458
 8671SOL     OW37471   4.255   4.438   7.799  0.4098  0.5988  0.1664
 8671SOL    HW137472   4.286   4.508   7.857  1.7559  1.5819 -1.7835
 8671SOL    HW237473   4.206   4.487   7.733  0.5487 -1.9170 -1.8090
 8672SOL     OW37474   2.240   4.516   2.265  0.3523 -0.2764  0.4969
 8672SOL    HW137475   2.286   4.582   2.316 -0.0361  0.2902  0.1184
 8672SOL    HW237476   2.195   4.462   2.329  0.6976  0.1959  1.1408
 8673SOL     OW37477   2.947   0.293   9.037  0.4885 -0.0974  0.7407
 8673SOL    HW137478   2.947   0.242   9.118  2.6146 -1.4875 -0.1190
 8673SOL    HW237479   2.895   0.228   8.991  1.1130  0.0877 -0.2300
 8674SOL     OW37480   3.774   2.682   8.984  0.5602 -0.1191  0.3153
 8674SOL    HW137481   3.686   2.661   9.015 -0.1770  0.4212 -1.4461
 8674SOL    HW237482   3.750   2.761   8.936  2.2922  0.3796  0.2586
 8675SOL     OW37483   1.221   0.723   7.264 -0.0283 -0.5289  1.5043
 8675SOL    HW137484   1.248   0.780   7.192 -1.1685 -1.8866  0.0071
 8675SOL    HW237485   1.126   0.728   7.255  0.0477  0.9423  1.6596
 8676SOL     OW37486   1.591   1.097   9.910  0.0574  0.3050 -0.3849
 8676SOL    HW137487   1.647   1.163   9.952  0.7039 -1.2839  1.2428
 8676SOL    HW237488   1.555   1.147   9.836  0.9459  2.0750  0.3633
 8677SOL     OW37489   3.062   3.749   4.293  0.4420 -0.0901  0.3052
 8677SOL    HW137490   3.131   3.814   4.280 -0.0351  0.6308  1.2954
 8677SOL    HW237491   3.098   3.671   4.252  1.3939  0.8748 -0.7144
 8678SOL     OW37492   2.730   2.034   4.057 -0.2539  0.1201  0.5313
 8678SOL    HW137493   2.716   2.004   3.967  0.2117  0.7257  0.2541
 8678SOL    HW237494   2.788   1.964   4.086 -0.2484 -0.5814 -1.1337
 8679SOL     OW37495   3.645   3.910   6.683  0.7715  0.3370 -0.2567
 8679SOL    HW137496   3.577   3.876   6.625  0.9503 -0.0862 -0.2194
 8679SOL    HW237497   3.685   3.832   6.722 -0.3396  1.0233  2.2610
 8680SOL     OW37498   0.430   0.572  17.637  0.1822 -0.1272 -0.4200
 8680SOL    HW137499   0.520   0.602  17.648  0.1420  0.4613 -1.6767
 8680SOL    HW237500   0.373   0.646  17.655 -0.3405 -0.9479  1.2964
 8681SOL     OW37501   1.126   1.800   8.389 -0.4840 -0.0359 -0.1770
 8681SOL    HW137502   1.214   1.837   8.387 -0.6191  0.4757  2.9123
 8681SOL    HW237503   1.103   1.828   8.477 -0.9715 -0.2539 -0.2340
 8682SOL     OW37504   3.134   4.361   1.553 -0.6366 -0.3546  0.1976
 8682SOL    HW137505   3.115   4.268   1.540  1.8478 -0.7979 -0.3507
 8682SOL    HW237506   3.227   4.353   1.575 -0.0426  0.7238 -1.9296
 8683SOL     OW37507   0.756   1.038   6.529 -0.0398 -0.1576 -0.7705
 8683SOL    HW137508   0.804   1.109   6.571  1.4144 -1.4571 -0.2178
 8683SOL    HW237509   0.685   1.089   6.492 -0.1160 -1.9234 -3.0818
 8684SOL     OW37510   2.186   2.522   5.624  0.4591  0.5076  0.1423
 8684SOL    HW137511   2.134   2.446   5.600  0.5171  0.6462 -0.4142
 8684SOL    HW237512   2.194   2.506   5.718  0.2646  1.1199  0.2657
 8685SOL     OW37513   3.303   3.427  11.206  0.0004  0.4206 -0.3752
 8685SOL    HW137514   3.328   3.498  11.146 -0.0063  0.0757 -0.7884
 8685SOL    HW237515   3.210   3.447  11.213  0.2027  0.6940  1.5498
 8686SOL     OW37516   0.347   0.537   4.290  0.6481  0.3092 -0.6429
 8686SOL    HW137517   0.438   0.559   4.307  1.2064 -2.0707 -0.5169
 8686SOL    HW237518   0.314   0.546   4.379 -1.4595 -1.5455 -1.2340
 8687SOL     OW37519   3.252   2.075   8.890 -0.2002  0.4387  0.1337
 8687SOL    HW137520   3.332   2.025   8.901 -1.6553 -2.0848 -0.6716
 8687SOL    HW237521   3.233   2.099   8.981 -3.4842 -4.0081  0.6188
 8688SOL     OW37522   0.962   2.728  13.143 -0.8019  0.0727 -0.1723
 8688SOL    HW137523   0.939   2.736  13.235  1.7884  1.6683  0.3402
 8688SOL    HW237524   1.039   2.785  13.140 -0.0790 -0.8597  1.1832
 8689SOL     OW37525   2.498   0.154  11.471  0.0546  0.2813  0.6603
 8689SOL    HW137526   2.475   0.078  11.525  0.4540 -2.0336 -2.3638
 8689SOL    HW237527   2.417   0.162  11.422  0.3315 -0.6563  0.0327
 8690SOL     OW37528   0.474   4.080   5.870  0.7999 -0.1741 -0.0593
 8690SOL    HW137529   0.437   4.037   5.792  2.2916 -2.4785  0.5185
 8690SOL    HW237530   0.535   4.017   5.908  1.9050  0.0101 -1.4880
 8691SOL     OW37531   0.835   1.425  13.817  0.5295  0.5776 -0.6741
 8691SOL    HW137532   0.822   1.397  13.907  0.9612  0.3106 -0.6960
 8691SOL    HW237533   0.787   1.508  13.817  2.4527  1.6905  0.9751
 8692SOL     OW37534   3.471   0.795   8.815  0.9599 -1.0360  0.1609
 8692SOL    HW137535   3.554   0.836   8.839  0.0807  0.4486  0.6511
 8692SOL    HW237536   3.475   0.803   8.720  2.2119  0.3332  0.3283
 8693SOL     OW37537   2.787   1.658   8.952 -0.4651  0.2295  0.8185
 8693SOL    HW137538   2.865   1.713   8.962 -1.2300  1.6770 -1.2140
 8693SOL    HW237539   2.814   1.574   8.988  0.6636  0.1289 -0.2722
 8694SOL     OW37540   0.777   1.053  17.478  0.2372  0.0692 -0.4590
 8694SOL    HW137541   0.784   1.083  17.568  0.8792  0.0810 -0.5162
 8694SOL    HW237542   0.753   0.960  17.479  0.3760  0.0316 -0.5677
 8695SOL     OW37543   2.844   0.040   9.821  0.5897  0.3242 -0.5804
 8695SOL    HW137544   2.817   0.090   9.898 -0.7435  0.0608 -0.8710
 8695SOL    HW237545   2.801   0.099   9.760 -0.0421 -0.8422 -1.2655
 8696SOL     OW37546   1.588   4.370   3.454  0.1800  0.1460 -0.3645
 8696SOL    HW137547   1.592   4.283   3.415 -0.7785  0.6350 -1.5624
 8696SOL    HW237548   1.512   4.360   3.512 -1.0384 -1.0660 -2.1645
 8697SOL     OW37549   0.221   0.814   0.030 -0.3327 -0.5253  0.9893
 8697SOL    HW137550   0.205   0.828  17.621  1.6179  0.5905  0.8117
 8697SOL    HW237551   0.228   0.905   0.058 -3.1698 -0.1668  0.5187
 8698SOL     OW37552   3.950   2.548  15.734 -0.6417 -0.0578  0.0599
 8698SOL    HW137553   3.974   2.492  15.807  0.4272  2.2170  1.4243
 8698SOL    HW237554   3.902   2.616  15.782 -0.1256  1.2436 -1.2631
 8699SOL     OW37555   2.746   4.635   5.605  0.4170  0.7052  0.1184
 8699SOL    HW137556   2.835   4.657   5.580  0.5534 -1.1533 -1.0764
 8699SOL    HW237557   2.777   4.575   5.673  2.3781  0.0168 -1.3957
 8700SOL     OW37558   0.653   2.034   3.720  0.5256  0.6408 -0.3521
 8700SOL    HW137559   0.739   2.071   3.740  0.8118 -1.9188  3.1393
 8700SOL    HW237560   0.597   2.091   3.772 -0.8736 -0.9232 -0.1292
 8701SOL     OW37561   0.317   1.504   9.854 -0.3776  0.0729 -0.8838
 8701SOL    HW137562   0.406   1.491   9.821 -0.8982 -2.2322 -1.3498
 8701SOL    HW237563   0.333   1.530   9.944  0.1572 -0.2957 -0.8748
 8702SOL     OW37564   2.432   2.377   4.454 -0.2720 -0.0096  0.6022
 8702SOL    HW137565   2.471   2.443   4.397 -1.5178  0.3263  0.1467
 8702SOL    HW237566   2.499   2.375   4.522 -0.5252  3.3968  0.9640
 8703SOL     OW37567   1.002   0.245  17.435  0.5400 -0.4566  0.0478
 8703SOL    HW137568   1.062   0.315  17.462  0.6800 -0.6651  0.2829
 8703SOL    HW237569   1.005   0.269  17.343 -1.7939  3.0822  0.8996
 8704SOL     OW37570   2.327   1.810   4.648 -0.2899 -0.1473  0.1406
 8704SOL    HW137571   2.290   1.860   4.575  1.9132  1.4799  0.1413
 8704SOL    HW237572   2.421   1.820   4.633 -0.4701  1.5836  0.2243
 8705SOL     OW37573   3.627   1.515   6.252  1.0994  0.7722  0.2153
 8705SOL    HW137574   3.684   1.466   6.192  0.0378  0.7525 -0.7836
 8705SOL    HW237575   3.606   1.589   6.194  1.7602  2.2475  1.8746
 8706SOL     OW37576   2.261   4.043   5.350 -0.6881 -0.4437 -0.3609
 8706SOL    HW137577   2.215   4.063   5.268 -0.2456 -1.0556 -0.7622
 8706SOL    HW237578   2.353   4.048   5.324 -0.8672 -0.5761 -1.0334
 8707SOL     OW37579   3.419   1.626   3.131  0.6109  0.2153  0.3157
 8707SOL    HW137580   3.494   1.670   3.093  1.4639  0.6316  2.4514
 8707SOL    HW237581   3.341   1.657   3.085  1.4072  1.3298 -0.2657
 8708SOL     OW37582   1.235   3.319  15.547  0.6852 -0.1952 -0.4286
 8708SOL    HW137583   1.264   3.387  15.608 -1.7176 -1.1133  1.7257
 8708SOL    HW237584   1.244   3.364  15.462 -0.0988 -1.0693 -0.9690
 8709SOL     OW37585   2.835   1.017   9.925 -0.4809  0.2486 -0.0573
 8709SOL    HW137586   2.771   0.947   9.920 -0.4130  0.2559 -0.9609
 8709SOL    HW237587   2.881   1.014   9.841  0.3923  0.0069  0.4271
 8710SOL     OW37588   1.877   4.708   0.453  0.3358  0.1548 -0.4497
 8710SOL    HW137589   1.867   4.625   0.407  1.5703 -0.2847  0.0846
 8710SOL    HW237590   1.933   4.682   0.526 -0.2261 -0.5546 -0.2741
 8711SOL     OW37591   0.092   1.639   6.530 -0.2491  0.5564 -0.4825
 8711SOL    HW137592   0.158   1.642   6.462 -0.6204  1.7315 -0.7928
 8711SOL    HW237593   0.144   1.685   6.596 -0.9475 -1.9347  1.7689
 8712SOL     OW37594   4.311   1.658   7.993 -0.0722  0.4243 -0.2287
 8712SOL    HW137595   4.230   1.696   7.959  0.0085 -0.2406 -1.1594
 8712SOL    HW237596   4.316   1.578   7.941 -0.3187 -0.8730  1.7798
 8713SOL     OW37597   0.019   4.443   2.074 -0.0479  0.3507  0.1708
 8713SOL    HW137598   4.679   4.391   2.127  0.7766  0.4442  1.2132
 8713SOL    HW237599   4.703   4.531   2.065 -0.0553  0.4102  0.7532
 8714SOL     OW37600   0.961   3.963   6.484  0.5641 -0.4352 -0.0674
 8714SOL    HW137601   0.953   3.925   6.396  1.2978  1.0183 -0.7667
 8714SOL    HW237602   0.977   4.057   6.477 -1.2370 -0.0655  0.7931
 8715SOL     OW37603   2.001   0.816   2.601 -0.7920 -0.4162  0.8913
 8715SOL    HW137604   2.069   0.839   2.664 -0.7957  1.0821  0.3428
 8715SOL    HW237605   1.934   0.785   2.662 -1.6518  0.6959  0.5160
 8716SOL     OW37606   4.424   1.691  12.098  0.1914 -0.4502  1.1137
 8716SOL    HW137607   4.514   1.724  12.105 -1.2001  3.3796  0.4171
 8716SOL    HW237608   4.444   1.612  12.149  1.4059 -1.3834 -0.7951
 8717SOL     OW37609   4.427   1.979   8.441  0.2947 -0.1006 -0.8361
 8717SOL    HW137610   4.455   1.963   8.530 -0.7365 -0.6451 -0.6015
 8717SOL    HW237611   4.394   1.894   8.411 -0.8907 -1.3177  3.9073
 8718SOL     OW37612   3.413   2.256   5.763 -0.2439  0.0188 -0.0435
 8718SOL    HW137613   3.353   2.228   5.832 -0.4267  1.0007  0.1971
 8718SOL    HW237614   3.414   2.172   5.717  0.1870 -0.2322  0.4340
 8719SOL     OW37615   2.435   3.817   9.530 -0.1689  0.2013 -0.5302
 8719SOL    HW137616   2.379   3.849   9.459 -0.0706  1.0959 -0.2110
 8719SOL    HW237617   2.367   3.806   9.596 -1.2215  3.3237 -1.0766
 8720SOL     OW37618   3.666   2.133   0.010 -0.2431  0.0576  0.0371
 8720SOL    HW137619   3.692   2.046  17.663 -0.2002 -0.1968  0.7944
 8720SOL    HW237620   3.750   2.179   0.007  0.6821 -1.4297  3.4864
 8721SOL     OW37621   1.917   4.191   2.639  0.1473 -0.1025  0.1494
 8721SOL    HW137622   2.010   4.172   2.647  0.0897 -0.5769 -0.2923
 8721SOL    HW237623   1.887   4.143   2.562 -0.3741  2.5195 -1.3010
 8722SOL     OW37624   3.990   4.432   6.694 -0.3683  0.6135  0.2244
 8722SOL    HW137625   3.951   4.391   6.771 -2.2988  1.2961 -0.3847
 8722SOL    HW237626   4.066   4.375   6.694 -1.0162 -0.2415 -0.1416
 8723SOL     OW37627   3.838   1.450  17.493 -0.4755 -0.3138  0.1601
 8723SOL    HW137628   3.827   1.535  17.452  2.2226 -0.2213 -0.3285
 8723SOL    HW237629   3.888   1.465  17.573  0.0631  1.4855 -0.5327
 8724SOL     OW37630   3.633   3.886   0.117  0.0628  0.1017 -0.0092
 8724SOL    HW137631   3.690   3.962   0.105  1.7367 -0.9898  0.9085
 8724SOL    HW237632   3.595   3.912   0.201 -1.5146  1.2574 -1.0815
 8725SOL     OW37633   2.760   3.955   3.272 -0.4588 -0.2870  0.1524
 8725SOL    HW137634   2.848   3.989   3.289  0.0832 -1.0267 -1.1492
 8725SOL    HW237635   2.739   3.989   3.185 -0.0449  0.6506  0.4197
 8726SOL     OW37636   0.325   2.697  13.279  0.1995  0.0047 -0.1520
 8726SOL    HW137637   0.307   2.750  13.357  3.1216 -0.3930  0.7689
 8726SOL    HW237638   0.241   2.658  13.254  0.9278 -1.4254 -0.3785
 8727SOL     OW37639   0.466   3.508   0.268 -0.3678 -0.3077  0.0220
 8727SOL    HW137640   0.506   3.471   0.347  0.8509  1.0258  0.0146
 8727SOL    HW237641   0.536   3.569   0.246 -0.1795  0.3495  2.5283
 8728SOL     OW37642   3.136   3.711   7.428 -0.1271 -0.4315 -0.2439
 8728SOL    HW137643   3.087   3.687   7.349 -1.6971 -1.9579  1.2149
 8728SOL    HW237644   3.085   3.680   7.502  1.6699 -2.2320  0.2338
 8729SOL     OW37645   3.130   0.035   5.855  0.1846  0.0018  0.7359
 8729SOL    HW137646   3.102   0.090   5.781 -0.8711 -0.6650  0.6364
 8729SOL    HW237647   3.201   4.718   5.804 -0.0953  1.9805 -1.1559
 8730SOL     OW37648   2.187   0.189   9.849  0.0440  0.0271 -0.3277
 8730SOL    HW137649   2.103   0.231   9.833  0.6521  2.4980  2.8542
 8730SOL    HW237650   2.201   0.191   9.944 -0.4929 -1.1796 -0.2258
 8731SOL     OW37651   3.508   2.401   3.507  0.1044 -0.2179  0.0366
 8731SOL    HW137652   3.418   2.430   3.492 -0.1560  0.2435  2.4907
 8731SOL    HW237653   3.551   2.483   3.531  0.5708 -1.1477  2.3943
 8732SOL     OW37654   4.057   2.340   6.462  0.5126 -0.3977  0.0351
 8732SOL    HW137655   4.098   2.253   6.460 -0.6172 -0.9195 -0.2715
 8732SOL    HW237656   3.991   2.348   6.530 -0.2382 -1.5411 -0.5637
 8733SOL     OW37657   1.930   2.560   4.577 -0.5253  0.0101 -0.0083
 8733SOL    HW137658   1.848   2.610   4.585 -1.4702 -2.0637  3.4520
 8733SOL    HW237659   1.916   2.528   4.489 -1.8951 -0.5520  0.4069
 8734SOL     OW37660   2.499   1.555  15.808  0.4807  0.1490 -0.2357
 8734SOL    HW137661   2.420   1.516  15.769  0.6002  1.2557 -1.6047
 8734SOL    HW237662   2.484   1.646  15.781  1.6939  0.5206  0.3884
 8735SOL     OW37663   4.628   2.288   7.654  0.0881 -0.0506  0.0621
 8735SOL    HW137664   4.618   2.314   7.746 -0.2272 -0.1581  0.0605
 8735SOL    HW237665   4.720   2.262   7.648  1.0277  2.7896  2.3138
 8736SOL     OW37666   0.130   2.805   5.560 -0.1894  0.1633  0.1642
 8736SOL    HW137667   0.195   2.864   5.598  0.2748  0.7948 -1.5808
 8736SOL    HW237668   0.116   2.840   5.472  0.2931  1.0072  0.4204
 8737SOL     OW37669   0.843   1.042  16.602  0.0929  0.5853  0.0056
 8737SOL    HW137670   0.920   1.091  16.574 -1.2020  1.1836 -2.4873
 8737SOL    HW237671   0.786   1.116  16.623  1.7799  2.1308 -0.8296
 8738SOL     OW37672   1.195   1.484   9.565 -0.1814 -0.1636  0.2786
 8738SOL    HW137673   1.213   1.413   9.627  0.1680 -0.7184 -0.4614
 8738SOL    HW237674   1.111   1.525   9.587 -1.2096 -2.8568  1.2833
 8739SOL     OW37675   4.444   0.151   4.028 -0.1412  0.1358 -0.0239
 8739SOL    HW137676   4.503   0.214   3.987  0.1358 -0.8111 -1.1001
 8739SOL    HW237677   4.450   0.083   3.961 -3.6171  0.8099 -1.0534
 8740SOL     OW37678   2.899   0.616   8.761 -0.2114  0.4139 -0.1253
 8740SOL    HW137679   2.935   0.670   8.831  0.8764  0.0044 -0.3705
 8740SOL    HW237680   2.917   0.670   8.684  1.3821 -0.6247 -0.4757
 8741SOL     OW37681   0.625   1.608   8.638 -0.4929 -0.0380 -0.5097
 8741SOL    HW137682   0.543   1.643   8.606 -0.3724  0.3033 -0.4392
 8741SOL    HW237683   0.603   1.516   8.654 -0.3765  0.4219  2.3673
 8742SOL     OW37684   4.161   3.154   7.160  0.2377 -0.7604  0.3817
 8742SOL    HW137685   4.193   3.101   7.234 -0.5125  0.2881  1.4366
 8742SOL    HW237686   4.067   3.136   7.162 -0.3795  2.5045 -0.3688
 8743SOL     OW37687   4.701   3.736   0.428  0.1222 -0.1693 -0.2708
 8743SOL    HW137688   4.676   3.811   0.375  0.3889 -1.0204 -1.6207
 8743SOL    HW237689   4.703   3.680   0.350  0.4568  1.5832 -1.5133
 8744SOL     OW37690   1.210   1.854   7.070  0.2213  0.1118  0.4530
 8744SOL    HW137691   1.300   1.845   7.038 -0.6947  1.3013 -2.4753
 8744SOL    HW237692   1.164   1.790   7.016  1.1004 -0.6060  0.5439
 8745SOL     OW37693   4.509   2.138  12.601 -0.4158 -0.0268 -0.2136
 8745SOL    HW137694   4.526   2.196  12.675  1.3952 -2.5094  1.3167
 8745SOL    HW237695   4.434   2.175  12.554  0.6779  0.0586 -1.8753
 8746SOL     OW37696   0.863   0.433  10.524  0.2262 -0.0821  0.2484
 8746SOL    HW137697   0.875   0.375  10.600  0.0641  0.3327  0.5930
 8746SOL    HW237698   0.950   0.427  10.485  0.6779  0.0939  1.2295
 8747SOL     OW37699   2.960   0.465   4.911 -0.1799  0.5053 -0.0532
 8747SOL    HW137700   2.977   0.439   4.821 -0.7776 -2.1808  0.6107
 8747SOL    HW237701   2.905   0.540   4.890 -1.6910 -0.3348  0.9197
 8748SOL     OW37702   4.583   3.976   8.663 -0.7089 -0.2095 -0.1094
 8748SOL    HW137703   4.640   3.956   8.738 -2.0990 -2.8253  0.2621
 8748SOL    HW237704   4.513   3.913   8.680 -0.6884 -0.3873 -0.6919
 8749SOL     OW37705   1.641   2.264   6.592 -0.1798 -0.3104  0.2892
 8749SOL    HW137706   1.607   2.176   6.577 -1.8960  0.0244  2.2097
 8749SOL    HW237707   1.734   2.248   6.577  0.4473  1.4140  2.3045
 8750SOL     OW37708   2.143   2.138   3.657  0.3271 -0.4313  0.3441
 8750SOL    HW137709   2.096   2.094   3.728  1.3418 -1.1067  0.5970
 8750SOL    HW237710   2.212   2.189   3.699  1.5936 -1.7599 -0.1163
 8751SOL     OW37711   2.787   1.845   6.895 -0.6693 -0.1307 -0.6273
 8751SOL    HW137712   2.713   1.861   6.953  1.2198  0.1072  1.7103
 8751SOL    HW237713   2.795   1.749   6.898  0.8531 -0.0092 -0.5736
 8752SOL     OW37714   4.717   0.778   6.516  0.5212 -0.2050  0.1447
 8752SOL    HW137715   0.001   0.874   6.522 -2.7598 -0.2619  3.0128
 8752SOL    HW237716   4.719   0.748   6.606 -2.4314  1.8415  0.8925
 8753SOL     OW37717   4.520   0.789   5.931 -0.0133  0.5156 -0.5287
 8753SOL    HW137718   4.454   0.725   5.902  0.5035 -0.1671 -0.2043
 8753SOL    HW237719   4.585   0.722   5.953  0.4620  0.3024 -2.5287
 8754SOL     OW37720   3.039   1.333  16.220 -0.1930  0.0263 -0.2983
 8754SOL    HW137721   3.103   1.331  16.149  0.5937 -0.2325  0.4154
 8754SOL    HW237722   3.017   1.241  16.214 -1.5695  0.3605 -0.2330
 8755SOL     OW37723   2.455   0.532   2.356  0.6065 -0.3462  0.1593
 8755SOL    HW137724   2.465   0.582   2.276 -3.2574  0.2523  0.0711
 8755SOL    HW237725   2.542   0.548   2.393  0.0663  0.7184  0.9932
 8756SOL     OW37726   2.468   0.024   6.363 -0.6186 -0.7216  0.5275
 8756SOL    HW137727   2.494   4.704   6.446  2.4418 -1.2907 -0.7141
 8756SOL    HW237728   2.483   0.118   6.374  1.1965 -1.1492  1.8063
 8757SOL     OW37729   3.528   0.048   6.937 -0.0829 -0.3640 -0.0111
 8757SOL    HW137730   3.496   0.073   7.023 -0.6785  0.7409 -0.5628
 8757SOL    HW237731   3.549   4.675   6.937 -0.5890 -0.4747 -0.9725
 8758SOL     OW37732   1.968   0.579  16.831 -1.0093 -0.4647 -0.5735
 8758SOL    HW137733   2.057   0.543  16.826 -0.3240  1.1205  0.1935
 8758SOL    HW237734   1.970   0.639  16.756  1.1425  0.9058  0.5832
 8759SOL     OW37735   3.621   1.944   7.979  0.1177 -0.5819  0.4448
 8759SOL    HW137736   3.614   2.037   8.001  0.1321  0.1811 -2.8878
 8759SOL    HW237737   3.629   1.917   8.071  0.9471 -0.4723  0.3997
 8760SOL     OW37738   0.980   2.890  10.751  0.1843  0.4393  0.3041
 8760SOL    HW137739   0.907   2.907  10.810  0.0425 -1.4203  0.6533
 8760SOL    HW237740   1.005   2.980  10.727 -0.8310  1.1085  1.8128
 8761SOL     OW37741   0.843   1.020   2.960 -0.3122  0.2254 -0.1552
 8761SOL    HW137742   0.819   1.109   2.935 -0.7884  0.4203  0.9952
 8761SOL    HW237743   0.916   1.040   3.019 -0.0221  0.1702 -0.4900
 8762SOL     OW37744   3.761   2.930   3.869  0.4286 -0.0836  0.1970
 8762SOL    HW137745   3.814   2.877   3.929 -0.2070 -3.7260 -2.4208
 8762SOL    HW237746   3.791   3.020   3.880 -1.5542  0.5393  0.5534
 8763SOL     OW37747   4.335   4.592   6.362 -0.1280  0.2294  0.5422
 8763SOL    HW137748   4.337   4.663   6.427 -1.5112  0.7145  0.0483
 8763SOL    HW237749   4.245   4.567   6.383 -0.3376 -0.1708 -0.8849
 8764SOL     OW37750   3.367   1.827   0.246 -0.0165 -0.6253  0.0966
 8764SOL    HW137751   3.355   1.894   0.178  0.3970  2.5616  3.1609
 8764SOL    HW237752   3.337   1.875   0.323  3.2215  1.1337  0.2652
 8765SOL     OW37753   0.079   2.661   6.155 -0.0046 -0.0072  0.0017
 8765SOL    HW137754   0.004   2.719   6.147 -1.1151 -1.2249  1.7413
 8765SOL    HW237755   0.076   2.625   6.244  2.2829  1.2703  0.6190
 8766SOL     OW37756   0.448   0.150   4.329  0.2594 -0.3133 -0.1771
 8766SOL    HW137757   0.472   0.191   4.413  0.4227 -1.7974  0.5062
 8766SOL    HW237758   0.427   0.067   4.372  0.5647  0.2605  1.1112
 8767SOL     OW37759   2.089   2.177  13.010 -0.6076  0.2091  0.3247
 8767SOL    HW137760   2.033   2.225  12.948 -1.4192 -0.9763  0.1397
 8767SOL    HW237761   2.112   2.106  12.951  0.1114 -0.2127  1.1178
 8768SOL     OW37762   3.892   3.468   2.666 -0.1825  0.0669  0.2703
 8768SOL    HW137763   3.886   3.456   2.761 -1.4647 -0.6650  0.0914
 8768SOL    HW237764   3.908   3.380   2.631  1.1124 -0.4775  2.2493
 8769SOL     OW37765   0.289   2.808  11.941  0.4828 -0.3428  0.1540
 8769SOL    HW137766   0.268   2.746  12.011 -1.8656  1.4550  1.0266
 8769SOL    HW237767   0.332   2.739  11.890  2.7749  0.3366  1.1368
 8770SOL     OW37768   0.457   3.482   3.007  0.5755 -0.3662  0.9380
 8770SOL    HW137769   0.429   3.563   3.050  0.3900 -0.2658  0.6238
 8770SOL    HW237770   0.549   3.501   2.988 -0.0661 -0.4596 -2.2181
 8771SOL     OW37771   3.593   3.296  15.759  0.2543 -0.1147 -0.5627
 8771SOL    HW137772   3.607   3.362  15.691 -1.4264  0.0995 -0.7186
 8771SOL    HW237773   3.676   3.305  15.805 -0.7817 -2.5028  1.8353
 8772SOL     OW37774   2.698   4.643  10.635  0.2448 -0.1390  0.6477
 8772SOL    HW137775   2.622   4.687  10.673  0.7459  1.0921  0.2380
 8772SOL    HW237776   2.681   4.560  10.679  2.2405 -1.3396 -0.8745
 8773SOL     OW37777   0.792   3.508   8.331  0.5079  0.2459  0.2541
 8773SOL    HW137778   0.783   3.587   8.278  0.2707  0.7780  1.0882
 8773SOL    HW237779   0.814   3.445   8.262 -1.7075  1.6666 -1.7780
 8774SOL     OW37780   3.986   1.167   2.333 -0.2165  0.3930  0.4058
 8774SOL    HW137781   4.065   1.145   2.382 -1.5856 -3.1506  1.0257
 8774SOL    HW237782   3.926   1.136   2.400 -0.3372  1.2839  0.7127
 8775SOL     OW37783   3.317   1.065   8.816 -0.4380  0.4568  0.2462
 8775SOL    HW137784   3.354   0.989   8.861  2.1691  1.9950  0.7486
 8775SOL    HW237785   3.246   1.098   8.871  0.4079  1.9893  0.4473
 8776SOL     OW37786   4.589   2.956  15.478  0.1225 -0.2649  0.2084
 8776SOL    HW137787   4.659   3.002  15.432 -0.7993 -0.7970 -1.7668
 8776SOL    HW237788   4.594   2.869  15.437 -0.2162 -0.0873 -0.2087
 8777SOL     OW37789   1.782   0.801   9.703  0.2897  0.4037  0.9436
 8777SOL    HW137790   1.719   0.735   9.676  0.6156 -0.3394  2.0051
 8777SOL    HW237791   1.772   0.790   9.798 -0.7954  1.9057  1.0078
 8778SOL     OW37792   3.664   0.084   2.331 -0.0472  0.4244  0.3446
 8778SOL    HW137793   3.717   0.157   2.362 -2.5492  2.1272  0.5958
 8778SOL    HW237794   3.710   0.047   2.255  0.3607  0.4530  0.5756
 8779SOL     OW37795   4.282   0.557   2.799 -0.2734 -0.1173 -0.6629
 8779SOL    HW137796   4.206   0.510   2.764 -2.1089  1.0926  1.7155
 8779SOL    HW237797   4.279   0.528   2.890  0.1159 -0.3119 -0.7147
 8780SOL     OW37798   1.056   3.220   6.850  0.0291 -0.2487  0.2857
 8780SOL    HW137799   1.129   3.188   6.797  2.1074 -1.3552  3.7873
 8780SOL    HW237800   1.019   3.134   6.872 -1.2113  0.4648  0.9874
 8781SOL     OW37801   3.238   1.325   4.985  0.4898  0.0593  0.2836
 8781SOL    HW137802   3.307   1.267   4.952 -0.9736  0.0777 -2.7858
 8781SOL    HW237803   3.195   1.340   4.901  0.5996 -2.5128 -0.2429
 8782SOL     OW37804   1.517   1.605   0.000 -0.0993 -0.1041 -0.3004
 8782SOL    HW137805   1.550   1.676   0.056  0.4470 -0.7973  0.2679
 8782SOL    HW237806   1.600   1.562  17.664 -0.3190 -1.2183  1.0408
 8783SOL     OW37807   1.263   4.097   8.727  0.2943 -0.1394 -0.4284
 8783SOL    HW137808   1.176   4.085   8.688  0.8551 -3.3000 -0.7062
 8783SOL    HW237809   1.301   4.168   8.676  1.4720  1.0573  2.0767
 8784SOL     OW37810   4.218   1.202   1.392  0.1640 -0.0794  0.0935
 8784SOL    HW137811   4.206   1.190   1.297  0.7461 -0.4015  0.0613
 8784SOL    HW237812   4.145   1.149   1.424 -1.0658  1.5679 -0.0094
 8785SOL     OW37813   1.877   0.166   7.601 -0.1176 -0.6480  0.3488
 8785SOL    HW137814   1.928   0.141   7.524  1.4277 -0.5144  1.3265
 8785SOL    HW237815   1.940   0.148   7.670 -0.1785  1.2057  0.8697
 8786SOL     OW37816   0.717   1.308   5.509 -0.2989 -0.0692 -0.1273
 8786SOL    HW137817   0.757   1.232   5.551  0.9301  0.0406 -1.0819
 8786SOL    HW237818   0.703   1.264   5.425 -1.2959  1.0257 -0.5248
 8787SOL     OW37819   3.275   2.796  14.080 -0.2774 -0.4932  0.0477
 8787SOL    HW137820   3.286   2.884  14.044 -0.3845  0.0177  1.2529
 8787SOL    HW237821   3.190   2.780  14.038 -0.1753 -3.3602  0.8949
 8788SOL     OW37822   2.884   2.424  17.683 -0.3728  0.0370 -0.0978
 8788SOL    HW137823   2.938   2.444   0.075  0.2184 -0.0296 -0.4961
 8788SOL    HW237824   2.831   2.502  17.668 -0.2341  0.2977  0.7554
 8789SOL     OW37825   3.418   3.496  12.457 -0.1608 -0.2005  0.2620
 8789SOL    HW137826   3.428   3.404  12.434 -2.7646 -0.4979  0.3071
 8789SOL    HW237827   3.323   3.498  12.443 -0.0138 -1.4212 -0.9124
 8790SOL     OW37828   0.869   2.602  11.916  0.3089 -0.0042 -0.0580
 8790SOL    HW137829   0.915   2.591  11.833 -1.5377 -2.3195 -0.7695
 8790SOL    HW237830   0.804   2.532  11.915  0.5224 -0.1949 -1.3694
 8791SOL     OW37831   2.021   2.992   6.650  0.2034 -0.5409 -0.1743
 8791SOL    HW137832   2.056   3.062   6.706 -1.1609  0.5934 -0.7603
 8791SOL    HW237833   2.038   3.027   6.563 -0.4956  0.8895  0.2665
 8792SOL     OW37834   3.637   0.853   6.862 -0.1481  0.1701 -0.0485
 8792SOL    HW137835   3.577   0.779   6.849  0.5824 -0.9292  2.7655
 8792SOL    HW237836   3.576   0.909   6.910  0.3511  0.8099 -0.1607
 8793SOL     OW37837   1.028   0.226   8.547  0.0185 -0.0965 -0.2931
 8793SOL    HW137838   0.982   0.144   8.533 -2.9159  1.5058 -0.2242
 8793SOL    HW237839   1.036   0.235   8.642  0.6187  2.0816 -0.5381
 8794SOL     OW37840   1.237   2.796   6.451 -0.2508  0.4792 -0.4142
 8794SOL    HW137841   1.283   2.724   6.495 -2.3986 -0.9166 -0.4802
 8794SOL    HW237842   1.217   2.843   6.532 -0.1166 -0.5860  0.2376
 8795SOL     OW37843   2.685   3.839   4.325 -0.3368  0.5794  0.7425
 8795SOL    HW137844   2.675   3.777   4.397  0.2401 -1.3282 -0.8001
 8795SOL    HW237845   2.613   3.807   4.270  1.0876 -2.4997  0.6359
 8796SOL     OW37846   1.968   4.625   2.147  0.4090  0.2187  0.9892
 8796SOL    HW137847   2.055   4.652   2.178  1.6673 -4.2344  1.4786
 8796SOL    HW237848   1.987   4.560   2.079 -1.6704  1.3279 -0.6262
 8797SOL     OW37849   1.297   0.148   6.267 -0.0496  0.1154  0.4321
 8797SOL    HW137850   1.333   0.203   6.337 -1.3654  0.3743  0.9052
 8797SOL    HW237851   1.208   0.137   6.299  0.1681 -0.4756  0.8227
 8798SOL     OW37852   4.445   0.882   6.599 -0.3133  0.4406  0.2789
 8798SOL    HW137853   4.425   0.806   6.654 -1.2680 -0.8970 -1.9422
 8798SOL    HW237854   4.496   0.852   6.523 -2.3583  1.2978 -1.4267
 8799SOL     OW37855   1.363   3.354   7.661 -0.3114  0.3242 -0.3056
 8799SOL    HW137856   1.274   3.319   7.672 -0.4827  0.8902  0.1180
 8799SOL    HW237857   1.363   3.401   7.744 -1.6217 -1.6997  0.8524
 8800SOL     OW37858   0.248   2.527   9.661  0.8049 -0.0475  0.6020
 8800SOL    HW137859   0.343   2.520   9.670  1.0844 -0.1517 -2.1855
 8800SOL    HW237860   0.246   2.614   9.621  0.7129 -0.1553  0.3681
 8801SOL     OW37861   1.210   2.096   7.481 -0.3812  0.0735 -0.5575
 8801SOL    HW137862   1.231   2.145   7.402 -1.4620  0.3842 -0.6511
 8801SOL    HW237863   1.189   2.007   7.451 -1.1210  0.5204 -1.3566
 8802SOL     OW37864   4.404   3.133  15.542  0.1478  0.3950  0.3485
 8802SOL    HW137865   4.359   3.106  15.622  0.8485 -1.2673  0.1669
 8802SOL    HW237866   4.452   3.053  15.524 -0.2412  0.0650  0.7938
 8803SOL     OW37867   2.001   0.200  14.253 -0.3337  0.1999  0.0042
 8803SOL    HW137868   2.079   0.246  14.284  0.7143 -1.2566 -0.4530
 8803SOL    HW237869   1.936   0.269  14.242 -0.3640  0.0519 -0.7505
 8804SOL     OW37870   2.663   0.073   0.921  0.3549 -0.3721 -0.4489
 8804SOL    HW137871   2.658   0.016   0.998 -1.8972 -1.1731 -1.1833
 8804SOL    HW237872   2.717   0.146   0.953  4.0418 -2.5495 -1.8294
 8805SOL     OW37873   0.074   3.456   7.781  0.1212  0.4002  0.0534
 8805SOL    HW137874   0.073   3.414   7.695  0.7851 -1.1371  0.7975
 8805SOL    HW237875   0.128   3.531   7.754  1.4036 -0.5272  0.0203
 8806SOL     OW37876   2.715   3.339   9.514 -0.1311 -0.2645 -0.4026
 8806SOL    HW137877   2.729   3.318   9.422  0.8952  0.8414 -0.5074
 8806SOL    HW237878   2.806   3.349   9.542  0.1737  2.7825 -2.4615
 8807SOL     OW37879   4.139   3.877   9.660 -0.1718 -0.1190  0.1536
 8807SOL    HW137880   4.178   3.858   9.746 -1.2193 -0.1411  0.6251
 8807SOL    HW237881   4.129   3.790   9.621  1.9744  0.1653 -1.0061
 8808SOL     OW37882   2.834   4.644   6.666 -1.0551  0.3121 -0.1290
 8808SOL    HW137883   2.927   4.624   6.656 -1.6332 -1.6807 -1.4987
 8808SOL    HW237884   2.804   4.559   6.636 -1.2682  1.0277 -1.9653
 8809SOL     OW37885   4.666   0.143  10.647 -0.1171 -0.3335  0.0697
 8809SOL    HW137886   4.654   0.233  10.677  0.0541 -0.4185  0.3929
 8809SOL    HW237887   0.041   0.145  10.651 -0.0767  1.7869 -2.0387
 8810SOL     OW37888   2.183   1.262  13.170 -0.4393 -0.8970 -0.1841
 8810SOL    HW137889   2.167   1.336  13.112 -2.1002 -0.1262  1.2653
 8810SOL    HW237890   2.224   1.310  13.243  1.0917  0.1477 -1.7231
 8811SOL     OW37891   1.061   0.347   2.216 -0.3273 -0.1101 -0.4355
 8811SOL    HW137892   1.087   0.258   2.193 -0.3205 -0.2253  0.0018
 8811SOL    HW237893   1.096   0.345   2.306  0.6733  0.8466 -0.8036
 8812SOL     OW37894   4.701   1.066   2.845  0.0788  0.5764 -0.3561
 8812SOL    HW137895   0.018   1.052   2.758 -1.3662 -1.5391 -0.6526
 8812SOL    HW237896   0.052   1.074   2.907  0.0022  0.7019 -0.2828
 8813SOL     OW37897   1.996   2.980  14.368 -0.3724 -0.2183 -0.3226
 8813SOL    HW137898   2.051   2.939  14.436  0.1737 -0.4905 -0.9287
 8813SOL    HW237899   2.021   2.941  14.284 -1.2060 -1.0790 -0.1683
 8814SOL     OW37900   0.576   1.068   4.776 -0.3319  0.1262 -0.1317
 8814SOL    HW137901   0.620   0.984   4.787 -0.2671  0.3508  1.3507
 8814SOL    HW237902   0.653   1.122   4.758  0.0654 -0.8957 -1.5247
 8815SOL     OW37903   2.110   4.085   7.725 -0.3486  0.1974 -0.1572
 8815SOL    HW137904   2.148   4.172   7.716  1.1428 -0.2392  2.0362
 8815SOL    HW237905   2.119   4.065   7.818 -1.1170 -0.3811 -0.1992
 8816SOL     OW37906   3.796   4.053  17.393  0.4290  0.1464  0.8885
 8816SOL    HW137907   3.853   4.129  17.404  0.4547 -0.0039  1.7742
 8816SOL    HW237908   3.730   4.067  17.462  1.3697  2.2719  1.3681
 8817SOL     OW37909   2.999   3.422   5.204  0.3650 -0.9559  0.0254
 8817SOL    HW137910   2.947   3.472   5.267 -0.4202  0.1725 -1.5315
 8817SOL    HW237911   3.043   3.364   5.266  0.7322  1.5438  2.0996
 8818SOL     OW37912   0.758   2.654   6.096  0.2498  0.4114 -0.7536
 8818SOL    HW137913   0.822   2.647   6.026  0.4460  1.3402 -0.6620
 8818SOL    HW237914   0.757   2.569   6.142  0.0515  2.1669  2.5015
 8819SOL     OW37915   2.634   2.982   3.105  0.2919  0.1801 -0.1133
 8819SOL    HW137916   2.586   2.950   3.182  0.6139 -2.0179 -0.8187
 8819SOL    HW237917   2.695   3.049   3.137 -1.2487  0.1471  2.8332
 8820SOL     OW37918   4.018   4.407   3.909  0.2672 -0.3158 -0.1185
 8820SOL    HW137919   3.924   4.422   3.907 -0.0030 -1.9848  0.2003
 8820SOL    HW237920   4.050   4.480   3.855 -1.0552  1.3688  1.3683
 8821SOL     OW37921   2.299   3.068  13.630 -0.2524  0.0065 -0.1502
 8821SOL    HW137922   2.312   3.050  13.723  0.9333  2.0188  0.0596
 8821SOL    HW237923   2.288   2.975  13.607  0.5640  0.1801 -1.1930
 8822SOL     OW37924   2.111   3.983  13.267 -0.0111  0.5536  0.2286
 8822SOL    HW137925   2.144   4.072  13.254  0.8448  0.5576  2.4647
 8822SOL    HW237926   2.112   3.957  13.175 -2.3314  1.5944 -0.1031
 8823SOL     OW37927   0.043   2.895   8.548 -0.1732 -0.5945 -0.1967
 8823SOL    HW137928   0.098   2.824   8.580  0.8101 -1.6690 -4.2795
 8823SOL    HW237929   4.699   2.893   8.619  0.2133  0.8285  0.1957
 8824SOL     OW37930   2.059   4.360   3.073  0.0542 -0.1882  0.1621
 8824SOL    HW137931   2.033   4.391   2.986  0.1652 -1.2121 -0.2383
 8824SOL    HW237932   2.049   4.446   3.114  1.0254  0.7352 -1.4987
 8825SOL     OW37933   3.193   2.367   8.126  0.4537 -0.2968 -0.3176
 8825SOL    HW137934   3.188   2.297   8.061 -2.1928 -0.0546 -0.3483
 8825SOL    HW237935   3.207   2.312   8.203  0.9989  1.8613  1.1444
 8826SOL     OW37936   2.752   4.032   6.771 -0.3786 -0.2082 -0.8122
 8826SOL    HW137937   2.808   4.027   6.848 -2.6183  0.6554  0.8807
 8826SOL    HW237938   2.680   4.082   6.810 -1.7615 -3.1694  0.4766
 8827SOL     OW37939   3.338   2.385   4.355 -0.6319  0.2276 -0.5193
 8827SOL    HW137940   3.287   2.340   4.423  0.0350 -0.0040 -0.1670
 8827SOL    HW237941   3.408   2.321   4.347 -0.2490  0.2941  2.1270
 8828SOL     OW37942   3.680   0.980  16.268  0.0210  0.0338  0.6863
 8828SOL    HW137943   3.761   0.932  16.284 -0.1001  0.0797  1.4765
 8828SOL    HW237944   3.655   0.983  16.361  0.2274 -1.4383  0.7852
 8829SOL     OW37945   4.252   0.714   6.761  0.3238 -0.3713 -0.0554
 8829SOL    HW137946   4.323   0.656   6.792 -1.0440 -1.5629  0.8615
 8829SOL    HW237947   4.178   0.658   6.781  0.1983  0.0238  0.5822
 8830SOL     OW37948   1.194   0.677   6.704 -0.2087 -0.4672 -0.1194
 8830SOL    HW137949   1.283   0.684   6.737 -0.2143 -0.1238 -0.1803
 8830SOL    HW237950   1.146   0.641   6.779 -2.4103  0.0608 -1.2637
 8831SOL     OW37951   0.023   2.751  15.374 -0.3369 -0.0850  0.7445
 8831SOL    HW137952   4.700   2.673  15.341  1.2918 -1.4969  1.9832
 8831SOL    HW237953   0.093   2.712  15.426 -0.5891 -1.5671 -0.0353
 8832SOL     OW37954   2.403   4.023  13.510 -0.3880  0.1332 -0.3397
 8832SOL    HW137955   2.465   4.024  13.437 -0.1032  2.2209 -0.0752
 8832SOL    HW237956   2.339   4.086  13.477  0.1503  1.3117  0.8965
 8833SOL     OW37957   1.952   3.372   6.012 -0.2685 -0.2750 -0.7605
 8833SOL    HW137958   1.900   3.345   5.936 -2.2839 -0.4399  0.6646
 8833SOL    HW237959   1.890   3.439   6.043 -1.0223 -0.6683 -1.4215
 8834SOL     OW37960   3.917   1.821  17.090 -0.3239 -0.0691 -0.2475
 8834SOL    HW137961   3.962   1.766  17.025 -1.8702 -1.2965 -0.2782
 8834SOL    HW237962   3.836   1.773  17.106 -2.7234  3.2229 -2.6771
 8835SOL     OW37963   4.305   1.987   8.878 -0.2533 -0.5139 -0.3097
 8835SOL    HW137964   4.325   1.970   8.970 -0.7126 -1.5014 -0.3865
 8835SOL    HW237965   4.322   2.081   8.876  2.4643 -1.0332 -0.7613
 8836SOL     OW37966   2.244   2.761   6.883  0.6884  0.6836 -0.3420
 8836SOL    HW137967   2.316   2.699   6.868  0.1861 -0.2683  1.1965
 8836SOL    HW237968   2.230   2.756   6.977 -2.5840 -1.2958 -0.9219
 8837SOL     OW37969   3.619   0.445  16.205 -0.3703 -0.1387 -0.3389
 8837SOL    HW137970   3.620   0.354  16.235  3.5093 -0.8213 -2.5592
 8837SOL    HW237971   3.595   0.433  16.113 -2.7686  1.3411  0.0922
 8838SOL     OW37972   0.907   2.378  14.891  0.0177 -0.4196  0.0825
 8838SOL    HW137973   0.992   2.333  14.894  0.1028 -0.2391  0.4504
 8838SOL    HW237974   0.861   2.310  14.842 -2.7899  0.8233  1.0440
 8839SOL     OW37975   4.557   3.321  15.412 -0.1651  0.7774  0.7837
 8839SOL    HW137976   4.494   3.362  15.353  0.7496 -1.9996 -2.1279
 8839SOL    HW237977   4.517   3.238  15.437 -0.3555  1.2389  1.9959
 8840SOL     OW37978   3.024   3.919   4.977  0.1623 -0.1635  0.1549
 8840SOL    HW137979   3.023   3.952   5.067  0.1187 -2.0275  0.8581
 8840SOL    HW237980   2.974   3.838   4.991 -0.3091 -0.1139 -1.2627
 8841SOL     OW37981   4.551   2.408  13.302  0.2242 -0.2366  0.4982
 8841SOL    HW137982   4.494   2.332  13.298  2.7502 -2.1371  1.1716
 8841SOL    HW237983   4.516   2.446  13.221 -1.5008 -0.9502  0.9196
 8842SOL     OW37984   2.901   0.792   6.896  0.7801 -0.7150 -0.7015
 8842SOL    HW137985   2.932   0.862   6.839  0.5400 -0.4222 -0.4716
 8842SOL    HW237986   2.822   0.839   6.922  0.4465 -1.5990 -0.1283
 8843SOL     OW37987   1.504   3.078   2.521  0.1551  0.2561  0.0567
 8843SOL    HW137988   1.556   3.132   2.580  0.2919  0.1409  0.0436
 8843SOL    HW237989   1.416   3.075   2.558  0.0526 -1.3655 -0.3108
 8844SOL     OW37990   4.315   1.580   3.517 -0.2271  0.0713 -0.3922
 8844SOL    HW137991   4.332   1.631   3.438  1.5955 -0.2925 -0.2358
 8844SOL    HW237992   4.219   1.582   3.520 -0.2191  1.2952 -1.1658
 8845SOL     OW37993   0.817   0.416   4.637  0.4811 -0.1597  0.1525
 8845SOL    HW137994   0.826   0.380   4.548 -3.1606 -0.1680 -0.2294
 8845SOL    HW237995   0.832   0.335   4.686  0.1452 -1.7862 -2.4360
 8846SOL     OW37996   3.298   1.305   2.495 -0.5661 -0.2352 -0.2663
 8846SOL    HW137997   3.382   1.301   2.448  0.1298  1.7336  0.8126
 8846SOL    HW237998   3.336   1.346   2.573  0.4265 -3.1366  0.7726
 8847SOL     OW37999   2.797   0.783   2.745 -0.0235  0.3931  0.1458
 8847SOL    HW138000   2.791   0.827   2.830 -1.0545 -0.0639  0.3030
 8847SOL    HW238001   2.773   0.857   2.690 -1.4917  0.2884  0.6547
 8848SOL     OW38002   3.168   0.526  12.554 -0.0935 -0.1425  0.4466
 8848SOL    HW138003   3.195   0.442  12.593  1.9743 -0.0143 -0.7610
 8848SOL    HW238004   3.147   0.496  12.465  3.1922 -2.5302  0.4603
 8849SOL     OW38005   2.420   1.183   7.818  0.1313 -0.1666 -0.2920
 8849SOL    HW138006   2.431   1.224   7.904 -1.5874  0.7768 -0.5459
 8849SOL    HW238007   2.411   1.266   7.772  1.3488  1.1187  1.7858
 8850SOL     OW38008   2.031   3.382   7.661  0.2391 -0.1859  0.0232
 8850SOL    HW138009   2.109   3.346   7.703 -0.5118 -1.3769  0.4022
 8850SOL    HW238010   2.060   3.469   7.687  0.2432 -0.4596  0.9315
 8851SOL     OW38011   1.835   3.547   7.504 -0.0960  0.5489  0.0708
 8851SOL    HW138012   1.900   3.504   7.559  0.6173  0.8302 -0.5437
 8851SOL    HW238013   1.757   3.492   7.507  1.2086 -1.2867  0.0723
 8852SOL     OW38014   4.074   0.177   4.043 -0.4716  0.1642 -0.1128
 8852SOL    HW138015   4.059   0.216   3.957 -2.1576  0.3990  0.2849
 8852SOL    HW238016   4.004   0.222   4.090  0.3066  1.4812 -0.2166
 8853SOL     OW38017   4.616   3.539  15.550  0.4261 -0.2608 -0.0376
 8853SOL    HW138018   4.709   3.541  15.527  0.9621 -0.1081  2.1886
 8853SOL    HW238019   4.591   3.449  15.527  1.7532 -0.6588  0.0275
 8854SOL     OW38020   0.008   2.625   4.125  0.1509 -0.4878 -0.2050
 8854SOL    HW138021   0.041   2.638   4.036  3.6638 -0.9801  1.0230
 8854SOL    HW238022   0.009   2.717   4.151  0.9867 -1.0944  1.9060
 8855SOL     OW38023   1.242   4.178   8.989  0.3901  0.6441  0.0769
 8855SOL    HW138024   1.226   4.132   8.906  0.2064 -1.1073  1.0920
 8855SOL    HW238025   1.337   4.173   8.986  0.3686  1.4286 -2.2676
 8856SOL     OW38026   2.841   4.464   9.878  0.2566  0.0277 -0.0368
 8856SOL    HW138027   2.891   4.489   9.956 -0.7620 -2.6172  1.4556
 8856SOL    HW238028   2.861   4.548   9.835  0.3803  0.5125  0.9711
 8857SOL     OW38029   4.638   2.322  17.496 -0.5103 -0.2854  0.0163
 8857SOL    HW138030   4.672   2.287  17.579  1.8760 -0.5253 -1.0478
 8857SOL    HW238031   4.602   2.244  17.454  1.2332  0.0209 -2.0480
 8858SOL     OW38032   0.543   3.000  11.731 -0.1038 -0.3459 -0.0378
 8858SOL    HW138033   0.593   3.009  11.649  3.6943 -3.0406  1.9741
 8858SOL    HW238034   0.479   3.071  11.729 -2.1442 -2.1877 -0.0256
 8859SOL     OW38035   2.302   3.938   6.333  0.7849 -0.3532 -0.0015
 8859SOL    HW138036   2.395   3.928   6.314  0.5121  0.8305 -2.0148
 8859SOL    HW238037   2.308   4.026   6.373  0.3812 -0.6173  0.6478
 8860SOL     OW38038   2.751   2.146   3.117 -0.4449  0.5887  0.3455
 8860SOL    HW138039   2.716   2.057   3.126 -2.5038  1.2174 -1.3946
 8860SOL    HW238040   2.845   2.145   3.100 -0.0035 -1.3105  2.9111
 8861SOL     OW38041   0.946   1.977   1.960  0.4126  0.2509  0.9454
 8861SOL    HW138042   0.984   2.048   1.909  2.6546 -0.6564  1.3889
 8861SOL    HW238043   0.864   1.964   1.912  0.5911  0.1586  0.6734
 8862SOL     OW38044   3.176   0.018   2.581 -0.6086  0.9915  0.1775
 8862SOL    HW138045   3.149   4.663   2.530  1.5511 -0.0707  0.6045
 8862SOL    HW238046   3.097   0.020   2.634  0.7657 -1.0730  2.3168
 8863SOL     OW38047   3.835   0.616   3.086 -0.5393 -0.2667  0.5733
 8863SOL    HW138048   3.756   0.667   3.067  1.1169  2.1247  0.0440
 8863SOL    HW238049   3.867   0.637   3.173 -0.6262 -0.5545  0.6741
 8864SOL     OW38050   3.480   3.308   2.694 -0.2037 -0.4147  0.3596
 8864SOL    HW138051   3.470   3.403   2.684  1.7333 -0.1886  0.4403
 8864SOL    HW238052   3.566   3.292   2.654 -0.0545 -0.5481  0.7316
 8865SOL     OW38053   1.638   2.805  16.430  0.0371  0.5810  0.3682
 8865SOL    HW138054   1.619   2.774  16.518 -0.0093 -0.2899  0.0558
 8865SOL    HW238055   1.731   2.785  16.424  0.0791  0.9790 -0.3403
 8866SOL     OW38056   2.685   2.974   0.659 -0.1151  0.3180 -0.1183
 8866SOL    HW138057   2.671   3.013   0.572  2.7388  0.3344 -0.5636
 8866SOL    HW238058   2.601   2.984   0.703  0.5302 -0.0112  1.1785
 8867SOL     OW38059   3.665   4.374   4.565  0.1918 -0.0897 -0.6485
 8867SOL    HW138060   3.626   4.346   4.648  0.2620 -0.8440 -0.8679
 8867SOL    HW238061   3.586   4.393   4.516 -0.6705 -0.1102  0.7394
 8868SOL     OW38062   1.615   1.220   7.947 -0.5631 -0.0287  0.2771
 8868SOL    HW138063   1.567   1.150   7.904  0.0588 -0.9163  1.0473
 8868SOL    HW238064   1.656   1.267   7.874 -1.2462 -0.7128 -0.5474
 8869SOL     OW38065   3.968   1.580  15.489 -0.2596 -0.3643 -0.9576
 8869SOL    HW138066   4.047   1.588  15.543 -0.2108 -0.6310 -0.9916
 8869SOL    HW238067   3.905   1.555  15.557  2.3911  2.1945  2.4833
 8870SOL     OW38068   2.520   2.025   2.777 -0.0830  0.2058  0.1091
 8870SOL    HW138069   2.477   1.985   2.853 -1.0272  0.1831 -0.4402
 8870SOL    HW238070   2.567   2.099   2.816  2.0715 -1.3893  0.4564
 8871SOL     OW38071   1.795   2.720   2.930 -0.3554  0.2749 -0.3543
 8871SOL    HW138072   1.823   2.802   2.971 -0.1374 -0.5483  1.1551
 8871SOL    HW238073   1.814   2.653   2.995  0.6861  1.8299  0.9656
 8872SOL     OW38074   3.496   0.441  14.190 -0.3263  0.8353 -0.2386
 8872SOL    HW138075   3.536   0.487  14.116  1.7612 -0.8379 -0.1511
 8872SOL    HW238076   3.423   0.400  14.144 -0.0221  0.3404 -0.2717
 8873SOL     OW38077   0.506   2.318   5.822  0.2518 -0.1890 -0.0775
 8873SOL    HW138078   0.495   2.413   5.822  0.7039 -0.1367 -0.0880
 8873SOL    HW238079   0.562   2.303   5.745  1.0442  2.2453  0.0209
 8874SOL     OW38080   1.823   3.181   3.382 -0.0134 -0.4845 -0.5378
 8874SOL    HW138081   1.848   3.135   3.461 -0.2311  0.8331  0.3008
 8874SOL    HW238082   1.794   3.109   3.326 -1.9335  1.5899 -2.2164
 8875SOL     OW38083   1.722   1.443   3.947  0.1180 -0.0028 -0.3302
 8875SOL    HW138084   1.685   1.381   3.883 -1.6702  1.0739 -0.3375
 8875SOL    HW238085   1.691   1.524   3.907  0.7834  0.2801 -0.2749
 8876SOL     OW38086   0.485   2.481  13.342 -0.2380 -0.2007 -0.6150
 8876SOL    HW138087   0.426   2.556  13.333  0.8748  0.8322  0.7746
 8876SOL    HW238088   0.548   2.518  13.404  0.8430 -1.4767 -0.9641
 8877SOL     OW38089   2.566   3.258   5.156 -0.1694  0.0781 -0.1298
 8877SOL    HW138090   2.612   3.176   5.137  0.5853  0.7367 -1.1246
 8877SOL    HW238091   2.488   3.221   5.197 -0.6779 -0.8801 -1.9327
 8878SOL     OW38092   0.992   3.929   4.374 -0.3615  0.0803  0.2982
 8878SOL    HW138093   0.902   3.908   4.396 -1.5557  1.8429 -2.8996
 8878SOL    HW238094   1.014   3.869   4.302 -1.0268  0.3995 -0.1640
 8879SOL     OW38095   2.740   1.529   1.360 -0.3694 -0.2664 -0.3310
 8879SOL    HW138096   2.720   1.528   1.454 -1.1083  0.3261 -0.4803
 8879SOL    HW238097   2.648   1.549   1.340 -0.2650 -0.6265 -1.1673
 8880SOL     OW38098   4.606   1.235   8.399 -0.4581  0.4337 -0.1398
 8880SOL    HW138099   4.545   1.309   8.392 -0.7769  0.1815 -0.0375
 8880SOL    HW238100   4.567   1.189   8.473 -1.1523  0.2335 -0.6336
 8881SOL     OW38101   0.601   1.797   9.135  0.1461  0.1350  0.2463
 8881SOL    HW138102   0.658   1.859   9.181  1.1869 -0.1604 -0.6722
 8881SOL    HW238103   0.619   1.809   9.042 -2.3930 -4.7892 -0.8539
 8882SOL     OW38104   0.797   1.108   4.144 -0.2208  0.2830  0.3603
 8882SOL    HW138105   0.857   1.034   4.153 -0.2453  0.2612  0.3424
 8882SOL    HW238106   0.847   1.158   4.078 -2.2864  0.3424 -1.1668
 8883SOL     OW38107   0.452   4.705  10.880 -0.0153  0.2511 -0.2957
 8883SOL    HW138108   0.452   4.707  10.785 -1.9770 -0.6736 -0.3244
 8883SOL    HW238109   0.533   0.023  10.913 -0.9165  1.9667 -0.0702
 8884SOL     OW38110   1.839   3.870   4.254  0.2285  0.0688 -0.2683
 8884SOL    HW138111   1.844   3.776   4.237  0.1582  0.1965 -1.0037
 8884SOL    HW238112   1.831   3.911   4.167  0.6020 -0.8001 -0.7087
 8885SOL     OW38113   3.500   0.196  13.041  0.0715  0.2846  0.7237
 8885SOL    HW138114   3.566   0.126  13.046  0.0011  0.3040  1.8679
 8885SOL    HW238115   3.559   0.271  13.033 -0.9359  1.0646  0.5991
 8886SOL     OW38116   2.217   0.675   1.426 -0.0511  0.1121 -0.2774
 8886SOL    HW138117   2.124   0.655   1.413 -0.4294  3.2453 -2.2218
 8886SOL    HW238118   2.260   0.590   1.415  1.2218  0.5944  0.9587
 8887SOL     OW38119   0.393   0.662   7.202 -0.1824 -0.1903 -0.6549
 8887SOL    HW138120   0.399   0.757   7.201 -0.1362 -0.1930 -0.6362
 8887SOL    HW238121   0.485   0.639   7.191  0.0547 -0.2373  1.4199
 8888SOL     OW38122   1.314   4.637   6.121 -0.0389  0.0687 -0.5611
 8888SOL    HW138123   1.409   4.635   6.119  0.0256  3.6224 -0.8265
 8888SOL    HW238124   1.302   0.005   6.156  0.1860  0.7133 -2.1018
 8889SOL     OW38125   1.152   4.143  13.877 -0.2157  0.2651  0.5859
 8889SOL    HW138126   1.242   4.115  13.891 -0.9432 -2.1260  0.5544
 8889SOL    HW238127   1.165   4.216  13.816  3.7537 -1.9701 -1.2838
 8890SOL     OW38128   1.569   2.741   4.999  0.1974 -1.0974 -0.3089
 8890SOL    HW138129   1.658   2.716   4.973 -0.3630 -3.3068 -0.0760
 8890SOL    HW238130   1.521   2.744   4.916  0.1329 -0.1715 -0.2408
 8891SOL     OW38131   3.598   1.314  13.568  0.2699  0.1639  0.1679
 8891SOL    HW138132   3.510   1.278  13.567 -0.1790  1.2355  0.9595
 8891SOL    HW238133   3.647   1.267  13.636  0.2837 -0.7119 -0.4568
 8892SOL     OW38134   2.509   0.889   4.823 -0.1215  0.5290  0.5247
 8892SOL    HW138135   2.494   0.795   4.832  0.9798  0.3960  0.8906
 8892SOL    HW238136   2.603   0.891   4.837 -0.2531 -1.0118  1.6509
 8893SOL     OW38137   3.680   4.693   5.164  0.4575  0.3411  0.2663
 8893SOL    HW138138   3.604   4.654   5.206 -1.4967  1.1009 -2.5835
 8893SOL    HW238139   3.687   4.656   5.076 -1.7823  0.6946 -0.0647
 8894SOL     OW38140   1.265   0.049   3.536 -0.2715 -0.3537 -0.1051
 8894SOL    HW138141   1.174   0.037   3.511 -0.7662  0.1402  1.4599
 8894SOL    HW238142   1.277   0.010   3.623  2.5088 -0.4336 -0.5255
 8895SOL     OW38143   0.549   2.678   2.815  0.3064  0.1790 -0.2761
 8895SOL    HW138144   0.461   2.661   2.781 -0.1171  0.1577  0.8020
 8895SOL    HW238145   0.602   2.627   2.754  2.1963  2.2064 -0.3144
 8896SOL     OW38146   3.026   1.604  15.491 -0.4739 -0.3500  0.0270
 8896SOL    HW138147   3.027   1.514  15.522 -0.8925 -0.1634  0.5835
 8896SOL    HW238148   3.008   1.593  15.397  1.6574  2.5402 -0.6956
 8897SOL     OW38149   1.163   4.326   8.163 -0.2160 -0.5108  0.8575
 8897SOL    HW138150   1.075   4.292   8.149  1.1716 -3.1968 -1.1815
 8897SOL    HW238151   1.200   4.257   8.217 -0.6394 -0.6584  0.9561
 8898SOL     OW38152   4.372   0.453   1.177  0.3863 -0.5181 -0.0910
 8898SOL    HW138153   4.349   0.445   1.085 -0.5908 -0.7719  0.1759
 8898SOL    HW238154   4.421   0.371   1.185 -0.7750 -1.0201  1.9287
 8899SOL     OW38155   2.337   3.732   5.444  0.0750 -0.1650 -0.6631
 8899SOL    HW138156   2.263   3.705   5.498  1.9072  0.2090  2.0618
 8899SOL    HW238157   2.407   3.755   5.506  0.7120 -0.4835 -1.2654
 8900SOL     OW38158   4.575   3.958   0.721 -0.0061 -0.2271 -0.1112
 8900SOL    HW138159   4.660   3.916   0.702  0.5644  0.4389  0.9760
 8900SOL    HW238160   4.586   4.041   0.675 -1.1098  0.8999  1.6644
 8901SOL     OW38161   0.705   2.744   6.648  0.0759  0.0732  0.5082
 8901SOL    HW138162   0.700   2.795   6.729 -0.9368 -0.5513  0.8407
 8901SOL    HW238163   0.634   2.680   6.657 -2.4159  2.3265 -2.9281
 8902SOL     OW38164   0.109   4.101   5.683 -0.0842  0.0176 -0.6861
 8902SOL    HW138165   0.129   4.154   5.761  0.8115 -2.3176  0.6840
 8902SOL    HW238166   0.024   4.138   5.661 -0.9401 -1.3524  0.3176
 8903SOL     OW38167   1.760   1.285   4.156 -0.0918  0.4117  0.0178
 8903SOL    HW138168   1.761   1.309   4.063  1.2807  1.1283  0.2190
 8903SOL    HW238169   1.766   1.369   4.200 -2.1063  0.6964 -0.2220
 8904SOL     OW38170   2.712   3.406   0.080 -0.2421 -0.7260  0.1441
 8904SOL    HW138171   2.724   3.424  17.671 -1.5937  2.8331  0.6636
 8904SOL    HW238172   2.626   3.365   0.078  0.2457 -1.6787 -1.2269
 8905SOL     OW38173   0.942   1.224   3.937 -0.2943 -0.3468  0.2741
 8905SOL    HW138174   0.952   1.230   3.842  3.7130 -1.7750  0.6070
 8905SOL    HW238175   1.006   1.159   3.964 -0.2896 -1.2444 -1.8962
 8906SOL     OW38176   2.184   3.346   3.849 -0.5535 -0.0823  0.8065
 8906SOL    HW138177   2.275   3.375   3.838 -1.3916  3.1954  2.6213
 8906SOL    HW238178   2.201   3.256   3.877 -0.1587 -0.5651 -0.9740
 8907SOL     OW38179   3.998   4.330  15.829  0.3065  0.0782 -0.1549
 8907SOL    HW138180   4.094   4.323  15.822  0.3740  0.7856  0.0927
 8907SOL    HW238181   3.963   4.320  15.741 -0.0219  0.1027 -0.0254
 8908SOL     OW38182   1.192   3.660   2.681 -0.0368 -0.3794 -0.1044
 8908SOL    HW138183   1.236   3.585   2.721  2.0798 -0.1717 -2.0359
 8908SOL    HW238184   1.200   3.717   2.758 -1.8440 -3.1712  2.1635
 8909SOL     OW38185   1.570   3.973  16.799 -0.1315 -0.2423 -0.3624
 8909SOL    HW138186   1.659   3.999  16.776  0.1524 -0.4192  0.5342
 8909SOL    HW238187   1.583   3.880  16.819 -1.5235 -0.6920 -1.5680
 8910SOL     OW38188   3.595   4.389   9.369  0.1787  0.2364  0.2052
 8910SOL    HW138189   3.658   4.374   9.440 -1.7864 -1.5908  1.5772
 8910SOL    HW238190   3.552   4.306   9.350  0.0618  0.4341 -0.3876
 8911SOL     OW38191   3.426   0.223  17.129  0.0130 -0.0517 -0.1045
 8911SOL    HW138192   3.453   0.314  17.142 -0.6913  0.3899 -1.6960
 8911SOL    HW238193   3.334   0.241  17.112 -0.2569 -0.8920  0.4830
 8912SOL     OW38194   2.521   3.197   2.463 -0.2602 -0.1831 -0.3502
 8912SOL    HW138195   2.504   3.145   2.384 -0.3380  1.5771 -1.5021
 8912SOL    HW238196   2.508   3.125   2.524  0.5773 -0.9074 -1.0259
 8913SOL     OW38197   3.269   1.811   2.716 -0.2884  0.2410  0.1212
 8913SOL    HW138198   3.322   1.878   2.672 -2.4638  0.6488 -1.8596
 8913SOL    HW238199   3.192   1.811   2.659  0.7238 -0.5172 -1.2379
 8914SOL     OW38200   0.056   0.213  15.098 -0.6396  0.7806 -0.3591
 8914SOL    HW138201   0.069   0.305  15.119  2.0824  0.7293 -1.8887
 8914SOL    HW238202   0.071   0.217  15.004  0.7953 -0.2687 -0.1676
 8915SOL     OW38203   2.330   3.657  10.340 -0.3383 -0.0898  0.2931
 8915SOL    HW138204   2.351   3.585  10.399 -0.3600  0.2880  0.7595
 8915SOL    HW238205   2.312   3.619  10.254  0.6115 -0.8285  0.4239
 8916SOL     OW38206   0.658   3.225   7.403  0.1034 -0.1049 -0.2128
 8916SOL    HW138207   0.600   3.289   7.445 -2.5334 -0.8647 -2.6853
 8916SOL    HW238208   0.682   3.175   7.481 -2.1335 -1.3461 -0.3276
 8917SOL     OW38209   2.987   2.025   5.735  0.6232 -0.0757 -0.0522
 8917SOL    HW138210   2.936   2.039   5.815  1.8648  2.0512  0.4001
 8917SOL    HW238211   3.036   2.106   5.719 -0.0037 -0.1663 -2.3808
 8918SOL     OW38212   1.057   2.312   4.040  0.2140  0.3524  0.2843
 8918SOL    HW138213   1.001   2.251   4.089 -0.5690  0.7668 -0.0959
 8918SOL    HW238214   0.984   2.359   4.000 -0.9193 -0.7831  1.0385
 8919SOL     OW38215   1.295   3.508  15.352 -0.0349  0.0987 -0.5255
 8919SOL    HW138216   1.254   3.594  15.362  1.0436  0.9684 -3.3950
 8919SOL    HW238217   1.350   3.525  15.275  0.7437  0.3927  0.0994
 8920SOL     OW38218   3.768   0.481  15.219  0.4050 -0.8913  0.2085
 8920SOL    HW138219   3.705   0.540  15.177  0.2679 -0.1007  1.5258
 8920SOL    HW238220   3.825   0.468  15.143  1.9843 -2.8911  1.7262
 8921SOL     OW38221   3.151   3.316   7.884 -0.2552 -0.3189 -0.0032
 8921SOL    HW138222   3.241   3.329   7.913  0.0701  0.5116 -1.4263
 8921SOL    HW238223   3.157   3.402   7.842  0.1855 -1.4554 -2.2571
 8922SOL     OW38224   0.708   3.514   6.515  0.0298 -0.1565 -0.6179
 8922SOL    HW138225   0.789   3.475   6.549 -0.7270 -0.3538  0.9660
 8922SOL    HW238226   0.686   3.440   6.459 -1.6776 -1.9031  2.3166
 8923SOL     OW38227   1.198   2.596  14.576  0.2792  0.2623  0.0206
 8923SOL    HW138228   1.203   2.515  14.525  2.4603  0.2145  0.3090
 8923SOL    HW238229   1.230   2.665  14.519 -0.5149  2.7215  2.5733
 8924SOL     OW38230   2.264   0.152  11.336  0.6565 -0.5330 -0.0635
 8924SOL    HW138231   2.201   0.196  11.392  0.9188  1.1717 -1.1230
 8924SOL    HW238232   2.206   0.090  11.292  1.6735 -1.0469 -0.7058
 8925SOL     OW38233   2.852   2.815   2.204  0.5471 -0.0916  0.2130
 8925SOL    HW138234   2.782   2.857   2.153  2.2330  0.7384 -1.4394
 8925SOL    HW238235   2.847   2.726   2.170  0.9496  0.4122 -1.1963
 8926SOL     OW38236   4.074   1.762   2.915 -0.1776  0.0553 -0.2123
 8926SOL    HW138237   4.152   1.816   2.926 -2.3885  3.9111 -3.6470
 8926SOL    HW238238   4.110   1.685   2.959  0.4627 -0.3648 -1.4780
 8927SOL     OW38239   2.987   4.705   0.678 -0.3245 -0.0771  0.1852
 8927SOL    HW138240   2.913   4.648   0.700  1.0639 -1.1320  2.1305
 8927SOL    HW238241   3.059   4.643   0.677 -0.3946 -0.1661  0.5258
 8928SOL     OW38242   0.831   3.156   7.854  0.4027 -0.1305 -0.3340
 8928SOL    HW138243   0.766   3.122   7.916 -1.0093  1.5134 -0.9046
 8928SOL    HW238244   0.818   3.090   7.786 -2.0317  0.8045 -0.8136
 8929SOL     OW38245   0.339   4.164   5.235  0.0912 -0.8653 -0.2044
 8929SOL    HW138246   0.304   4.079   5.210 -1.4739 -0.0438 -0.7851
 8929SOL    HW238247   0.259   4.184   5.284  0.1627  2.1644 -1.3243
 8930SOL     OW38248   1.119   4.408   5.095 -1.0195 -0.2450 -0.3376
 8930SOL    HW138249   1.193   4.412   5.035 -1.0527  1.9048 -0.2209
 8930SOL    HW238250   1.138   4.320   5.129 -1.4513 -0.1027  0.2792
 8931SOL     OW38251   0.320   0.350   0.078 -0.4051 -0.1060 -0.4895
 8931SOL    HW138252   0.236   0.396   0.070 -1.0944 -1.2512  0.3018
 8931SOL    HW238253   0.374   0.405   0.021 -0.9216 -0.5473 -1.3968
 8932SOL     OW38254   0.595   3.632   4.750  0.0592  0.0065 -0.2308
 8932SOL    HW138255   0.557   3.555   4.706 -1.0373 -0.5113  1.5987
 8932SOL    HW238256   0.518   3.685   4.729  0.4765  0.4854 -0.5317
 8933SOL     OW38257   2.300   0.537   4.892  0.2617 -0.3157  0.0618
 8933SOL    HW138258   2.240   0.464   4.876  0.4876 -0.5821  0.4367
 8933SOL    HW238259   2.345   0.513   4.973  1.2379  1.9357  0.2033
 8934SOL     OW38260   3.007   3.350  12.494  0.1677  0.1192 -0.9737
 8934SOL    HW138261   3.059   3.413  12.444 -0.6070  1.1005 -0.5690
 8934SOL    HW238262   3.073   3.287  12.521 -1.7203 -1.5449 -0.1905
 8935SOL     OW38263   1.357   1.841   6.120  0.2347  0.1500 -0.7595
 8935SOL    HW138264   1.352   1.928   6.160  1.6029 -0.4031  0.6082
 8935SOL    HW238265   1.347   1.851   6.026 -1.7724 -1.7457 -0.7591
 8936SOL     OW38266   2.571   0.948   7.843  0.1102 -0.0301 -0.1549
 8936SOL    HW138267   2.543   1.038   7.826 -0.4280 -0.2059 -0.2215
 8936SOL    HW238268   2.498   0.907   7.890  1.2829 -2.1442 -0.2046
 8937SOL     OW38269   3.563   0.287   4.690 -0.0244  0.1280  0.0264
 8937SOL    HW138270   3.593   0.197   4.679  2.1754  0.7736  0.7303
 8937SOL    HW238271   3.651   0.323   4.702 -0.2157  0.7446 -0.4152
 8938SOL     OW38272   4.544   3.528   4.020  0.5979  0.5215  0.5028
 8938SOL    HW138273   4.589   3.535   4.104  2.7056  0.5989 -0.6397
 8938SOL    HW238274   4.458   3.498   4.049  1.3741 -0.7995  1.4634
 8939SOL     OW38275   1.822   0.619   3.293 -0.2529  0.1132  0.0548
 8939SOL    HW138276   1.837   0.613   3.199 -1.8599 -0.7978 -0.1433
 8939SOL    HW238277   1.913   0.613   3.323 -0.3872 -1.8867  0.1028
 8940SOL     OW38278   0.759   2.708  14.474 -0.1496 -0.3858  0.1830
 8940SOL    HW138279   0.807   2.647  14.529  0.3429  0.1706  0.3689
 8940SOL    HW238280   0.829   2.721  14.410  1.0323 -2.3605  1.0983
 8941SOL     OW38281   4.426   3.161   2.195  0.3033 -0.3618 -0.3966
 8941SOL    HW138282   4.343   3.188   2.235 -0.1671 -0.6869 -1.1426
 8941SOL    HW238283   4.493   3.192   2.256  0.9466  0.1108 -1.3370
 8942SOL     OW38284   0.946   1.158   3.233 -0.5630 -0.6961  0.1717
 8942SOL    HW138285   0.868   1.190   3.277  1.2259  1.8208  1.5135
 8942SOL    HW238286   0.970   1.089   3.295  1.0554  1.3074  1.7849
 8943SOL     OW38287   4.464   1.002   3.693 -0.0021 -0.1168  0.0613
 8943SOL    HW138288   4.392   0.961   3.740  0.0394 -1.2568 -0.8801
 8943SOL    HW238289   4.526   0.930   3.699  0.2236 -0.1022 -1.9364
 8944SOL     OW38290   1.526   2.280   3.748 -0.2525  0.0337  0.3532
 8944SOL    HW138291   1.579   2.204   3.723  0.9970  1.2843 -0.8465
 8944SOL    HW238292   1.474   2.245   3.820 -0.7986  0.3633  0.1267
 8945SOL     OW38293   0.479   0.769   0.735  0.1683 -0.0057 -0.3704
 8945SOL    HW138294   0.443   0.759   0.647  2.1109  0.4650 -1.2162
 8945SOL    HW238295   0.538   0.841   0.713 -0.1275  0.5227  0.6075
 8946SOL     OW38296   0.604   2.529   4.937 -0.1774 -0.6425  0.1765
 8946SOL    HW138297   0.669   2.579   4.986 -0.8709 -0.8335  1.2718
 8946SOL    HW238298   0.652   2.453   4.904  0.0413 -1.0377  1.4181
 8947SOL     OW38299   4.683   4.019   7.055 -0.2952  0.0926  0.0187
 8947SOL    HW138300   4.646   3.945   7.007  0.1872 -0.1900  0.0868
 8947SOL    HW238301   0.021   4.060   6.991 -0.4403 -2.7966 -1.9525
 8948SOL     OW38302   3.395   0.898   5.879 -0.2444 -0.2547  0.5009
 8948SOL    HW138303   3.365   0.954   5.808 -0.0474  0.7565  1.2116
 8948SOL    HW238304   3.384   0.813   5.837 -0.3580  0.6810 -1.3738
 8949SOL     OW38305   0.839   2.650   1.721 -0.6351  0.2853  0.3260
 8949SOL    HW138306   0.769   2.587   1.708  0.4314 -1.0088  0.8137
 8949SOL    HW238307   0.912   2.599   1.756  0.3444  0.6662 -1.1759
 8950SOL     OW38308   3.477   2.073   6.213 -0.7519 -0.8871 -0.5209
 8950SOL    HW138309   3.572   2.078   6.228 -0.5648 -3.5604 -0.8725
 8950SOL    HW238310   3.483   2.085   6.118  0.1528 -1.2124 -0.5106
 8951SOL     OW38311   4.005   3.930  12.527  0.0629  0.0683 -0.1786
 8951SOL    HW138312   4.049   3.959  12.447 -0.3134 -0.0114 -0.4157
 8951SOL    HW238313   3.916   3.964  12.513  0.4250  1.2072  0.2993
 8952SOL     OW38314   1.386   4.415   5.692  0.2045  0.0181 -0.1050
 8952SOL    HW138315   1.404   4.365   5.612  0.4792 -3.1091  1.9252
 8952SOL    HW238316   1.443   4.492   5.685  1.6448 -0.7840  2.9732
 8953SOL     OW38317   0.684   3.567   4.196 -1.1347 -0.0557  0.4019
 8953SOL    HW138318   0.683   3.478   4.162  0.6959 -0.1323  0.5512
 8953SOL    HW238319   0.602   3.565   4.246 -0.9934  0.9298  0.6774
 8954SOL     OW38320   3.203   0.017  14.448  0.0722 -0.1917 -0.0517
 8954SOL    HW138321   3.242   0.104  14.445  3.1094 -1.4239  3.9234
 8954SOL    HW238322   3.192   0.008  14.353  0.0647  1.4259 -0.2140
 8955SOL     OW38323   1.792   1.031  15.838 -0.2414 -0.4128 -0.2512
 8955SOL    HW138324   1.784   1.089  15.913  2.1844 -0.8036  0.2988
 8955SOL    HW238325   1.704   0.993  15.832 -0.7163  0.6914 -0.3414
 8956SOL     OW38326   0.276   2.313   2.991  0.1850  0.1244 -0.4541
 8956SOL    HW138327   0.309   2.255   3.060 -0.4995  0.2191 -0.0514
 8956SOL    HW238328   0.325   2.394   3.008  0.0512 -0.2845  1.8744
 8957SOL     OW38329   3.591   2.127  10.587  0.0027  0.3564  0.4989
 8957SOL    HW138330   3.534   2.050  10.589  2.9070 -1.7729  0.4572
 8957SOL    HW238331   3.529   2.187  10.628  2.3557  1.7308  1.9910
 8958SOL     OW38332   1.654   1.974   8.380 -0.2605 -0.4730 -0.2626
 8958SOL    HW138333   1.725   1.953   8.319 -0.4995 -0.5738 -0.5100
 8958SOL    HW238334   1.699   1.955   8.462  0.2499  0.5630 -0.3093
 8959SOL     OW38335   3.897   2.836  13.215 -0.1586  0.2308  0.6587
 8959SOL    HW138336   3.881   2.930  13.227  0.7431  0.5775 -0.9087
 8959SOL    HW238337   3.954   2.841  13.139 -0.4604  0.5877  0.4512
 8960SOL     OW38338   1.160   2.184  13.141 -0.1417 -0.5254 -0.2309
 8960SOL    HW138339   1.168   2.111  13.080  0.9945 -0.0167 -0.6844
 8960SOL    HW238340   1.201   2.257  13.095 -0.7677 -0.0582 -0.0592
 8961SOL     OW38341   0.287   4.503  15.278 -0.3070  0.4721 -0.2943
 8961SOL    HW138342   0.347   4.433  15.302 -1.5507 -0.4026  0.2922
 8961SOL    HW238343   0.273   4.484  15.185  0.3490  0.3857 -0.3715
 8962SOL     OW38344   2.052   3.612   6.291 -0.4179  0.4036 -0.1425
 8962SOL    HW138345   1.974   3.667   6.297 -0.7713 -0.0303 -0.6589
 8962SOL    HW238346   2.081   3.626   6.201  1.5467  0.5059  0.5082
 8963SOL     OW38347   4.253   2.866   3.454  0.0109  0.0704  0.2532
 8963SOL    HW138348   4.183   2.896   3.513 -0.6370 -1.0077  0.0425
 8963SOL    HW238349   4.226   2.900   3.368  1.2024 -1.8464 -0.8698
 8964SOL     OW38350   2.632   2.426   9.896  0.0559  0.1477 -0.3031
 8964SOL    HW138351   2.704   2.485   9.915 -0.4392  0.6207  0.1359
 8964SOL    HW238352   2.675   2.341   9.897 -0.4126 -0.0383  3.6718
 8965SOL     OW38353   3.262   2.003  13.668  0.6398  0.1567 -0.6363
 8965SOL    HW138354   3.319   1.950  13.723 -0.7854  0.0617  0.7678
 8965SOL    HW238355   3.321   2.021  13.595  1.4599  0.7899  0.1936
 8966SOL     OW38356   1.760   2.177   4.299 -0.7149  0.0370 -0.0076
 8966SOL    HW138357   1.715   2.147   4.378 -3.5764 -0.9940 -2.0097
 8966SOL    HW238358   1.832   2.232   4.330 -1.1429  1.4037 -1.4458
 8967SOL     OW38359   0.976   2.178   5.708 -0.1931 -0.1096 -0.3836
 8967SOL    HW138360   1.066   2.181   5.677 -0.1482  0.4811 -0.1968
 8967SOL    HW238361   0.931   2.235   5.646  1.9297  1.3196 -0.6032
 8968SOL     OW38362   0.779   0.355   9.363 -0.0895  0.2843  0.0986
 8968SOL    HW138363   0.780   0.411   9.440 -1.7267 -0.4116  0.6076
 8968SOL    HW238364   0.871   0.330   9.369 -0.2807 -0.1052  1.4042
 8969SOL     OW38365   2.656   0.697  11.902 -0.1905  0.1953 -0.1450
 8969SOL    HW138366   2.726   0.660  11.956 -0.9748  1.9256  2.0314
 8969SOL    HW238367   2.596   0.626  11.879  0.1271 -0.4295  0.9555
 8970SOL     OW38368   1.317   2.292   3.539  0.2673 -0.5818 -0.5073
 8970SOL    HW138369   1.388   2.257   3.593 -1.0717  0.8971  2.2315
 8970SOL    HW238370   1.346   2.301   3.448 -0.1083 -0.3025 -0.5966
 8971SOL     OW38371   0.677   0.635   3.080 -0.6581 -0.0303 -0.4891
 8971SOL    HW138372   0.754   0.619   3.026  0.0869 -0.7246  0.7985
 8971SOL    HW238373   0.648   0.550   3.114  0.4578 -0.1675  0.0887
 8972SOL     OW38374   1.490   0.151   9.087  0.2624  0.8589  0.6635
 8972SOL    HW138375   1.404   0.190   9.077 -0.0875 -0.1681 -0.2530
 8972SOL    HW238376   1.521   0.134   8.998 -1.6939 -0.2056  0.1915
 8973SOL     OW38377   0.151   1.345   2.411 -0.4232  0.2328  0.9042
 8973SOL    HW138378   0.240   1.311   2.420 -0.6057 -0.1400  1.3311
 8973SOL    HW238379   0.142   1.342   2.316  1.4890 -0.1317  0.7439
 8974SOL     OW38380   2.178   1.166   9.430  0.3440 -0.1685 -0.0395
 8974SOL    HW138381   2.168   1.156   9.525 -0.6580 -1.9362 -0.3302
 8974SOL    HW238382   2.088   1.194   9.414  0.1089 -1.7909 -1.5111
 8975SOL     OW38383   3.371   3.141   8.030  0.2655 -0.1693 -0.0608
 8975SOL    HW138384   3.384   3.049   8.007 -1.5205  0.8135 -4.8540
 8975SOL    HW238385   3.406   3.187   7.954  0.8897  1.3841  1.1723
 8976SOL     OW38386   1.109   0.277   5.016 -0.0312 -0.0129  0.2410
 8976SOL    HW138387   1.094   0.184   5.000  0.3611  0.0219 -0.3378
 8976SOL    HW238388   1.203   0.289   5.008  0.1515 -3.0475 -2.0299
 8977SOL     OW38389   3.181   0.242  12.746  0.5651 -0.1362  0.1154
 8977SOL    HW138390   3.174   0.147  12.736  2.8298 -0.4723  1.6718
 8977SOL    HW238391   3.091   0.272  12.747  1.3434  2.1719  1.8447
 8978SOL     OW38392   3.458   1.528  12.491  0.4604  0.0859  0.6063
 8978SOL    HW138393   3.425   1.503  12.577  0.5005  0.7838  0.8190
 8978SOL    HW238394   3.553   1.539  12.503  0.6624 -1.9264  0.9571
 8979SOL     OW38395   3.991   2.129   2.894  0.5685  0.1098 -0.0941
 8979SOL    HW138396   4.021   2.207   2.846 -0.0958  0.9621  0.8716
 8979SOL    HW238397   3.982   2.066   2.822  0.7957 -0.2511  0.1965
 8980SOL     OW38398   2.548   3.834   8.203 -0.5972 -0.2312 -0.1646
 8980SOL    HW138399   2.575   3.926   8.207 -2.2076  0.0806  3.5496
 8980SOL    HW238400   2.606   3.809   8.131  0.3025 -1.4100  0.9772
 8981SOL     OW38401   1.443   1.104  16.091 -0.2635  0.8909 -0.2122
 8981SOL    HW138402   1.533   1.136  16.095  0.0332  0.0474 -0.0537
 8981SOL    HW238403   1.403   1.191  16.093 -0.4111  0.8085  0.3474
 8982SOL     OW38404   2.522   3.584   9.690  0.7313  0.5229 -0.3101
 8982SOL    HW138405   2.512   3.668   9.647 -1.3628 -0.9615 -2.7403
 8982SOL    HW238406   2.617   3.595   9.703  0.8492  1.2599 -1.8135
 8983SOL     OW38407   0.313   2.281   9.414  1.2971 -0.0330 -0.0675
 8983SOL    HW138408   0.250   2.352   9.401  0.4403 -0.2250  2.9450
 8983SOL    HW238409   0.306   2.281   9.510  1.2559  1.1277 -0.0747
 8984SOL     OW38410   0.440   0.573   6.849 -0.6760 -0.1474  0.9846
 8984SOL    HW138411   0.413   0.665   6.840  0.2405  0.0801  0.6164
 8984SOL    HW238412   0.519   0.584   6.797 -1.8263  1.8405 -0.3537
 8985SOL     OW38413   2.955   2.941   2.915  0.3018  0.6089  0.5657
 8985SOL    HW138414   2.949   2.958   3.009  1.6603 -1.9850  1.1401
 8985SOL    HW238415   3.044   2.905   2.911 -0.1447 -0.5882  1.4700
 8986SOL     OW38416   1.759   0.160   8.361 -0.2411  0.0307 -0.0215
 8986SOL    HW138417   1.737   0.243   8.319 -0.3863 -0.9374 -1.8786
 8986SOL    HW238418   1.854   0.160   8.362 -0.2268 -1.2939 -1.3865
 8987SOL     OW38419   1.282   0.867   5.279 -0.3694  0.2866  0.3878
 8987SOL    HW138420   1.263   0.953   5.316  1.1657  0.5726  0.5074
 8987SOL    HW238421   1.332   0.887   5.200  0.1810 -2.9988 -0.0977
 8988SOL     OW38422   0.836   2.058   3.098  0.0149 -0.1147  0.0383
 8988SOL    HW138423   0.772   2.004   3.052 -2.0800  1.9326  0.5655
 8988SOL    HW238424   0.892   2.101   3.034 -1.8795  1.5937 -0.4639
 8989SOL     OW38425   0.226   3.518   6.774  0.1049  0.4487 -0.3807
 8989SOL    HW138426   0.230   3.570   6.693 -3.5828 -0.1572 -0.9360
 8989SOL    HW238427   0.164   3.452   6.743  0.4152 -0.5081  1.0232
 8990SOL     OW38428   1.145   2.106   2.728  0.3826 -0.2288  0.0909
 8990SOL    HW138429   1.226   2.157   2.730 -0.9553  1.9429 -0.6275
 8990SOL    HW238430   1.100   2.142   2.804  0.7543  0.6398 -0.0984
 8991SOL     OW38431   2.839   1.946   7.972  0.1239 -0.1455 -0.5784
 8991SOL    HW138432   2.761   2.000   7.962 -0.8238 -0.6024  4.5009
 8991SOL    HW238433   2.906   2.002   7.932  0.8548 -0.8244 -0.3256
 8992SOL     OW38434   4.439   0.069  14.762  0.0924  0.7087  0.2907
 8992SOL    HW138435   4.492   0.149  14.768 -0.6985  1.2294  0.3455
 8992SOL    HW238436   4.511   0.006  14.765  0.7986  1.4822 -0.0825
 8993SOL     OW38437   4.593   1.683   7.999 -0.3045 -0.4031  0.3611
 8993SOL    HW138438   4.499   1.670   7.991 -0.2772 -0.5197  0.2237
 8993SOL    HW238439   4.622   1.594   8.017 -1.7592 -0.8163  0.6630
 8994SOL     OW38440   0.890   3.712   7.628 -0.4721  0.5390  0.5936
 8994SOL    HW138441   0.800   3.737   7.650 -1.6360 -1.0163 -2.4189
 8994SOL    HW238442   0.916   3.792   7.582  0.1392  1.1491  1.9769
 8995SOL     OW38443   1.208   0.192  15.105 -0.3644  0.3345  0.5763
 8995SOL    HW138444   1.231   0.281  15.132 -0.4269  0.1701  1.1755
 8995SOL    HW238445   1.283   0.144  15.141 -1.0509 -0.9199  0.3416
 8996SOL     OW38446   1.755   1.363  15.174  0.2041  0.3520 -0.1618
 8996SOL    HW138447   1.785   1.454  15.174  0.7034  0.1843  2.1140
 8996SOL    HW238448   1.661   1.377  15.168  0.0539 -0.3738  0.5742
 8997SOL     OW38449   1.113   1.364   5.067 -0.3375  0.3768 -0.5136
 8997SOL    HW138450   1.111   1.318   4.983  1.0415 -3.0814  1.3306
 8997SOL    HW238451   1.022   1.393   5.074 -0.6620 -0.9335  0.6846
 8998SOL     OW38452   0.663   2.523   5.574  0.1122 -0.1569 -0.2713
 8998SOL    HW138453   0.615   2.446   5.544 -0.1805  0.5096 -1.5193
 8998SOL    HW238454   0.620   2.544   5.657 -0.6021  1.1405 -0.9821
 8999SOL     OW38455   4.107   0.354  11.094  0.5639  0.0016 -0.2426
 8999SOL    HW138456   4.045   0.281  11.102 -1.3863  1.4394 -2.2140
 8999SOL    HW238457   4.135   0.345  11.003  0.0658  0.6085 -0.4571
 9000SOL     OW38458   2.115   3.979   4.252 -0.1088  0.2666 -0.2839
 9000SOL    HW138459   2.031   3.938   4.231 -0.3286  0.3395  0.4226
 9000SOL    HW238460   2.134   3.919   4.324 -0.1888  1.9472  1.1431
 9001SOL     OW38461   2.715   0.620   5.174  0.1526 -0.3706 -0.4905
 9001SOL    HW138462   2.642   0.674   5.205 -0.0593 -0.8465 -0.1506
 9001SOL    HW238463   2.686   0.606   5.084 -1.0003  0.3048 -0.2221
 9002SOL     OW38464   1.833   0.182  15.340 -0.4606  0.0686  0.4693
 9002SOL    HW138465   1.829   0.087  15.355  0.5439  0.3172  2.2507
 9002SOL    HW238466   1.886   0.188  15.261 -0.7315  0.0321  0.2828
 9003SOL     OW38467   0.874   3.139   8.439  0.1277 -0.1599  0.0451
 9003SOL    HW138468   0.847   3.155   8.529  2.2529 -0.7568  0.7754
 9003SOL    HW238469   0.961   3.175   8.456 -1.2352  3.3292 -0.3722
 9004SOL     OW38470   1.048   2.644   1.912 -0.6482  0.0730  0.1578
 9004SOL    HW138471   1.113   2.693   1.964 -0.1286 -1.2976  0.7901
 9004SOL    HW238472   0.992   2.607   1.980 -0.2819  1.2911  1.1313
 9005SOL     OW38473   0.674   3.757   4.011  0.4057  0.1644 -0.1728
 9005SOL    HW138474   0.671   3.693   4.083 -1.2137  0.4636  0.0317
 9005SOL    HW238475   0.660   3.838   4.061 -1.3281 -0.3221  0.1436
 9006SOL     OW38476   0.213   0.995   0.341 -0.0866 -0.2528  0.1387
 9006SOL    HW138477   0.158   0.949   0.405 -3.9329 -0.5032 -3.3836
 9006SOL    HW238478   0.150   1.061   0.312  1.5438  1.5678  0.7068
 9007SOL     OW38479   1.855   4.195   5.704 -0.2844  0.2667 -0.6258
 9007SOL    HW138480   1.944   4.183   5.671  0.3373  0.4675  0.9881
 9007SOL    HW238481   1.844   4.284   5.672 -2.3568  0.7104  1.3318
 9008SOL     OW38482   1.853   1.154   6.177  0.5945  0.0083 -0.1978
 9008SOL    HW138483   1.819   1.242   6.160  3.3170  0.7780 -1.7358
 9008SOL    HW238484   1.819   1.150   6.266  0.1919  1.3681 -0.2951
 9009SOL     OW38485   4.470   1.652   2.783 -0.5403  0.4448 -0.3156
 9009SOL    HW138486   4.409   1.718   2.751 -0.5761  0.3768 -0.3889
 9009SOL    HW238487   4.413   1.579   2.807 -0.6086  1.0293  1.2669
 9010SOL     OW38488   1.725   1.173   7.169 -0.0200 -0.2513  0.6569
 9010SOL    HW138489   1.759   1.102   7.224  0.8389  1.0565  1.8245
 9010SOL    HW238490   1.633   1.155   7.150  0.2902 -0.9188 -0.1877
 9011SOL     OW38491   0.024   0.185  17.145  0.1583  0.2814  0.0776
 9011SOL    HW138492   0.044   0.092  17.158  0.6902  0.6143  1.5740
 9011SOL    HW238493   4.658   0.178  17.104  0.0804 -0.2187  0.3221
 9012SOL     OW38494   1.884   0.740   0.606 -0.4666 -0.2447 -0.1792
 9012SOL    HW138495   1.821   0.669   0.598  1.8539 -2.1836 -1.0209
 9012SOL    HW238496   1.932   0.720   0.687 -2.8919 -2.0955  0.7951
 9013SOL     OW38497   1.041   0.380   7.308  0.0977  0.2343 -0.9324
 9013SOL    HW138498   0.964   0.327   7.289  0.2416  0.4564 -2.1758
 9013SOL    HW238499   1.002   0.441   7.370 -0.5188 -3.0477  1.9313
 9014SOL     OW38500   2.803   4.344   6.690  0.0755  0.1583  0.2086
 9014SOL    HW138501   2.746   4.275   6.725 -0.8655  1.6122  1.5034
 9014SOL    HW238502   2.854   4.298   6.623 -1.7298  0.9371 -1.6896
 9015SOL     OW38503   3.217   3.188  12.559 -0.1480 -0.9752 -0.5916
 9015SOL    HW138504   3.201   3.102  12.597 -0.2097 -1.4012 -1.6088
 9015SOL    HW238505   3.304   3.178  12.520  0.0784  2.3868 -0.9702
 9016SOL     OW38506   4.666   1.774  14.142 -0.4517  0.2462 -0.0350
 9016SOL    HW138507   4.620   1.835  14.084 -1.5850 -0.2573  0.3451
 9016SOL    HW238508   0.016   1.831  14.174  1.3161 -1.6133 -0.5863
 9017SOL     OW38509   1.778   0.051   3.509  0.5371 -0.5096 -0.0117
 9017SOL    HW138510   1.791   0.056   3.604  0.7379 -2.0734  0.0381
 9017SOL    HW238511   1.695   0.098   3.502 -0.4783 -2.0388  1.7481
 9018SOL     OW38512   1.297   2.549   3.612 -0.5883 -0.5925 -0.1515
 9018SOL    HW138513   1.314   2.455   3.601 -1.5696 -0.6191 -1.5105
 9018SOL    HW238514   1.354   2.580   3.681 -0.8719 -0.5827  0.0790
 9019SOL     OW38515   3.089   1.509   5.525 -0.5548 -0.2382  0.3700
 9019SOL    HW138516   2.996   1.518   5.543 -0.7968 -0.8787 -0.5342
 9019SOL    HW238517   3.114   1.593   5.484 -1.1754 -0.1856  0.0924
 9020SOL     OW38518   2.273   2.048   8.065 -0.3336 -0.0976 -0.5723
 9020SOL    HW138519   2.321   2.032   7.984 -1.0479 -2.1296 -0.5820
 9020SOL    HW238520   2.229   2.129   8.037 -3.0648 -1.1815  0.6050
 9021SOL     OW38521   2.250   3.734   4.428 -0.1207  0.1758  0.0196
 9021SOL    HW138522   2.303   3.679   4.485  0.0262 -0.6969 -0.9424
 9021SOL    HW238523   2.200   3.764   4.504 -1.5660 -0.7115 -0.5585
 9022SOL     OW38524   1.430   0.976  10.078  0.2694  0.0402 -0.2760
 9022SOL    HW138525   1.492   1.017  10.018 -0.0087 -0.4508 -0.9025
 9022SOL    HW238526   1.453   0.888  10.046 -1.0703 -0.6220  0.5677
 9023SOL     OW38527   2.623   4.070   8.448 -0.2522 -0.1892  0.2362
 9023SOL    HW138528   2.681   4.078   8.524  1.9958 -2.0228 -1.2629
 9023SOL    HW238529   2.644   4.145   8.392 -0.1302  0.3317  0.9792
 9024SOL     OW38530   2.567   3.291   5.820 -0.3954  0.0705 -0.4850
 9024SOL    HW138531   2.617   3.228   5.769 -1.0473 -0.1665 -0.8380
 9024SOL    HW238532   2.482   3.247   5.816  0.6887 -2.0747  0.1750
 9025SOL     OW38533   3.653   0.583   7.936 -0.1470  0.0643 -0.3857
 9025SOL    HW138534   3.712   0.654   7.960  1.0211 -0.8891 -0.4298
 9025SOL    HW238535   3.569   0.608   7.974 -2.1103 -3.1699 -2.5401
 9026SOL     OW38536   2.611   3.343   3.145 -0.2858 -0.1889  0.0085
 9026SOL    HW138537   2.571   3.431   3.144  0.4557  0.0870 -2.9052
 9026SOL    HW238538   2.561   3.299   3.076  0.3596  1.3786 -1.4630
 9027SOL     OW38539   1.005   3.004  14.343  0.1387  0.0262  0.9528
 9027SOL    HW138540   0.971   3.047  14.264 -1.2962 -0.1408  1.4795
 9027SOL    HW238541   1.026   2.914  14.319 -1.0564  0.0939 -0.3401
 9028SOL     OW38542   0.056   2.093  11.754  0.1765 -0.1960 -0.4340
 9028SOL    HW138543   0.086   2.165  11.698 -1.9787 -0.0636 -1.4052
 9028SOL    HW238544   0.121   2.025  11.733  0.1170 -0.5775  0.6420
 9029SOL     OW38545   1.064   3.320   9.417  0.2443  0.2109 -0.3975
 9029SOL    HW138546   1.029   3.309   9.328 -0.4119 -1.9964  0.1396
 9029SOL    HW238547   1.038   3.244   9.468 -2.8197  2.1199  0.8559
 9030SOL     OW38548   0.423   0.427   0.353 -0.1702  0.2554  0.3904
 9030SOL    HW138549   0.435   0.351   0.411 -0.9086 -0.8002 -0.8286
 9030SOL    HW238550   0.427   0.391   0.265  3.2090  0.0904  0.6245
 9031SOL     OW38551   1.848   2.291   2.591 -0.2618  0.2118 -0.4685
 9031SOL    HW138552   1.923   2.278   2.649  0.0669  1.2516 -0.6444
 9031SOL    HW238553   1.886   2.253   2.513  0.8283  0.3797 -0.0207
 9032SOL     OW38554   0.065   2.635  13.179  0.4660  0.0845  0.1035
 9032SOL    HW138555   4.699   2.673  13.163  1.1086  1.5400  0.0754
 9032SOL    HW238556   0.097   2.607  13.093  1.3019  0.5848  0.2538
 9033SOL     OW38557   4.597   2.929   7.465  0.6140 -0.1754  0.6920
 9033SOL    HW138558   4.673   2.871   7.470  0.2005 -0.6661  1.4400
 9033SOL    HW238559   4.570   2.912   7.375 -1.3409 -0.2158  1.2820
 9034SOL     OW38560   3.392   1.963  10.752 -0.5359  0.1183 -0.5044
 9034SOL    HW138561   3.471   1.909  10.760 -1.8301 -1.8671 -1.3678
 9034SOL    HW238562   3.389   2.006  10.837  0.6224  0.0285 -0.4124
 9035SOL     OW38563   4.050   3.745   1.682  0.2255 -0.1750 -0.2162
 9035SOL    HW138564   4.061   3.650   1.693  4.9288  0.3890 -0.0923
 9035SOL    HW238565   4.144   3.763   1.690  0.5275 -1.9281  0.2406
 9036SOL     OW38566   0.603   1.978   8.257 -0.1210  0.2702  0.3442
 9036SOL    HW138567   0.691   1.947   8.275 -0.6336 -1.6244 -0.3592
 9036SOL    HW238568   0.597   2.050   8.320  0.0548  1.9397 -1.5152
 9037SOL     OW38569   0.818   2.305   8.538  0.5289  0.3829  0.3764
 9037SOL    HW138570   0.809   2.351   8.621  3.4115 -0.3625  1.0745
 9037SOL    HW238571   0.857   2.372   8.482 -1.1054 -0.1711 -1.4311
 9038SOL     OW38572   3.216   4.090   6.552  0.3233 -0.5374  0.1947
 9038SOL    HW138573   3.188   4.151   6.620 -1.5462 -0.2583 -0.8049
 9038SOL    HW238574   3.290   4.040   6.587  0.3658  0.0493  0.9318
 9039SOL     OW38575   4.343   3.414   2.847  0.8844  0.3211  0.0170
 9039SOL    HW138576   4.404   3.487   2.838  0.4991  0.5587 -0.6457
 9039SOL    HW238577   4.275   3.448   2.905 -0.0835  1.7050 -1.9474
 9040SOL     OW38578   1.028   2.091  13.369 -0.5359 -0.0755 -0.3773
 9040SOL    HW138579   1.091   2.078  13.440  0.2412 -0.4144 -1.1398
 9040SOL    HW238580   1.079   2.127  13.296 -1.8847 -0.8151 -1.6796
 9041SOL     OW38581   1.815   2.102   5.093  0.0782 -0.5400  0.2045
 9041SOL    HW138582   1.787   2.045   5.022 -2.5112  0.3092  0.5288
 9041SOL    HW238583   1.886   2.052   5.133  0.4154 -1.4536 -1.5687
 9042SOL     OW38584   1.918   4.271   2.218  0.3225  0.6408 -0.2372
 9042SOL    HW138585   1.945   4.333   2.287  0.3173 -0.4739  0.7654
 9042SOL    HW238586   1.873   4.203   2.267  1.3908 -2.6782 -3.8640
 9043SOL     OW38587   0.881   0.419  16.615 -0.2335  0.1150  0.3345
 9043SOL    HW138588   0.812   0.363  16.580  0.9778 -0.5162 -1.0070
 9043SOL    HW238589   0.957   0.361  16.616  0.6962  1.3318 -0.5132
 9044SOL     OW38590   3.940   3.423   3.874  0.0809 -0.0189  0.5745
 9044SOL    HW138591   3.856   3.401   3.916  0.2012 -1.2611  0.1542
 9044SOL    HW238592   3.993   3.397   3.949 -1.1288  2.0327  2.1436
 9045SOL     OW38593   3.199   1.275   3.962 -0.4478 -0.2307 -0.2139
 9045SOL    HW138594   3.264   1.243   3.899 -0.2488 -0.7146  0.2338
 9045SOL    HW238595   3.129   1.209   3.959 -0.4870 -0.2064  0.2279
 9046SOL     OW38596   4.076   2.998   5.915  0.0875  0.4766 -0.1376
 9046SOL    HW138597   4.137   2.931   5.945 -1.9582 -1.2553  0.1179
 9046SOL    HW238598   4.023   2.948   5.853  2.1070 -1.7377 -0.0671
 9047SOL     OW38599   3.440   3.287  10.891 -0.2531 -0.1969  0.3215
 9047SOL    HW138600   3.498   3.352  10.930  0.6149 -0.5809 -0.3469
 9047SOL    HW238601   3.449   3.212  10.950  0.7198 -0.7151 -0.5047
 9048SOL     OW38602   0.835   0.321   2.680 -0.1700  0.2396 -0.1856
 9048SOL    HW138603   0.833   0.374   2.601 -1.2988 -0.3091 -0.5232
 9048SOL    HW238604   0.784   0.243   2.658 -0.0281  0.8968 -2.8435
 9049SOL     OW38605   4.477   1.062   7.621 -0.0282  0.2442  0.7291
 9049SOL    HW138606   4.522   1.135   7.664  0.2733  1.0428 -0.9373
 9049SOL    HW238607   4.406   1.032   7.678  1.4173 -2.0010  1.3481
 9050SOL     OW38608   4.487   1.218   1.400  0.5050  0.4353 -0.4242
 9050SOL    HW138609   4.502   1.242   1.492 -1.2660  1.3151 -0.3831
 9050SOL    HW238610   4.393   1.207   1.405  0.3019  0.8623 -3.5974
 9051SOL     OW38611   3.569   1.887   3.997  0.5536  0.3676  0.3777
 9051SOL    HW138612   3.504   1.915   3.931 -1.5846 -2.0362  1.4989
 9051SOL    HW238613   3.647   1.915   3.948 -0.8123  2.5502 -0.5443
 9052SOL     OW38614   0.377   0.967   6.279  0.1005 -0.3607  0.4770
 9052SOL    HW138615   0.416   1.037   6.332  0.8027  0.1241 -0.6899
 9052SOL    HW238616   0.311   1.015   6.229 -0.9551  0.2371  2.4245
 9053SOL     OW38617   2.467   2.130   7.613  0.1264  0.2156  0.6411
 9053SOL    HW138618   2.379   2.167   7.616  0.8364  1.8312  1.5802
 9053SOL    HW238619   2.515   2.204   7.575 -0.8517  0.6628  0.2791
 9054SOL     OW38620   2.320   3.567   5.952 -0.4868 -0.1229  0.3817
 9054SOL    HW138621   2.234   3.576   5.911 -0.4151 -1.8884 -0.1832
 9054SOL    HW238622   2.306   3.492   6.010 -2.1637  0.3447  0.5724
 9055SOL     OW38623   0.863   2.259   3.472  0.0234  0.1432 -0.3428
 9055SOL    HW138624   0.944   2.264   3.420 -0.5928  1.6054 -1.1795
 9055SOL    HW238625   0.811   2.202   3.416 -1.1828  1.4108 -0.5024
 9056SOL     OW38626   1.209   2.322   8.263 -0.0841  0.5966 -0.7958
 9056SOL    HW138627   1.169   2.386   8.204  1.1018  2.0079 -0.0540
 9056SOL    HW238628   1.197   2.352   8.354 -1.1566 -0.7092 -0.5093
 9057SOL     OW38629   2.753   2.718   5.409 -0.0759 -0.0038 -0.3449
 9057SOL    HW138630   2.828   2.725   5.468  0.1799 -1.5750 -0.4923
 9057SOL    HW238631   2.727   2.810   5.402 -0.5731 -0.1263 -0.1341
 9058SOL     OW38632   4.377   1.562   7.574  0.1851 -0.0656  0.1940
 9058SOL    HW138633   4.290   1.600   7.567 -0.0772 -1.0889 -1.9867
 9058SOL    HW238634   4.431   1.641   7.573 -0.1509  0.1708  1.2393
 9059SOL     OW38635   2.272   0.660   4.631  0.2932  0.0717 -0.0004
 9059SOL    HW138636   2.292   0.624   4.717 -2.5825 -1.8461 -0.1090
 9059SOL    HW238637   2.236   0.743   4.661  0.6463  1.3028 -2.9167
 9060SOL     OW38638   4.458   1.536  11.849  0.3828 -0.1568 -0.2260
 9060SOL    HW138639   4.396   1.574  11.787  0.7309 -1.6334 -1.4894
 9060SOL    HW238640   4.443   1.593  11.925  1.1167 -0.4306  0.1176
 9061SOL     OW38641   0.362   0.514  12.374  0.0368  0.2005  0.1541
 9061SOL    HW138642   0.281   0.500  12.325  2.7194  0.5353 -4.4191
 9061SOL    HW238643   0.419   0.461  12.317 -0.2983  0.6172 -0.5587
 9062SOL     OW38644   4.596   2.278   2.267  0.3632  0.0957 -0.5238
 9062SOL    HW138645   4.513   2.264   2.314 -1.1241  3.2914 -2.1700
 9062SOL    HW238646   4.655   2.266   2.341 -1.3118  0.5836  0.8941
 9063SOL     OW38647   4.122   0.128   2.728  0.3302  0.1407 -0.0833
 9063SOL    HW138648   4.085   0.065   2.666  2.8931 -0.0738 -1.4060
 9063SOL    HW238649   4.172   0.184   2.669 -0.3857  1.7632  0.8552
 9064SOL     OW38650   3.879   1.573   8.269 -0.3524 -0.4354 -0.3828
 9064SOL    HW138651   3.933   1.566   8.347  1.4170  4.1497 -1.2466
 9064SOL    HW238652   3.795   1.575   8.314  0.5477 -0.7350  1.2811
 9065SOL     OW38653   2.573   2.330   8.580  0.9707  0.2463  0.2688
 9065SOL    HW138654   2.508   2.347   8.512  2.8900  0.4754 -1.5107
 9065SOL    HW238655   2.601   2.420   8.595 -0.3942  0.3856  2.0474
 9066SOL     OW38656   0.495   4.623   7.941  0.4071 -0.3885  0.0160
 9066SOL    HW138657   0.478   4.560   8.012  0.7250 -1.3346 -0.7531
 9066SOL    HW238658   0.408   4.620   7.901  0.3252  0.9288  0.0948
 9067SOL     OW38659   3.105   3.749   6.387  0.0443  0.2126 -0.6984
 9067SOL    HW138660   3.070   3.681   6.445  1.0784 -0.2578 -0.6223
 9067SOL    HW238661   3.030   3.808   6.394  0.7457  0.9192  0.6807
 9068SOL     OW38662   0.794   1.638   3.788  0.2670 -0.5662 -0.3023
 9068SOL    HW138663   0.884   1.651   3.817  0.5532  0.8434 -1.8321
 9068SOL    HW238664   0.764   1.559   3.833  0.1014  1.3527  2.9140
 9069SOL     OW38665   1.336   3.229   5.280 -0.0376  0.5654 -0.0914
 9069SOL    HW138666   1.246   3.257   5.301  0.9604  2.7833  1.2299
 9069SOL    HW238667   1.358   3.205   5.370 -2.2011  1.3383  0.6540
 9070SOL     OW38668   4.619   4.605  14.796  0.2061  0.2938 -0.5210
 9070SOL    HW138669   4.570   4.524  14.787  2.0096 -1.1476  2.5721
 9070SOL    HW238670   4.687   4.603  14.729  0.3386 -1.8739 -0.3092
 9071SOL     OW38671   0.282   0.886   1.308  0.0881  0.4750  0.2073
 9071SOL    HW138672   0.306   0.871   1.216 -0.2026  1.2969  0.0039
 9071SOL    HW238673   0.362   0.927   1.340  0.2985 -1.6490  2.3780
 9072SOL     OW38674   2.203   2.957   7.645  0.2503  0.2562 -0.1650
 9072SOL    HW138675   2.188   2.895   7.716 -0.4354  0.7550  0.1193
 9072SOL    HW238676   2.114   2.964   7.611 -0.0993 -0.7683  0.5530
 9073SOL     OW38677   2.476   0.955   9.362 -0.5356 -0.1704 -0.2904
 9073SOL    HW138678   2.522   0.904   9.294 -1.4220  0.0363 -1.0386
 9073SOL    HW238679   2.492   0.901   9.440 -2.0360 -1.4469 -0.8635
 9074SOL     OW38680   3.219   3.905   2.581 -0.0270 -0.7112 -0.5650
 9074SOL    HW138681   3.138   3.856   2.591  0.1830 -0.9670 -0.1288
 9074SOL    HW238682   3.205   3.975   2.517 -2.0068  0.1058  0.7860
 9075SOL     OW38683   2.810   3.688   3.761 -0.5961  0.3625  0.5780
 9075SOL    HW138684   2.737   3.684   3.824 -1.1691 -2.9468 -0.2930
 9075SOL    HW238685   2.831   3.781   3.772  0.6354 -0.0975  2.0808
 9076SOL     OW38686   1.056   4.691   9.409 -0.4859 -0.5219  0.0129
 9076SOL    HW138687   0.982   0.025   9.432  1.9793  2.0076  1.9682
 9076SOL    HW238688   1.092   0.004   9.327  0.7528  1.1974  1.2715
 9077SOL     OW38689   3.699   1.546   7.869  0.6259 -0.0707 -0.1713
 9077SOL    HW138690   3.607   1.566   7.886  0.6318  0.2271 -0.4853
 9077SOL    HW238691   3.726   1.629   7.829  1.9616 -1.7473 -2.7436
 9078SOL     OW38692   4.483   3.203   1.894 -0.7852 -0.1959 -0.6861
 9078SOL    HW138693   4.465   3.167   1.981 -2.2202 -2.1663 -1.7792
 9078SOL    HW238694   4.392   3.229   1.876 -0.9560 -1.0217 -1.0552
 9079SOL     OW38695   3.131   4.604   3.034 -0.1309 -0.4453  0.1156
 9079SOL    HW138696   3.123   4.695   3.009  0.5150 -0.4032  0.0464
 9079SOL    HW238697   3.225   4.584   3.028 -0.2739 -0.6590 -1.3581
 9080SOL     OW38698   2.966   1.645   7.680 -0.8169 -0.4682  0.3389
 9080SOL    HW138699   3.043   1.696   7.707 -0.5245 -0.4438 -0.5373
 9080SOL    HW238700   2.994   1.614   7.594  2.0214  0.4127  0.9560
 9081SOL     OW38701   3.419   0.293   2.401  0.5084 -0.3100  0.5288
 9081SOL    HW138702   3.412   0.296   2.496  0.0640  0.6636  0.4591
 9081SOL    HW238703   3.494   0.237   2.379 -0.6528 -1.4610 -0.5519
 9082SOL     OW38704   4.575   3.062  13.780  0.3376 -0.5098 -0.1380
 9082SOL    HW138705   4.632   2.996  13.819  0.0664 -0.1874  0.8138
 9082SOL    HW238706   4.643   3.114  13.737 -0.3779  1.3834  0.9949
 9083SOL     OW38707   2.145   2.747   5.414  0.1388 -0.1007  0.5164
 9083SOL    HW138708   2.136   2.654   5.390 -2.0068  1.0785 -3.3629
 9083SOL    HW238709   2.053   2.772   5.410 -0.1270 -1.3493 -1.4643
 9084SOL     OW38710   2.552   2.812  13.208  0.7047  0.1738  0.1042
 9084SOL    HW138711   2.535   2.859  13.290 -1.9651 -1.1869  0.3325
 9084SOL    HW238712   2.647   2.812  13.198  0.7592  1.6514  0.5923
 9085SOL     OW38713   1.616   4.257   2.279  0.2517 -0.1692  0.0958
 9085SOL    HW138714   1.652   4.341   2.250  1.8094 -2.3328 -4.2558
 9085SOL    HW238715   1.588   4.273   2.369  0.5356 -0.8475  0.3068
 9086SOL     OW38716   4.634   4.617  17.378 -0.7838 -0.8376 -0.6381
 9086SOL    HW138717   4.714   4.614  17.325 -0.5301 -0.6446 -0.2690
 9086SOL    HW238718   4.632   4.712  17.391 -2.6311 -1.3271  2.6641
 9087SOL     OW38719   1.822   4.255   8.817 -0.0901  0.2031 -0.5541
 9087SOL    HW138720   1.861   4.254   8.730 -1.1178  2.9701 -1.0701
 9087SOL    HW238721   1.901   4.244   8.870  0.4464  0.6235 -1.2654
 9088SOL     OW38722   3.441   2.501   8.494 -0.0494 -0.0263  0.4676
 9088SOL    HW138723   3.463   2.442   8.567 -0.3178 -1.0325 -0.2701
 9088SOL    HW238724   3.524   2.530   8.458  0.5183 -1.7521  0.4095
 9089SOL     OW38725   4.315   4.511   0.492 -0.8016 -0.4217  0.0519
 9089SOL    HW138726   4.351   4.556   0.416 -1.3616 -1.1571 -0.6453
 9089SOL    HW238727   4.262   4.438   0.460  1.1806 -1.8311 -0.0051
 9090SOL     OW38728   1.128   2.708   2.620 -0.0268  0.7481  1.0907
 9090SOL    HW138729   1.134   2.798   2.587  1.9166  0.4032  0.4847
 9090SOL    HW238730   1.171   2.664   2.547  0.2995  2.4445  0.2515
 9091SOL     OW38731   2.248   3.809  13.397  0.2771 -0.2376 -0.4784
 9091SOL    HW138732   2.202   3.879  13.350 -2.4894 -0.5313  1.7818
 9091SOL    HW238733   2.327   3.851  13.432  0.1856  1.1957 -1.9568
 9092SOL     OW38734   1.496   0.166   4.552  0.1614  0.3028  0.5782
 9092SOL    HW138735   1.428   0.219   4.511 -0.3526 -0.2746  0.6707
 9092SOL    HW238736   1.530   0.117   4.478 -1.9974  1.9434 -1.5001
 9093SOL     OW38737   3.729   3.347   3.282  0.3220 -0.4720 -0.2680
 9093SOL    HW138738   3.643   3.319   3.250 -0.0834  0.5247 -0.0302
 9093SOL    HW238739   3.716   3.432   3.323  1.1678  0.3350 -1.6467
 9094SOL     OW38740   4.295   4.475  12.700 -0.1548  0.1481 -0.2744
 9094SOL    HW138741   4.216   4.440  12.742 -0.5349 -0.0356 -1.1486
 9094SOL    HW238742   4.264   4.515  12.619 -0.7852 -0.0054 -0.1089
 9095SOL     OW38743   0.257   0.562   4.560  0.3747  0.5273 -0.3182
 9095SOL    HW138744   0.289   0.651   4.572  0.8095  0.2396  0.6499
 9095SOL    HW238745   0.180   0.573   4.617  0.4470 -0.1923 -0.0819
 9096SOL     OW38746   0.390   4.291   2.341  0.1065 -0.0630  0.0025
 9096SOL    HW138747   0.305   4.263   2.375 -0.0799  1.0940  0.5235
 9096SOL    HW238748   0.347   4.357   2.286 -1.8688 -1.1324  0.2759
 9097SOL     OW38749   4.604   0.607   9.413 -0.5330  0.3543 -0.0079
 9097SOL    HW138750   4.688   0.583   9.374 -0.5533 -1.9222  1.3635
 9097SOL    HW238751   4.565   0.527   9.448  1.3415 -0.7553 -0.4456
 9098SOL     OW38752   2.972   3.329  17.538  0.3362 -0.1515 -0.1133
 9098SOL    HW138753   2.884   3.291  17.536  0.0353  0.6320 -1.8118
 9098SOL    HW238754   2.975   3.361  17.447 -0.1594 -0.0241 -0.0836
 9099SOL     OW38755   3.873   3.624   7.904  0.1006  0.9532  0.2420
 9099SOL    HW138756   3.778   3.636   7.914 -0.0112  0.8423 -0.7664
 9099SOL    HW238757   3.921   3.680   7.964 -0.8870  2.3865 -0.3025
 9100SOL     OW38758   1.167   3.073   5.516  0.4232 -0.4305  0.3488
 9100SOL    HW138759   1.155   2.993   5.465  0.0286 -0.0435 -0.1669
 9100SOL    HW238760   1.098   3.075   5.582  0.3057  2.8677  0.1330
 9101SOL     OW38761   0.595   1.166   2.296 -0.4533  0.4702  0.7862
 9101SOL    HW138762   0.651   1.243   2.286  0.1517 -0.0095  0.4751
 9101SOL    HW238763   0.665   1.103   2.311 -0.0581  0.6528 -0.2454
 9102SOL     OW38764   1.736   4.404   1.250  0.3274  0.5623 -0.1671
 9102SOL    HW138765   1.714   4.436   1.337  1.2436  0.0374  0.2584
 9102SOL    HW238766   1.806   4.341   1.270 -1.7647 -1.9780 -0.9393
 9103SOL     OW38767   0.426   4.427   5.168 -0.0293  0.0640  0.0820
 9103SOL    HW138768   0.376   4.345   5.157 -2.1889  1.2214  1.2588
 9103SOL    HW238769   0.487   4.399   5.236 -2.3105  0.5461  2.3489
 9104SOL     OW38770   0.756   0.826   3.566  0.3107 -0.0180  0.2585
 9104SOL    HW138771   0.791   0.802   3.480 -0.4467 -1.6986  0.4125
 9104SOL    HW238772   0.664   0.804   3.556  1.1190 -1.6316 -3.7780
 9105SOL     OW38773   4.544   3.754   1.299 -0.2015 -0.1760 -0.0188
 9105SOL    HW138774   4.536   3.712   1.213  0.9864  1.5950 -1.0039
 9105SOL    HW238775   4.554   3.848   1.279  0.9334 -0.8391 -2.6334
 9106SOL     OW38776   1.085   3.957   5.588 -0.0927 -0.4019  0.0346
 9106SOL    HW138777   1.039   3.874   5.579 -1.0176  0.1957 -0.8025
 9106SOL    HW238778   1.178   3.934   5.588 -0.2491 -1.0384 -0.6129
 9107SOL     OW38779   3.173   3.508  12.335 -0.2101 -0.2311 -0.7975
 9107SOL    HW138780   3.134   3.537  12.253 -0.4761 -2.4956 -1.4720
 9107SOL    HW238781   3.229   3.439  12.299 -0.3206 -1.4089  1.2548
 9108SOL     OW38782   1.248   2.435  11.140 -0.1194 -0.0324  0.3544
 9108SOL    HW138783   1.283   2.348  11.155 -1.4477 -0.9244 -1.6979
 9108SOL    HW238784   1.185   2.411  11.072  0.5891  1.2160 -0.7454
 9109SOL     OW38785   4.318   1.311   3.410 -0.0437 -0.0083 -0.0187
 9109SOL    HW138786   4.314   1.293   3.504 -2.9860  1.5355  0.1730
 9109SOL    HW238787   4.332   1.405   3.420 -2.9580  0.1951  2.2719
 9110SOL     OW38788   1.286   2.212   0.614 -0.4345 -0.0633 -0.1821
 9110SOL    HW138789   1.251   2.124   0.594 -2.6001  0.0414  3.1746
 9110SOL    HW238790   1.380   2.199   0.614 -0.3109  0.8221 -0.8151
 9111SOL     OW38791   3.299   4.482   4.573  0.4685 -0.0589 -0.1809
 9111SOL    HW138792   3.300   4.424   4.649  2.7081 -0.4037 -0.4820
 9111SOL    HW238793   3.342   4.419   4.516  1.5390  1.6192 -1.2551
 9112SOL     OW38794   1.159   3.013   8.710  0.2910  0.1030 -0.4298
 9112SOL    HW138795   1.253   2.996   8.721  0.3331  0.5028 -0.1707
 9112SOL    HW238796   1.131   3.057   8.790  0.1083  1.2149 -1.1096
 9113SOL     OW38797   1.359   1.037  17.571  0.7737 -0.2303  0.3215
 9113SOL    HW138798   1.421   1.097  17.612  1.4851 -1.6697  1.3482
 9113SOL    HW238799   1.398   1.002  17.491  0.6990 -0.8359  0.5500
 9114SOL     OW38800   3.860   4.617   4.142 -0.3034 -0.4528  0.2437
 9114SOL    HW138801   3.842   4.669   4.221  1.0348  0.2713  0.0830
 9114SOL    HW238802   3.831   4.677   4.073  1.7444 -0.1985 -0.3890
 9115SOL     OW38803   0.333   0.584   9.033  0.1073  0.3396 -0.6316
 9115SOL    HW138804   0.239   0.571   9.020  0.5214 -0.9629 -2.2916
 9115SOL    HW238805   0.354   0.500   9.074  1.1692  1.0347  0.2464
 9116SOL     OW38806   1.440   1.242   2.520  0.1565 -0.4319  0.2088
 9116SOL    HW138807   1.430   1.332   2.551  0.0017  0.6699 -3.0092
 9116SOL    HW238808   1.443   1.250   2.425 -0.1311  0.3485  0.2723
 9117SOL     OW38809   4.718   2.657  15.016 -0.0850 -0.4170  0.5818
 9117SOL    HW138810   0.046   2.739  15.022  1.7491 -1.5104  0.6584
 9117SOL    HW238811   4.685   2.638  15.104  0.7891 -0.2333  0.9479
 9118SOL     OW38812   1.396   1.899   8.725  0.6525  0.6566 -0.1362
 9118SOL    HW138813   1.465   1.964   8.734 -0.5766  1.9824 -0.2353
 9118SOL    HW238814   1.455   1.828   8.749  1.5897  1.6047  0.3664
 9119SOL     OW38815   1.327   0.837   3.299 -0.1674 -0.3417  0.2210
 9119SOL    HW138816   1.384   0.761   3.305  0.5130  0.2580  1.3400
 9119SOL    HW238817   1.382   0.894   3.246  1.1240 -0.8415  1.0307
 9120SOL     OW38818   2.284   4.314   1.180  0.4412  0.0174  0.3915
 9120SOL    HW138819   2.250   4.274   1.261 -0.3311  0.6238  0.3684
 9120SOL    HW238820   2.350   4.248   1.157 -0.1255 -0.1812 -0.6513
 9121SOL     OW38821   2.684   2.287   1.022  0.3074 -0.7564  0.1517
 9121SOL    HW138822   2.693   2.367   1.073 -1.5190 -0.6751  0.3326
 9121SOL    HW238823   2.656   2.225   1.089 -1.8055  1.9464  1.7914
 9122SOL     OW38824   1.812   3.097   9.633 -0.7470 -0.4026 -0.5378
 9122SOL    HW138825   1.721   3.093   9.602 -0.7892 -1.5850 -0.2678
 9122SOL    HW238826   1.828   3.191   9.625  1.2518 -0.7630 -0.8134
 9123SOL     OW38827   1.597   2.094  16.362  0.7588  0.2284  0.0437
 9123SOL    HW138828   1.672   2.125  16.310 -0.2519  0.7713 -1.0851
 9123SOL    HW238829   1.524   2.145  16.327 -0.0659 -0.5082  0.6763
 9124SOL     OW38830   2.984   1.911   4.150  0.5926 -0.5800 -0.2510
 9124SOL    HW138831   3.006   1.823   4.179 -2.0932 -0.4161  2.3136
 9124SOL    HW238832   3.066   1.960   4.160 -0.6816  1.0380  2.4654
 9125SOL     OW38833   3.828   3.976  10.178  0.3566 -0.1484  0.4860
 9125SOL    HW138834   3.735   3.964  10.194  0.2527  0.1033  0.0564
 9125SOL    HW238835   3.829   4.052  10.121 -2.0715 -0.8567 -0.4601
 9126SOL     OW38836   3.860   0.829   8.536 -0.4850  0.8013 -0.6530
 9126SOL    HW138837   3.880   0.883   8.612  1.8103 -1.2673  0.2260
 9126SOL    HW238838   3.898   0.746   8.566  0.0683  1.0825 -0.5896
 9127SOL     OW38839   0.373   4.660   6.733 -0.7782 -0.2523 -0.0539
 9127SOL    HW138840   0.322   4.638   6.655  1.1792 -0.3501 -1.3100
 9127SOL    HW238841   0.453   4.692   6.691 -0.3778 -2.5211 -1.0091
 9128SOL     OW38842   4.655   1.812  10.305 -0.1835 -0.3526  0.0663
 9128SOL    HW138843   0.020   1.786  10.339 -1.0050 -0.7170  1.8309
 9128SOL    HW238844   4.606   1.855  10.375  0.8374  1.7941 -0.5473
 9129SOL     OW38845   0.399   2.881  13.732  0.3687  0.2450  0.2428
 9129SOL    HW138846   0.392   2.974  13.708  1.4819  0.1512 -0.4731
 9129SOL    HW238847   0.394   2.889  13.828 -1.1993  1.0286  0.0978
 9130SOL     OW38848   2.888   4.581  15.080 -0.5291 -0.7573  0.2737
 9130SOL    HW138849   2.899   4.583  15.175 -3.0355  0.2547  0.5375
 9130SOL    HW238850   2.946   4.508  15.058 -0.1110 -0.5239  0.6032
 9131SOL     OW38851   4.681   0.413   4.517  0.2122  0.1919  0.0013
 9131SOL    HW138852   0.028   0.347   4.529  1.0930  0.9609 -0.6968
 9131SOL    HW238853   4.663   0.407   4.423  2.1436 -1.2738 -0.2884
 9132SOL     OW38854   0.093   0.692   7.041  0.4235  0.5210  0.2360
 9132SOL    HW138855   0.018   0.727   7.089 -1.2650 -0.9148 -1.3366
 9132SOL    HW238856   0.143   0.655   7.114  1.4952 -0.6441 -1.0664
 9133SOL     OW38857   1.509   4.394   0.346 -0.6665 -0.4439 -0.6287
 9133SOL    HW138858   1.461   4.476   0.332 -3.1749 -1.7404  0.2521
 9133SOL    HW238859   1.494   4.355   0.260 -0.5253  0.3652 -1.0212
 9134SOL     OW38860   3.327   2.616  14.287 -0.2487 -0.0866 -0.1644
 9134SOL    HW138861   3.254   2.646  14.340 -2.1618  0.1404 -2.9384
 9134SOL    HW238862   3.328   2.684  14.220 -0.4011 -1.1380 -1.2425
 9135SOL     OW38863   0.120   3.874   0.677 -0.4352 -0.2045  0.0802
 9135SOL    HW138864   0.188   3.937   0.654  0.8900 -0.6020  2.9050
 9135SOL    HW238865   0.141   3.864   0.770 -1.5050 -0.2135  0.3253
 9136SOL     OW38866   2.894   1.473   7.209  0.1923 -0.0286 -0.2888
 9136SOL    HW138867   2.907   1.560   7.245  3.1347 -0.7560  0.3668
 9136SOL    HW238868   2.930   1.481   7.121 -0.4799  0.7277 -0.4943
 9137SOL     OW38869   3.389   3.691   3.287 -1.3468  0.3064 -0.1288
 9137SOL    HW138870   3.387   3.668   3.380 -0.5131 -0.1672 -0.2285
 9137SOL    HW238871   3.343   3.775   3.279  1.3672  1.8807  0.6657
 9138SOL     OW38872   0.317   3.915   2.932 -0.0382  0.0257  0.4463
 9138SOL    HW138873   0.291   3.990   2.879  0.7378  1.8536  2.6428
 9138SOL    HW238874   0.412   3.925   2.939  0.0455  1.2391 -2.6880
 9139SOL     OW38875   3.016   1.299   6.753 -0.1393  0.3775  0.2422
 9139SOL    HW138876   3.083   1.363   6.729  1.8744 -2.6481 -2.1371
 9139SOL    HW238877   2.999   1.343   6.837  2.5073  0.2012  0.8578
 9140SOL     OW38878   2.455   3.366   9.543 -0.2670  0.7008  0.3545
 9140SOL    HW138879   2.549   3.360   9.557 -0.4734 -1.5507  0.6515
 9140SOL    HW238880   2.441   3.433   9.610 -2.1130  1.2653 -0.5951
 9141SOL     OW38881   4.050   1.573   7.872  0.4415 -0.6002  0.1089
 9141SOL    HW138882   3.995   1.628   7.928 -0.2072 -1.2539  0.1157
 9141SOL    HW238883   4.054   1.486   7.912 -1.9526 -0.8873 -0.3042
 9142SOL     OW38884   0.546   0.947  12.577 -0.4592  0.2446 -0.3253
 9142SOL    HW138885   0.461   0.965  12.536 -1.2767  0.9079  1.6455
 9142SOL    HW238886   0.560   0.858  12.545  0.7860  0.2995  0.0656
 9143SOL     OW38887   0.407   0.932   2.907  0.3205 -0.6284  0.2979
 9143SOL    HW138888   0.325   0.950   2.952  0.2866  1.0180 -0.4491
 9143SOL    HW238889   0.395   0.981   2.826  0.5277  0.0876  0.7018
 9144SOL     OW38890   4.257   0.894   0.740  0.2912  0.0277  0.4227
 9144SOL    HW138891   4.267   0.799   0.746 -1.2218 -0.2741 -1.7553
 9144SOL    HW238892   4.293   0.909   0.827  1.1944  1.8370 -0.2611
 9145SOL     OW38893   1.422   3.047   4.011 -0.1439  0.3457  0.2720
 9145SOL    HW138894   1.374   3.059   4.092 -0.2979 -2.6074  0.6310
 9145SOL    HW238895   1.358   3.075   3.946  0.3576 -1.5363 -1.0445
 9146SOL     OW38896   2.699   2.465  10.205  0.1663  0.3401 -0.0176
 9146SOL    HW138897   2.646   2.539  10.177  1.4872  2.1096  2.1774
 9146SOL    HW238898   2.665   2.443  10.291 -1.0312  2.0629 -0.0441
 9147SOL     OW38899   4.261   3.187  15.815 -0.1182  0.2807  0.7592
 9147SOL    HW138900   4.167   3.188  15.827 -0.3434  0.0635 -1.0067
 9147SOL    HW238901   4.296   3.185  15.904  0.4521 -0.5645  0.5241
 9148SOL     OW38902   1.465   4.702  14.751  0.3694 -0.0612  0.1200
 9148SOL    HW138903   1.483   0.006  14.842  0.8470  2.1725 -0.5829
 9148SOL    HW238904   1.547   4.659  14.727  0.2639 -0.5574  0.6348
 9149SOL     OW38905   2.915   3.376   3.986  0.0267  0.1000  0.3851
 9149SOL    HW138906   3.009   3.387   3.973  0.3112 -2.1610  0.6063
 9149SOL    HW238907   2.887   3.465   4.006  0.4626  0.0463  1.2318
 9150SOL     OW38908   3.059   1.015   6.493 -0.1903 -0.3178  0.0387
 9150SOL    HW138909   3.111   1.079   6.444  0.1078 -0.9710 -0.5034
 9150SOL    HW238910   3.066   0.940   6.435  0.2381  0.8173 -1.3891
 9151SOL     OW38911   1.122   2.941  17.334  0.2988  0.6126  0.2738
 9151SOL    HW138912   1.063   2.867  17.351 -2.9858  3.1457 -0.1091
 9151SOL    HW238913   1.080   3.003  17.394 -1.7119  0.0761 -0.5577
 9152SOL     OW38914   2.190   3.512  10.864 -0.3549 -0.3230 -0.5383
 9152SOL    HW138915   2.121   3.469  10.813  0.1253 -1.7846  0.0512
 9152SOL    HW238916   2.265   3.464  10.831 -0.8052 -1.7133  0.4685
 9153SOL     OW38917   1.098   1.176   9.506 -0.5711 -0.1753 -0.1908
 9153SOL    HW138918   1.155   1.229   9.563 -1.9021  0.7720  0.2527
 9153SOL    HW238919   1.013   1.162   9.547 -0.2486 -0.1212  0.5034
 9154SOL     OW38920   0.089   0.406  17.574 -0.0570  0.5809 -0.5577
 9154SOL    HW138921   0.033   0.330  17.585 -1.8987  1.5896 -2.8818
 9154SOL    HW238922   0.064   0.467  17.643 -2.8250 -1.5097  0.2676
 9155SOL     OW38923   1.020   1.845   3.152  0.2737  0.5015 -0.6437
 9155SOL    HW138924   1.091   1.905   3.174  1.3360 -0.6207 -0.9922
 9155SOL    HW238925   0.942   1.900   3.156  0.7184  1.1391 -0.8591
 9156SOL     OW38926   2.986   0.331   4.420 -1.0994 -0.1970  0.2964
 9156SOL    HW138927   2.894   0.310   4.403 -1.0807 -0.3513  0.3779
 9156SOL    HW238928   3.023   0.285   4.345 -0.1157  3.4663 -1.4442
 9157SOL     OW38929   1.277   1.593   5.926  0.1444 -0.0303  0.0755
 9157SOL    HW138930   1.300   1.685   5.914  0.6919 -0.2706 -0.6827
 9157SOL    HW238931   1.209   1.587   5.859 -0.1296  0.4984  0.3115
 9158SOL     OW38932   2.325   4.613  16.034 -0.1212  0.1579  0.2421
 9158SOL    HW138933   2.264   4.648  16.099  1.0077  1.3383  0.6579
 9158SOL    HW238934   2.265   4.577  15.969  0.1230 -0.7615  0.5146
 9159SOL     OW38935   3.099   0.830   4.603 -0.2381  0.3464 -0.2684
 9159SOL    HW138936   3.134   0.763   4.543  0.9144 -0.0571  0.8550
 9159SOL    HW238937   3.028   0.869   4.553 -0.1125  0.5466 -0.2893
 9160SOL     OW38938   1.567   2.810   9.130  0.3005 -0.4023  0.0542
 9160SOL    HW138939   1.587   2.799   9.223 -0.8115  0.3627  0.3859
 9160SOL    HW238940   1.657   2.814   9.098  1.3625 -1.4604  2.9696
 9161SOL     OW38941   0.779   0.323   4.994 -0.5209 -0.4913 -0.1384
 9161SOL    HW138942   0.785   0.259   5.065  0.7071 -0.8956 -0.6167
 9161SOL    HW238943   0.815   0.275   4.919  1.2518 -0.8008  0.9293
 9162SOL     OW38944   0.551   1.449   6.653  0.6243  0.3773  0.3925
 9162SOL    HW138945   0.590   1.427   6.737 -0.3640 -0.9513  0.5032
 9162SOL    HW238946   0.614   1.498   6.600 -0.3317 -0.2744 -1.3534
 9163SOL     OW38947   1.918   3.476   4.286 -0.3605 -0.3376  0.3189
 9163SOL    HW138948   1.899   3.383   4.279 -1.0215 -0.0311 -1.9309
 9163SOL    HW238949   1.869   3.500   4.207 -0.4530 -1.0249  0.1649
 9164SOL     OW38950   4.686   3.937   0.261 -0.2307  0.2089 -0.1664
 9164SOL    HW138951   4.599   3.971   0.283 -0.1695 -1.2078  2.2084
 9164SOL    HW238952   0.020   4.015   0.258 -1.6506  1.2739  1.8366
 9165SOL     OW38953   2.801   3.210   2.718 -0.1364  0.4173 -0.0013
 9165SOL    HW138954   2.776   3.121   2.742 -0.3928 -0.4707 -3.6453
 9165SOL    HW238955   2.881   3.195   2.669 -1.8397 -0.6686 -2.4390
 9166SOL     OW38956   1.977   4.271   1.195  0.4681 -0.9526  0.0740
 9166SOL    HW138957   2.028   4.226   1.262  0.2773 -2.2141 -0.6294
 9166SOL    HW238958   2.031   4.346   1.170  0.6466 -0.6279  1.4324
 9167SOL     OW38959   4.288   1.754  15.819  0.1031 -0.3176  0.7938
 9167SOL    HW138960   4.248   1.716  15.897 -1.1596  0.0108  0.3117
 9167SOL    HW238961   4.364   1.697  15.811  0.5031  0.3662 -0.3390
 9168SOL     OW38962   3.859   2.633   4.850  0.5039 -0.0177 -0.4493
 9168SOL    HW138963   3.941   2.682   4.847 -0.4981  1.7197  0.6079
 9168SOL    HW238964   3.796   2.704   4.839 -0.6857 -1.4316 -2.8407
 9169SOL     OW38965   4.019   1.563  15.211  0.0535 -0.0641 -0.2173
 9169SOL    HW138966   4.009   1.591  15.302 -0.3250  0.5997 -0.4579
 9169SOL    HW238967   3.971   1.637  15.173  0.9497  0.4213 -0.3894
 9170SOL     OW38968   1.595   2.944   1.725 -0.0898 -0.2647 -0.1556
 9170SOL    HW138969   1.535   3.009   1.760  0.6252 -0.0527  0.6680
 9170SOL    HW238970   1.543   2.929   1.645 -0.3416  3.4915 -0.6750
 9171SOL     OW38971   0.174   3.002   6.022 -0.1990 -0.7282 -0.3399
 9171SOL    HW138972   0.192   2.908   6.029  0.5284 -0.5913 -0.3815
 9171SOL    HW238973   0.260   3.039   6.043  0.4421 -1.2343 -2.0838
 9172SOL     OW38974   2.304   0.100  10.944 -0.0242  0.3832  0.0379
 9172SOL    HW138975   2.280   0.012  10.914  2.4925 -0.7850  1.3459
 9172SOL    HW238976   2.368   0.081  11.014  1.1403  1.6553 -0.6813
 9173SOL     OW38977   1.900   3.570   4.869 -0.4613 -0.1872 -0.1341
 9173SOL    HW138978   1.867   3.482   4.890  1.0634 -0.9280 -0.8909
 9173SOL    HW238979   1.901   3.561   4.774 -0.9023 -0.5023 -0.1085
 9174SOL     OW38980   4.452   4.011   3.218  0.5056  0.2908  0.2565
 9174SOL    HW138981   4.480   3.969   3.299  1.0840  0.6349  0.2328
 9174SOL    HW238982   4.410   4.089   3.255  0.7484  1.3972 -1.7424
 9175SOL     OW38983   3.990   3.096   3.856  0.0300  0.1243  0.1844
 9175SOL    HW138984   4.056   3.164   3.841  1.2216 -0.6082  2.0144
 9175SOL    HW238985   4.041   3.044   3.919 -0.2645  2.0538  2.0378
 9176SOL     OW38986   1.869   3.135  17.615 -0.0514 -0.1821 -0.2697
 9176SOL    HW138987   1.835   3.067  17.557 -0.8464  0.7510 -0.8878
 9176SOL    HW238988   1.793   3.164  17.665 -0.0748  0.3132 -0.5966
 9177SOL     OW38989   0.125   2.014   2.650  0.2023 -0.9638 -0.4031
 9177SOL    HW138990   0.217   2.019   2.677 -0.0306 -1.8587  0.5542
 9177SOL    HW238991   0.090   2.006   2.738 -0.3516 -0.6839 -0.6017
 9178SOL     OW38992   2.602   3.310   8.462  0.2883  0.0820  0.1324
 9178SOL    HW138993   2.622   3.400   8.485 -1.1022  0.8356 -1.5519
 9178SOL    HW238994   2.600   3.316   8.366  0.9480 -1.0281  0.0547
 9179SOL     OW38995   4.560   0.017  16.940 -0.5974 -0.0813  0.1204
 9179SOL    HW138996   4.640   4.688  16.959 -1.0367 -0.7084  0.3385
 9179SOL    HW238997   4.500   4.669  16.969 -1.1387  0.7075  0.8742
 9180SOL     OW38998   3.894   4.709   5.333  0.3133  0.0985  0.0191
 9180SOL    HW138999   3.947   4.641   5.293  2.0867  0.6087  1.5031
 9180SOL    HW239000   3.830   0.005   5.264 -0.3917  0.3515  0.7278
 9181SOL     OW39001   1.907   0.408   5.894 -0.4826  0.3091 -0.0037
 9181SOL    HW139002   1.827   0.396   5.842 -1.4891 -0.5265  1.7453
 9181SOL    HW239003   1.953   0.446   5.819  0.6808  1.0568  1.0949
 9182SOL     OW39004   4.235   1.378  13.455  0.7486 -0.1938 -0.3034
 9182SOL    HW139005   4.243   1.341  13.543 -1.2167 -0.6151 -0.3002
 9182SOL    HW239006   4.323   1.390  13.420 -0.0941  0.5583 -2.1312
 9183SOL     OW39007   2.682   0.644   2.490  0.3308 -0.0926  0.2252
 9183SOL    HW139008   2.772   0.653   2.458 -0.3500  0.7454 -1.4841
 9183SOL    HW239009   2.680   0.725   2.541  1.6505  0.7538 -1.0687
 9184SOL     OW39010   0.582   2.344  16.058 -0.2306  0.5691  0.8318
 9184SOL    HW139011   0.537   2.424  16.083 -0.4941  0.9883 -0.9637
 9184SOL    HW239012   0.674   2.372  16.055 -0.3959  0.9781 -0.2052
 9185SOL     OW39013   2.438   0.512   6.236 -0.4766  0.1345  0.2994
 9185SOL    HW139014   2.395   0.556   6.309  0.0206 -1.1098  1.3532
 9185SOL    HW239015   2.521   0.559   6.230  0.8483 -2.1067  1.1838
 9186SOL     OW39016   0.974   2.904   1.779  0.0273 -0.9127 -0.0010
 9186SOL    HW139017   0.946   2.814   1.790 -1.4979 -0.4501 -0.0387
 9186SOL    HW239018   0.909   2.948   1.833  0.4006  2.3314 -2.1436
 9187SOL     OW39019   2.844   3.254   7.447 -0.5552 -0.4227 -0.1297
 9187SOL    HW139020   2.847   3.276   7.540 -0.8283 -4.1375  0.7642
 9187SOL    HW239021   2.797   3.171   7.452 -0.6774 -0.4830 -2.2477
 9188SOL     OW39022   0.230   2.789   4.794  0.0808 -0.3248 -0.1025
 9188SOL    HW139023   0.306   2.734   4.771 -0.1722 -0.7201  0.0104
 9188SOL    HW239024   0.282   2.862   4.827 -0.8732  0.0601  0.5245
 9189SOL     OW39025   2.004   2.257   1.492  0.4650  0.4442 -0.3117
 9189SOL    HW139026   1.962   2.343   1.499  0.7899  0.6839 -1.3840
 9189SOL    HW239027   2.028   2.241   1.401 -1.9046  0.3618 -0.9349
 9190SOL     OW39028   0.472   2.199   3.499 -0.4028  0.6176 -0.0712
 9190SOL    HW139029   0.462   2.200   3.404  0.7543 -0.4244 -0.1955
 9190SOL    HW239030   0.564   2.221   3.512  0.1942 -1.7136 -0.3268
 9191SOL     OW39031   0.078   1.547  15.053 -0.3732  0.4344  0.3440
 9191SOL    HW139032   0.063   1.587  15.138 -3.0587 -2.1928  1.0828
 9191SOL    HW239033   0.007   1.484  15.044 -1.0215  1.4635 -1.8704
 9192SOL     OW39034   4.214   0.351   4.875 -0.1275  0.1435 -0.0106
 9192SOL    HW139035   4.244   0.428   4.924  1.8637  0.5089 -1.8022
 9192SOL    HW239036   4.160   0.397   4.812  2.3264  2.2931 -0.5372
 9193SOL     OW39037   4.367   2.901   6.977  0.1549  0.4104  0.0279
 9193SOL    HW139038   4.281   2.929   7.009  0.4203 -1.4383  2.3964
 9193SOL    HW239039   4.382   2.954   6.899  0.0038 -0.3644 -0.5361
 9194SOL     OW39040   1.293   2.139   5.039  0.5203  0.3263 -0.9383
 9194SOL    HW139041   1.219   2.079   5.032  0.3450  0.2988  1.1569
 9194SOL    HW239042   1.307   2.144   5.134  1.6601 -0.5832 -1.0571
 9195SOL     OW39043   0.468   2.048   3.995 -0.0386 -0.1430 -0.4869
 9195SOL    HW139044   0.430   2.078   4.078  0.8671 -0.8969  0.1904
 9195SOL    HW239045   0.536   1.986   4.020 -0.5986  0.3316  2.1807
 9196SOL     OW39046   2.351   3.129   4.867  0.2292  0.0631  0.5285
 9196SOL    HW139047   2.332   3.085   4.950  1.1419 -2.1216 -0.3989
 9196SOL    HW239048   2.275   3.130   4.809 -0.1636 -0.6203  1.0264
 9197SOL     OW39049   0.161   1.982   8.695 -0.6193 -0.0724 -0.0966
 9197SOL    HW139050   0.197   2.042   8.629 -1.1511  0.2218 -0.1185
 9197SOL    HW239051   0.155   2.028   8.778  0.8094 -1.8025  0.9557
 9198SOL     OW39052   4.271   1.266   9.070  0.1845  0.0507  0.4082
 9198SOL    HW139053   4.356   1.286   9.031  0.4456  2.6946  2.3770
 9198SOL    HW239054   4.265   1.171   9.059  2.2252  0.1785 -1.8102
 9199SOL     OW39055   3.450   0.691   6.751 -0.5253 -0.2979  0.0178
 9199SOL    HW139056   3.381   0.627   6.732  1.1270 -1.7545 -0.9833
 9199SOL    HW239057   3.398   0.769   6.731  2.4238  1.1491 -1.8537
 9200SOL     OW39058   2.853   0.013  14.857  0.4460  0.2870 -0.5501
 9200SOL    HW139059   2.877   4.661  14.915  0.1552  0.9305  0.3637
 9200SOL    HW239060   2.848   4.692  14.771 -0.3263  2.0079 -1.3324
 9201SOL     OW39061   4.447   1.596   6.973 -0.3590  0.2295  0.5059
 9201SOL    HW139062   4.453   1.558   7.061 -1.9561 -0.8244  0.1582
 9201SOL    HW239063   4.537   1.608   6.943  0.0655 -0.2818  1.5478
 9202SOL     OW39064   1.624   1.138   9.159 -0.3225  0.0474  0.7438
 9202SOL    HW139065   1.623   1.075   9.087  0.1804 -0.4321  1.1567
 9202SOL    HW239066   1.694   1.200   9.138 -0.2210  0.4765  2.3195
 9203SOL     OW39067   3.809   0.898   7.765 -0.5461 -0.0877  0.7386
 9203SOL    HW139068   3.891   0.946   7.779 -1.9085  2.7442 -0.7682
 9203SOL    HW239069   3.812   0.896   7.669  0.4314  1.0457  0.7394
 9204SOL     OW39070   0.735   2.335   5.284 -0.4301  0.2229  0.2673
 9204SOL    HW139071   0.650   2.294   5.272  0.3937 -0.8910 -1.7613
 9204SOL    HW239072   0.783   2.259   5.250 -0.8096  0.0352  0.1484
 9205SOL     OW39073   4.142   1.304   7.620  0.2288  0.6614  0.2201
 9205SOL    HW139074   4.164   1.324   7.711  1.4490 -0.2140  0.1163
 9205SOL    HW239075   4.076   1.368   7.591  1.1354  1.2090 -0.6202
 9206SOL     OW39076   4.559   3.339   9.463 -0.2205 -0.4661  0.1744
 9206SOL    HW139077   4.491   3.330   9.529  0.6102 -0.0781  1.0867
 9206SOL    HW239078   4.521   3.407   9.408  1.6103 -0.4677 -1.0878
 9207SOL     OW39079   3.118   0.533   7.469  0.4800 -0.0846 -0.0572
 9207SOL    HW139080   3.206   0.507   7.442 -1.0113 -3.1706 -1.9006
 9207SOL    HW239081   3.070   0.518   7.388  2.0535 -1.8471 -0.6627
 9208SOL     OW39082   4.385   2.091  14.931 -0.2749  0.1757 -0.5948
 9208SOL    HW139083   4.479   2.086  14.950 -0.4694  0.4149  0.4359
 9208SOL    HW239084   4.366   1.999  14.913  1.4384 -0.4467  0.7529
 9209SOL     OW39085   1.927   1.677   3.772 -0.0602  0.7104  0.4297
 9209SOL    HW139086   1.848   1.637   3.734 -0.2408  1.1948  0.2821
 9209SOL    HW239087   1.880   1.708   3.849  0.0670  0.3456  0.6537
 9210SOL     OW39088   1.847   0.936   7.846 -0.2295  0.8421 -0.5327
 9210SOL    HW139089   1.757   0.966   7.863  0.6682  3.1830  0.0529
 9210SOL    HW239090   1.825   0.854   7.801  0.7028  1.9850 -3.0634
 9211SOL     OW39091   0.565   0.831   8.977 -0.1373 -0.1017  0.4917
 9211SOL    HW139092   0.550   0.767   9.047 -0.4754  3.0887  3.3728
 9211SOL    HW239093   0.648   0.797   8.945  0.5950  0.3206  1.9560
 9212SOL     OW39094   1.758   3.837   4.774 -0.0076 -0.2841 -0.5313
 9212SOL    HW139095   1.782   3.856   4.683  1.4814  0.5175  0.0288
 9212SOL    HW239096   1.677   3.789   4.761  0.7189 -1.8017  0.6287
 9213SOL     OW39097   1.398   1.164  15.379  0.5684 -0.0501  0.4815
 9213SOL    HW139098   1.425   1.150  15.288  1.1213  2.9139  0.1968
 9213SOL    HW239099   1.313   1.207  15.368 -0.1209 -1.7018 -0.6691
 9214SOL     OW39100   0.365   2.985   9.105 -0.4283  0.2850  0.3146
 9214SOL    HW139101   0.427   3.058   9.100 -0.3466  0.2186  0.3372
 9214SOL    HW239102   0.427   2.912   9.110 -0.3927  0.2542 -0.5996
 9215SOL     OW39103   3.692   3.471  10.759 -0.1321 -0.2494 -0.4163
 9215SOL    HW139104   3.764   3.531  10.774 -0.2123 -0.8975  2.6887
 9215SOL    HW239105   3.621   3.534  10.767 -1.0666 -1.2631 -0.6356
 9216SOL     OW39106   0.840   0.208   6.666  0.3795 -0.7124  0.4865
 9216SOL    HW139107   0.911   0.268   6.645 -2.8425  2.5604 -1.2444
 9216SOL    HW239108   0.766   0.256   6.627 -0.0166 -0.9584  0.9291
 9217SOL     OW39109   4.034   4.616   2.579 -0.6477  0.6940 -0.2746
 9217SOL    HW139110   3.998   4.538   2.537 -0.6094  0.4160  0.2134
 9217SOL    HW239111   4.118   4.581   2.605 -1.3735 -1.4328 -0.7727
 9218SOL     OW39112   0.832   2.956   8.235  0.3905 -0.0589 -0.0165
 9218SOL    HW139113   0.821   2.877   8.288 -1.1014 -0.1126 -0.4267
 9218SOL    HW239114   0.831   3.020   8.307  0.1362 -0.6176  0.4749
 9219SOL     OW39115   3.892   1.350   1.699 -0.3079 -0.1732  0.0921
 9219SOL    HW139116   3.845   1.270   1.719  0.1780 -0.7947 -1.3203
 9219SOL    HW239117   3.892   1.387   1.788 -1.2876  0.0158  0.0077
 9220SOL     OW39118   1.643   3.349   7.556  0.4623  0.6210 -0.3896
 9220SOL    HW139119   1.577   3.386   7.614  0.2365 -0.2294 -0.1145
 9220SOL    HW239120   1.584   3.334   7.482 -0.3616  1.2929  0.1366
 9221SOL     OW39121   1.638   2.378  10.769 -0.7115  0.1346  0.3625
 9221SOL    HW139122   1.640   2.415  10.858  0.1506  0.0144  0.3932
 9221SOL    HW239123   1.684   2.295  10.783  0.0507  0.5477  0.3452
 9222SOL     OW39124   2.681   4.047   2.197  0.0510 -0.2470  0.1530
 9222SOL    HW139125   2.700   4.087   2.112  1.5535  1.7708  1.4337
 9222SOL    HW239126   2.599   4.087   2.225  0.0359 -0.1733  0.0009
 9223SOL     OW39127   0.227   3.551  17.564  0.0856  0.1635  0.4127
 9223SOL    HW139128   0.174   3.539  17.643 -0.2372 -2.6882 -0.2682
 9223SOL    HW239129   0.272   3.467  17.559  2.7154  1.6939 -1.6103
 9224SOL     OW39130   1.667   1.780  15.476 -0.2904 -0.2116 -0.2836
 9224SOL    HW139131   1.572   1.794  15.473  0.0064  1.9509  0.2200
 9224SOL    HW239132   1.687   1.788  15.383  1.8494 -0.8486  0.1350
 9225SOL     OW39133   4.020   3.791  11.238  0.4335  0.4081  0.0380
 9225SOL    HW139134   4.088   3.758  11.297 -1.4807 -0.7891  1.5352
 9225SOL    HW239135   3.991   3.868  11.287 -0.6356 -1.6507  2.6189
 9226SOL     OW39136   1.822   4.391   5.352 -0.5797 -0.1241  0.2919
 9226SOL    HW139137   1.783   4.318   5.303  1.5164 -0.9973 -0.1289
 9226SOL    HW239138   1.768   4.463   5.320  0.8744  1.0977  0.5985
 9227SOL     OW39139   3.578   0.338   3.929 -0.0849 -0.2499  0.1895
 9227SOL    HW139140   3.653   0.397   3.921 -2.2444  2.4498 -0.5264
 9227SOL    HW239141   3.510   0.401   3.956 -0.2941 -0.3206 -0.1761
 9228SOL     OW39142   0.096   3.390   9.840  0.0401  0.3542  0.3026
 9228SOL    HW139143   0.123   3.377   9.930  0.6558 -0.6301 -0.0307
 9228SOL    HW239144   0.013   3.342   9.837  0.3900 -0.1574 -1.0113
 9229SOL     OW39145   0.247   1.050   1.853  0.4703  0.5386  0.7716
 9229SOL    HW139146   0.281   1.065   1.941 -1.6904 -0.0562  1.7079
 9229SOL    HW239147   0.234   0.956   1.856 -2.5675  0.9303  0.0173
 9230SOL     OW39148   3.278   4.218   3.085 -0.5346 -0.1244 -0.0698
 9230SOL    HW139149   3.188   4.234   3.054 -0.4781 -2.8810 -1.6376
 9230SOL    HW239150   3.315   4.181   3.005  0.1447 -0.1584  0.2693
 9231SOL     OW39151   1.554   1.178   0.015 -0.3438 -0.3100  0.3449
 9231SOL    HW139152   1.570   1.272   0.013  0.3929 -0.4594 -0.3796
 9231SOL    HW239153   1.638   1.151   0.052 -0.4879 -1.7739 -0.4161
 9232SOL     OW39154   2.796   0.144  11.830  0.2605 -0.1528 -0.3403
 9232SOL    HW139155   2.843   0.105  11.904  3.1533  3.2549 -0.3241
 9232SOL    HW239156   2.718   0.090  11.821  0.0544  0.2542 -1.0648
 9233SOL     OW39157   2.779   1.581   0.285  0.4391 -0.3667  0.1354
 9233SOL    HW139158   2.717   1.533   0.341 -1.4645  1.8295 -0.0719
 9233SOL    HW239159   2.812   1.647   0.346 -0.7623  0.2363  0.1430
 9234SOL     OW39160   3.251   2.770   4.874 -0.5363  0.4685 -0.4383
 9234SOL    HW139161   3.165   2.756   4.835 -0.4252  0.8517 -0.8263
 9234SOL    HW239162   3.305   2.746   4.799  0.4084  2.4772 -0.3985
 9235SOL     OW39163   4.050   1.562   4.166  0.6750 -0.0534  0.4678
 9235SOL    HW139164   3.957   1.555   4.145  0.6322  2.1450 -0.0710
 9235SOL    HW239165   4.061   1.655   4.185  0.6015  0.3425 -1.4529
 9236SOL     OW39166   0.801   1.323   7.954  0.5853 -0.9823 -0.6374
 9236SOL    HW139167   0.784   1.357   8.042 -0.1928  0.3876 -1.3162
 9236SOL    HW239168   0.897   1.318   7.951  0.8506  2.1118  2.9348
 9237SOL     OW39169   1.310   0.289   0.980  0.4790  0.3746  0.0193
 9237SOL    HW139170   1.343   0.286   0.891  0.8153  2.0984  0.0740
 9237SOL    HW239171   1.378   0.351   1.010 -0.6485  0.4309  2.4920
 9238SOL     OW39172   0.889   0.680  16.264  0.1579 -0.2093 -0.2244
 9238SOL    HW139173   0.850   0.597  16.292  0.9700 -0.5798 -0.2206
 9238SOL    HW239174   0.821   0.734  16.304  0.8346 -0.4315  1.2168
 9239SOL     OW39175   2.144   1.721   5.488 -0.1521  0.7681  0.2856
 9239SOL    HW139176   2.136   1.631   5.455 -1.4541  1.1071 -0.3274
 9239SOL    HW239177   2.066   1.719   5.543 -0.6727 -0.9563 -0.5332
 9240SOL     OW39178   0.571   3.902   2.939  0.5016  0.0549 -0.1980
 9240SOL    HW139179   0.648   3.849   2.961 -0.8623 -0.6353  2.9017
 9240SOL    HW239180   0.612   3.977   2.896 -3.6795  1.8286 -1.0701
 9241SOL     OW39181   0.073   2.310   8.746 -0.2962  0.0500 -0.0558
 9241SOL    HW139182   0.111   2.266   8.670 -2.3623  1.4597 -1.9234
 9241SOL    HW239183   4.707   2.334   8.712  0.3798  1.9176 -0.4743
 9242SOL     OW39184   0.650   1.846   7.834  0.0739  0.1763 -0.0410
 9242SOL    HW139185   0.640   1.939   7.856 -0.7959 -0.5349  2.6027
 9242SOL    HW239186   0.723   1.823   7.891 -0.0857  1.4647  0.6795
 9243SOL     OW39187   0.623   1.688   2.581  0.1350 -0.2273  0.1389
 9243SOL    HW139188   0.650   1.754   2.645 -1.3208  0.6924 -0.1939
 9243SOL    HW239189   0.578   1.744   2.517  1.3072 -1.4829 -1.7997
 9244SOL     OW39190   2.169   3.968  13.008 -0.1095  0.1346 -0.5762
 9244SOL    HW139191   2.264   3.964  13.008 -0.1759 -1.4827 -0.2146
 9244SOL    HW239192   2.154   3.958  12.914 -0.7182 -1.9065 -0.2568
 9245SOL     OW39193   3.257   2.612   3.953 -0.1858 -0.2788 -0.4408
 9245SOL    HW139194   3.235   2.585   4.042  2.9178 -0.5338  0.2446
 9245SOL    HW239195   3.173   2.587   3.914 -0.2008 -1.2157  0.1927
 9246SOL     OW39196   2.265   3.098   5.168 -0.5607 -0.1375  0.2863
 9246SOL    HW139197   2.246   3.191   5.180  0.5932 -0.2353  2.9411
 9246SOL    HW239198   2.246   3.055   5.251  1.5772  1.3388  1.5542
 9247SOL     OW39199   0.686   0.847   7.418  0.2612  0.1603 -0.0655
 9247SOL    HW139200   0.697   0.795   7.338 -0.8222 -2.2451  1.3627
 9247SOL    HW239201   0.625   0.789   7.463  0.1343 -0.5724 -1.1740
 9248SOL     OW39202   0.220   1.098  16.905 -0.0336 -0.4755  0.4604
 9248SOL    HW139203   0.246   1.131  16.991 -1.2604  0.4042  0.4927
 9248SOL    HW239204   0.231   1.177  16.852 -0.2889  1.1907  2.8872
 9249SOL     OW39205   0.289   2.688   2.742  0.3744  0.3361  0.2492
 9249SOL    HW139206   0.205   2.648   2.761  0.9517 -0.4388  1.1636
 9249SOL    HW239207   0.266   2.755   2.678  0.3313 -1.9156 -2.0639
 9250SOL     OW39208   2.138   1.164   1.515  0.3541 -0.3883 -0.2621
 9250SOL    HW139209   2.161   1.117   1.435  0.9762  1.1485 -0.9834
 9250SOL    HW239210   2.108   1.096   1.575  1.2422  0.2117  0.8612
 9251SOL     OW39211   0.918   2.277  15.514 -0.1943  0.0713 -0.7570
 9251SOL    HW139212   0.852   2.341  15.488  1.5224  2.0577 -0.1555
 9251SOL    HW239213   1.000   2.322  15.493 -0.3934  0.8047  0.0726
 9252SOL     OW39214   3.610   4.132   5.533  0.2139 -0.2771  0.2485
 9252SOL    HW139215   3.692   4.181   5.531  0.2398 -0.2072  2.3649
 9252SOL    HW239216   3.638   4.043   5.511  2.4374  0.3960  0.3387
 9253SOL     OW39217   3.281   2.806   1.920  0.0299  0.3531 -0.3321
 9253SOL    HW139218   3.237   2.724   1.898  1.1910 -1.1119  2.8883
 9253SOL    HW239219   3.365   2.786   1.962 -1.5907 -2.0564  1.7548
 9254SOL     OW39220   2.630   3.491   5.483 -1.0738 -0.4203 -0.3964
 9254SOL    HW139221   2.582   3.412   5.458  0.0202 -1.2958  0.2418
 9254SOL    HW239222   2.588   3.525   5.562  0.4198  3.0007 -1.0882
 9255SOL     OW39223   1.117   2.789   3.142 -0.4110 -0.2199  0.0080
 9255SOL    HW139224   1.147   2.699   3.136  3.5526  1.0888 -0.2721
 9255SOL    HW239225   1.079   2.799   3.229  0.1760  0.3495  0.2005
 9256SOL     OW39226   2.350   0.872   7.977  0.3028 -0.1437 -0.0978
 9256SOL    HW139227   2.288   0.832   7.917 -0.6428 -0.6549  1.2317
 9256SOL    HW239228   2.295   0.949   7.989  1.3484  0.4988  0.5553
 9257SOL     OW39229   2.449   3.132   0.671 -0.2506  0.6511  0.4459
 9257SOL    HW139230   2.378   3.141   0.734 -0.0095  0.0432  0.8122
 9257SOL    HW239231   2.440   3.209   0.615 -1.7396  1.2829  1.5713
 9258SOL     OW39232   1.232   0.936   4.516  0.4158 -0.1122  0.3767
 9258SOL    HW139233   1.245   0.844   4.494  0.6388 -0.6531  2.8318
 9258SOL    HW239234   1.285   0.950   4.594  0.0283 -0.8875  0.7792
 9259SOL     OW39235   1.549   1.414   4.513  0.3185  0.0117 -0.5030
 9259SOL    HW139236   1.499   1.371   4.443  0.2543 -2.4228  1.0430
 9259SOL    HW239237   1.570   1.344   4.574 -0.1556 -1.5973 -2.1714
 9260SOL     OW39238   2.572   0.062   4.062 -0.5466  0.1111 -0.1093
 9260SOL    HW139239   2.623   0.047   4.142 -0.5870 -1.0350 -0.3063
 9260SOL    HW239240   2.545   4.692   4.045  0.2498 -0.2987  0.8082
 9261SOL     OW39241   3.278   1.547   6.291  0.1068 -0.3281 -0.1293
 9261SOL    HW139242   3.242   1.524   6.205 -0.7776  4.0392 -0.9110
 9261SOL    HW239243   3.244   1.633   6.314  3.6600  1.6201 -2.2957
 9262SOL     OW39244   1.648   3.283   6.094  0.4969  0.0839  0.2903
 9262SOL    HW139245   1.700   3.363   6.094  0.2180  0.2648  0.0572
 9262SOL    HW239246   1.574   3.319   6.045  0.1182 -0.3347  0.5512
 9263SOL     OW39247   3.780   4.293   1.125 -0.0266 -0.3055  0.3359
 9263SOL    HW139248   3.709   4.315   1.186 -1.0087 -3.5428  0.3824
 9263SOL    HW239249   3.771   4.198   1.118 -2.2404 -0.1602  1.1671
 9264SOL     OW39250   2.229   0.874   2.760 -0.5539  0.1864 -0.1296
 9264SOL    HW139251   2.297   0.865   2.826 -0.7134 -1.2971 -0.1812
 9264SOL    HW239252   2.286   0.908   2.691 -1.5993  1.0096 -0.6022
 9265SOL     OW39253   1.925   1.655  12.934  0.7864  0.2205  0.8644
 9265SOL    HW139254   1.950   1.625  12.847  1.1078  1.1865  0.6257
 9265SOL    HW239255   1.997   1.621  12.987  0.0375 -1.1068  1.0321
 9266SOL     OW39256   2.400   3.911   5.890 -0.1281 -0.5734 -0.1715
 9266SOL    HW139257   2.365   3.994   5.857 -1.4885 -1.2876 -0.5362
 9266SOL    HW239258   2.336   3.896   5.960 -1.6201 -4.0222 -2.2515
 9267SOL     OW39259   2.781   0.355  17.480 -0.0406 -0.3629 -0.5555
 9267SOL    HW139260   2.757   0.437  17.523  0.4216 -0.0327 -0.9224
 9267SOL    HW239261   2.825   0.315  17.555 -0.3884 -0.7398 -0.5525
 9268SOL     OW39262   0.648   2.516   3.178  0.5057 -0.4712  0.0907
 9268SOL    HW139263   0.672   2.429   3.210 -3.1880 -0.5312  2.7012
 9268SOL    HW239264   0.693   2.573   3.241 -1.2850 -0.7979  1.6655
 9269SOL     OW39265   1.343   2.904  16.773 -0.4350  0.4773  0.1732
 9269SOL    HW139266   1.343   2.983  16.719  0.9082 -0.1164 -0.7092
 9269SOL    HW239267   1.254   2.869  16.766  1.0095 -3.0254 -0.7779
 9270SOL     OW39268   1.182   1.710   3.508  0.3951  0.4361 -0.3895
 9270SOL    HW139269   1.123   1.683   3.438 -0.1555  0.6457  0.0002
 9270SOL    HW239270   1.141   1.660   3.578  1.4323  2.9198  1.9625
 9271SOL     OW39271   0.567   0.694   4.541 -0.3198  0.7779 -0.0288
 9271SOL    HW139272   0.498   0.757   4.519  0.9019  1.0905 -3.0555
 9271SOL    HW239273   0.595   0.653   4.459  1.7520  0.7617  0.6947
 9272SOL     OW39274   3.469   2.752  12.477  0.2213 -0.2990  0.3262
 9272SOL    HW139275   3.554   2.796  12.474  0.0796 -0.1137 -1.2286
 9272SOL    HW239276   3.435   2.782  12.561 -0.0516  1.7391 -0.5018
 9273SOL     OW39277   2.483   0.858   2.866 -0.6561  0.1943 -0.2571
 9273SOL    HW139278   2.496   0.853   2.961 -1.0938  0.8472 -0.1601
 9273SOL    HW239279   2.476   0.764   2.851 -1.4998  0.0995  0.7254
 9274SOL     OW39280   2.505   4.694   5.071 -0.0814 -0.3282 -0.0616
 9274SOL    HW139281   2.510   0.035   4.997 -0.7962 -0.6559 -0.3787
 9274SOL    HW239282   2.597   4.689   5.095 -0.6902 -2.3525  1.7905
 9275SOL     OW39283   1.942   4.682   4.046  0.4408 -0.1260 -0.6124
 9275SOL    HW139284   1.938   4.680   4.141 -0.6777  2.6576 -0.6052
 9275SOL    HW239285   1.867   4.627   4.022 -0.6909  0.8398  0.7378
 9276SOL     OW39286   2.042   4.053   1.762 -0.1029  0.2758 -0.2113
 9276SOL    HW139287   2.094   4.127   1.794  1.1711 -1.3478  1.4735
 9276SOL    HW239288   1.995   4.095   1.689 -0.9633  0.1073  0.2426
 9277SOL     OW39289   4.291   1.566   4.851 -0.0980  0.3186 -0.4425
 9277SOL    HW139290   4.198   1.568   4.874 -0.4322 -0.1068 -1.7958
 9277SOL    HW239291   4.326   1.571   4.940  0.7280 -0.5002 -0.7124
 9278SOL     OW39292   0.319   0.892  11.665  0.2862 -0.4097  0.9343
 9278SOL    HW139293   0.254   0.916  11.599  2.3073  1.3836 -0.4075
 9278SOL    HW239294   0.271   0.893  11.748  1.8429  2.5704  1.8202
 9279SOL     OW39295   2.712   0.089   2.682  0.5534 -1.0032 -0.0472
 9279SOL    HW139296   2.624   0.107   2.715  1.2488  0.2815  1.1171
 9279SOL    HW239297   2.690   0.039   2.603  1.7334 -0.0306 -0.9929
 9280SOL     OW39298   1.908   1.190   9.097 -0.1391 -0.0343 -0.2329
 9280SOL    HW139299   1.975   1.156   9.038  0.2804  0.7195 -0.1816
 9280SOL    HW239300   1.926   1.137   9.174 -0.3593  0.4130  0.1272
 9281SOL     OW39301   4.527   0.327  14.722 -0.0920  0.1084 -0.1675
 9281SOL    HW139302   4.562   0.402  14.674  1.7022 -0.4635  0.2508
 9281SOL    HW239303   4.438   0.357  14.742  0.4117  1.7059 -0.2946
 9282SOL     OW39304   4.137   0.674   3.576  0.5149 -0.0737  0.1675
 9282SOL    HW139305   4.165   0.755   3.534  0.4333  0.3698  0.9911
 9282SOL    HW239306   4.066   0.691   3.637  0.7345 -1.6812  0.8878
 9283SOL     OW39307   0.510   3.008   2.383 -0.0073 -0.4450 -0.1675
 9283SOL    HW139308   0.427   3.052   2.399 -0.5685 -1.2621 -0.8297
 9283SOL    HW239309   0.547   3.084   2.338 -2.6497  2.1624  2.1459
 9284SOL     OW39310   4.304   2.904  16.686 -0.1453 -0.0693  0.4720
 9284SOL    HW139311   4.276   2.975  16.744 -0.4255  0.3623 -0.1999
 9284SOL    HW239312   4.389   2.930  16.652 -1.4102  0.3172 -2.3719
 9285SOL     OW39313   1.374   1.770   6.617 -0.7808 -0.3775 -0.5087
 9285SOL    HW139314   1.345   1.846   6.566 -1.5428 -0.9101 -0.8820
 9285SOL    HW239315   1.456   1.791   6.660 -1.0183  0.3834 -0.4220
 9286SOL     OW39316   0.045   0.399  16.488 -0.0228  0.4977 -0.0869
 9286SOL    HW139317   0.010   0.311  16.468  0.5304 -0.1803  1.9133
 9286SOL    HW239318   0.067   0.436  16.402 -0.9661 -0.7303 -0.8702
 9287SOL     OW39319   0.465   1.370   4.837 -0.1193 -0.2816 -0.0578
 9287SOL    HW139320   0.383   1.393   4.881  0.1240  1.3976 -0.4779
 9287SOL    HW239321   0.436   1.389   4.748  1.9292 -0.2317 -0.7111
 9288SOL     OW39322   1.559   0.387   3.274  0.2721 -0.7925  0.0099
 9288SOL    HW139323   1.546   0.481   3.287 -1.1894 -1.2313  1.6777
 9288SOL    HW239324   1.533   0.389   3.182 -0.4493 -0.0095  0.2313
 9289SOL     OW39325   3.669   0.845   2.615  0.0523  0.1275  0.5492
 9289SOL    HW139326   3.739   0.897   2.577  1.5234 -2.6373 -0.5402
 9289SOL    HW239327   3.684   0.852   2.709  1.5294 -1.6306  0.4407
 9290SOL     OW39328   1.339   2.983   4.787 -0.1843 -0.2032 -0.2235
 9290SOL    HW139329   1.384   3.006   4.868 -1.0234  0.8979 -0.0725
 9290SOL    HW239330   1.369   3.054   4.730  0.7326 -0.9522 -0.6724
 9291SOL     OW39331   0.135   1.812   0.503  0.4290  0.7526  0.2452
 9291SOL    HW139332   0.047   1.848   0.497 -0.8187 -2.1604  0.9103
 9291SOL    HW239333   0.175   1.873   0.565  1.3447 -0.2803  0.6942
 9292SOL     OW39334   2.918   1.553  15.222 -0.5998 -0.2085 -0.0192
 9292SOL    HW139335   2.955   1.467  15.202  2.1759  0.9534  0.0853
 9292SOL    HW239336   2.903   1.576  15.130  0.4474  2.0650  0.3898
 9293SOL     OW39337   2.182   0.468   9.157 -0.0569 -0.1383  0.1754
 9293SOL    HW139338   2.131   0.483   9.237 -0.4273  2.4723 -0.5378
 9293SOL    HW239339   2.175   0.374   9.142 -1.1344  0.2040 -1.5679
 9294SOL     OW39340   2.295   3.435  12.266  0.1087 -0.2183  0.1296
 9294SOL    HW139341   2.368   3.476  12.219  0.3040 -0.8843 -0.1572
 9294SOL    HW239342   2.262   3.383  12.193 -0.0082  0.9558 -0.6422
 9295SOL     OW39343   2.846   3.532   2.271  0.2977  0.3131 -0.0805
 9295SOL    HW139344   2.800   3.572   2.197 -0.4038 -0.8317 -0.2676
 9295SOL    HW239345   2.936   3.539   2.240  0.0737 -1.2850 -1.1024
 9296SOL     OW39346   0.435   0.111  15.062 -0.3432  0.2819  0.9250
 9296SOL    HW139347   0.393   0.110  15.147 -1.6633 -2.1054  0.2237
 9296SOL    HW239348   0.363   0.096  15.001 -0.7904 -1.4844  1.9049
 9297SOL     OW39349   4.505   2.190   5.268  0.1118 -0.0087 -0.3235
 9297SOL    HW139350   4.496   2.277   5.308  1.2268  0.2404 -0.6053
 9297SOL    HW239351   4.588   2.193   5.220  0.5258 -1.0953  0.3358
 9298SOL     OW39352   1.679   3.426   8.970  0.0318  0.2487 -0.1492
 9298SOL    HW139353   1.763   3.450   9.009  1.8814 -2.3040 -2.6006
 9298SOL    HW239354   1.624   3.470   9.036  0.2508  2.8237 -1.6595
 9299SOL     OW39355   4.221   2.447   9.829 -0.1436  0.0488  0.4918
 9299SOL    HW139356   4.285   2.514   9.851 -0.3230 -0.1263  1.5735
 9299SOL    HW239357   4.258   2.377   9.884 -0.5421 -0.8784 -0.4128
 9300SOL     OW39358   4.138   4.412   7.085  0.1446 -0.2602  0.2436
 9300SOL    HW139359   4.161   4.497   7.122 -1.4729  0.2082  0.1988
 9300SOL    HW239360   4.223   4.369   7.080 -1.2315 -2.9580 -0.3227
 9301SOL     OW39361   4.384   1.088   2.655  0.1549 -0.2502 -0.4869
 9301SOL    HW139362   4.464   1.138   2.638  1.4290 -2.3483 -0.6176
 9301SOL    HW239363   4.413   0.997   2.656 -0.5200 -0.4758 -1.0204
 9302SOL     OW39364   4.045   0.623   5.005 -0.6757  0.1297  0.2256
 9302SOL    HW139365   4.062   0.606   4.912  0.6893 -1.6734  0.8241
 9302SOL    HW239366   4.080   0.713   5.008 -2.0300  0.7311 -1.7291
 9303SOL     OW39367   2.774   2.505   8.837 -0.0708 -0.3491 -0.6340
 9303SOL    HW139368   2.721   2.544   8.767  0.8281  0.9607 -0.5911
 9303SOL    HW239369   2.738   2.553   8.912  1.5296  0.9970 -0.7262
 9304SOL     OW39370   4.639   0.512  14.556 -0.2905 -0.2954  0.2463
 9304SOL    HW139371   4.605   0.468  14.478  3.0290  1.5180 -2.1697
 9304SOL    HW239372   0.013   0.510  14.543 -0.2643 -0.9208  0.5368
 9305SOL     OW39373   4.277   4.242  14.865 -0.1963 -0.1404  0.5577
 9305SOL    HW139374   4.287   4.212  14.775 -1.0493  0.2559  0.3366
 9305SOL    HW239375   4.365   4.224  14.898 -0.6700 -0.8656  1.4158
 9306SOL     OW39376   0.588   2.237   6.931  0.1899  0.3702  0.2500
 9306SOL    HW139377   0.530   2.200   6.999  0.6881 -1.9902 -0.5900
 9306SOL    HW239378   0.643   2.164   6.903 -2.0478 -1.1999 -0.0584
 9307SOL     OW39379   2.922   3.741   8.268  0.4037  0.1332 -0.6565
 9307SOL    HW139380   2.950   3.778   8.351 -0.1337 -2.0309  0.4835
 9307SOL    HW239381   3.003   3.717   8.224  0.1146  0.1434 -1.2024
 9308SOL     OW39382   3.039   1.491   2.448  0.7750  0.0170  0.4749
 9308SOL    HW139383   3.015   1.449   2.365 -0.2422 -1.7560  1.6707
 9308SOL    HW239384   3.134   1.475   2.451  1.0396  1.1474 -2.0569
 9309SOL     OW39385   4.296   0.048   7.785 -0.4214 -0.0657 -0.3501
 9309SOL    HW139386   4.288   0.128   7.733 -3.2012  0.4157  0.8046
 9309SOL    HW239387   4.224   0.064   7.847 -0.7000 -2.6023 -0.0228
 9310SOL     OW39388   3.302   0.269   5.047  0.0107 -0.2014  0.1873
 9310SOL    HW139389   3.308   0.174   5.036 -1.0755 -0.3518  0.9020
 9310SOL    HW239390   3.382   0.293   5.094 -1.1192  0.3244  1.8374
 9311SOL     OW39391   2.624   1.890   0.433 -0.2713 -0.3778 -0.7091
 9311SOL    HW139392   2.653   1.884   0.524 -0.4405 -3.2518 -0.8464
 9311SOL    HW239393   2.702   1.932   0.394  1.6158  0.4326  4.0025
 9312SOL     OW39394   0.124   4.345  12.044  0.3370 -0.2061 -0.0654
 9312SOL    HW139395   0.176   4.269  12.066  0.5036 -0.4061 -1.1368
 9312SOL    HW239396   0.193   4.405  12.016  0.1660 -0.1517 -0.3734
 9313SOL     OW39397   4.523   1.232  17.415 -0.4349 -0.6420  0.2886
 9313SOL    HW139398   4.448   1.207  17.471 -1.4600 -0.6833 -1.1121
 9313SOL    HW239399   4.482   1.190  17.339 -1.8880  1.6341 -0.1805
 9314SOL     OW39400   2.584   4.691   5.402 -0.1841 -0.3912  0.2198
 9314SOL    HW139401   2.548   4.602   5.401 -1.2585  0.0625 -1.4091
 9314SOL    HW239402   2.647   4.669   5.470  0.4469  1.0641  0.1140
 9315SOL     OW39403   2.238   4.351   6.763  0.1919 -0.4251 -0.0221
 9315SOL    HW139404   2.178   4.316   6.828 -0.1001  1.2051  0.5820
 9315SOL    HW239405   2.176   4.378   6.695 -2.4410 -0.7530  2.2457
 9316SOL     OW39406   1.523   1.011   8.931  0.1548  0.0420 -0.3176
 9316SOL    HW139407   1.529   1.091   8.879 -0.3722 -0.8915 -1.7887
 9316SOL    HW239408   1.543   0.945   8.865 -1.9529 -0.1547 -0.7386
 9317SOL     OW39409   4.105   4.099   6.248 -0.3486 -0.0103 -0.1731
 9317SOL    HW139410   4.025   4.105   6.196 -0.5298  0.0790  0.1159
 9317SOL    HW239411   4.116   4.189   6.277  0.2876  0.1197 -0.8105
 9318SOL     OW39412   3.117   2.303   8.784 -0.2335 -0.2496 -0.2112
 9318SOL    HW139413   3.117   2.352   8.866 -0.9493  1.1787 -1.0784
 9318SOL    HW239414   3.061   2.365   8.738  0.9374 -1.4173 -3.1836
 9319SOL     OW39415   1.555   1.508  12.344 -0.2293  0.6900 -0.8291
 9319SOL    HW139416   1.591   1.474  12.262 -0.8116  0.6402 -1.0645
 9319SOL    HW239417   1.639   1.539  12.377  0.2631 -0.6440 -0.8137
 9320SOL     OW39418   0.484   1.656   4.194 -0.2343  0.0903  0.4996
 9320SOL    HW139419   0.548   1.646   4.264 -0.1379  0.7279  0.4998
 9320SOL    HW239420   0.468   1.564   4.169  0.5121  0.1766 -0.2866
 9321SOL     OW39421   2.999   2.336  14.476 -0.0257  0.3537 -0.1206
 9321SOL    HW139422   2.909   2.354  14.505  0.2656  0.4944  0.6674
 9321SOL    HW239423   3.024   2.275  14.545 -1.1661 -0.4955 -0.4384
 9322SOL     OW39424   4.527   2.770  14.371  0.4275  0.0054 -0.2306
 9322SOL    HW139425   4.472   2.794  14.445 -0.4859 -0.7389 -0.6586
 9322SOL    HW239426   4.554   2.856  14.339  1.4918  0.0133  0.6968
 9323SOL     OW39427   0.213   3.697   7.738  0.3859 -0.3076 -0.2952
 9323SOL    HW139428   0.133   3.723   7.784  0.3057  0.7278 -1.0061
 9323SOL    HW239429   0.222   3.778   7.687  1.8708 -0.3146 -0.0357
 9324SOL     OW39430   3.993   4.656   4.785 -0.0531  0.0454  0.0450
 9324SOL    HW139431   4.084   4.656   4.758  0.2916 -0.5094  1.2181
 9324SOL    HW239432   3.968   4.578   4.736 -2.0010  1.3429 -1.0408
 9325SOL     OW39433   4.119   3.806   2.438 -0.6171 -0.0850 -0.1242
 9325SOL    HW139434   4.046   3.744   2.438  0.7845 -1.7287  1.1262
 9325SOL    HW239435   4.137   3.802   2.532 -1.6237  0.5272  0.0891
 9326SOL     OW39436   1.076   0.627   9.906 -0.4813 -0.4403 -0.1215
 9326SOL    HW139437   1.140   0.606   9.837 -2.0056 -0.8658 -1.3944
 9326SOL    HW239438   1.085   0.722   9.907 -0.0816 -0.4906  1.4932
 9327SOL     OW39439   1.791   0.076   5.466  0.1792  0.8012 -0.2892
 9327SOL    HW139440   1.824   0.161   5.495 -2.2128  1.3424  0.8675
 9327SOL    HW239441   1.866   0.025   5.494 -0.5565 -0.2045 -0.1581
 9328SOL     OW39442   2.967   2.611   3.049  0.8756 -0.4677 -0.2092
 9328SOL    HW139443   3.041   2.669   3.032 -0.0062  0.6348 -0.2704
 9328SOL    HW239444   2.910   2.665   3.104 -0.9401 -1.9534 -0.6779
 9329SOL     OW39445   0.306   4.386  13.892  0.8602  0.4494 -0.1163
 9329SOL    HW139446   0.281   4.367  13.801 -0.7137 -1.4755  0.7405
 9329SOL    HW239447   0.230   4.378  13.948  1.5489 -1.9227  0.4684
 9330SOL     OW39448   4.639   0.086  14.100  0.1982  0.4846  0.0368
 9330SOL    HW139449   4.681   0.150  14.158  2.9669 -0.5890 -0.8216
 9330SOL    HW239450   4.591   0.032  14.163 -0.7387 -0.7091 -1.7066
 9331SOL     OW39451   1.098   2.895   9.194  0.6088 -0.6191 -0.9460
 9331SOL    HW139452   1.135   2.914   9.280  1.2392 -1.7763 -0.9608
 9331SOL    HW239453   1.163   2.831   9.163  1.0928  0.1481 -1.5013
 9332SOL     OW39454   0.657   4.403   1.734 -1.4264 -0.2519 -0.3353
 9332SOL    HW139455   0.591   4.440   1.793 -1.8055  0.2077 -1.0483
 9332SOL    HW239456   0.599   4.353   1.677  0.2401 -1.2286 -1.1573
 9333SOL     OW39457   0.925   3.282   0.613  0.0894  0.3153  0.5207
 9333SOL    HW139458   0.854   3.220   0.631 -2.0569  2.2766 -1.0408
 9333SOL    HW239459   0.950   3.264   0.522 -3.0535  0.8296 -0.4624
 9334SOL     OW39460   2.186   3.584   9.510  0.2908 -0.5932 -1.0639
 9334SOL    HW139461   2.149   3.591   9.422 -0.4874  0.1924 -0.6655
 9334SOL    HW239462   2.180   3.676   9.534 -1.4547 -0.9419 -0.1562
 9335SOL     OW39463   4.605   2.810   5.911 -0.4548 -0.1726  0.4641
 9335SOL    HW139464   4.651   2.747   5.854 -1.4060  1.0300 -1.6525
 9335SOL    HW239465   4.518   2.771   5.911 -0.9130  0.8088 -2.3801
 9336SOL     OW39466   1.386   1.921   2.959  0.1818 -0.1313  0.5849
 9336SOL    HW139467   1.387   1.989   2.892 -0.2658  1.1592  1.9033
 9336SOL    HW239468   1.338   1.955   3.035 -0.5954  2.5398 -1.1263
 9337SOL     OW39469   1.619   2.786   4.163  0.5111 -0.7428 -0.3678
 9337SOL    HW139470   1.611   2.754   4.254  0.8793  0.8826  0.2280
 9337SOL    HW239471   1.542   2.749   4.119 -1.2140  2.2901  0.0846
 9338SOL     OW39472   3.639   4.129   3.447  0.9400  0.1888  0.8150
 9338SOL    HW139473   3.600   4.096   3.528  1.6522 -1.5059  0.4814
 9338SOL    HW239474   3.561   4.174   3.417  1.6576  0.7268 -0.2693
 9339SOL     OW39475   3.238   4.686   7.941  0.1213  0.1346 -0.1493
 9339SOL    HW139476   3.302   4.655   8.004  1.5602  0.0031 -1.6886
 9339SOL    HW239477   3.170   0.006   7.995  0.3647  1.2962 -0.7185
 9340SOL     OW39478   4.473   4.380   1.178 -0.0351  0.2518  0.3242
 9340SOL    HW139479   4.456   4.329   1.257  2.0960 -0.9008  0.0223
 9340SOL    HW239480   4.396   4.438   1.172  0.3293  0.5319 -1.7300
 9341SOL     OW39481   1.499   0.891   1.582 -0.2017  0.2134  0.1941
 9341SOL    HW139482   1.498   0.923   1.492 -0.2796  1.3424  0.6089
 9341SOL    HW239483   1.502   0.797   1.563 -0.3155  0.2204  0.1404
 9342SOL     OW39484   3.200   3.404  14.559  0.3116  0.2929  0.0963
 9342SOL    HW139485   3.225   3.453  14.638  2.4082  0.2718 -0.5588
 9342SOL    HW239486   3.121   3.357  14.585 -1.0876  0.4337 -3.9508
 9343SOL     OW39487   1.097   3.177  10.907  0.4123 -0.3751  1.0278
 9343SOL    HW139488   1.104   3.155  10.814  0.3570 -1.1905  1.2141
 9343SOL    HW239489   1.078   3.270  10.899  1.0661 -0.3039  0.3463
 9344SOL     OW39490   0.860   1.126   0.029  0.1241  0.3758  0.3029
 9344SOL    HW139491   0.843   1.099   0.119  0.7159  1.1598  0.6531
 9344SOL    HW239492   0.944   1.085   0.008  0.5510  0.3570  2.0103
 9345SOL     OW39493   1.023   3.109   4.030 -0.5743 -0.0440  0.6107
 9345SOL    HW139494   1.094   3.056   4.066 -2.7868 -1.9681  2.1476
 9345SOL    HW239495   0.960   3.091   4.100 -1.4449 -1.3762 -0.5014
 9346SOL     OW39496   1.623   2.573   1.734 -0.0672 -0.0183 -0.8273
 9346SOL    HW139497   1.618   2.483   1.701 -3.9133 -0.2795  0.5093
 9346SOL    HW239498   1.700   2.564   1.791 -0.9389 -0.2660  0.3254
 9347SOL     OW39499   3.399   1.388   4.539  0.2683  0.0047 -0.1435
 9347SOL    HW139500   3.435   1.470   4.572 -0.3178  0.3133 -0.2693
 9347SOL    HW239501   3.472   1.335   4.506  1.1288  2.1625 -1.6604
 9348SOL     OW39502   1.667   0.905   4.532  0.8234 -0.1209  0.2212
 9348SOL    HW139503   1.748   0.863   4.503  0.3902 -2.4879  2.5050
 9348SOL    HW239504   1.672   0.975   4.467  0.7083  1.9062  2.4289
 9349SOL     OW39505   4.634   1.449   7.512  0.2608  0.1699  0.2223
 9349SOL    HW139506   4.540   1.463   7.522  0.2714  1.2260 -1.0774
 9349SOL    HW239507   4.672   1.523   7.559  1.8327  1.0766 -2.4378
 9350SOL     OW39508   0.023   1.434   9.208 -0.5173  0.4401  0.4600
 9350SOL    HW139509   0.043   1.522   9.176 -1.3657  0.9032  1.2289
 9350SOL    HW239510   0.091   1.408   9.270  1.8073 -0.4303 -2.4383
 9351SOL     OW39511   0.810   0.605   6.021 -0.4093 -0.4851  0.3187
 9351SOL    HW139512   0.720   0.587   5.993 -0.5969 -0.8987  1.1973
 9351SOL    HW239513   0.790   0.657   6.099 -1.0571  0.8561 -0.7351
 9352SOL     OW39514   1.133   3.645   0.612  0.3373 -0.4479  0.2586
 9352SOL    HW139515   1.076   3.628   0.687 -1.1283 -0.4532 -0.8733
 9352SOL    HW239516   1.178   3.563   0.593  1.1577  0.0626 -0.0430
 9353SOL     OW39517   2.385   3.455   9.292 -0.3124  0.1580 -0.4258
 9353SOL    HW139518   2.407   3.403   9.370 -0.0540 -1.0311 -1.2824
 9353SOL    HW239519   2.313   3.500   9.336  1.2800  1.0417  1.2772
 9354SOL     OW39520   0.044   3.427  11.608 -0.2819 -0.0645 -0.1328
 9354SOL    HW139521   0.129   3.391  11.584  0.4291 -1.1113  3.9809
 9354SOL    HW239522   0.046   3.415  11.703 -0.3830  0.9121 -0.0105
 9355SOL     OW39523   4.690   2.151   2.048  0.2404  0.2375  0.4810
 9355SOL    HW139524   4.597   2.140   2.025  0.1354  2.3342 -0.0831
 9355SOL    HW239525   4.683   2.194   2.133 -1.2194  0.3182  0.3251
 9356SOL     OW39526   1.593   0.637   9.272 -0.0349 -0.2792  0.2421
 9356SOL    HW139527   1.595   0.626   9.177 -0.4822  1.0139  0.0947
 9356SOL    HW239528   1.540   0.715   9.284 -1.3581 -0.9601 -1.2218
 9357SOL     OW39529   0.242   3.784   7.206  0.0292 -0.1754  0.0804
 9357SOL    HW139530   0.212   3.743   7.124 -1.7013  0.2503  0.4977
 9357SOL    HW239531   0.332   3.808   7.185  0.2868 -0.7198  0.5548
 9358SOL     OW39532   3.082   2.868   2.319 -0.0542  0.3878  0.5223
 9358SOL    HW139533   2.999   2.869   2.270 -0.5551 -1.7485  1.3412
 9358SOL    HW239534   3.046   2.896   2.403 -0.8009  0.9871  0.0023
 9359SOL     OW39535   1.088   4.278   3.871  0.1651 -0.3721  0.4608
 9359SOL    HW139536   1.037   4.235   3.940  1.8983  1.1795  2.7070
 9359SOL    HW239537   1.123   4.207   3.817 -0.9225 -1.9152  1.7825
 9360SOL     OW39538   0.244   0.085   7.932 -0.1437  0.7323  1.5404
 9360SOL    HW139539   0.273   0.053   8.017  3.8245 -0.6101 -0.3077
 9360SOL    HW239540   0.152   0.109   7.938 -0.9013 -1.7145 -0.3517
 9361SOL     OW39541   1.197   1.479   8.234  0.7372  1.0845  0.0086
 9361SOL    HW139542   1.223   1.403   8.286 -1.4957  0.2925 -0.0503
 9361SOL    HW239543   1.130   1.511   8.293 -0.0426 -1.2328  0.3704
 9362SOL     OW39544   0.054   1.273   3.583  0.3679 -0.3208  0.3493
 9362SOL    HW139545   0.018   1.286   3.495 -0.0478  0.0632  0.5782
 9362SOL    HW239546   4.702   1.305   3.635  0.2827 -0.7512  0.4975
 9363SOL     OW39547   4.449   1.452   7.204  0.1141  0.6328  0.0117
 9363SOL    HW139548   4.389   1.385   7.172  1.2710 -0.6187  0.4669
 9363SOL    HW239549   4.464   1.409   7.288 -1.3504  1.2506  0.5886
 9364SOL     OW39550   0.141   3.871   3.624 -0.0055  0.1929  0.0991
 9364SOL    HW139551   0.201   3.799   3.643 -1.9905 -1.7790 -1.2094
 9364SOL    HW239552   0.061   3.836   3.662  0.8009  0.4111  2.0184
 9365SOL     OW39553   2.761   1.568  10.595  0.1461 -0.1203 -0.1100
 9365SOL    HW139554   2.842   1.558  10.545 -0.4351 -1.9145 -0.7054
 9365SOL    HW239555   2.764   1.652  10.640 -0.2371  0.7104 -1.6198
 9366SOL     OW39556   1.626   1.740   3.017 -0.0145  0.0294  0.3196
 9366SOL    HW139557   1.635   1.733   3.112  1.1394 -0.6992  0.1605
 9366SOL    HW239558   1.567   1.814   3.004 -0.5715 -0.3665  0.5782
 9367SOL     OW39559   3.979   4.013   2.894  0.2397 -0.4302  0.2507
 9367SOL    HW139560   3.926   3.982   2.967  2.5323  1.9250  2.9244
 9367SOL    HW239561   4.014   3.928   2.868 -0.0039 -0.0966 -1.1572
 9368SOL     OW39562   2.825   1.985   3.513  0.0090 -0.1077 -0.2014
 9368SOL    HW139563   2.871   2.069   3.517 -0.8580  0.1010  4.6488
 9368SOL    HW239564   2.877   1.920   3.466  0.0533 -1.5195  1.8246
 9369SOL     OW39565   1.860   4.078   0.824 -0.6956  0.3100  0.3549
 9369SOL    HW139566   1.924   4.124   0.769 -0.5698  0.2916  0.4861
 9369SOL    HW239567   1.835   4.156   0.874 -0.5712  0.9302 -0.5559
 9370SOL     OW39568   2.152   4.025  16.768 -0.5179  0.1058  0.3273
 9370SOL    HW139569   2.245   4.047  16.764 -0.3945 -0.5238 -0.2467
 9370SOL    HW239570   2.119   4.079  16.840  1.1386  0.5672  0.7365
 9371SOL     OW39571   0.145   3.003   1.119 -0.1912  0.4141  0.2866
 9371SOL    HW139572   0.105   2.919   1.096  0.8121  0.5012 -1.8217
 9371SOL    HW239573   0.121   3.012   1.211  1.2673 -0.8765  0.7930
 9372SOL     OW39574   2.270   0.777   0.030  0.4310  0.4579 -0.4639
 9372SOL    HW139575   2.307   0.726   0.101  2.0997  4.3432  1.4405
 9372SOL    HW239576   2.352   0.822   0.008 -0.1817  1.5107 -0.5977
 9373SOL     OW39577   4.313   2.992   6.422 -0.0674 -0.2627  0.1602
 9373SOL    HW139578   4.385   2.979   6.483 -0.3935 -0.3701  0.5181
 9373SOL    HW239579   4.285   3.080   6.448  1.3773 -0.1757  1.4515
 9374SOL     OW39580   0.579   4.014  11.445  0.3770 -0.2668 -0.4758
 9374SOL    HW139581   0.589   3.978  11.357 -0.8512  0.7039 -1.0111
 9374SOL    HW239582   0.522   3.948  11.484 -1.2629 -0.2024 -2.7839
 9375SOL     OW39583   4.631   4.279   2.281  0.2617  0.0248  0.3272
 9375SOL    HW139584   4.628   4.201   2.225  1.9210  1.1347 -1.3477
 9375SOL    HW239585   4.550   4.266   2.330 -1.1621  2.9438 -1.2118
 9376SOL     OW39586   1.142   4.201  11.871 -0.7980 -0.0473 -0.3633
 9376SOL    HW139587   1.146   4.178  11.779 -0.8193  1.1905 -0.6827
 9376SOL    HW239588   1.132   4.115  11.912 -0.2165 -0.0178 -0.1594
 9377SOL     OW39589   1.365   3.606   6.808  0.1728 -0.0760  0.0529
 9377SOL    HW139590   1.334   3.538   6.868 -3.2782  0.7537 -0.7447
 9377SOL    HW239591   1.296   3.599   6.741  0.2144  1.0667 -0.1060
 9378SOL     OW39592   1.050   0.388   3.325  0.1018 -0.5806 -0.1445
 9378SOL    HW139593   0.959   0.419   3.329  0.9143  1.5028  2.6105
 9378SOL    HW239594   1.078   0.404   3.235  2.5407 -0.8618  0.5606
 9379SOL     OW39595   0.240   1.093   9.207  0.5883 -0.5530 -0.4904
 9379SOL    HW139596   0.286   1.175   9.217 -0.9528  0.2203  0.2753
 9379SOL    HW239597   0.306   1.028   9.181  2.1280  1.1056 -0.6625
 9380SOL     OW39598   0.134   4.660   4.599 -0.0938 -0.0519  0.0486
 9380SOL    HW139599   0.067   4.603   4.638  1.0654  0.3956  2.7004
 9380SOL    HW239600   0.214   4.632   4.644  1.5579  2.2773 -1.4577
 9381SOL     OW39601   4.431   2.458  14.703 -0.1954  0.2449 -0.3015
 9381SOL    HW139602   4.347   2.503  14.714  0.4132  1.5649 -0.9754
 9381SOL    HW239603   4.445   2.480  14.611 -1.4092  0.3629 -0.4680
 9382SOL     OW39604   2.223   0.431   6.517 -0.8130  0.0793  0.0224
 9382SOL    HW139605   2.204   0.515   6.476 -1.0453  0.2387  0.4684
 9382SOL    HW239606   2.132   0.415   6.538 -0.9983 -0.3114 -1.0574
 9383SOL     OW39607   3.117   0.806   8.388 -0.2395  0.5318  0.0283
 9383SOL    HW139608   3.173   0.734   8.358 -1.0193 -0.3573  0.7007
 9383SOL    HW239609   3.101   0.779   8.478 -0.6170  1.2944  0.1906
 9384SOL     OW39610   1.430   2.986   2.232 -0.5262  0.1301  0.1492
 9384SOL    HW139611   1.494   3.010   2.299 -1.1764  0.4764  0.6603
 9384SOL    HW239612   1.482   2.984   2.152  0.2828  0.5234  0.6677
 9385SOL     OW39613   4.069   0.665  17.275  0.1695 -0.5588  0.2924
 9385SOL    HW139614   4.128   0.633  17.206  0.1316  0.6927 -0.3170
 9385SOL    HW239615   4.036   0.750  17.246  1.8405  0.2967  0.8740
 9386SOL     OW39616   0.680   4.035   3.626  0.1777 -0.6553  0.0049
 9386SOL    HW139617   0.721   4.087   3.556 -0.5492 -0.9948 -0.6687
 9386SOL    HW239618   0.602   4.003   3.582  1.4499 -3.3051 -0.3580
 9387SOL     OW39619   2.978   3.262   4.657  0.1715 -0.5099  0.2882
 9387SOL    HW139620   2.901   3.314   4.679 -0.0169  0.0894 -1.7746
 9387SOL    HW239621   2.927   3.181   4.659  0.0484 -0.4270  0.5597
 9388SOL     OW39622   1.603   0.362   3.873  0.3299  0.9071 -0.7454
 9388SOL    HW139623   1.687   0.381   3.832  0.0851 -0.7902 -2.0321
 9388SOL    HW239624   1.548   0.379   3.797 -1.3989 -1.0347  0.0687
 9389SOL     OW39625   3.175   2.171  10.302  0.3519 -1.1652  0.0236
 9389SOL    HW139626   3.206   2.245  10.251 -1.0376 -0.9579 -0.4957
 9389SOL    HW239627   3.248   2.109  10.307  0.0882 -1.5778 -1.4522
 9390SOL     OW39628   2.988   1.318   6.383 -0.5857 -0.4328  0.0247
 9390SOL    HW139629   3.064   1.265   6.407 -1.1693 -1.4617 -0.4002
 9390SOL    HW239630   3.014   1.328   6.291  1.3468 -1.3863  0.4640
 9391SOL     OW39631   0.178   0.363  15.430  0.2737 -0.1612  0.0791
 9391SOL    HW139632   0.114   0.365  15.501 -0.1558 -1.4223 -0.2603
 9391SOL    HW239633   0.163   0.444  15.382  0.9191 -1.2532 -1.9540
 9392SOL     OW39634   1.826   1.904   2.316  0.1942 -0.4391  0.8415
 9392SOL    HW139635   1.797   1.842   2.383  1.2862  1.7586  3.3603
 9392SOL    HW239636   1.804   1.861   2.233  1.9908  0.3882 -0.0730
 9393SOL     OW39637   0.019   0.088   6.855  0.1201 -0.2571  0.0066
 9393SOL    HW139638   4.650   0.122   6.858  0.2456  0.2833 -3.0203
 9393SOL    HW239639   0.060   0.132   6.930  1.8950  1.4726 -1.9967
 9394SOL     OW39640   3.868   0.177  12.874 -0.3286 -0.0650 -0.1165
 9394SOL    HW139641   3.875   0.272  12.883  0.1852 -0.1000 -0.1585
 9394SOL    HW239642   3.961   0.155  12.883 -0.2471  0.6023  0.6709
 9395SOL     OW39643   1.878   0.240   2.775  0.5077  0.4133 -0.7117
 9395SOL    HW139644   1.933   0.189   2.834  0.5953  1.2843 -0.0489
 9395SOL    HW239645   1.858   0.169   2.713 -2.2181  2.0603 -1.7367
 9396SOL     OW39646   2.854   4.387   2.246 -0.4633  0.5362 -0.2585
 9396SOL    HW139647   2.786   4.367   2.310 -0.8975  2.8115 -0.0149
 9396SOL    HW239648   2.809   4.335   2.179 -0.1589 -2.3007  1.7178
 9397SOL     OW39649   0.646   2.239  13.395 -0.2607  0.9128 -0.0592
 9397SOL    HW139650   0.658   2.309  13.331 -2.1979  0.5420 -0.8293
 9397SOL    HW239651   0.588   2.288  13.454 -2.2431 -2.0188  0.3983
 9398SOL     OW39652   0.115   1.379   6.066 -0.4768 -0.0828 -0.0970
 9398SOL    HW139653   0.073   1.450   6.114 -0.3954  0.8221 -1.3573
 9398SOL    HW239654   0.156   1.428   5.994 -0.3165 -2.3140 -1.5236
 9399SOL     OW39655   1.512   2.576   2.652 -0.3593  0.6618 -0.3196
 9399SOL    HW139656   1.557   2.500   2.689  0.4556  0.5921 -1.4456
 9399SOL    HW239657   1.568   2.649   2.679 -0.0546  0.4601 -0.4025
 9400SOL     OW39658   3.658   2.783   2.385 -0.4551  0.1003 -0.2147
 9400SOL    HW139659   3.736   2.822   2.346 -1.4730  0.4712 -1.8883
 9400SOL    HW239660   3.687   2.695   2.410 -1.6997 -0.2696 -0.0491
 9401SOL     OW39661   0.647   3.070   8.048 -0.0658  0.2498 -0.0412
 9401SOL    HW139662   0.690   3.012   8.111  0.9269 -0.1166 -1.0660
 9401SOL    HW239663   0.596   3.131   8.102 -1.7937 -2.7197  1.6409
 9402SOL     OW39664   3.935   2.953   1.362 -0.3796  0.6122  0.1712
 9402SOL    HW139665   3.842   2.977   1.358 -0.9885 -1.9889 -1.4503
 9402SOL    HW239666   3.965   2.980   1.275  0.4520  1.6419  0.7779
 9403SOL     OW39667   2.340   1.471  14.952 -0.2031  0.1237  0.2498
 9403SOL    HW139668   2.325   1.392  14.900  0.8435  0.6251 -0.8243
 9403SOL    HW239669   2.425   1.486  14.911 -0.2212  0.7772  0.4518
 9404SOL     OW39670   2.660   4.685   7.752  0.2301 -0.6613 -0.4050
 9404SOL    HW139671   2.597   0.000   7.689  0.2369  1.1365  0.6023
 9404SOL    HW239672   2.745   4.675   7.709  0.5898 -0.7014  0.3186
 9405SOL     OW39673   3.243   0.699   8.972 -0.2396 -0.2585 -0.1220
 9405SOL    HW139674   3.211   0.728   8.886  2.4619  1.2432 -0.6270
 9405SOL    HW239675   3.336   0.704   8.950 -0.2070  2.3193  0.6161
 9406SOL     OW39676   0.988   0.805  15.873 -0.4539  0.2340  0.0793
 9406SOL    HW139677   1.037   0.843  15.800 -0.0605 -0.6834 -0.1228
 9406SOL    HW239678   0.927   0.874  15.900 -1.9275 -0.8595 -0.4636
 9407SOL     OW39679   2.038   0.653  15.760  0.0875  0.3136  0.0948
 9407SOL    HW139680   2.052   0.559  15.772  0.8256  0.5646  1.1584
 9407SOL    HW239681   2.125   0.690  15.774  0.6275 -0.6437 -0.7643
 9408SOL     OW39682   4.368   0.763   5.628 -0.9348 -0.1749 -0.0601
 9408SOL    HW139683   4.460   0.761   5.653 -0.3424  0.5631 -2.1321
 9408SOL    HW239684   4.341   0.685   5.675 -0.5130  1.2429  2.5217
 9409SOL     OW39685   2.275   1.627  13.230  0.0650  0.0913 -0.3903
 9409SOL    HW139686   2.267   1.717  13.263 -1.4585  0.9878 -3.2468
 9409SOL    HW239687   2.206   1.603  13.168  0.9445 -0.4790 -1.1391
 9410SOL     OW39688   2.046   1.433   6.739  0.6701  0.1344 -0.0784
 9410SOL    HW139689   1.951   1.438   6.733  0.9095  1.9736 -2.0287
 9410SOL    HW239690   2.075   1.521   6.719 -2.7585  1.8000  2.3182
 9411SOL     OW39691   4.475   4.531  11.255 -0.5055  0.1720 -0.2005
 9411SOL    HW139692   4.463   4.568  11.342 -1.2808  0.7387 -0.5514
 9411SOL    HW239693   4.569   4.532  11.235  0.1508  0.4855  2.9606
 9412SOL     OW39694   1.564   1.681   2.207  0.2691  0.4236  0.0662
 9412SOL    HW139695   1.635   1.740   2.180  1.8463 -0.9261  1.2465
 9412SOL    HW239696   1.607   1.607   2.250  3.3402  1.4708 -1.2264
 9413SOL     OW39697   0.471   1.427  11.122 -0.5020  0.0967  0.2610
 9413SOL    HW139698   0.473   1.487  11.196 -0.8065 -0.6470  0.8712
 9413SOL    HW239699   0.395   1.370  11.135 -2.0201  2.3986  1.3930
 9414SOL     OW39700   0.399   2.335   2.457 -0.4625 -0.0980  0.2170
 9414SOL    HW139701   0.460   2.403   2.429  0.7877 -1.4357 -0.3346
 9414SOL    HW239702   0.389   2.359   2.549 -0.1335  1.9673 -0.3049
 9415SOL     OW39703   0.616   1.474  14.298 -0.0546  0.4005  0.0825
 9415SOL    HW139704   0.552   1.406  14.278  0.4315  0.6133 -2.2401
 9415SOL    HW239705   0.595   1.533  14.225  0.3192 -1.0994 -1.2352
 9416SOL     OW39706   3.239   4.091  16.945 -0.2612 -0.6088 -0.1173
 9416SOL    HW139707   3.280   4.005  16.943  2.1461  0.5719 -1.3665
 9416SOL    HW239708   3.211   4.105  17.036 -3.3968 -1.7874 -0.8882
 9417SOL     OW39709   3.479   3.875   9.285 -0.3567  0.0681  0.1223
 9417SOL    HW139710   3.475   3.788   9.325 -1.2153  0.1984  0.3258
 9417SOL    HW239711   3.423   3.866   9.208 -1.5257 -1.7132  1.1807
 9418SOL     OW39712   2.595   4.646  16.576 -0.0914  0.3498  0.0324
 9418SOL    HW139713   2.608   4.704  16.651  0.0969  0.0259  0.2539
 9418SOL    HW239714   2.682   4.634  16.539 -0.7906 -1.9487 -0.8644
 9419SOL     OW39715   1.941   3.408  17.496  0.3570 -0.7327  0.2143
 9419SOL    HW139716   1.937   3.339  17.562 -2.2819 -0.8320 -0.0397
 9419SOL    HW239717   1.854   3.389  17.461  1.0540 -1.4700 -1.1032
 9420SOL     OW39718   1.362   3.915   6.949 -0.0629 -0.4143 -0.4107
 9420SOL    HW139719   1.282   3.948   6.907 -0.2885 -0.5676 -0.0935
 9420SOL    HW239720   1.367   3.825   6.918  0.4752 -0.9982  1.4031
 9421SOL     OW39721   0.152   3.696   6.957 -0.3820  0.5808  0.2430
 9421SOL    HW139722   0.173   3.656   6.872  0.3497 -0.6178  0.9847
 9421SOL    HW239723   0.057   3.706   6.952 -0.5860  0.1422  3.2515
 9422SOL     OW39724   0.934   4.592   7.500 -0.1080  0.1360 -0.0387
 9422SOL    HW139725   0.845   4.627   7.494  0.5924  1.6268 -1.5505
 9422SOL    HW239726   0.982   4.671   7.477 -1.7701  0.2648 -3.0892
 9423SOL     OW39727   4.222   0.549  15.857  0.9039 -0.3763  0.0732
 9423SOL    HW139728   4.273   0.602  15.918  3.1089 -2.5075  0.1009
 9423SOL    HW239729   4.163   0.492  15.905  1.8680 -0.5562  1.0421
 9424SOL     OW39730   2.686   2.951   2.821  0.1503 -0.2730  0.0327
 9424SOL    HW139731   2.620   2.936   2.889 -1.1595  0.8419 -1.0047
 9424SOL    HW239732   2.774   2.948   2.860  0.2280  2.1838  0.0432
 9425SOL     OW39733   0.310   0.814   9.153  0.2200 -0.3085  0.0906
 9425SOL    HW139734   0.313   0.779   9.242  0.4276 -2.1226 -0.6329
 9425SOL    HW239735   0.316   0.738   9.096  0.7747 -0.9447  0.9902
 9426SOL     OW39736   0.092   3.623   3.290 -0.5232 -0.5774  0.0733
 9426SOL    HW139737   0.011   3.576   3.270 -0.5131 -0.4234 -0.3120
 9426SOL    HW239738   0.056   3.709   3.311 -0.3274 -0.5843  0.4561
 9427SOL     OW39739   0.659   1.392   9.325 -0.2384 -0.1624  0.1305
 9427SOL    HW139740   0.750   1.369   9.346 -0.4872 -0.6213  0.7281
 9427SOL    HW239741   0.618   1.330   9.385 -0.2919 -0.1952  0.0588
 9428SOL     OW39742   1.135   0.215  11.117 -0.4270 -0.0907 -0.0220
 9428SOL    HW139743   1.214   0.213  11.171  0.5485  1.4506 -1.3948
 9428SOL    HW239744   1.062   0.205  11.179  0.4356  0.0249  1.0115
 9429SOL     OW39745   2.878   4.314   3.474  0.1022  0.2691  0.6132
 9429SOL    HW139746   2.957   4.358   3.441  1.3076 -1.5623  1.0885
 9429SOL    HW239747   2.912   4.258   3.543 -0.9262 -1.3755 -0.2384
 9430SOL     OW39748   4.005   2.141   6.162  0.0973 -0.1041  0.2788
 9430SOL    HW139749   4.055   2.199   6.104  0.1180 -2.2350 -1.8218
 9430SOL    HW239750   4.069   2.113   6.227  1.1563  1.6672 -0.0054
 9431SOL     OW39751   0.892   1.738   7.385 -0.2692 -0.0384  0.0464
 9431SOL    HW139752   0.846   1.721   7.467 -0.4823  0.7332  0.0932
 9431SOL    HW239753   0.904   1.653   7.342  1.7821  0.6350 -0.7072
 9432SOL     OW39754   0.477   1.666   2.930 -0.3058 -0.2281 -0.3543
 9432SOL    HW139755   0.395   1.651   2.884 -0.3598 -0.9349 -0.0279
 9432SOL    HW239756   0.530   1.596   2.893 -0.7901 -0.3496 -0.8183
 9433SOL     OW39757   1.499   1.043   5.833 -0.4815  0.5858  0.0328
 9433SOL    HW139758   1.441   1.074   5.764  0.7815 -0.7376 -1.6253
 9433SOL    HW239759   1.485   1.109   5.901 -0.8850  1.8545 -1.2926
 9434SOL     OW39760   4.329   0.932   8.227  0.4580  0.2125  0.3357
 9434SOL    HW139761   4.277   0.988   8.285 -1.0341  0.2572 -1.0531
 9434SOL    HW239762   4.267   0.862   8.210  0.0296  0.1276  2.2996
 9435SOL     OW39763   4.072   1.835   7.177  0.1264  0.1334  1.0803
 9435SOL    HW139764   4.102   1.765   7.235 -1.3524 -2.1214 -0.8625
 9435SOL    HW239765   3.999   1.799   7.127  0.0599 -0.1609  1.3870
 9436SOL     OW39766   3.820   3.181   4.329 -0.2636  0.0983  0.2981
 9436SOL    HW139767   3.762   3.256   4.341 -3.0684 -2.0150 -0.0592
 9436SOL    HW239768   3.759   3.109   4.345  2.5706 -2.2260  0.8063
 9437SOL     OW39769   0.391   0.761   1.021  0.1348 -0.5421 -0.7470
 9437SOL    HW139770   0.467   0.780   1.075 -2.6611 -0.7428  3.2985
 9437SOL    HW239771   0.414   0.824   0.953 -0.6879 -1.7636 -2.1548
 9438SOL     OW39772   0.274   1.127   9.904  0.4361  0.3583 -0.7248
 9438SOL    HW139773   0.281   1.077   9.985 -0.6589  0.0172 -0.8337
 9438SOL    HW239774   0.346   1.190   9.900  0.4647  0.4042  0.8553
 9439SOL     OW39775   0.898   3.015   4.255  0.4932 -0.4428  0.4749
 9439SOL    HW139776   0.895   2.920   4.268  1.3885 -0.2633  1.9912
 9439SOL    HW239777   0.816   3.045   4.294  0.4129  1.7666 -1.4404
 9440SOL     OW39778   4.008   0.820   1.874 -0.3449 -0.6976  0.6972
 9440SOL    HW139779   3.922   0.803   1.913 -1.1208  1.8446  0.0627
 9440SOL    HW239780   4.028   0.910   1.897 -1.8959  0.7867 -3.8023
 9441SOL     OW39781   3.772   1.915   4.940 -0.1064  0.0061 -0.0294
 9441SOL    HW139782   3.809   1.990   4.894 -0.7072  0.1043 -0.3574
 9441SOL    HW239783   3.849   1.876   4.982  0.0340 -0.5661 -0.8362
 9442SOL     OW39784   3.552   4.209   4.749 -0.4327 -0.2830 -0.0634
 9442SOL    HW139785   3.459   4.187   4.738 -0.4803 -1.6468  3.1639
 9442SOL    HW239786   3.578   4.186   4.838  0.9104  0.1368 -0.3587
 9443SOL     OW39787   1.820   1.987   8.063  0.2192  0.3983 -0.0003
 9443SOL    HW139788   1.782   2.073   8.047  0.6300  0.0428 -2.7737
 9443SOL    HW239789   1.860   1.993   8.150 -0.3905 -3.7354  0.5723
 9444SOL     OW39790   0.248   1.748   4.087  0.0208 -0.4309  0.1179
 9444SOL    HW139791   0.335   1.733   4.125  0.3736  1.1077 -0.0594
 9444SOL    HW239792   0.245   1.670   4.032  0.6267 -1.7933  2.0054
 9445SOL     OW39793   2.331   3.872   9.259 -0.6028 -0.4924  0.2347
 9445SOL    HW139794   2.272   3.947   9.270 -1.2223 -1.1159  1.1243
 9445SOL    HW239795   2.296   3.837   9.177 -0.4030 -2.8296  1.1393
 9446SOL     OW39796   1.437   0.978   5.040 -0.3101 -0.3245  0.1069
 9446SOL    HW139797   1.505   0.911   5.038  0.7330  0.7563 -0.5235
 9446SOL    HW239798   1.494   1.054   5.045 -0.3680 -0.3764  1.6532
 9447SOL     OW39799   0.082   0.469  14.962  0.2962  0.1652  0.0559
 9447SOL    HW139800   0.084   0.393  14.903 -0.8187  0.5816 -0.5258
 9447SOL    HW239801   0.139   0.526  14.910 -0.5986 -2.0936 -3.4352
 9448SOL     OW39802   2.226   2.826   6.523 -0.0866 -0.2402 -0.8548
 9448SOL    HW139803   2.164   2.862   6.587 -0.7664  0.1336 -1.7276
 9448SOL    HW239804   2.307   2.806   6.569 -0.3617 -1.6084 -0.9526
 9449SOL     OW39805   3.539   4.586  16.743  0.2751 -0.3342  0.3818
 9449SOL    HW139806   3.571   4.641  16.671  2.0602  0.3177  1.6620
 9449SOL    HW239807   3.541   4.502  16.698 -0.4549 -0.6443  0.9339
 9450SOL     OW39808   1.920   3.345   1.000  0.1655  0.4312  0.2169
 9450SOL    HW139809   1.975   3.387   1.066 -0.4251  2.6295 -0.6845
 9450SOL    HW239810   1.968   3.369   0.921  0.0209 -0.0705 -0.0218
 9451SOL     OW39811   1.137   0.318   4.751 -0.3554  0.8414  0.1441
 9451SOL    HW139812   1.118   0.305   4.844 -1.5708  0.6711 -0.1373
 9451SOL    HW239813   1.084   0.396   4.732  1.9930  2.8480  1.7173
 9452SOL     OW39814   0.699   3.292   7.131  0.3707 -0.3229  0.0852
 9452SOL    HW139815   0.613   3.334   7.128  1.2257  1.3743 -0.5267
 9452SOL    HW239816   0.705   3.272   7.224 -3.1399 -0.0476  0.3772
 9453SOL     OW39817   1.195   1.783  16.505 -0.2062  0.2101  0.2577
 9453SOL    HW139818   1.161   1.746  16.587  1.6275 -0.9904  0.4743
 9453SOL    HW239819   1.217   1.870  16.539 -0.2477 -0.2074  1.3464
 9454SOL     OW39820   3.751   0.513   5.996  0.0278  0.5473  0.3612
 9454SOL    HW139821   3.818   0.537   6.061  0.4483 -0.0532  0.1461
 9454SOL    HW239822   3.710   0.598   5.980  1.1389  0.8360 -0.9189
 9455SOL     OW39823   2.495   2.369   8.059 -0.1267  0.3685 -0.0584
 9455SOL    HW139824   2.444   2.309   8.113 -1.0684  2.7395  1.7059
 9455SOL    HW239825   2.473   2.456   8.093 -0.0437 -0.1452  1.3128
 9456SOL     OW39826   3.844   0.357   7.361 -0.3834 -0.4496 -0.3619
 9456SOL    HW139827   3.915   0.420   7.355  1.6145 -2.4499  2.4677
 9456SOL    HW239828   3.878   0.283   7.311  0.6098  0.4258 -0.9766
 9457SOL     OW39829   2.928   4.117  11.453  0.0607  0.2008 -0.1925
 9457SOL    HW139830   2.870   4.117  11.376  1.3366 -0.1136 -1.1539
 9457SOL    HW239831   3.010   4.146  11.413 -0.0576  0.2495 -0.4031
 9458SOL     OW39832   2.229   0.207   9.067  0.3536 -0.4798  0.1350
 9458SOL    HW139833   2.238   0.143   8.996  1.4677  1.4985 -1.5233
 9458SOL    HW239834   2.299   0.191   9.129 -0.5324 -1.1894  0.9584
 9459SOL     OW39835   1.117   1.013   0.023  0.0553  0.0810  0.2507
 9459SOL    HW139836   1.117   0.917   0.026  0.0806  0.0419 -0.9425
 9459SOL    HW239837   1.191   1.024  17.647  1.7316  1.3591  2.5667
 9460SOL     OW39838   2.989   1.846   8.987  0.0815  0.7288  0.2989
 9460SOL    HW139839   2.936   1.921   9.014 -0.5435  0.0332  1.0597
 9460SOL    HW239840   3.029   1.863   8.902  0.6824 -0.3192  0.3716
 9461SOL     OW39841   2.086   2.780  16.634 -0.2995 -0.2811 -0.2111
 9461SOL    HW139842   2.161   2.838  16.623 -2.2392  2.0104 -1.2368
 9461SOL    HW239843   2.096   2.734  16.718  0.5662  0.1795 -0.0704
 9462SOL     OW39844   2.558   1.501   8.012  0.4359  0.7110  0.0967
 9462SOL    HW139845   2.540   1.557   8.087 -2.1526  1.2367 -0.9284
 9462SOL    HW239846   2.471   1.463   8.003  1.5959 -2.1630  0.9194
 9463SOL     OW39847   3.940   0.435  11.296 -0.0634  0.3912 -0.4451
 9463SOL    HW139848   3.988   0.464  11.220  0.3294 -1.4462 -0.9018
 9463SOL    HW239849   4.006   0.420  11.363  0.4545  1.0752 -0.8087
 9464SOL     OW39850   1.172   3.150  16.092  0.3808  0.2723  0.2248
 9464SOL    HW139851   1.258   3.189  16.109  0.6647 -0.5634  0.7477
 9464SOL    HW239852   1.128   3.197  16.163  0.0649 -0.8179  0.7628
 9465SOL     OW39853   3.801   1.197  17.387  0.2949 -0.4969 -0.2207
 9465SOL    HW139854   3.793   1.279  17.436 -1.2326  1.1550 -3.2550
 9465SOL    HW239855   3.820   1.235  17.301 -1.3059  1.6756  0.3970
 9466SOL     OW39856   0.166   3.428   0.150 -0.3671 -0.2200  0.0518
 9466SOL    HW139857   0.260   3.420   0.165 -0.2732  0.2274 -0.3395
 9466SOL    HW239858   0.149   3.342   0.112  4.0632 -0.7431 -0.7335
 9467SOL     OW39859   0.703   0.622  16.525  0.1318 -0.4043  0.1749
 9467SOL    HW139860   0.626   0.575  16.557  0.7173 -0.3196  1.6996
 9467SOL    HW239861   0.771   0.571  16.568  1.8680  1.3007 -0.5695
 9468SOL     OW39862   0.505   0.624   2.804 -0.4337  0.5910 -0.6481
 9468SOL    HW139863   0.538   0.534   2.805  0.7163  0.9968 -2.2327
 9468SOL    HW239864   0.588   0.671   2.797 -0.5142  0.8108 -0.1480
 9469SOL     OW39865   4.427   1.615   6.569  0.2483  0.1047  0.2528
 9469SOL    HW139866   4.493   1.675   6.534 -0.9247 -0.0926 -2.3236
 9469SOL    HW239867   4.405   1.667   6.646 -1.7546  1.4989 -1.2395
 9470SOL     OW39868   4.481   2.610   9.782  0.4915  0.1081 -0.5049
 9470SOL    HW139869   4.566   2.569   9.796 -0.5499 -1.7540  0.3925
 9470SOL    HW239870   4.491   2.669   9.707  0.9903 -0.5070 -0.9245
 9471SOL     OW39871   2.442   1.233   7.420  0.6463  0.3794 -0.0380
 9471SOL    HW139872   2.457   1.241   7.326 -0.7679 -2.1023 -0.4891
 9471SOL    HW239873   2.379   1.161   7.422 -0.1059  1.0842  1.2473
 9472SOL     OW39874   2.160   1.115   5.611 -0.3265 -0.3837  0.4551
 9472SOL    HW139875   2.232   1.077   5.661  0.2635 -1.0932 -0.9380
 9472SOL    HW239876   2.084   1.059   5.627 -0.1802 -0.4982  0.7440
 9473SOL     OW39877   0.075   1.427  13.956 -0.2366  0.8471  0.2360
 9473SOL    HW139878   0.119   1.394  14.034 -1.4262 -0.5143  0.3419
 9473SOL    HW239879   0.138   1.394  13.893 -0.9984 -0.0272 -0.0718
 9474SOL     OW39880   1.633   4.556   4.815  0.8889  0.2431 -0.0369
 9474SOL    HW139881   1.638   4.474   4.865 -0.8048  0.9793  1.3726
 9474SOL    HW239882   1.718   4.595   4.836  1.2891 -1.3452  1.3171
 9475SOL     OW39883   0.932   1.762   1.597 -0.2549 -0.7049  0.3109
 9475SOL    HW139884   0.850   1.746   1.551  0.1422 -2.1334  0.1010
 9475SOL    HW239885   0.999   1.775   1.530 -1.2048 -0.0415 -0.5173
 9476SOL     OW39886   2.283   0.164   0.976  0.3871 -0.4091 -0.2493
 9476SOL    HW139887   2.332   0.246   0.975  0.2933 -0.3338  1.0131
 9476SOL    HW239888   2.200   0.177   0.930  0.3278 -0.6526 -0.2109
 9477SOL     OW39889   4.470   3.687   2.889  0.2338 -0.1824 -0.3556
 9477SOL    HW139890   4.537   3.726   2.945 -0.0822 -0.4400  0.1968
 9477SOL    HW239891   4.390   3.734   2.913  0.5066 -0.6155  1.4035
 9478SOL     OW39892   0.152   2.337  16.908  0.2902  0.0200 -0.5293
 9478SOL    HW139893   0.112   2.263  16.953 -0.8271  0.2118 -1.2088
 9478SOL    HW239894   0.073   2.363  16.861 -0.0182  0.6956  0.3509
 9479SOL     OW39895   2.604   4.645   8.016  0.1425 -0.5950 -0.4804
 9479SOL    HW139896   2.616   4.673   7.925 -0.7596  1.9310  0.1679
 9479SOL    HW239897   2.686   4.669   8.059  0.5387 -0.6632 -1.1999
 9480SOL     OW39898   4.268   1.557   9.065  0.6685 -0.1303  0.1095
 9480SOL    HW139899   4.288   1.465   9.082 -1.1631 -0.8185 -1.4016
 9480SOL    HW239900   4.343   1.603   9.102  0.9432 -0.3493 -0.1775
 9481SOL     OW39901   0.130   4.265   2.430 -0.2430  0.4536  0.1612
 9481SOL    HW139902   0.073   4.257   2.354 -0.2575  2.1497  0.0017
 9481SOL    HW239903   0.091   4.207   2.495  1.2052 -0.7099 -0.0074
 9482SOL     OW39904   0.199   1.667  16.962 -0.1112  0.3217  0.6017
 9482SOL    HW139905   0.182   1.755  16.927 -0.6022  0.5673  1.4609
 9482SOL    HW239906   0.269   1.631  16.908  0.5839 -0.2157  1.8657
 9483SOL     OW39907   0.003   0.273   2.512 -0.0360 -0.1418  0.2443
 9483SOL    HW139908   0.027   0.342   2.573  1.7493 -0.2310 -0.3843
 9483SOL    HW239909   4.716   0.195   2.567 -0.2602 -0.8116 -0.7359
 9484SOL     OW39910   2.186   1.505  11.273 -0.2692 -0.0257 -0.8876
 9484SOL    HW139911   2.133   1.481  11.349  0.1814  0.2942 -0.4767
 9484SOL    HW239912   2.246   1.571  11.307  0.7539 -1.6235  0.4180
 9485SOL     OW39913   2.771   3.669   6.348  0.1256  0.3455 -0.1340
 9485SOL    HW139914   2.778   3.641   6.256  2.0909 -2.9369  1.0418
 9485SOL    HW239915   2.726   3.596   6.390  1.7431 -1.5910 -1.7577
 9486SOL     OW39916   3.998   3.909   0.341  0.1123  0.8228  0.0826
 9486SOL    HW139917   3.989   3.898   0.246 -0.3871  0.7881  0.1363
 9486SOL    HW239918   3.947   3.988   0.358 -1.0440  0.1997 -0.5022
 9487SOL     OW39919   2.001   0.105  12.196  0.9268  0.5540  0.8111
 9487SOL    HW139920   2.006   0.035  12.131 -0.4257  1.2988 -0.0987
 9487SOL    HW239921   1.909   0.131  12.192  0.2940 -1.6818  0.9428
 9488SOL     OW39922   0.792   1.359  10.578  0.0692 -0.2527  0.1463
 9488SOL    HW139923   0.881   1.392  10.563 -0.7870  1.8058 -0.2809
 9488SOL    HW239924   0.806   1.294  10.648  1.8030  0.5110  0.5244
 9489SOL     OW39925   2.020   2.001   9.367 -0.4117 -0.0019 -0.5184
 9489SOL    HW139926   2.064   2.085   9.360 -0.3309 -0.0090 -0.1200
 9489SOL    HW239927   2.071   1.964   9.439 -0.6624 -0.0944 -0.3860
 9490SOL     OW39928   1.086   4.720   5.096 -0.2072  0.0192 -0.1974
 9490SOL    HW139929   1.059   4.629   5.109 -0.8453  0.0000 -1.6500
 9490SOL    HW239930   1.179   4.697   5.087  0.4845  1.2884  3.8387
 9491SOL     OW39931   1.426   4.111   7.576  0.3272 -0.0520 -0.1532
 9491SOL    HW139932   1.468   4.026   7.572 -0.9948 -0.7330  0.4822
 9491SOL    HW239933   1.477   4.159   7.641  3.1376 -2.5764 -0.5355
 9492SOL     OW39934   0.293   3.898   6.857 -0.7750 -0.2577  0.7352
 9492SOL    HW139935   0.241   3.964   6.811  1.3115  0.8211 -0.0756
 9492SOL    HW239936   0.221   3.855   6.904 -1.4671 -0.5108 -0.5369
 9493SOL     OW39937   0.016   0.972   7.083 -0.1120  0.5077  0.2336
 9493SOL    HW139938   0.107   0.943   7.071 -0.0195  0.9662 -0.1698
 9493SOL    HW239939   4.687   0.951   7.003 -0.2802 -0.8368  0.6916
 9494SOL     OW39940   1.379   2.223   7.819  0.3678 -0.2451  0.4499
 9494SOL    HW139941   1.407   2.256   7.733 -1.4931 -1.3286 -0.5773
 9494SOL    HW239942   1.286   2.226   7.797  0.9767 -2.3285 -2.4797
 9495SOL     OW39943   0.583   1.293   7.765 -1.0643  1.0480 -0.3242
 9495SOL    HW139944   0.609   1.329   7.680  1.5317  0.0017  0.0265
 9495SOL    HW239945   0.654   1.299   7.829 -2.5456  1.4322  1.2628
 9496SOL     OW39946   1.489   3.500   3.889 -0.0422  0.0441 -0.1865
 9496SOL    HW139947   1.560   3.539   3.940 -0.6055 -0.8429  1.3025
 9496SOL    HW239948   1.529   3.418   3.858  0.7299 -1.1070  3.8299
 9497SOL     OW39949   2.548   3.533  10.942  0.1769 -0.1543 -0.2905
 9497SOL    HW139950   2.493   3.599  10.983 -1.7471  0.0708 -3.1846
 9497SOL    HW239951   2.631   3.547  10.987  0.5718 -0.6653 -0.8480
 9498SOL     OW39952   3.149   0.147   2.954  0.5543  0.1405 -0.1398
 9498SOL    HW139953   3.108   0.204   3.019  0.0233 -0.0556 -0.3028
 9498SOL    HW239954   3.226   0.198   2.928  1.6966 -0.5144  1.9543
 9499SOL     OW39955   3.129   1.313   5.785  0.1547 -0.2075  0.1557
 9499SOL    HW139956   3.067   1.260   5.735  0.8379  0.4583 -1.4089
 9499SOL    HW239957   3.084   1.398   5.785 -1.3127 -0.9927  0.9058
 9500SOL     OW39958   4.345   0.324  16.444  0.0993 -0.0213  0.2903
 9500SOL    HW139959   4.420   0.342  16.500  0.4588 -3.1989  0.8123
 9500SOL    HW239960   4.324   0.234  16.469  1.1670 -0.0714  1.0065
 9501SOL     OW39961   0.033   4.501  12.723  0.3293  0.2438  0.3241
 9501SOL    HW139962   0.063   4.572  12.779 -1.1545  0.7437  0.4985
 9501SOL    HW239963   4.668   4.487  12.764  0.4302 -0.8882  0.1440
 9502SOL     OW39964   3.463   4.588   5.263 -0.1098 -0.6992  0.0188
 9502SOL    HW139965   3.402   4.515   5.273  0.0885 -0.8349  0.2320
 9502SOL    HW239966   3.398   4.650   5.296  0.7590 -1.5151  3.2199
 9503SOL     OW39967   3.757   2.255   5.951 -0.3238  0.3925 -0.0207
 9503SOL    HW139968   3.688   2.189   5.944 -1.2116  1.4412 -1.3256
 9503SOL    HW239969   3.829   2.224   5.896  1.8724 -0.0824  3.1279
 9504SOL     OW39970   3.605   3.378  16.919 -0.3351 -0.3062  0.5240
 9504SOL    HW139971   3.673   3.434  16.955  0.8483 -0.9583 -0.7383
 9504SOL    HW239972   3.624   3.299  16.970  0.6639 -1.4762 -1.6809
 9505SOL     OW39973   1.789   1.729   4.683  0.1160 -0.8094 -0.1821
 9505SOL    HW139974   1.746   1.708   4.600  2.7099  1.0331 -2.0037
 9505SOL    HW239975   1.831   1.644   4.694 -1.6166 -1.7265 -0.7326
 9506SOL     OW39976   0.328   3.926   7.546 -0.6316 -0.0470 -0.0988
 9506SOL    HW139977   0.414   3.968   7.542  0.1928 -1.8915 -1.3374
 9506SOL    HW239978   0.333   3.847   7.494  0.7024  1.0944 -1.6893
 9507SOL     OW39979   4.098   2.455   2.474 -0.1254 -0.4776 -0.2303
 9507SOL    HW139980   4.186   2.491   2.477 -0.6179  0.7728 -0.7664
 9507SOL    HW239981   4.117   2.362   2.468  0.7987 -0.2175 -1.2912
 9508SOL     OW39982   2.705   1.358   5.433 -0.1986  0.2502  0.2519
 9508SOL    HW139983   2.621   1.313   5.427  0.6308 -1.3662  0.8561
 9508SOL    HW239984   2.764   1.282   5.430  1.5267  1.6293 -1.1690
 9509SOL     OW39985   0.966   0.101  10.950 -0.1969  0.5887  0.0826
 9509SOL    HW139986   1.003   0.018  10.922 -1.7037  0.3107 -1.1174
 9509SOL    HW239987   1.037   0.139  11.001 -0.2443  1.9081 -0.8258
 9510SOL     OW39988   0.654   2.381   3.757  0.0474 -0.7043  0.1564
 9510SOL    HW139989   0.658   2.419   3.669  0.2617  1.6432  1.1901
 9510SOL    HW239990   0.562   2.358   3.769 -0.1833 -1.0585 -2.4318
 9511SOL     OW39991   1.057   0.986   0.300  0.2257 -0.0126  0.1236
 9511SOL    HW139992   1.085   1.028   0.219 -2.1330  0.1841 -0.5884
 9511SOL    HW239993   1.005   1.057   0.337  0.7794  0.5869 -0.2336
 9512SOL     OW39994   3.831   0.005   8.955  0.6030 -0.1271 -0.3196
 9512SOL    HW139995   3.867   4.649   8.999 -1.0500  0.1820  1.5410
 9512SOL    HW239996   3.795   0.064   9.021 -1.7957 -1.3667 -0.4978
 9513SOL     OW39997   2.217   0.872   3.589  0.1511  0.4247 -0.3790
 9513SOL    HW139998   2.271   0.806   3.545  2.2183  2.5268 -0.9733
 9513SOL    HW239999   2.251   0.953   3.552  0.3594 -0.4849 -2.1841
 9514SOL     OW40000   3.166   4.329   2.265 -0.1338  0.3779 -0.2509
 9514SOL    HW140001   3.090   4.365   2.219 -1.3566 -0.8167  0.8312
 9514SOL    HW240002   3.215   4.297   2.189  1.1355  0.0762  0.6883
 9515SOL     OW40003   1.347   3.137   1.326  0.5818  0.2249  0.0151
 9515SOL    HW140004   1.282   3.080   1.285 -0.3434 -0.3172  2.2235
 9515SOL    HW240005   1.362   3.203   1.258 -2.1113  1.3288  0.4775
 9516SOL     OW40006   3.626   4.035  11.156  0.6658 -0.1230 -0.8894
 9516SOL    HW140007   3.648   3.943  11.140 -0.4940 -0.5607 -0.0152
 9516SOL    HW240008   3.638   4.047  11.250 -0.2182  0.7012 -0.8879
 9517SOL     OW40009   2.524   3.800   5.623  0.8874  0.3866 -0.1279
 9517SOL    HW140010   2.534   3.726   5.683 -1.9676  0.6520  0.6621
 9517SOL    HW240011   2.480   3.858   5.686  2.9263  0.9012  0.8354
 9518SOL     OW40012   3.513   4.144   9.309  0.0461  0.2809 -0.2519
 9518SOL    HW140013   3.517   4.050   9.294 -0.3031  0.6314 -2.5748
 9518SOL    HW240014   3.424   4.162   9.278  0.5800  1.5077 -1.1106
 9519SOL     OW40015   2.973   2.057   4.688 -0.2795 -0.0397  0.3204
 9519SOL    HW140016   2.946   1.969   4.663 -0.2564 -0.0053  0.1726
 9519SOL    HW240017   2.922   2.109   4.625 -1.2904  1.5454  2.4258
 9520SOL     OW40018   3.912   2.911   2.304 -0.4586 -0.4434  0.5920
 9520SOL    HW140019   3.941   2.887   2.216  2.3715 -0.9089  1.6454
 9520SOL    HW240020   3.971   2.985   2.319  0.3740 -0.6911 -1.5178
 9521SOL     OW40021   2.300   0.852  12.121  0.0694  0.7058  0.3513
 9521SOL    HW140022   2.237   0.924  12.107 -1.2027 -0.2457  1.1912
 9521SOL    HW240023   2.379   0.901  12.142 -0.9183  2.5164 -0.1301
 9522SOL     OW40024   2.104   2.510  13.578  0.4457  0.2424 -0.0014
 9522SOL    HW140025   2.148   2.465  13.506  0.7872 -1.7042  1.3939
 9522SOL    HW240026   2.080   2.446  13.646 -0.8729  0.7938  0.0597
 9523SOL     OW40027   0.367   1.637   6.969  0.2672 -0.2223 -0.2896
 9523SOL    HW140028   0.368   1.544   6.990  1.4178 -0.2330 -0.3705
 9523SOL    HW240029   0.407   1.683   7.043 -0.6050 -0.6475  0.4420
 9524SOL     OW40030   1.625   1.738   8.755  0.2907  0.6675 -0.0262
 9524SOL    HW140031   1.640   1.664   8.813 -2.4849  1.8901  2.2627
 9524SOL    HW240032   1.646   1.699   8.670  0.5472 -1.6081  1.0867
 9525SOL     OW40033   1.916   4.062   5.158 -0.1019  0.2006 -0.0398
 9525SOL    HW140034   1.842   4.103   5.205 -1.4443  1.7636 -3.5095
 9525SOL    HW240035   1.940   3.983   5.206 -0.2141  0.5130  0.5460
 9526SOL     OW40036   0.958   3.484   8.782 -0.7142 -0.5488 -0.7994
 9526SOL    HW140037   1.052   3.494   8.799 -0.8354 -1.5290  0.4240
 9526SOL    HW240038   0.938   3.556   8.722 -1.7130 -0.1487  0.0362
 9527SOL     OW40039   3.060   0.725   9.551  0.0396 -0.1364 -0.2990
 9527SOL    HW140040   3.107   0.648   9.583  2.3539  1.5167  0.3152
 9527SOL    HW240041   3.113   0.762   9.481  0.4417  0.3221  0.2515
 9528SOL     OW40042   2.986   3.262  11.444  0.4586 -0.1976 -0.0199
 9528SOL    HW140043   3.056   3.323  11.466  0.6062 -0.2888 -0.2408
 9528SOL    HW240044   2.955   3.246  11.534 -0.8403  0.6536 -0.3123
 9529SOL     OW40045   3.873   1.279   5.907 -0.8401 -0.0253 -0.0783
 9529SOL    HW140046   3.831   1.193   5.897  0.0714 -0.4129 -0.5881
 9529SOL    HW240047   3.963   1.253   5.887  0.0619  1.9494  1.4192
 9530SOL     OW40048   2.267   0.460   7.856 -0.0836  0.1860  0.6676
 9530SOL    HW140049   2.335   0.507   7.905 -1.5917  1.3607  1.6317
 9530SOL    HW240050   2.213   0.427   7.928 -0.9696 -1.1141 -0.5821
 9531SOL     OW40051   4.460   1.616  13.838  0.4807  0.5269  0.1549
 9531SOL    HW140052   4.462   1.542  13.900 -1.2175  1.0473  0.8287
 9531SOL    HW240053   4.552   1.642  13.841  0.5829  0.3036 -1.3490
 9532SOL     OW40054   2.221   0.466   1.903  0.3883  0.0692 -0.0817
 9532SOL    HW140055   2.266   0.530   1.847 -1.2723  2.2377  1.0498
 9532SOL    HW240056   2.131   0.495   1.920 -0.3231 -1.7638 -0.7712
 9533SOL     OW40057   2.001   3.081   7.925  0.1675 -0.0929  0.0431
 9533SOL    HW140058   1.977   3.018   7.992  0.9199  0.2556  0.6395
 9533SOL    HW240059   1.933   3.055   7.862 -0.7852  0.5242  0.8070
 9534SOL     OW40060   4.296   0.296   4.193  0.4420 -0.1942 -0.4015
 9534SOL    HW140061   4.373   0.280   4.138  1.3188 -0.4012  0.8882
 9534SOL    HW240062   4.234   0.239   4.147  0.4936 -1.6902  1.3625
 9535SOL     OW40063   2.055   1.275   6.451  0.5554  0.1462  0.5363
 9535SOL    HW140064   2.105   1.336   6.506  1.1658 -0.8409  1.0724
 9535SOL    HW240065   2.092   1.191   6.478  0.1034  0.2554  1.5001
 9536SOL     OW40066   4.354   0.588   5.887 -0.2253 -0.0698 -0.7239
 9536SOL    HW140067   4.329   0.557   5.974  0.6792  0.9767 -0.0919
 9536SOL    HW240068   4.305   0.526   5.834 -2.4650  0.5436  0.6062
 9537SOL     OW40069   0.318   4.434   1.357  0.1422 -0.4408  0.2524
 9537SOL    HW140070   0.396   4.396   1.396  0.5856  1.0674  0.8584
 9537SOL    HW240071   0.254   4.447   1.427  0.9807 -1.5984  1.2144
 9538SOL     OW40072   2.193   2.229  16.641  0.6804  0.1972 -0.5167
 9538SOL    HW140073   2.179   2.294  16.710  2.6352  0.3813 -0.3169
 9538SOL    HW240074   2.235   2.166  16.700  1.1554  1.1169  0.1301
 9539SOL     OW40075   2.883   1.520  17.547  0.2131 -0.5428  0.5010
 9539SOL    HW140076   2.911   1.493  17.635  2.5112 -0.8661 -0.3138
 9539SOL    HW240077   2.928   1.454  17.495  2.1989 -0.1904  1.7625
 9540SOL     OW40078   2.997   1.129   3.595  0.4874  0.1896 -0.0548
 9540SOL    HW140079   3.030   1.219   3.600 -0.0633  0.2982  1.7912
 9540SOL    HW240080   2.968   1.115   3.685 -1.1261 -0.4143 -0.6672
 9541SOL     OW40081   0.555   4.657   5.621 -0.1954 -0.3350 -0.3803
 9541SOL    HW140082   0.574   4.719   5.691 -1.7971 -3.4483  2.8354
 9541SOL    HW240083   0.459   4.662   5.623 -0.2236 -1.6002  1.6830
 9542SOL     OW40084   2.111   1.698   9.193  0.1542 -0.1697 -0.0743
 9542SOL    HW140085   2.091   1.630   9.257 -0.0354 -0.4416 -0.4213
 9542SOL    HW240086   2.173   1.738   9.254 -0.6806 -0.1699  0.7678
 9543SOL     OW40087   2.668   1.471   5.902  0.4001 -0.0191  0.3395
 9543SOL    HW140088   2.690   1.409   5.971 -0.6088 -1.7967 -0.9120
 9543SOL    HW240089   2.753   1.473   5.857 -0.4923  2.4305 -1.1783
 9544SOL     OW40090   2.698   0.343   4.722 -0.5632 -0.7612  0.1960
 9544SOL    HW140091   2.636   0.271   4.721 -0.4630 -0.8263 -0.6771
 9544SOL    HW240092   2.751   0.319   4.646 -2.0190  1.7353 -1.6225
 9545SOL     OW40093   0.708   0.057   2.340 -1.0794 -0.3058  0.0478
 9545SOL    HW140094   0.695   0.044   2.245 -0.3786  3.6969 -0.5768
 9545SOL    HW240095   0.787   0.005   2.355 -0.4833 -0.4336 -3.3433
 9546SOL     OW40096   1.311   0.306   3.477  0.3386 -0.3779  0.1816
 9546SOL    HW140097   1.288   0.216   3.457  0.0137 -0.1493 -0.4661
 9546SOL    HW240098   1.265   0.355   3.409  0.3543 -0.6807 -0.0465
 9547SOL     OW40099   4.197   3.579   8.817  0.3839  0.2232 -0.1190
 9547SOL    HW140100   4.208   3.625   8.900  0.5407 -0.5001  0.2677
 9547SOL    HW240101   4.107   3.606   8.798 -0.8997 -2.5405  1.9662
 9548SOL     OW40102   3.273   3.430   1.959 -0.0416 -0.2516 -0.7539
 9548SOL    HW140103   3.237   3.374   1.890  0.2933  0.5303 -1.5607
 9548SOL    HW240104   3.278   3.376   2.039  1.8074  0.3554 -0.4605
 9549SOL     OW40105   4.477   2.411  15.961 -0.0319  0.0403  0.3630
 9549SOL    HW140106   4.396   2.453  15.933  0.5355  1.3442  0.6336
 9549SOL    HW240107   4.470   2.326  15.919  2.4892  0.6822 -1.4175
 9550SOL     OW40108   4.543   3.668  15.778  1.0777 -0.5303 -0.1211
 9550SOL    HW140109   4.469   3.611  15.799  2.0438 -1.6299  0.3304
 9550SOL    HW240110   4.557   3.620  15.697 -0.9856 -1.2712 -0.0465
 9551SOL     OW40111   1.736   2.695   1.175 -0.4727  0.7730 -0.1095
 9551SOL    HW140112   1.743   2.609   1.217 -1.2388  0.4893 -0.5681
 9551SOL    HW240113   1.773   2.678   1.089 -1.2346  0.4832 -0.3793
 9552SOL     OW40114   0.643   3.592   8.752  0.7102  0.3603 -0.1717
 9552SOL    HW140115   0.600   3.519   8.708  0.9884  0.2479 -0.2613
 9552SOL    HW240116   0.723   3.591   8.699  0.2016  1.5376 -0.9864
 9553SOL     OW40117   1.994   2.172   8.560 -0.0251 -0.2259  0.1728
 9553SOL    HW140118   1.931   2.241   8.539  0.4882  0.3199  0.4113
 9553SOL    HW240119   2.013   2.198   8.651  0.0944  2.7431 -0.6889
 9554SOL     OW40120   2.923   1.515   5.824  0.0169 -0.4719  0.3987
 9554SOL    HW140121   2.917   1.602   5.863  0.0899  0.3229 -1.3816
 9554SOL    HW240122   2.910   1.535   5.732  0.8991 -1.4810  0.0598
 9555SOL     OW40123   0.336   4.520   7.577  0.2958  0.2157  0.4212
 9555SOL    HW140124   0.347   4.497   7.670  1.5333 -2.1397 -0.3062
 9555SOL    HW240125   0.387   4.452   7.533 -0.9558 -0.9140  0.7114
 9556SOL     OW40126   4.709   0.866  15.141  0.1494  0.4722  0.2085
 9556SOL    HW140127   4.648   0.937  15.118  1.7648  1.6894 -0.3434
 9556SOL    HW240128   0.069   0.915  15.123  0.9517 -1.1936 -0.6195
 9557SOL     OW40129   0.080   1.914   5.080 -0.6951  0.4314  0.5957
 9557SOL    HW140130   0.022   1.871   5.143 -0.6204  3.7164  2.9069
 9557SOL    HW240131   0.115   1.842   5.028 -1.0303  0.7421 -0.0558
 9558SOL     OW40132   0.967   2.985   6.932  0.0160 -0.1552 -0.2116
 9558SOL    HW140133   0.983   2.909   6.989 -0.3881 -0.2450 -0.2189
 9558SOL    HW240134   0.872   2.999   6.935 -0.0015 -0.4405  0.5992
 9559SOL     OW40135   3.850   3.344   1.215 -0.0209  0.3856  0.2246
 9559SOL    HW140136   3.782   3.282   1.189 -0.5980  1.8720 -1.8481
 9559SOL    HW240137   3.858   3.317   1.306 -0.4687 -0.2886  0.0708
 9560SOL     OW40138   2.392   2.147   9.350 -0.4980 -0.0002  0.1466
 9560SOL    HW140139   2.396   2.101   9.434  0.2573 -3.0976 -1.5788
 9560SOL    HW240140   2.305   2.186   9.343  0.2764  1.5959 -0.4826
 9561SOL     OW40141   2.725   2.367   3.277 -0.3887  0.1195  0.2727
 9561SOL    HW140142   2.761   2.302   3.217  3.1310  0.6360  1.8088
 9561SOL    HW240143   2.636   2.339   3.298 -0.2852 -0.0496  0.4833
 9562SOL     OW40144   0.480   4.550   0.379  0.4673 -0.2599 -0.4819
 9562SOL    HW140145   0.444   4.535   0.466 -0.5632  1.1576 -0.6712
 9562SOL    HW240146   0.434   4.630   0.352  0.1930 -0.3574 -0.2977
 9563SOL     OW40147   3.167   0.120  16.884  0.0593  0.2582 -0.0912
 9563SOL    HW140148   3.176   0.215  16.887 -1.2994  0.4337 -1.3761
 9563SOL    HW240149   3.254   0.089  16.860 -0.0831 -0.1049 -0.1304
 9564SOL     OW40150   2.254   4.298   3.516  0.5129 -0.1051  0.6909
 9564SOL    HW140151   2.174   4.333   3.476  0.9835  1.6790  1.2828
 9564SOL    HW240152   2.280   4.238   3.446  0.9744  0.7026  0.1695
 9565SOL     OW40153   1.006   0.547   5.859 -0.1067 -0.1959 -0.2969
 9565SOL    HW140154   0.928   0.564   5.912 -1.2505 -0.9311 -1.7032
 9565SOL    HW240155   1.050   0.477   5.906  1.4204  2.3013  1.9717
   4.72047   4.72047  17.68443
